<event>
 9    2  0.3791909E-005  0.3366362E+03  0.7546771E-02  0.1107723E+00
          2   -1    0    0  502    0  0.00000000000E+00  0.00000000000E+00  0.85333842589E+03  0.85333842589E+03  0.00000000000E+00 0. -1.
         -1   -1    0    0    0  501 -0.00000000000E+00 -0.00000000000E+00 -0.26974518137E+03  0.26974518137E+03  0.00000000000E+00 0.  1.
         24    2    1    2    0    0 -0.66309767047E+02 -0.46748174787E+02 -0.55131065906E+02  0.13026421857E+03  0.85714381293E+02 0.  0.
         23    2    1    2    0    0 -0.90758597097E+02  0.32829250538E+03  0.10087988600E+03  0.36575136527E+03  0.87087414500E+02 0.  0.
        -11    1    3    3    0    0 -0.80482763554E+02 -0.57454858537E+02 -0.39096031980E+02  0.10633454620E+03  0.00000000000E+00 0.  1.
         12    1    3    3    0    0  0.14172996506E+02  0.10706683750E+02 -0.16035033926E+02  0.23929672373E+02  0.00000000000E+00 0. -1.
        -11    1    4    4    0    0 -0.29092426777E+02  0.13555529093E+03 -0.21761821500E+01  0.13865908540E+03  0.00000000000E+00 0.  1.
         11    1    4    4    0    0 -0.61666170319E+02  0.19273721445E+03  0.10305606815E+03  0.22709227987E+03  0.00000000000E+00 0. -1.
         21    1    1    2  502  501  0.15706836414E+03 -0.28154433059E+03  0.53784442442E+03  0.62706802341E+03  0.00000000000E+00 0. -1.
<scales pt_clust_5="13000.00000" pt_clust_6="13000.00000" pt_clust_7="13000.00000" pt_clust_8="13000.00000" pt_clust_9="325.17645"></scales>
<clustering>
<clus scale="   85.714">  5  6 -1 -1</clus>
<clus scale="   87.087">  7  8 -1 -1</clus>
<clus scale="  118.023">  2  5  1 -1</clus>
<clus scale="  325.176">  1  9  2 -1</clus>
<clus scale="  325.176">  1  5  2 -1</clus>
</clustering>
</event>
<event>
 9    2  0.5832445E-005  0.1166700E+03  0.7546771E-02  0.1253627E+00
         -1   -1    0    0    0  501 -0.00000000000E+00  0.00000000000E+00  0.75959686293E+02  0.75959686293E+02  0.00000000000E+00 0.  1.
          2   -1    0    0  502    0  0.00000000000E+00 -0.00000000000E+00 -0.79896054852E+03  0.79896054852E+03  0.00000000000E+00 0. -1.
         23    2    1    2    0    0 -0.73611077896E+02  0.87812721545E+01  0.21371488076E+02  0.11960780942E+03  0.91397954251E+02 0.  0.
         24    2    1    2    0    0  0.49362004095E+02 -0.67722522509E+01 -0.68559751565E+03  0.69170004508E+03  0.76957962867E+02 0.  0.
        -13    1    4    4    0    0 -0.53901720049E+01  0.22211196597E+02 -0.88740729632E+02  0.91636828318E+02  0.00000000000E+00 0.  1.
         14    1    4    4    0    0  0.54752176100E+02 -0.28983448848E+02 -0.59685678601E+03  0.60006321676E+03  0.00000000000E+00 0. -1.
        -13    1    3    3    0    0 -0.63261399463E+02 -0.22643799212E+02 -0.16632433320E+02  0.69219824783E+02  0.00000000000E+00 0. -1.
         13    1    3    3    0    0 -0.10349678433E+02  0.31425071367E+02  0.38003921396E+02  0.50387984634E+02  0.00000000000E+00 0.  1.
         21    1    1    2  502  501  0.24249073801E+02 -0.20090199037E+01 -0.58774834661E+02  0.63612380325E+02  0.00000000000E+00 0. -1.
<scales pt_clust_5="13000.00000" pt_clust_6="13000.00000" pt_clust_7="13000.00000" pt_clust_8="13000.00000" pt_clust_9="24.33215"></scales>
<clustering>
<clus scale="   24.332">  2  9  1 -1</clus>
<clus scale="   76.958">  5  6 -1 -1</clus>
<clus scale="   91.398">  7  8 -1 -1</clus>
<clus scale="  105.739">  2  5  1 -1</clus>
<clus scale="   24.332">  2  5  1 -1</clus>
</clustering>
</event>
<event>
 9    2  0.3791909E-005  0.1461985E+03  0.7546771E-02  0.1207315E+00
          2   -1    0    0  502    0  0.00000000000E+00  0.00000000000E+00  0.76902375089E+02  0.76902375089E+02  0.00000000000E+00 0. -1.
         -1   -1    0    0    0  501 -0.00000000000E+00 -0.00000000000E+00 -0.64213344814E+03  0.64213344814E+03  0.00000000000E+00 0.  1.
         24    2    1    2    0    0 -0.10593800585E+03 -0.66200904744E+02 -0.46823939553E+03  0.49124902622E+03  0.80449073089E+02 0.  0.
         23    2    1    2    0    0  0.39702576460E+02  0.85737978078E+02 -0.88217949715E+02  0.15817496152E+03  0.91157097026E+02 0.  0.
        -11    1    3    3    0    0 -0.10903941020E+03 -0.69935412873E+02 -0.35484244798E+03  0.37774822016E+03  0.00000000000E+00 0.  1.
         12    1    3    3    0    0  0.31014043586E+01  0.37345081292E+01 -0.11339694756E+03  0.11350080605E+03  0.00000000000E+00 0. -1.
        -13    1    4    4    0    0  0.24508642147E+01  0.85102247234E+02 -0.32461316787E+02  0.91116059546E+02  0.00000000000E+00 0.  1.
         13    1    4    4    0    0  0.37251712245E+02  0.63573084471E+00 -0.55756632927E+02  0.67058901976E+02  0.00000000000E+00 0. -1.
         21    1    1    2  502  501  0.66235429386E+02 -0.19537073334E+02 -0.87737278042E+01  0.69611835488E+02  0.00000000000E+00 0. -1.
<scales pt_clust_5="13000.00000" pt_clust_6="13000.00000" pt_clust_7="13000.00000" pt_clust_8="13000.00000" pt_clust_9="69.05671"></scales>
<clustering>
<clus scale="   69.057">  1  9  2 -1</clus>
<clus scale="   80.449">  5  6 -1 -1</clus>
<clus scale="   91.157">  7  8 -1 -1</clus>
<clus scale="  139.773">  2  5  1 -1</clus>
<clus scale="   69.057">  1  5  2 -1</clus>
</clustering>
</event>
<event>
 9    2  0.3791909E-005  0.1198432E+03  0.7546771E-02  0.1249395E+00
         -1   -1    0    0    0  501 -0.00000000000E+00  0.00000000000E+00  0.37580328075E+03  0.37580328075E+03  0.00000000000E+00 0.  1.
          2   -1    0    0  502    0  0.00000000000E+00 -0.00000000000E+00 -0.12091082106E+03  0.12091082106E+03  0.00000000000E+00 0. -1.
         23    2    1    2    0    0  0.51302015634E+02 -0.61755109437E+02  0.29417249377E+03  0.31995774953E+03  0.96901573972E+02 0.  0.
         24    2    1    2    0    0 -0.72874019969E+01  0.49949939036E+01 -0.62375602688E+02  0.10130834226E+03  0.79338566967E+02 0.  0.
        -11    1    4    4    0    0 -0.26485118694E+02  0.14129950353E+02  0.52013962025E+01  0.30465907695E+02  0.00000000000E+00 0.  1.
         12    1    4    4    0    0  0.19197716697E+02 -0.91349564494E+01 -0.67576998890E+02  0.70842434563E+02  0.00000000000E+00 0. -1.
        -13    1    3    3    0    0  0.64831841080E+02 -0.76838602970E+01  0.20152382342E+03  0.21183498468E+03  0.00000000000E+00 0.  1.
         13    1    3    3    0    0 -0.13529825446E+02 -0.54071249140E+02  0.92648670351E+02  0.10812276485E+03  0.00000000000E+00 0. -1.
         21    1    1    2  502  501 -0.44014613638E+02  0.56760115533E+02  0.23095568600E+02  0.75448010033E+02  0.00000000000E+00 0.  1.
<scales pt_clust_5="13000.00000" pt_clust_6="13000.00000" pt_clust_7="13000.00000" pt_clust_8="13000.00000" pt_clust_9="71.82616"></scales>
<clustering>
<clus scale="   71.826">  2  9  1 -1</clus>
<clus scale="   79.339">  5  6 -1 -1</clus>
<clus scale="   96.902">  7  8 -1 -1</clus>
<clus scale="  106.146">  2  5  1 -1</clus>
<clus scale="   71.826">  2  5  1 -1</clus>
</clustering>
</event>
<event>
 9    2  0.3791909E-005  0.1520840E+03  0.7546771E-02  0.1222583E+00
         -1   -1    0    0    0  501 -0.00000000000E+00  0.00000000000E+00  0.43104463744E+03  0.43104463744E+03  0.00000000000E+00 0.  1.
          2   -1    0    0  502    0  0.00000000000E+00 -0.00000000000E+00 -0.11001557805E+03  0.11001557805E+03  0.00000000000E+00 0. -1.
         24    2    1    2    0    0  0.10307402945E+03  0.79015889219E+02  0.26532785057E+03  0.30603296782E+03  0.79934615816E+02 0.  0.
         23    2    1    2    0    0 -0.19541494662E+01  0.17843008969E+00 -0.10593600741E+02  0.90486692428E+02  0.89843010816E+02 0.  0.
        -11    1    3    3    0    0  0.31669460237E+02  0.31032268560E+01  0.13735269426E+03  0.14099059312E+03  0.00000000000E+00 0.  1.
         12    1    3    3    0    0  0.71404569213E+02  0.75912662363E+02  0.12797515631E+03  0.16504237469E+03  0.00000000000E+00 0. -1.
        -13    1    4    4    0    0 -0.45827400907E+02 -0.12404525923E+00 -0.81313097128E+01  0.46543358912E+02  0.00000000000E+00 0.  1.
         13    1    4    4    0    0  0.43873251441E+02  0.30247534892E+00 -0.24622910281E+01  0.43943333516E+02  0.00000000000E+00 0. -1.
         21    1    1    2  502  501 -0.10111987998E+03 -0.79194319308E+02  0.66294809559E+02  0.14454055525E+03  0.00000000000E+00 0.  1.
<scales pt_clust_5="13000.00000" pt_clust_6="13000.00000" pt_clust_7="13000.00000" pt_clust_8="13000.00000" pt_clust_9="129.38320"></scales>
<clustering>
<clus scale="   79.935">  5  6 -1 -1</clus>
<clus scale="   89.843">  7  8 -1 -1</clus>
<clus scale="   89.864">  2  7  1 -1</clus>
<clus scale="  129.383">  2  9  1 -1</clus>
<clus scale="   89.864">  2  5  1 -1</clus>
</clustering>
</event>
<event>
 9    2  0.3791909E-005  0.1035082E+03  0.7546771E-02  0.1277256E+00
          2   -1    0    0  502    0  0.00000000000E+00  0.00000000000E+00  0.50618962806E+03  0.50618962806E+03  0.00000000000E+00 0. -1.
         -1   -1    0    0    0  501 -0.00000000000E+00 -0.00000000000E+00 -0.10046701271E+03  0.10046701271E+03  0.00000000000E+00 0.  1.
         23    2    1    2    0    0  0.81772154915E+01 -0.48982983489E+02 -0.60924552360E+02  0.11955858468E+03  0.90090257885E+02 0.  0.
         24    2    1    2    0    0 -0.39431613040E+01  0.70985465641E+02  0.43625398410E+03  0.44933852688E+03  0.80827521565E+02 0.  0.
        -11    1    4    4    0    0  0.27324614598E+02  0.51161479849E+02  0.15211515616E+03  0.16279788794E+03  0.00000000000E+00 0.  1.
         12    1    4    4    0    0 -0.31267775902E+02  0.19823985792E+02  0.28413882794E+03  0.28654063894E+03  0.00000000000E+00 0. -1.
        -11    1    3    3    0    0  0.29467179786E+02  0.43457906903E+01 -0.54067464481E+02  0.61729177029E+02  0.00000000000E+00 0. -1.
         11    1    3    3    0    0 -0.21289964294E+02 -0.53328774179E+02 -0.68570878791E+01  0.57829407651E+02  0.00000000000E+00 0.  1.
         21    1    1    2  502  501 -0.42340541875E+01 -0.22002482152E+02  0.30393183612E+02  0.37759529205E+02  0.00000000000E+00 0.  1.
<scales pt_clust_5="13000.00000" pt_clust_6="13000.00000" pt_clust_7="13000.00000" pt_clust_8="13000.00000" pt_clust_9="22.40617"></scales>
<clustering>
<clus scale="   22.406">  1  9  2 -1</clus>
<clus scale="   80.828">  5  6 -1 -1</clus>
<clus scale="   90.090">  7  8 -1 -1</clus>
<clus scale="   95.555">  1  5  2 -1</clus>
<clus scale="   22.406">  1  5  2 -1</clus>
</clustering>
</event>
<event>
 9    2  0.3791909E-005  0.1774026E+03  0.7546771E-02  0.1171614E+00
          2   -1    0    0  502    0  0.00000000000E+00  0.00000000000E+00  0.42209315677E+03  0.42209315677E+03  0.00000000000E+00 0. -1.
         -1   -1    0    0    0  501 -0.00000000000E+00 -0.00000000000E+00 -0.10844797483E+03  0.10844797483E+03  0.00000000000E+00 0.  1.
         24    2    1    2    0    0 -0.13999013371E+03  0.41375386212E+02  0.44308637716E+02  0.17223007170E+03  0.79942367375E+02 0.  0.
         23    2    1    2    0    0  0.16628555882E+03 -0.20511107152E+02  0.17653312837E+03  0.25962346434E+03  0.90381442975E+02 0.  0.
        -13    1    3    3    0    0 -0.12756813601E+03  0.32015564398E+02  0.68864829724E+01  0.13170440135E+03  0.00000000000E+00 0.  1.
         14    1    3    3    0    0 -0.12421997699E+02  0.93598218137E+01  0.37422154743E+02  0.40525670344E+02  0.00000000000E+00 0. -1.
        -13    1    4    4    0    0  0.50681465476E+02 -0.43828757711E+02  0.94995129522E+02  0.11624820677E+03  0.00000000000E+00 0.  1.
         13    1    4    4    0    0  0.11560409335E+03  0.23317650559E+02  0.81537998848E+02  0.14337525756E+03  0.00000000000E+00 0. -1.
         21    1    1    2  502  501 -0.26295425114E+02 -0.20864279059E+02  0.92803415857E+02  0.98687595560E+02  0.00000000000E+00 0. -1.
<scales pt_clust_5="13000.00000" pt_clust_6="13000.00000" pt_clust_7="13000.00000" pt_clust_8="13000.00000" pt_clust_9="33.56736"></scales>
<clustering>
<clus scale="   33.567">  1  9  2 -1</clus>
<clus scale="   79.942">  5  6 -1 -1</clus>
<clus scale="   90.381">  7  8 -1 -1</clus>
<clus scale="  172.318">  2  5  1 -1</clus>
<clus scale="   33.567">  1  5  2 -1</clus>
</clustering>
</event>
<event>
 9    2  0.3791909E-005  0.1661925E+03  0.7546771E-02  0.1183529E+00
         -1   -1    0    0    0  501 -0.00000000000E+00  0.00000000000E+00  0.51354355042E+03  0.51354355042E+03  0.00000000000E+00 0.  1.
          2   -1    0    0  502    0  0.00000000000E+00 -0.00000000000E+00 -0.85825229851E+02  0.85825229851E+02  0.00000000000E+00 0. -1.
         23    2    1    2    0    0 -0.70478363200E+02  0.11276731781E+03  0.28738109485E+03  0.32917221403E+03  0.89904311164E+02 0.  0.
         24    2    1    2    0    0  0.10105911720E+03 -0.11518059130E+03  0.15902695346E+03  0.23427564855E+03  0.78204819526E+02 0.  0.
        -11    1    4    4    0    0  0.42402518541E+02 -0.27688572605E+02  0.10344437312E+03  0.11517538349E+03  0.00000000000E+00 0.  1.
         12    1    4    4    0    0  0.58656598662E+02 -0.87492018692E+02  0.55582580339E+02  0.11910026506E+03  0.00000000000E+00 0. -1.
        -11    1    3    3    0    0 -0.74184177412E+02  0.33919439523E+02  0.14391957532E+03  0.16542873002E+03  0.00000000000E+00 0.  1.
         11    1    3    3    0    0  0.37058142120E+01  0.78847878286E+02  0.14346151953E+03  0.16374348401E+03  0.00000000000E+00 0. -1.
         21    1    1    2  502  501 -0.30580754003E+02  0.24132734874E+01 -0.18689727744E+02  0.35920917686E+02  0.00000000000E+00 0. -1.
<scales pt_clust_5="13000.00000" pt_clust_6="13000.00000" pt_clust_7="13000.00000" pt_clust_8="13000.00000" pt_clust_9="30.67583"></scales>
<clustering>
<clus scale="   30.676">  2  9  1 -1</clus>
<clus scale="   78.205">  5  6 -1 -1</clus>
<clus scale="   89.904">  7  8 -1 -1</clus>
<clus scale="  160.166">  2  5  1 -1</clus>
<clus scale="   30.676">  2  5  1 -1</clus>
</clustering>
</event>
<event>
 9    2  0.3791909E-005  0.1013118E+03  0.7546771E-02  0.1282952E+00
         -1   -1    0    0    0  501 -0.00000000000E+00  0.00000000000E+00  0.23928877817E+03  0.23928877817E+03  0.00000000000E+00 0.  1.
          2   -1    0    0  502    0  0.00000000000E+00 -0.00000000000E+00 -0.10757503849E+03  0.10757503849E+03  0.00000000000E+00 0. -1.
         24    2    1    2    0    0  0.24276514684E+02 -0.47240126475E+02  0.15803781507E+03  0.18511278609E+03  0.80435153184E+02 0.  0.
         23    2    1    2    0    0 -0.32540387758E+02 -0.12247338493E+02 -0.49876292257E+01  0.98014902504E+02  0.91505030092E+02 0.  0.
        -13    1    3    3    0    0 -0.50831174330E+01 -0.59261433582E+02  0.71869872876E+02  0.93290054241E+02  0.00000000000E+00 0.  1.
         14    1    3    3    0    0  0.29359632117E+02  0.12021307107E+02  0.86167942190E+02  0.91822731847E+02  0.00000000000E+00 0. -1.
        -11    1    4    4    0    0 -0.67759723820E+01 -0.48601112109E+02  0.11679292070E+02  0.50441924658E+02  0.00000000000E+00 0.  1.
         11    1    4    4    0    0 -0.25764415376E+02  0.36353773616E+02 -0.16666921295E+02  0.47572977847E+02  0.00000000000E+00 0. -1.
         21    1    1    2  502  501  0.82638730738E+01  0.59487464968E+02 -0.21336446167E+02  0.63736128071E+02  0.00000000000E+00 0. -1.
<scales pt_clust_5="13000.00000" pt_clust_6="13000.00000" pt_clust_7="13000.00000" pt_clust_8="13000.00000" pt_clust_9="60.05872"></scales>
<clustering>
<clus scale="   60.059">  2  9  1 -1</clus>
<clus scale="   80.435">  5  6 -1 -1</clus>
<clus scale="   91.437">  1  5  2 -1</clus>
<clus scale="   91.505">  7  8 -1 -1</clus>
<clus scale="   60.059">  2  5  1 -1</clus>
</clustering>
</event>
<event>
 9    2  0.3791909E-005  0.9851589E+02  0.7546771E-02  0.1289078E+00
         -1   -1    0    0    0  501 -0.00000000000E+00  0.00000000000E+00  0.22650162582E+03  0.22650162582E+03  0.00000000000E+00 0.  1.
          2   -1    0    0  502    0  0.00000000000E+00 -0.00000000000E+00 -0.15366074920E+03  0.15366074920E+03  0.00000000000E+00 0. -1.
         24    2    1    2    0    0  0.25611150539E+02 -0.25772008935E+02  0.19291047294E+03  0.21244283506E+03  0.81224258217E+02 0.  0.
         23    2    1    2    0    0 -0.50790547066E+01  0.27934398550E+02 -0.10275547940E+03  0.14077475322E+03  0.91938648993E+02 0.  0.
        -11    1    3    3    0    0  0.51053691433E+02 -0.94899950081E+01  0.78568783358E+02  0.94178517362E+02  0.00000000000E+00 0.  1.
         12    1    3    3    0    0 -0.25442540894E+02 -0.16282013927E+02  0.11434168958E+03  0.11826431770E+03  0.00000000000E+00 0. -1.
        -13    1    4    4    0    0  0.26795137975E+02  0.50388043055E+02 -0.65055783861E+02  0.86540102356E+02  0.00000000000E+00 0.  1.
         13    1    4    4    0    0 -0.31874192682E+02 -0.22453644505E+02 -0.37699695541E+02  0.54234650866E+02  0.00000000000E+00 0. -1.
         21    1    1    2  502  501 -0.20532095832E+02 -0.21623896147E+01 -0.17314116912E+02  0.26944786742E+02  0.00000000000E+00 0. -1.
<scales pt_clust_5="13000.00000" pt_clust_6="13000.00000" pt_clust_7="13000.00000" pt_clust_8="13000.00000" pt_clust_9="20.64565"></scales>
<clustering>
<clus scale="   20.646">  2  9  1 -1</clus>
<clus scale="   81.224">  5  6 -1 -1</clus>
<clus scale="   88.600">  1  5  2 -1</clus>
<clus scale="   91.939">  7  8 -1 -1</clus>
<clus scale="   20.646">  2  5  1 -1</clus>
</clustering>
</event>
<event>
 9    2  0.3791909E-005  0.1536136E+03  0.7546771E-02  0.1198470E+00
          2   -1    0    0  502    0  0.00000000000E+00  0.00000000000E+00  0.22038786286E+03  0.22038786286E+03  0.00000000000E+00 0. -1.
         -1   -1    0    0    0  501 -0.00000000000E+00 -0.00000000000E+00 -0.29255481796E+03  0.29255481796E+03  0.00000000000E+00 0.  1.
         23    2    1    2    0    0  0.14095915241E+03  0.37767524089E+02 -0.20684563671E+03  0.26908600024E+03  0.91248504499E+02 0.  0.
         24    2    1    2    0    0 -0.61242041951E+02 -0.45153684198E+02  0.31183536430E+02  0.11301090061E+03  0.77521660289E+02 0.  0.
        -11    1    4    4    0    0  0.73107902048E+01 -0.28010765428E+02 -0.10704506604E+02  0.30864819697E+02  0.00000000000E+00 0.  1.
         12    1    4    4    0    0 -0.68552832156E+02 -0.17142918770E+02  0.41888043034E+02  0.82146080915E+02  0.00000000000E+00 0. -1.
        -11    1    3    3    0    0  0.54491804715E+02 -0.19382962081E+01 -0.17649228642E+02  0.57311508835E+02  0.00000000000E+00 0. -1.
         11    1    3    3    0    0  0.86467347699E+02  0.39705820297E+02 -0.18919640806E+03  0.21177449140E+03  0.00000000000E+00 0.  1.
         21    1    1    2  502  501 -0.79717110463E+02  0.73861601087E+01  0.10349514518E+03  0.13084577997E+03  0.00000000000E+00 0.  1.
<scales pt_clust_5="13000.00000" pt_clust_6="13000.00000" pt_clust_7="13000.00000" pt_clust_8="13000.00000" pt_clust_9="80.05856"></scales>
<clustering>
<clus scale="   77.522">  5  6 -1 -1</clus>
<clus scale="   80.059">  1  9  2 -1</clus>
<clus scale="   91.249">  7  8 -1 -1</clus>
<clus scale="  145.878">  1  5  2 -1</clus>
<clus scale="   80.059">  1  5  2 -1</clus>
</clustering>
</event>
<event>
 9    2  0.3791909E-005  0.9549725E+02  0.7546771E-02  0.1295751E+00
         -1   -1    0    0    0  501 -0.00000000000E+00  0.00000000000E+00  0.15734208219E+03  0.15734208219E+03  0.00000000000E+00 0.  1.
          2   -1    0    0  502    0  0.00000000000E+00 -0.00000000000E+00 -0.61516424719E+03  0.61516424719E+03  0.00000000000E+00 0. -1.
         23    2    1    2    0    0  0.58264628821E+01 -0.32732168190E+02  0.13126305010E+03  0.16210173879E+03  0.89115895851E+02 0.  0.
         24    2    1    2    0    0 -0.53445494283E+02  0.51584356714E+02 -0.37762328104E+03  0.39282902505E+03  0.78726957390E+02 0.  0.
        -11    1    4    4    0    0 -0.19822680836E+02  0.51170549951E+02 -0.10824688016E+03  0.12136206541E+03  0.00000000000E+00 0.  1.
         12    1    4    4    0    0 -0.33622813447E+02  0.41380676289E+00 -0.26937640089E+03  0.27146695964E+03  0.00000000000E+00 0. -1.
        -13    1    3    3    0    0  0.19224817018E+02 -0.60930306817E+02  0.88951963819E+02  0.10951962265E+03  0.00000000000E+00 0.  1.
         13    1    3    3    0    0 -0.13398354136E+02  0.28198138627E+02  0.42311086279E+02  0.52582116139E+02  0.00000000000E+00 0. -1.
         21    1    1    2  502  501  0.47619031401E+02 -0.18852188524E+02 -0.21146193406E+03  0.21757556554E+03  0.00000000000E+00 0.  1.
<scales pt_clust_5="13000.00000" pt_clust_6="13000.00000" pt_clust_7="13000.00000" pt_clust_8="13000.00000" pt_clust_9="51.21501"></scales>
<clustering>
<clus scale="   51.215">  2  9  1 -1</clus>
<clus scale="   78.727">  5  6 -1 -1</clus>
<clus scale="   85.884">  2  5  1 -1</clus>
<clus scale="   89.116">  7  8 -1 -1</clus>
<clus scale="   51.215">  2  5  1 -1</clus>
</clustering>
</event>
<event>
 9    2  0.3791909E-005  0.1741288E+03  0.7546771E-02  0.1173966E+00
         -1   -1    0    0    0  501 -0.00000000000E+00  0.00000000000E+00  0.97474075620E+03  0.97474075620E+03  0.00000000000E+00 0.  1.
          2   -1    0    0  502    0  0.00000000000E+00 -0.00000000000E+00 -0.22214034291E+03  0.22214034291E+03  0.00000000000E+00 0. -1.
         23    2    1    2    0    0  0.41707707958E+02  0.15173124802E+03  0.90057884333E+03  0.91825090178E+03  0.85910191625E+02 0.  0.
         24    2    1    2    0    0 -0.79828872184E+02 -0.69032868853E+02 -0.46066886473E+02  0.14196195745E+03  0.83023210722E+02 0.  0.
        -11    1    4    4    0    0  0.63952743079E+01 -0.38576566694E+02  0.99835784292E+00  0.39115824800E+02  0.00000000000E+00 0.  1.
         12    1    4    4    0    0 -0.86224146492E+02 -0.30456302159E+02 -0.47065244316E+02  0.10284613265E+03  0.00000000000E+00 0. -1.
        -11    1    3    3    0    0  0.26613307335E+02  0.92405385990E+01  0.70938081196E+02  0.76327367599E+02  0.00000000000E+00 0. -1.
         11    1    3    3    0    0  0.15094400623E+02  0.14249070942E+03  0.82964076214E+03  0.84192353418E+03  0.00000000000E+00 0.  1.
         21    1    1    2  502  501  0.38121164226E+02 -0.82698379163E+02 -0.10191154357E+03  0.13666823988E+03  0.00000000000E+00 0. -1.
<scales pt_clust_5="13000.00000" pt_clust_6="13000.00000" pt_clust_7="13000.00000" pt_clust_8="13000.00000" pt_clust_9="91.06177"></scales>
<clustering>
<clus scale="   83.023">  5  6 -1 -1</clus>
<clus scale="   85.910">  7  8 -1 -1</clus>
<clus scale="   91.062">  2  9  1 -1</clus>
<clus scale="  172.723">  2  5  1 -1</clus>
<clus scale="   91.062">  2  5  1 -1</clus>
</clustering>
</event>
<event>
 9    2  0.3791909E-005  0.9991849E+02  0.7546771E-02  0.1283571E+00
          2   -1    0    0  502    0  0.00000000000E+00  0.00000000000E+00  0.59041693600E+03  0.59041693600E+03  0.00000000000E+00 0. -1.
         -1   -1    0    0    0  501 -0.00000000000E+00 -0.00000000000E+00 -0.31776010038E+02  0.31776010038E+02  0.00000000000E+00 0.  1.
         23    2    1    2    0    0  0.12293451154E+02 -0.37156627615E+02  0.57592121179E+02  0.10240769907E+03  0.75091547392E+02 0.  0.
         24    2    1    2    0    0 -0.37693696442E+02  0.49204946791E+02  0.44887267547E+03  0.46051735578E+03  0.82143865588E+02 0.  0.
        -13    1    4    4    0    0 -0.37307794309E+02  0.86600238015E+01  0.72752464987E+02  0.82217934115E+02  0.00000000000E+00 0.  1.
         14    1    4    4    0    0 -0.38590213258E+00  0.40544922989E+02  0.37612021048E+03  0.37829942167E+03  0.00000000000E+00 0. -1.
        -11    1    3    3    0    0 -0.97009158297E+01  0.20520653964E+02  0.19065643008E+02  0.29642937614E+02  0.00000000000E+00 0. -1.
         11    1    3    3    0    0  0.21994366984E+02 -0.57677281579E+02  0.38526478171E+02  0.72764761455E+02  0.00000000000E+00 0.  1.
         21    1    1    2  502  501  0.25400245288E+02 -0.12048319175E+02  0.52176129313E+02  0.59267891187E+02  0.00000000000E+00 0. -1.
<scales pt_clust_5="13000.00000" pt_clust_6="13000.00000" pt_clust_7="13000.00000" pt_clust_8="13000.00000" pt_clust_9="28.11289"></scales>
<clustering>
<clus scale="   28.113">  2  9  1 -1</clus>
<clus scale="   75.092">  7  8 -1 -1</clus>
<clus scale="   82.144">  5  6 -1 -1</clus>
<clus scale="   94.206">  2  7  1 -1</clus>
<clus scale="   99.918">  1  5  2 -1</clus>
</clustering>
</event>
<event>
 9    2  0.3791909E-005  0.1396240E+03  0.7546771E-02  0.1216243E+00
         -1   -1    0    0    0  501 -0.00000000000E+00  0.00000000000E+00  0.36597115474E+02  0.36597115474E+02  0.00000000000E+00 0.  1.
          2   -1    0    0  502    0  0.00000000000E+00 -0.00000000000E+00 -0.91430871646E+03  0.91430871646E+03  0.00000000000E+00 0. -1.
         23    2    1    2    0    0 -0.40273372326E+02  0.11389346921E+03 -0.23346695831E+03  0.27814450815E+03  0.90905885101E+02 0.  0.
         24    2    1    2    0    0  0.72148387998E+02 -0.74390077855E+02 -0.55384881572E+03  0.56908905129E+03  0.79840867049E+02 0.  0.
        -13    1    4    4    0    0  0.27302273837E+01 -0.58886402896E+02 -0.28141862207E+03  0.28752652649E+03  0.00000000000E+00 0.  1.
         14    1    4    4    0    0  0.69418160614E+02 -0.15503674959E+02 -0.27243019365E+03  0.28156252480E+03  0.00000000000E+00 0. -1.
        -13    1    3    3    0    0  0.18780439286E+01  0.10240551240E+03 -0.19348614304E+03  0.21892305398E+03  0.00000000000E+00 0.  1.
         13    1    3    3    0    0 -0.42151416255E+02  0.11487956810E+02 -0.39980815275E+02  0.59221454170E+02  0.00000000000E+00 0. -1.
         21    1    1    2  502  501 -0.31875015672E+02 -0.39503391353E+02 -0.90395826961E+02  0.10367227250E+03  0.00000000000E+00 0.  1.
<scales pt_clust_5="13000.00000" pt_clust_6="13000.00000" pt_clust_7="13000.00000" pt_clust_8="13000.00000" pt_clust_9="50.75958"></scales>
<clustering>
<clus scale="   50.760">  1  9  2 -1</clus>
<clus scale="   79.841">  5  6 -1 -1</clus>
<clus scale="   90.906">  7  8 -1 -1</clus>
<clus scale="  132.686">  2  5  1 -1</clus>
<clus scale="  132.686">  2  5  1 -1</clus>
</clustering>
</event>
<event>
 9    2  0.3791909E-005  0.9553796E+02  0.7546771E-02  0.1294682E+00
          2   -1    0    0  502    0  0.00000000000E+00  0.00000000000E+00  0.48010539899E+03  0.48010539899E+03  0.00000000000E+00 0. -1.
         -1   -1    0    0    0  501 -0.00000000000E+00 -0.00000000000E+00 -0.58519709843E+02  0.58519709843E+02  0.00000000000E+00 0.  1.
         23    2    1    2    0    0  0.29210911009E+02 -0.20417765530E+02  0.23074557051E+01  0.97755315083E+02  0.90997883514E+02 0.  0.
         24    2    1    2    0    0 -0.13171979304E+02 -0.17064636112E+02  0.19379220955E+03  0.21172764412E+03  0.82513465332E+02 0.  0.
        -11    1    4    4    0    0  0.21687074671E+02 -0.35458752204E+02  0.66022806988E+02  0.78017070941E+02  0.00000000000E+00 0.  1.
         12    1    4    4    0    0 -0.34859053975E+02  0.18394116093E+02  0.12776940256E+03  0.13371057318E+03  0.00000000000E+00 0. -1.
        -13    1    3    3    0    0  0.36148230094E+02 -0.53143496350E+02  0.11633095566E+01  0.64282805106E+02  0.00000000000E+00 0.  1.
         13    1    3    3    0    0 -0.69373190846E+01  0.32725730820E+02  0.11441461484E+01  0.33472509977E+02  0.00000000000E+00 0. -1.
         21    1    1    2  502  501 -0.16038931705E+02  0.37482401642E+02  0.22548602390E+03  0.22914214963E+03  0.00000000000E+00 0. -1.
<scales pt_clust_5="13000.00000" pt_clust_6="13000.00000" pt_clust_7="13000.00000" pt_clust_8="13000.00000" pt_clust_9="40.76981"></scales>
<clustering>
<clus scale="   40.770">  1  9  2 -1</clus>
<clus scale="   82.513">  5  6 -1 -1</clus>
<clus scale="   87.495">  1  5  2 -1</clus>
<clus scale="   90.998">  7  8 -1 -1</clus>
<clus scale="   40.770">  1  5  2 -1</clus>
</clustering>
</event>
<event>
 9    2  0.3791909E-005  0.1825410E+03  0.7546771E-02  0.1167096E+00
         -1   -1    0    0    0  501 -0.00000000000E+00  0.00000000000E+00  0.12722610162E+03  0.12722610162E+03  0.00000000000E+00 0.  1.
          2   -1    0    0  502    0  0.00000000000E+00 -0.00000000000E+00 -0.65437969998E+03  0.65437969998E+03  0.00000000000E+00 0. -1.
         23    2    1    2    0    0  0.12974445545E+03  0.78800056312E+02  0.21619639896E+02  0.17960096890E+03  0.93520193568E+02 0.  0.
         24    2    1    2    0    0 -0.16974297568E+03 -0.83602631035E+02 -0.48570054787E+03  0.52716426472E+03  0.78708716671E+02 0.  0.
        -11    1    4    4    0    0 -0.58314029313E+02  0.24892843953E+01 -0.91120359482E+02  0.10821110139E+03  0.00000000000E+00 0.  1.
         12    1    4    4    0    0 -0.11142894636E+03 -0.86091915431E+02 -0.39458018839E+03  0.41895316333E+03  0.00000000000E+00 0. -1.
        -11    1    3    3    0    0  0.65855113552E+02 -0.86612384416E+01  0.25680130301E+02  0.71213637209E+02  0.00000000000E+00 0. -1.
         11    1    3    3    0    0  0.63889341895E+02  0.87461294753E+02 -0.40604904049E+01  0.10838733169E+03  0.00000000000E+00 0.  1.
         21    1    1    2  502  501  0.39998520231E+02  0.48025747239E+01 -0.63072690378E+02  0.74840567984E+02  0.00000000000E+00 0.  1.
<scales pt_clust_5="13000.00000" pt_clust_6="13000.00000" pt_clust_7="13000.00000" pt_clust_8="13000.00000" pt_clust_9="40.28581"></scales>
<clustering>
<clus scale="   40.286">  2  9  1 -1</clus>
<clus scale="   78.709">  5  6 -1 -1</clus>
<clus scale="   93.520">  7  8 -1 -1</clus>
<clus scale="  175.415">  2  5  1 -1</clus>
<clus scale="   40.286">  2  5  1 -1</clus>
</clustering>
</event>
<event>
 9    2  0.3791909E-005  0.9426584E+02  0.7546771E-02  0.1298609E+00
          2   -1    0    0  502    0  0.00000000000E+00  0.00000000000E+00  0.17185913613E+03  0.17185913613E+03  0.00000000000E+00 0. -1.
         -1   -1    0    0    0  501 -0.00000000000E+00 -0.00000000000E+00 -0.13958212489E+03  0.13958212489E+03  0.00000000000E+00 0.  1.
         24    2    1    2    0    0  0.15996124853E+02 -0.26024369105E+02 -0.10021942607E+03  0.13187562578E+03  0.80088098475E+02 0.  0.
         23    2    1    2    0    0 -0.52327169261E+00  0.26196414622E+01  0.11628106600E+03  0.14715994550E+03  0.90153352199E+02 0.  0.
        -11    1    3    3    0    0  0.29083998299E+02  0.34455758485E+01 -0.94745485614E+02  0.99168835801E+02  0.00000000000E+00 0.  1.
         12    1    3    3    0    0 -0.13087873446E+02 -0.29469944954E+02 -0.54739404526E+01  0.32706789983E+02  0.00000000000E+00 0. -1.
        -13    1    4    4    0    0  0.37362743827E+02 -0.21804587027E+02  0.71842893620E+02  0.83861886488E+02  0.00000000000E+00 0.  1.
         13    1    4    4    0    0 -0.37886015520E+02  0.24424228489E+02  0.44438172385E+02  0.63298059008E+02  0.00000000000E+00 0. -1.
         21    1    1    2  502  501 -0.15472853160E+02  0.23404727643E+02  0.16215371305E+02  0.32405689740E+02  0.00000000000E+00 0. -1.
<scales pt_clust_5="13000.00000" pt_clust_6="13000.00000" pt_clust_7="13000.00000" pt_clust_8="13000.00000" pt_clust_9="28.05691"></scales>
<clustering>
<clus scale="   28.057">  1  9  2 -1</clus>
<clus scale="   80.088">  5  6 -1 -1</clus>
<clus scale="   84.691">  2  5  1 -1</clus>
<clus scale="   90.153">  7  8 -1 -1</clus>
<clus scale="   28.057">  1  5  2 -1</clus>
</clustering>
</event>
<event>
 9    2  0.3791909E-005  0.9928635E+02  0.7546771E-02  0.1291020E+00
         -1   -1    0    0    0  501 -0.00000000000E+00  0.00000000000E+00  0.36117442536E+02  0.36117442536E+02  0.00000000000E+00 0.  1.
          2   -1    0    0  502    0  0.00000000000E+00 -0.00000000000E+00 -0.66496948325E+03  0.66496948325E+03  0.00000000000E+00 0. -1.
         24    2    1    2    0    0 -0.42950759702E+01 -0.25693937749E+02 -0.32515455688E+02  0.90645197026E+02  0.80502613440E+02 0.  0.
         23    2    1    2    0    0  0.66594022999E+00 -0.33751114036E+01 -0.38102976724E+03  0.39315112604E+03  0.96810585839E+02 0.  0.
        -13    1    3    3    0    0  0.37634325594E+02 -0.17575027257E+02 -0.11807978270E+02  0.43181621053E+02  0.00000000000E+00 0.  1.
         14    1    3    3    0    0 -0.41929401564E+02 -0.81189104924E+01 -0.20707477418E+02  0.47463575972E+02  0.00000000000E+00 0. -1.
        -11    1    4    4    0    0  0.12495840918E+02 -0.48563135228E+02 -0.19371929151E+03  0.20010419298E+03  0.00000000000E+00 0.  1.
         11    1    4    4    0    0 -0.11829900688E+02  0.45188023824E+02 -0.18731047573E+03  0.19304693306E+03  0.00000000000E+00 0. -1.
         21    1    1    2  502  501  0.36291357402E+01  0.29069049153E+02 -0.21530681779E+03  0.21729060272E+03  0.00000000000E+00 0. -1.
<scales pt_clust_5="13000.00000" pt_clust_6="13000.00000" pt_clust_7="13000.00000" pt_clust_8="13000.00000" pt_clust_9="29.29471"></scales>
<clustering>
<clus scale="   29.295">  2  9  1 -1</clus>
<clus scale="   80.503">  5  6 -1 -1</clus>
<clus scale="   83.464">  1  5  2 -1</clus>
<clus scale="   96.811">  7  8 -1 -1</clus>
<clus scale="   29.295">  2  5  1 -1</clus>
</clustering>
</event>
<event>
 9    2  0.3791909E-005  0.1318332E+03  0.7546771E-02  0.1226180E+00
         -1   -1    0    0    0  501 -0.00000000000E+00  0.00000000000E+00  0.22821181927E+02  0.22821181927E+02  0.00000000000E+00 0.  1.
          2   -1    0    0  502    0  0.00000000000E+00 -0.00000000000E+00 -0.19916187581E+04  0.19916187581E+04  0.00000000000E+00 0. -1.
         23    2    1    2    0    0  0.84210992952E+02  0.56731651125E+02 -0.22001919177E+03  0.25741433339E+03  0.86854606750E+02 0.  0.
         24    2    1    2    0    0 -0.47766668857E+02 -0.78899593320E+02 -0.14553822870E+04  0.14605447870E+04  0.80911514315E+02 0.  0.
        -11    1    4    4    0    0 -0.17023486422E+02 -0.15526260389E+02 -0.77229227697E+02  0.80592911986E+02  0.00000000000E+00 0.  1.
         12    1    4    4    0    0 -0.30743182434E+02 -0.63373332931E+02 -0.13781530593E+04  0.13799518750E+04  0.00000000000E+00 0. -1.
        -11    1    3    3    0    0  0.62318648611E+02  0.22216223896E+02 -0.20234011094E+03  0.21288188054E+03  0.00000000000E+00 0. -1.
         11    1    3    3    0    0  0.21892344341E+02  0.34515427228E+02 -0.17679080833E+02  0.44532452847E+02  0.00000000000E+00 0.  1.
         21    1    1    2  502  501 -0.36444324095E+02  0.22167942195E+02 -0.29339609741E+03  0.29648081961E+03  0.00000000000E+00 0.  1.
<scales pt_clust_5="13000.00000" pt_clust_6="13000.00000" pt_clust_7="13000.00000" pt_clust_8="13000.00000" pt_clust_9="42.65684"></scales>
<clustering>
<clus scale="   42.657">  2  9  1 -1</clus>
<clus scale="   80.912">  5  6 -1 -1</clus>
<clus scale="   86.855">  7  8 -1 -1</clus>
<clus scale="  127.996">  2  5  1 -1</clus>
<clus scale="   42.657">  2  5  1 -1</clus>
</clustering>
</event>
<event>
 9    2  0.3791909E-005  0.9515835E+02  0.7546771E-02  0.1298043E+00
         -1   -1    0    0    0  501 -0.00000000000E+00  0.00000000000E+00  0.40824827133E+02  0.40824827133E+02  0.00000000000E+00 0.  1.
          2   -1    0    0  502    0  0.00000000000E+00 -0.00000000000E+00 -0.40908454356E+03  0.40908454356E+03  0.00000000000E+00 0. -1.
         23    2    1    2    0    0  0.33634603164E+02 -0.81048802976E+01 -0.78929370624E+02  0.12673580782E+03  0.92925474563E+02 0.  0.
         24    2    1    2    0    0  0.15421573856E+01 -0.29800350110E+02 -0.13172555726E+03  0.15730168356E+03  0.80633480010E+02 0.  0.
        -11    1    4    4    0    0 -0.32432567290E+02  0.44880312138E+01 -0.80565554093E+02  0.86964489026E+02  0.00000000000E+00 0.  1.
         12    1    4    4    0    0  0.33974724676E+02 -0.34288381323E+02 -0.51160003169E+02  0.70337194534E+02  0.00000000000E+00 0. -1.
        -11    1    3    3    0    0  0.51383682404E+02 -0.28022887971E+02 -0.81049497791E+02  0.99972927134E+02  0.00000000000E+00 0. -1.
         11    1    3    3    0    0 -0.17749079240E+02  0.19918007673E+02  0.21201271676E+01  0.26762880688E+02  0.00000000000E+00 0.  1.
         21    1    1    2  502  501 -0.35176760549E+02  0.37905230407E+02 -0.15760478854E+03  0.16587187931E+03  0.00000000000E+00 0. -1.
<scales pt_clust_5="13000.00000" pt_clust_6="13000.00000" pt_clust_7="13000.00000" pt_clust_8="13000.00000" pt_clust_9="51.71277"></scales>
<clustering>
<clus scale="   51.713">  2  9  1 -1</clus>
<clus scale="   80.633">  5  6 -1 -1</clus>
<clus scale="   83.197">  2  5  1 -1</clus>
<clus scale="   92.925">  7  8 -1 -1</clus>
<clus scale="   51.713">  2  5  1 -1</clus>
</clustering>
</event>
<event>
 9    2  0.3791909E-005  0.9249808E+02  0.7546771E-02  0.1303648E+00
          2   -1    0    0  502    0  0.00000000000E+00  0.00000000000E+00  0.46367709227E+03  0.46367709227E+03  0.00000000000E+00 0. -1.
         -1   -1    0    0    0  501 -0.00000000000E+00 -0.00000000000E+00 -0.34989483742E+02  0.34989483742E+02  0.00000000000E+00 0.  1.
         24    2    1    2    0    0 -0.71438950565E+01  0.73700448887E+01  0.40798050632E+02  0.91529588295E+02  0.81288571151E+02 0.  0.
         23    2    1    2    0    0  0.10965570957E+02  0.19073570420E+02  0.26627060540E+03  0.28261775385E+03  0.92134220870E+02 0.  0.
        -13    1    3    3    0    0 -0.73656314321E+01  0.43267661113E+02  0.11981615769E+02  0.45496177213E+02  0.00000000000E+00 0.  1.
         14    1    3    3    0    0  0.22173637554E+00 -0.35897616224E+02  0.28816434863E+02  0.46033411081E+02  0.00000000000E+00 0. -1.
        -11    1    4    4    0    0 -0.13879234365E+02 -0.21551450036E+02  0.22095323111E+02  0.33842302649E+02  0.00000000000E+00 0.  1.
         11    1    4    4    0    0  0.24844805322E+02  0.40625020456E+02  0.24417528229E+03  0.24877545120E+03  0.00000000000E+00 0. -1.
         21    1    1    2  502  501 -0.38216759008E+01 -0.26443615308E+02  0.12161895250E+03  0.12451923387E+03  0.00000000000E+00 0. -1.
<scales pt_clust_5="13000.00000" pt_clust_6="13000.00000" pt_clust_7="13000.00000" pt_clust_8="13000.00000" pt_clust_9="26.71835"></scales>
<clustering>
<clus scale="   26.718">  1  9  2 -1</clus>
<clus scale="   81.289">  5  6 -1 -1</clus>
<clus scale="   81.701">  2  5  1 -1</clus>
<clus scale="   92.134">  7  8 -1 -1</clus>
<clus scale="   26.718">  1  5  2 -1</clus>
</clustering>
</event>
<event>
 9    2  0.3791909E-005  0.9361558E+02  0.7546771E-02  0.1300455E+00
          2   -1    0    0  502    0  0.00000000000E+00  0.00000000000E+00  0.16417936106E+03  0.16417936106E+03  0.00000000000E+00 0. -1.
         -1   -1    0    0    0  501 -0.00000000000E+00 -0.00000000000E+00 -0.90608183968E+02  0.90608183968E+02  0.00000000000E+00 0.  1.
         23    2    1    2    0    0  0.86169172288E+01 -0.50417010174E+01 -0.22276202368E+02  0.94726604034E+02  0.91527210753E+02 0.  0.
         24    2    1    2    0    0 -0.41861703347E+02  0.44022017035E+01  0.52668509132E+02  0.10556287125E+03  0.81226635684E+02 0.  0.
        -11    1    4    4    0    0 -0.33468727944E+02  0.37681482768E+02  0.11010714978E+02  0.51587651023E+02  0.00000000000E+00 0.  1.
         12    1    4    4    0    0 -0.83929754032E+01 -0.33279281065E+02  0.41657794154E+02  0.53975220223E+02  0.00000000000E+00 0. -1.
        -13    1    3    3    0    0 -0.71523194352E+01 -0.39695086452E+02  0.13448834136E+02  0.42517369408E+02  0.00000000000E+00 0.  1.
         13    1    3    3    0    0  0.15769236664E+02  0.34653385434E+02 -0.35725036505E+02  0.52209234627E+02  0.00000000000E+00 0. -1.
         21    1    1    2  502  501  0.33244786118E+02  0.63949931387E+00  0.43178870333E+02  0.54498069752E+02  0.00000000000E+00 0.  1.
<scales pt_clust_5="13000.00000" pt_clust_6="13000.00000" pt_clust_7="13000.00000" pt_clust_8="13000.00000" pt_clust_9="33.25094"></scales>
<clustering>
<clus scale="   33.251">  1  9  2 -1</clus>
<clus scale="   81.227">  5  6 -1 -1</clus>
<clus scale="   83.573">  1  5  2 -1</clus>
<clus scale="   91.527">  7  8 -1 -1</clus>
<clus scale="   33.251">  1  5  2 -1</clus>
</clustering>
</event>
<event>
 9    2  0.3791909E-005  0.9683643E+02  0.7546771E-02  0.1289153E+00
          2   -1    0    0  502    0  0.00000000000E+00  0.00000000000E+00  0.58285878619E+03  0.58285878619E+03  0.00000000000E+00 0. -1.
         -1   -1    0    0    0  501 -0.00000000000E+00 -0.00000000000E+00 -0.43624542249E+02  0.43624542249E+02  0.00000000000E+00 0.  1.
         23    2    1    2    0    0 -0.17929010663E+02  0.28344019480E+02  0.41772515280E+02  0.10660682336E+03  0.92169620218E+02 0.  0.
         24    2    1    2    0    0 -0.31705617967E+02 -0.29913642318E+02  0.27983007628E+03  0.29665106703E+03  0.88300123266E+02 0.  0.
        -13    1    4    4    0    0 -0.49963093877E+02 -0.46007774095E+02  0.15142146413E+03  0.16595627685E+03  0.00000000000E+00 0.  1.
         14    1    4    4    0    0  0.18257475911E+02  0.16094131777E+02  0.12840861216E+03  0.13069479018E+03  0.00000000000E+00 0. -1.
        -13    1    3    3    0    0 -0.33910593079E+02  0.51704704287E+02  0.76982869995E+01  0.62310259116E+02  0.00000000000E+00 0.  1.
         13    1    3    3    0    0  0.15981582416E+02 -0.23360684807E+02  0.34074228281E+02  0.44296564247E+02  0.00000000000E+00 0. -1.
         21    1    1    2  502  501  0.49634628630E+02  0.15696228374E+01  0.21763165237E+03  0.22322543804E+03  0.00000000000E+00 0. -1.
<scales pt_clust_5="13000.00000" pt_clust_6="13000.00000" pt_clust_7="13000.00000" pt_clust_8="13000.00000" pt_clust_9="49.65944"></scales>
<clustering>
<clus scale="   49.659">  1  9  2 -1</clus>
<clus scale="   88.300">  5  6 -1 -1</clus>
<clus scale="   92.170">  7  8 -1 -1</clus>
<clus scale="   93.161">  1  5  2 -1</clus>
<clus scale="   49.659">  1  5  2 -1</clus>
</clustering>
</event>
<event>
 9    2  0.3791909E-005  0.1010552E+03  0.7546771E-02  0.1284347E+00
         -3   -1    0    0    0  501 -0.00000000000E+00  0.00000000000E+00  0.95968760916E+02  0.95968760916E+02  0.00000000000E+00 0.  1.
          4   -1    0    0  502    0  0.00000000000E+00 -0.00000000000E+00 -0.22701679371E+03  0.22701679371E+03  0.00000000000E+00 0. -1.
         23    2    1    2    0    0  0.33219250235E+02 -0.16304106992E+01  0.42262736243E+02  0.10872910235E+03  0.94497100477E+02 0.  0.
         24    2    1    2    0    0 -0.48944083099E+02 -0.17395052601E+02 -0.15687667833E+03  0.18460315634E+03  0.82279535735E+02 0.  0.
        -11    1    4    4    0    0 -0.17861543592E+02 -0.48602652358E+02 -0.10055019788E+03  0.11309993302E+03  0.00000000000E+00 0.  1.
         12    1    4    4    0    0 -0.31082539506E+02  0.31207599757E+02 -0.56326480451E+02  0.71503223318E+02  0.00000000000E+00 0. -1.
        -11    1    3    3    0    0 -0.48509396966E+01 -0.30803315646E+02  0.51192887553E+02  0.59942369045E+02  0.00000000000E+00 0.  1.
         11    1    3    3    0    0  0.38070189931E+02  0.29172904947E+02 -0.89301513098E+01  0.48786733308E+02  0.00000000000E+00 0. -1.
         21    1    1    2  502  501  0.15724832864E+02  0.19025463301E+02 -0.16434090706E+02  0.29653295934E+02  0.00000000000E+00 0. -1.
<scales pt_clust_5="13000.00000" pt_clust_6="13000.00000" pt_clust_7="13000.00000" pt_clust_8="13000.00000" pt_clust_9="24.68276"></scales>
<clustering>
<clus scale="   24.683">  2  9  1 -1</clus>
<clus scale="   82.280">  5  6 -1 -1</clus>
<clus scale="   89.735">  2  5  1 -1</clus>
<clus scale="   94.497">  7  8 -1 -1</clus>
<clus scale="   24.683">  2  5  1 -1</clus>
</clustering>
</event>
<event>
 9    2  0.3791909E-005  0.1192323E+03  0.7546771E-02  0.1245615E+00
         -1   -1    0    0    0  501 -0.00000000000E+00  0.00000000000E+00  0.37362165666E+02  0.37362165666E+02  0.00000000000E+00 0.  1.
          2   -1    0    0  502    0  0.00000000000E+00 -0.00000000000E+00 -0.73937402020E+03  0.73937402020E+03  0.00000000000E+00 0. -1.
         23    2    1    2    0    0  0.75901936384E+02  0.16097428676E+02 -0.93962131622E+02  0.15080021103E+03  0.88834623374E+02 0.  0.
         24    2    1    2    0    0 -0.80690320870E+02 -0.40180465641E+02 -0.51974781764E+03  0.53428365480E+03  0.84828250807E+02 0.  0.
        -11    1    4    4    0    0 -0.30285172592E+02 -0.50800332209E+02 -0.15471002582E+03  0.16562927737E+03  0.00000000000E+00 0.  1.
         12    1    4    4    0    0 -0.50405148278E+02  0.10619866568E+02 -0.36503779182E+03  0.36865437743E+03  0.00000000000E+00 0. -1.
        -11    1    3    3    0    0  0.39023103339E+02 -0.17893231998E+02 -0.90930123050E+02  0.10055474938E+03  0.00000000000E+00 0. -1.
         11    1    3    3    0    0  0.36878833044E+02  0.33990660674E+02 -0.30320085714E+01  0.50245461643E+02  0.00000000000E+00 0.  1.
         21    1    1    2  502  501  0.47883844863E+01  0.24083036965E+02 -0.88301905271E+02  0.91652320047E+02  0.00000000000E+00 0.  1.
<scales pt_clust_5="13000.00000" pt_clust_6="13000.00000" pt_clust_7="13000.00000" pt_clust_8="13000.00000" pt_clust_9="24.55446"></scales>
<clustering>
<clus scale="   24.554">  2  9  1 -1</clus>
<clus scale="   84.828">  5  6 -1 -1</clus>
<clus scale="   88.835">  7  8 -1 -1</clus>
<clus scale="  116.278">  2  5  1 -1</clus>
<clus scale="   24.554">  2  5  1 -1</clus>
</clustering>
</event>
<event>
 9    2  0.3791909E-005  0.9374679E+02  0.7546771E-02  0.1301077E+00
         -1   -1    0    0    0  501 -0.00000000000E+00  0.00000000000E+00  0.34066060948E+02  0.34066060948E+02  0.00000000000E+00 0.  1.
          2   -1    0    0  502    0  0.00000000000E+00 -0.00000000000E+00 -0.86182809928E+03  0.86182809928E+03  0.00000000000E+00 0. -1.
         23    2    1    2    0    0  0.23059546808E+01  0.15903034347E+02 -0.42519579937E+02  0.10257734446E+03  0.91956364596E+02 0.  0.
         24    2    1    2    0    0  0.22642024639E+01 -0.38527875467E+02 -0.65829870963E+03  0.66429168208E+03  0.80229196581E+02 0.  0.
        -13    1    4    4    0    0 -0.88607439664E+01 -0.53465048444E+02 -0.26152928053E+03  0.26708535857E+03  0.00000000000E+00 0.  1.
         14    1    4    4    0    0  0.11124946430E+02  0.14937172977E+02 -0.39676942910E+03  0.39720632351E+03  0.00000000000E+00 0. -1.
        -11    1    3    3    0    0 -0.35271677785E+02  0.23669799941E+02 -0.47683286270E+02  0.63859584030E+02  0.00000000000E+00 0.  1.
         11    1    3    3    0    0  0.37577632466E+02 -0.77667655940E+01  0.51637063329E+01  0.38717760429E+02  0.00000000000E+00 0. -1.
         21    1    1    2  502  501 -0.45701571447E+01  0.22624841120E+02 -0.12694374877E+03  0.12902513369E+03  0.00000000000E+00 0. -1.
<scales pt_clust_5="13000.00000" pt_clust_6="13000.00000" pt_clust_7="13000.00000" pt_clust_8="13000.00000" pt_clust_9="23.08181"></scales>
<clustering>
<clus scale="   23.082">  2  9  1 -1</clus>
<clus scale="   80.229">  5  6 -1 -1</clus>
<clus scale="   82.275">  2  5  1 -1</clus>
<clus scale="   91.956">  7  8 -1 -1</clus>
<clus scale="   23.082">  2  5  1 -1</clus>
</clustering>
</event>
<event>
 9    2  0.3791909E-005  0.1066751E+03  0.7546771E-02  0.1269811E+00
         -1   -1    0    0    0  501 -0.00000000000E+00  0.00000000000E+00  0.21357466176E+03  0.21357466176E+03  0.00000000000E+00 0.  1.
          2   -1    0    0  502    0  0.00000000000E+00 -0.00000000000E+00 -0.19787164348E+03  0.19787164348E+03  0.00000000000E+00 0. -1.
         23    2    1    2    0    0  0.35229680143E+02 -0.43452932954E+02  0.18088488577E+03  0.21041724942E+03  0.91797544670E+02 0.  0.
         24    2    1    2    0    0 -0.16177039746E+02  0.34969109656E+02 -0.14217105218E+03  0.16997304216E+03  0.84815633798E+02 0.  0.
        -11    1    4    4    0    0 -0.47007731949E+02  0.27156657213E+02 -0.11844356365E+03  0.13029232005E+03  0.00000000000E+00 0.  1.
         12    1    4    4    0    0  0.30830692202E+02  0.78124524429E+01 -0.23727488529E+02  0.39680722104E+02  0.00000000000E+00 0. -1.
        -11    1    3    3    0    0  0.47684800738E+02  0.12030451272E+02  0.66851065389E+02  0.82991788286E+02  0.00000000000E+00 0. -1.
         11    1    3    3    0    0 -0.12455120595E+02 -0.55483384226E+02  0.11403382038E+03  0.12742546113E+03  0.00000000000E+00 0.  1.
         21    1    1    2  502  501 -0.19052640396E+02  0.84838232985E+01 -0.23010815305E+02  0.31056013666E+02  0.00000000000E+00 0. -1.
<scales pt_clust_5="13000.00000" pt_clust_6="13000.00000" pt_clust_7="13000.00000" pt_clust_8="13000.00000" pt_clust_9="20.85613"></scales>
<clustering>
<clus scale="   20.856">  2  9  1 -1</clus>
<clus scale="   84.816">  5  6 -1 -1</clus>
<clus scale="   91.798">  7  8 -1 -1</clus>
<clus scale="  100.730">  2  5  1 -1</clus>
<clus scale="   20.856">  2  5  1 -1</clus>
</clustering>
</event>
<event>
 9    2  0.3791909E-005  0.1643237E+03  0.7546771E-02  0.1201597E+00
          2   -1    0    0  502    0  0.00000000000E+00  0.00000000000E+00  0.25730430990E+03  0.25730430990E+03  0.00000000000E+00 0. -1.
         -1   -1    0    0    0  501 -0.00000000000E+00 -0.00000000000E+00 -0.18700279348E+03  0.18700279348E+03  0.00000000000E+00 0.  1.
         24    2    1    2    0    0 -0.51335834765E+00  0.68191770612E+02 -0.18446067550E+02  0.11286477015E+03  0.88021689472E+02 0.  0.
         23    2    1    2    0    0 -0.12763551124E+03  0.19553387309E+02  0.75946807099E+02  0.17560522145E+03  0.91630331268E+02 0.  0.
        -13    1    3    3    0    0 -0.29931470849E+02  0.16258488546E+02 -0.37067149974E+02  0.50340887995E+02  0.00000000000E+00 0.  1.
         14    1    3    3    0    0  0.29418112501E+02  0.51933282066E+02  0.18621082425E+02  0.62523882157E+02  0.00000000000E+00 0. -1.
        -13    1    4    4    0    0 -0.68308828320E+02  0.51969508905E+02  0.20685780161E+02  0.88288319631E+02  0.00000000000E+00 0.  1.
         13    1    4    4    0    0 -0.59326682922E+02 -0.32416121597E+02  0.55261026938E+02  0.87316901824E+02  0.00000000000E+00 0. -1.
         21    1    1    2  502  501  0.12814886959E+03 -0.87745157920E+02  0.12800776872E+02  0.15583711177E+03  0.00000000000E+00 0. -1.
<scales pt_clust_5="13000.00000" pt_clust_6="13000.00000" pt_clust_7="13000.00000" pt_clust_8="13000.00000" pt_clust_9="136.40445"></scales>
<clustering>
<clus scale="   88.022">  5  6 -1 -1</clus>
<clus scale="   91.630">  7  8 -1 -1</clus>
<clus scale="  111.347">  2  5  1 -1</clus>
<clus scale="  136.404">  2  9  1 -1</clus>
<clus scale="  164.324">  1  5  2 -1</clus>
</clustering>
</event>
<event>
 9    2  0.3791909E-005  0.1631550E+03  0.7546771E-02  0.1186336E+00
         -1   -1    0    0    0  501 -0.00000000000E+00  0.00000000000E+00  0.62111354555E+02  0.62111354555E+02  0.00000000000E+00 0.  1.
          2   -1    0    0  502    0  0.00000000000E+00 -0.00000000000E+00 -0.67075211765E+03  0.67075211765E+03  0.00000000000E+00 0. -1.
         24    2    1    2    0    0 -0.92207831707E+02  0.11966928389E+03 -0.13212811451E+03  0.21622001244E+03  0.80437761047E+02 0.  0.
         23    2    1    2    0    0  0.69799773822E+02 -0.11313021392E+03 -0.46284660026E+03  0.48959458971E+03  0.88348362618E+02 0.  0.
        -13    1    3    3    0    0 -0.68274920685E+02  0.24703463196E+02 -0.47296404271E+02  0.86652615341E+02  0.00000000000E+00 0.  1.
         14    1    3    3    0    0 -0.23932911021E+02  0.94965820691E+02 -0.84831710236E+02  0.12956739710E+03  0.00000000000E+00 0. -1.
        -13    1    4    4    0    0  0.56776983017E+02 -0.48049374178E+02 -0.35695486651E+03  0.36462192047E+03  0.00000000000E+00 0.  1.
         13    1    4    4    0    0  0.13022790805E+02 -0.65080839746E+02 -0.10589173375E+03  0.12497266925E+03  0.00000000000E+00 0. -1.
         21    1    1    2  502  501  0.22408057885E+02 -0.65390699626E+01 -0.13666048331E+02  0.27048870053E+02  0.00000000000E+00 0.  1.
<scales pt_clust_5="13000.00000" pt_clust_6="13000.00000" pt_clust_7="13000.00000" pt_clust_8="13000.00000" pt_clust_9="23.34268"></scales>
<clustering>
<clus scale="   23.343">  1  9  2 -1</clus>
<clus scale="   80.438">  5  6 -1 -1</clus>
<clus scale="   88.348">  7  8 -1 -1</clus>
<clus scale="  159.011">  1  5  2 -1</clus>
<clus scale="  163.155">  2  5  1 -1</clus>
</clustering>
</event>
<event>
 9    2  0.3791909E-005  0.1090354E+03  0.7546771E-02  0.1271023E+00
          2   -1    0    0  502    0  0.00000000000E+00  0.00000000000E+00  0.28026416621E+03  0.28026416621E+03  0.00000000000E+00 0. -1.
         -1   -1    0    0    0  501 -0.00000000000E+00 -0.00000000000E+00 -0.96906552790E+02  0.96906552790E+02  0.00000000000E+00 0.  1.
         23    2    1    2    0    0  0.51259757749E+02  0.13577823770E+02 -0.30330521623E+02  0.11629473013E+03  0.98957585113E+02 0.  0.
         24    2    1    2    0    0 -0.20159540489E+02 -0.32541259471E+02  0.70913990736E+02  0.11352846874E+03  0.79966108387E+02 0.  0.
        -13    1    4    4    0    0 -0.45177709274E+02  0.13403031076E+01  0.46500935325E+02  0.64847195882E+02  0.00000000000E+00 0.  1.
         14    1    4    4    0    0  0.25018168785E+02 -0.33881562579E+02  0.24413055411E+02  0.48681272853E+02  0.00000000000E+00 0. -1.
        -11    1    3    3    0    0 -0.52314111263E+00  0.28496135401E+02 -0.51125175362E+02  0.58532785387E+02  0.00000000000E+00 0.  1.
         11    1    3    3    0    0  0.51782898862E+02 -0.14918311631E+02  0.20794653738E+02  0.57761944743E+02  0.00000000000E+00 0. -1.
         21    1    1    2  502  501 -0.31100217260E+02  0.18963435701E+02  0.14277414430E+03  0.14734752013E+03  0.00000000000E+00 0. -1.
<scales pt_clust_5="13000.00000" pt_clust_6="13000.00000" pt_clust_7="13000.00000" pt_clust_8="13000.00000" pt_clust_9="36.42575"></scales>
<clustering>
<clus scale="   36.426">  1  9  2 -1</clus>
<clus scale="   79.966">  5  6 -1 -1</clus>
<clus scale="   92.145">  1  5  2 -1</clus>
<clus scale="   98.958">  7  8 -1 -1</clus>
<clus scale="   36.426">  1  5  2 -1</clus>
</clustering>
</event>
<event>
 9    2  0.3791909E-005  0.1916280E+03  0.7546771E-02  0.1157831E+00
         -1   -1    0    0    0  501 -0.00000000000E+00  0.00000000000E+00  0.89329209557E+02  0.89329209557E+02  0.00000000000E+00 0.  1.
          2   -1    0    0  502    0  0.00000000000E+00 -0.00000000000E+00 -0.10116357538E+04  0.10116357538E+04  0.00000000000E+00 0. -1.
         24    2    1    2    0    0 -0.77532334629E+02  0.14388900071E+03 -0.53122615969E+02  0.18977796556E+03  0.80488237931E+02 0.  0.
         23    2    1    2    0    0  0.10944996132E+03 -0.17286790668E+03 -0.63394977997E+03  0.67203512886E+03  0.88748429364E+02 0.  0.
        -13    1    3    3    0    0 -0.42370070016E+02  0.56109984365E+02  0.16659828681E+02  0.72257200820E+02  0.00000000000E+00 0.  1.
         14    1    3    3    0    0 -0.35162264613E+02  0.87779016348E+02 -0.69782444650E+02  0.11752076474E+03  0.00000000000E+00 0. -1.
        -11    1    4    4    0    0  0.33254998436E+02  0.89913944188E+00 -0.91679607870E+02  0.97528733571E+02  0.00000000000E+00 0.  1.
         11    1    4    4    0    0  0.76194962883E+02 -0.17376704613E+03 -0.54227017210E+03  0.57450639529E+03  0.00000000000E+00 0. -1.
         21    1    1    2  502  501 -0.31917626691E+02  0.28978905971E+02 -0.23523414834E+03  0.23915186897E+03  0.00000000000E+00 0. -1.
<scales pt_clust_5="13000.00000" pt_clust_6="13000.00000" pt_clust_7="13000.00000" pt_clust_8="13000.00000" pt_clust_9="43.11046"></scales>
<clustering>
<clus scale="   43.110">  2  9  1 -1</clus>
<clus scale="   80.488">  5  6 -1 -1</clus>
<clus scale="   88.748">  7  8 -1 -1</clus>
<clus scale="  187.945">  1  5  2 -1</clus>
<clus scale="   43.110">  2  5  1 -1</clus>
</clustering>
</event>
<event>
 9    2  0.3791909E-005  0.9592385E+02  0.7546771E-02  0.1295270E+00
          2   -1    0    0  502    0  0.00000000000E+00  0.00000000000E+00  0.19272126419E+03  0.19272126419E+03  0.00000000000E+00 0. -1.
         -1   -1    0    0    0  501 -0.00000000000E+00 -0.00000000000E+00 -0.13691436943E+03  0.13691436943E+03  0.00000000000E+00 0.  1.
         24    2    1    2    0    0  0.26734139605E+02  0.15708102013E+02 -0.72952342788E+02  0.11338448311E+03  0.81071190959E+02 0.  0.
         23    2    1    2    0    0 -0.70453200001E+01 -0.20209558037E+02  0.90886166024E+01  0.94888181513E+02  0.91995115463E+02 0.  0.
        -13    1    3    3    0    0  0.27351058205E+02  0.47344411564E+02 -0.51838914318E+02  0.75344852040E+02  0.00000000000E+00 0.  1.
         14    1    3    3    0    0 -0.61691860014E+00 -0.31636309550E+02 -0.21113428470E+02  0.38039631074E+02  0.00000000000E+00 0. -1.
        -13    1    4    4    0    0  0.22311149435E+02 -0.46160665209E+02 -0.84466375926E+01  0.51960947723E+02  0.00000000000E+00 0.  1.
         13    1    4    4    0    0 -0.29356469435E+02  0.25951107172E+02  0.17535254195E+02  0.42927233790E+02  0.00000000000E+00 0. -1.
         21    1    1    2  502  501 -0.19688819605E+02  0.45014560234E+01  0.11967062095E+03  0.12136296899E+03  0.00000000000E+00 0. -1.
<scales pt_clust_5="13000.00000" pt_clust_6="13000.00000" pt_clust_7="13000.00000" pt_clust_8="13000.00000" pt_clust_9="20.19685"></scales>
<clustering>
<clus scale="   20.197">  1  9  2 -1</clus>
<clus scale="   81.071">  5  6 -1 -1</clus>
<clus scale="   85.503">  2  5  1 -1</clus>
<clus scale="   91.995">  7  8 -1 -1</clus>
<clus scale="   20.197">  1  5  2 -1</clus>
</clustering>
</event>
<event>
 9    2  0.3791909E-005  0.1104993E+03  0.7546771E-02  0.1266394E+00
          2   -1    0    0  502    0  0.00000000000E+00  0.00000000000E+00  0.35435845777E+03  0.35435845777E+03  0.00000000000E+00 0. -1.
         -1   -1    0    0    0  501 -0.00000000000E+00 -0.00000000000E+00 -0.15788715968E+03  0.15788715968E+03  0.00000000000E+00 0.  1.
         24    2    1    2    0    0  0.51758309992E+02  0.22600320018E+02 -0.10819936980E+03  0.14475614622E+03  0.77830207025E+02 0.  0.
         23    2    1    2    0    0 -0.72477228184E+02  0.70472655075E+01  0.88738581748E+02  0.14854902561E+03  0.94285017707E+02 0.  0.
        -13    1    3    3    0    0  0.53339385600E+02  0.46709507990E+02 -0.89638575089E+02  0.11428885482E+03  0.00000000000E+00 0.  1.
         14    1    3    3    0    0 -0.15810756088E+01 -0.24109187972E+02 -0.18560794709E+02  0.30467291396E+02  0.00000000000E+00 0. -1.
        -13    1    4    4    0    0 -0.29726626270E+02  0.34683455024E+02  0.86229787767E+02  0.97581712734E+02  0.00000000000E+00 0. -1.
         13    1    4    4    0    0 -0.42750601914E+02 -0.27636189517E+02  0.25087939811E+01  0.50967312880E+02  0.00000000000E+00 0.  1.
         21    1    1    2  502  501  0.20718918192E+02 -0.29647585526E+02  0.21593208614E+03  0.21894044561E+03  0.00000000000E+00 0. -1.
<scales pt_clust_5="13000.00000" pt_clust_6="13000.00000" pt_clust_7="13000.00000" pt_clust_8="13000.00000" pt_clust_9="36.16978"></scales>
<clustering>
<clus scale="   36.170">  1  9  2 -1</clus>
<clus scale="   77.830">  5  6 -1 -1</clus>
<clus scale="   94.285">  7  8 -1 -1</clus>
<clus scale="   96.840">  2  5  1 -1</clus>
<clus scale="   36.170">  1  5  2 -1</clus>
</clustering>
</event>
<event>
 9    2  0.3791909E-005  0.1488806E+03  0.7546771E-02  0.1203913E+00
         -1   -1    0    0    0  501 -0.00000000000E+00  0.00000000000E+00  0.20009999108E+03  0.20009999108E+03  0.00000000000E+00 0.  1.
          2   -1    0    0  502    0  0.00000000000E+00 -0.00000000000E+00 -0.29031580592E+03  0.29031580592E+03  0.00000000000E+00 0. -1.
         24    2    1    2    0    0  0.36390655521E+02  0.11108951896E+03  0.13179507449E+03  0.19334790508E+03  0.79676280697E+02 0.  0.
         23    2    1    2    0    0 -0.73749900941E+02 -0.10775421283E+03 -0.18997662941E+03  0.24774212487E+03  0.90747024430E+02 0.  0.
        -11    1    3    3    0    0  0.35610445619E+02  0.95200072369E+02  0.56296496670E+02  0.11619145043E+03  0.00000000000E+00 0.  1.
         12    1    3    3    0    0  0.78020990157E+00  0.15889446592E+02  0.75498577822E+02  0.77156454646E+02  0.00000000000E+00 0. -1.
        -11    1    4    4    0    0 -0.70728392087E+02 -0.66076669436E+02 -0.18062068164E+03  0.20492062445E+03  0.00000000000E+00 0. -1.
         11    1    4    4    0    0 -0.30215088538E+01 -0.41677543399E+02 -0.93559477699E+01  0.42821500420E+02  0.00000000000E+00 0.  1.
         21    1    1    2  502  501  0.37359245420E+02 -0.33353061266E+01 -0.32034259931E+02  0.49325767046E+02  0.00000000000E+00 0. -1.
<scales pt_clust_5="13000.00000" pt_clust_6="13000.00000" pt_clust_7="13000.00000" pt_clust_8="13000.00000" pt_clust_9="37.50783"></scales>
<clustering>
<clus scale="   37.508">  2  9  1 -1</clus>
<clus scale="   79.676">  5  6 -1 -1</clus>
<clus scale="   90.747">  7  8 -1 -1</clus>
<clus scale="  142.403">  1  5  2 -1</clus>
<clus scale="   37.508">  2  5  1 -1</clus>
</clustering>
</event>
<event>
 9    2  0.3791909E-005  0.1364239E+03  0.7546771E-02  0.1220349E+00
          2   -1    0    0  502    0  0.00000000000E+00  0.00000000000E+00  0.40039002200E+03  0.40039002200E+03  0.00000000000E+00 0. -1.
         -1   -1    0    0    0  501 -0.00000000000E+00 -0.00000000000E+00 -0.25851237584E+03  0.25851237584E+03  0.00000000000E+00 0.  1.
         23    2    1    2    0    0  0.10028754878E+03 -0.26672625182E+01 -0.21801181908E+03  0.25657609641E+03  0.90760306644E+02 0.  0.
         24    2    1    2    0    0 -0.12365310478E+03  0.36201850059E+01  0.25547611438E+03  0.29532627757E+03  0.81525266886E+02 0.  0.
        -13    1    4    4    0    0 -0.69871844833E+02 -0.12110481675E+02  0.62989589722E+02  0.94849495940E+02  0.00000000000E+00 0.  1.
         14    1    4    4    0    0 -0.53781259945E+02  0.15730666681E+02  0.19248652466E+03  0.20047678163E+03  0.00000000000E+00 0. -1.
        -13    1    3    3    0    0  0.90606813434E+02 -0.27885498633E+02 -0.20648402593E+03  0.22720662103E+03  0.00000000000E+00 0.  1.
         13    1    3    3    0    0  0.96807353411E+01  0.25218236115E+02 -0.11527793156E+02  0.29369475387E+02  0.00000000000E+00 0. -1.
         21    1    1    2  502  501  0.23365556002E+02 -0.95292248769E+00  0.10441335086E+03  0.10700002386E+03  0.00000000000E+00 0. -1.
<scales pt_clust_5="13000.00000" pt_clust_6="13000.00000" pt_clust_7="13000.00000" pt_clust_8="13000.00000" pt_clust_9="23.38498"></scales>
<clustering>
<clus scale="   23.385">  1  9  2 -1</clus>
<clus scale="   81.525">  5  6 -1 -1</clus>
<clus scale="   90.760">  7  8 -1 -1</clus>
<clus scale="  130.462">  1  5  2 -1</clus>
<clus scale="   23.385">  1  5  2 -1</clus>
</clustering>
</event>
<event>
 9    2  0.3791909E-005  0.3052074E+03  0.7546771E-02  0.1121578E+00
         -1   -1    0    0    0  501 -0.00000000000E+00  0.00000000000E+00  0.51698526528E+02  0.51698526528E+02  0.00000000000E+00 0.  1.
          2   -1    0    0  502    0  0.00000000000E+00 -0.00000000000E+00 -0.31104811105E+04  0.31104811105E+04  0.00000000000E+00 0. -1.
         23    2    1    2    0    0 -0.16111080563E+02  0.60043506805E+02 -0.14153508586E+03  0.18024566620E+03  0.92690506678E+02 0.  0.
         24    2    1    2    0    0  0.29985178871E+03  0.34025146714E+01 -0.18482622293E+04  0.18741146299E+04  0.79433655405E+02 0.  0.
        -13    1    4    4    0    0  0.25492570501E+03  0.24110208640E+02 -0.14093118174E+04  0.14323854983E+04  0.00000000000E+00 0.  1.
         14    1    4    4    0    0  0.44926083704E+02 -0.20707693969E+02 -0.43895041191E+03  0.44172913160E+03  0.00000000000E+00 0. -1.
        -13    1    3    3    0    0 -0.18155825602E+02  0.32961862760E+02 -0.14768108802E+03  0.15240020393E+03  0.00000000000E+00 0. -1.
         13    1    3    3    0    0  0.20447450391E+01  0.27081644045E+02  0.61460021580E+01  0.27845462269E+02  0.00000000000E+00 0.  1.
         21    1    1    2  502  501 -0.28374070815E+03 -0.63446021476E+02 -0.10689852688E+04  0.11078193409E+04  0.00000000000E+00 0. -1.
<scales pt_clust_5="13000.00000" pt_clust_6="13000.00000" pt_clust_7="13000.00000" pt_clust_8="13000.00000" pt_clust_9="294.68940"></scales>
<clustering>
<clus scale="   79.434">  5  6 -1 -1</clus>
<clus scale="   92.691">  7  8 -1 -1</clus>
<clus scale="  111.608">  1  7  2 -1</clus>
<clus scale="  294.689">  1  9  2 -1</clus>
<clus scale="  305.207">  2  5  1 -1</clus>
</clustering>
</event>
<event>
 9    2  0.3791909E-005  0.1098986E+03  0.7546771E-02  0.1263318E+00
         -1   -1    0    0    0  501 -0.00000000000E+00  0.00000000000E+00  0.45395971030E+03  0.45395971030E+03  0.00000000000E+00 0.  1.
          2   -1    0    0  502    0  0.00000000000E+00 -0.00000000000E+00 -0.66664363454E+03  0.66664363454E+03  0.00000000000E+00 0. -1.
         23    2    1    2    0    0 -0.40265619836E+02  0.58202367683E+02  0.42471625393E+03  0.43936300085E+03  0.87447781101E+02 0.  0.
         24    2    1    2    0    0 -0.21025198689E+02 -0.27140507372E+02 -0.76951313763E+02  0.11659502769E+03  0.80586783475E+02 0.  0.
        -11    1    4    4    0    0 -0.31572820564E+02  0.17275001447E+02 -0.13522475005E+02  0.38446404301E+02  0.00000000000E+00 0.  1.
         12    1    4    4    0    0  0.10547621875E+02 -0.44415508819E+02 -0.63428838758E+02  0.78148623385E+02  0.00000000000E+00 0. -1.
        -13    1    3    3    0    0 -0.67163906133E+02  0.49775165200E+02  0.29479012291E+03  0.30641438270E+03  0.00000000000E+00 0.  1.
         13    1    3    3    0    0  0.26898286297E+02  0.84272024832E+01  0.12992613102E+03  0.13294861816E+03  0.00000000000E+00 0. -1.
         21    1    1    2  502  501  0.61290818525E+02 -0.31061860311E+02 -0.56044886441E+03  0.56464531630E+03  0.00000000000E+00 0. -1.
<scales pt_clust_5="13000.00000" pt_clust_6="13000.00000" pt_clust_7="13000.00000" pt_clust_8="13000.00000" pt_clust_9="68.71247"></scales>
<clustering>
<clus scale="   68.712">  2  9  1 -1</clus>
<clus scale="   80.587">  5  6 -1 -1</clus>
<clus scale="   87.448">  7  8 -1 -1</clus>
<clus scale="  104.522">  2  5  1 -1</clus>
<clus scale="   68.712">  2  5  1 -1</clus>
</clustering>
</event>
<event>
 9    2  0.3791909E-005  0.1228800E+03  0.7546771E-02  0.1241872E+00
          2   -1    0    0  502    0  0.00000000000E+00  0.00000000000E+00  0.35126230229E+03  0.35126230229E+03  0.00000000000E+00 0. -1.
         -1   -1    0    0    0  501 -0.00000000000E+00 -0.00000000000E+00 -0.72317575389E+02  0.72317575389E+02  0.00000000000E+00 0.  1.
         24    2    1    2    0    0  0.60479708490E+02 -0.59244313652E+02  0.20197959923E+02  0.11832788556E+03  0.80161381460E+02 0.  0.
         23    2    1    2    0    0 -0.37503407153E+02  0.67861760088E+02  0.14197039528E+03  0.18592516448E+03  0.91656148845E+02 0.  0.
        -11    1    3    3    0    0  0.68062034667E+01 -0.33192563550E+02 -0.26132133170E+02  0.42789707461E+02  0.00000000000E+00 0.  1.
         12    1    3    3    0    0  0.53673505023E+02 -0.26051750102E+02  0.46330093093E+02  0.75538178101E+02  0.00000000000E+00 0. -1.
        -11    1    4    4    0    0 -0.27288559329E+02 -0.13252823484E+02  0.12517673747E+02  0.32817601323E+02  0.00000000000E+00 0.  1.
         11    1    4    4    0    0 -0.10214847824E+02  0.81114583572E+02  0.12945272153E+03  0.15310756315E+03  0.00000000000E+00 0. -1.
         21    1    1    2  502  501 -0.22976301337E+02 -0.86174464360E+01  0.11677637171E+03  0.11932682764E+03  0.00000000000E+00 0. -1.
<scales pt_clust_5="13000.00000" pt_clust_6="13000.00000" pt_clust_7="13000.00000" pt_clust_8="13000.00000" pt_clust_9="24.53917"></scales>
<clustering>
<clus scale="   24.539">  1  9  2 -1</clus>
<clus scale="   80.161">  5  6 -1 -1</clus>
<clus scale="   91.656">  7  8 -1 -1</clus>
<clus scale="  114.562">  2  5  1 -1</clus>
<clus scale="   24.539">  1  5  2 -1</clus>
</clustering>
</event>
<event>
 9    2  0.3791909E-005  0.3022937E+03  0.7546771E-02  0.1084264E+00
          2   -1    0    0  502    0  0.00000000000E+00  0.00000000000E+00  0.10471186214E+04  0.10471186214E+04  0.00000000000E+00 0. -1.
         -1   -1    0    0    0  501 -0.00000000000E+00 -0.00000000000E+00 -0.15889019491E+03  0.15889019491E+03  0.00000000000E+00 0.  1.
         24    2    1    2    0    0 -0.17095245820E+03  0.20758965027E+03  0.21289448527E+03  0.35248810699E+03  0.81274829117E+02 0.  0.
         23    2    1    2    0    0  0.15845782728E+03 -0.27144034972E+03  0.21912906126E+03  0.39269978952E+03  0.86062957881E+02 0.  0.
        -11    1    3    3    0    0 -0.10227602834E+03  0.66238738881E+02  0.11362567046E+03  0.16660957202E+03  0.00000000000E+00 0.  1.
         12    1    3    3    0    0 -0.68676429858E+02  0.14135091139E+03  0.99268814813E+02  0.18587853497E+03  0.00000000000E+00 0. -1.
        -11    1    4    4    0    0  0.75267878875E+02 -0.16340055664E+03  0.76848562532E+02  0.19562897808E+03  0.00000000000E+00 0.  1.
         11    1    4    4    0    0  0.83189948407E+02 -0.10803979308E+03  0.14228049873E+03  0.19707081144E+03  0.00000000000E+00 0. -1.
         21    1    1    2  502  501  0.12494630917E+02  0.63850699447E+02  0.45620487994E+03  0.46082091977E+03  0.00000000000E+00 0. -1.
<scales pt_clust_5="13000.00000" pt_clust_6="13000.00000" pt_clust_7="13000.00000" pt_clust_8="13000.00000" pt_clust_9="65.06172"></scales>
<clustering>
<clus scale="   65.062">  1  9  2 -1</clus>
<clus scale="   81.275">  5  6 -1 -1</clus>
<clus scale="   86.063">  7  8 -1 -1</clus>
<clus scale="  300.966">  2  5  1 -1</clus>
<clus scale="   65.062">  1  5  2 -1</clus>
</clustering>
</event>
<event>
 9    2  0.3791909E-005  0.9311468E+02  0.7546771E-02  0.1303034E+00
          2   -1    0    0  502    0  0.00000000000E+00  0.00000000000E+00  0.29360509987E+03  0.29360509987E+03  0.00000000000E+00 0. -1.
         -1   -1    0    0    0  501 -0.00000000000E+00 -0.00000000000E+00 -0.12963829371E+03  0.12963829371E+03  0.00000000000E+00 0.  1.
         23    2    1    2    0    0 -0.25355740172E+02  0.12819828017E+01 -0.10082031636E+03  0.13729778858E+03  0.89673795052E+02 0.  0.
         24    2    1    2    0    0  0.21358073075E+02  0.19533946495E+02  0.23779401348E+03  0.25162487963E+03  0.77015224798E+02 0.  0.
        -11    1    4    4    0    0  0.41495396966E+02  0.86045941802E+01  0.66839464986E+02  0.79141778410E+02  0.00000000000E+00 0.  1.
         12    1    4    4    0    0 -0.20137323891E+02  0.10929352315E+02  0.17095454850E+03  0.17248310122E+03  0.00000000000E+00 0. -1.
        -11    1    3    3    0    0 -0.12123709545E+02 -0.44199031007E+02 -0.49642728016E+02  0.67564333195E+02  0.00000000000E+00 0.  1.
         11    1    3    3    0    0 -0.13232030627E+02  0.45481013809E+02 -0.51177588342E+02  0.69733455386E+02  0.00000000000E+00 0. -1.
         21    1    1    2  502  501  0.39976670971E+01 -0.20815929297E+02  0.26993109032E+02  0.34320725370E+02  0.00000000000E+00 0.  1.
<scales pt_clust_5="13000.00000" pt_clust_6="13000.00000" pt_clust_7="13000.00000" pt_clust_8="13000.00000" pt_clust_9="21.19633"></scales>
<clustering>
<clus scale="   21.196">  1  9  2 -1</clus>
<clus scale="   77.015">  5  6 -1 -1</clus>
<clus scale="   80.996">  1  5  2 -1</clus>
<clus scale="   89.674">  7  8 -1 -1</clus>
<clus scale="   21.196">  1  5  2 -1</clus>
</clustering>
</event>
<event>
 9    2  0.3791909E-005  0.2272380E+03  0.7546771E-02  0.1171619E+00
         -1   -1    0    0    0  501 -0.00000000000E+00  0.00000000000E+00  0.60867752871E+02  0.60867752871E+02  0.00000000000E+00 0.  1.
          2   -1    0    0  502    0  0.00000000000E+00 -0.00000000000E+00 -0.17776903554E+04  0.17776903554E+04  0.00000000000E+00 0. -1.
         24    2    1    2    0    0  0.18096066622E+02 -0.41369713510E+01 -0.17335797346E+02  0.83794944665E+02  0.79852869220E+02 0.  0.
         23    2    1    2    0    0 -0.17484907085E+03  0.12684924525E+03 -0.10233997069E+04  0.10499769755E+04  0.91879052953E+02 0.  0.
        -11    1    3    3    0    0 -0.10097047821E+02  0.24171023826E+02  0.16905676697E+02  0.31176764940E+02  0.00000000000E+00 0.  1.
         12    1    3    3    0    0  0.28193114443E+02 -0.28307995178E+02 -0.34241474043E+02  0.52618179725E+02  0.00000000000E+00 0. -1.
        -13    1    4    4    0    0 -0.16475716843E+02  0.61058107189E+02 -0.27219335832E+03  0.27944367234E+03  0.00000000000E+00 0. -1.
         13    1    4    4    0    0 -0.15837335400E+03  0.65791138058E+02 -0.75120634860E+03  0.77053330316E+03  0.00000000000E+00 0.  1.
         21    1    1    2  502  501  0.15675300423E+03 -0.12271227390E+03 -0.67608709824E+03  0.70478618808E+03  0.00000000000E+00 0. -1.
<scales pt_clust_5="13000.00000" pt_clust_6="13000.00000" pt_clust_7="13000.00000" pt_clust_8="13000.00000" pt_clust_9="207.83487"></scales>
<clustering>
<clus scale="   79.853">  5  6 -1 -1</clus>
<clus scale="   81.982">  1  5  2 -1</clus>
<clus scale="   91.879">  7  8 -1 -1</clus>
<clus scale="  207.835">  1  9  2 -1</clus>
<clus scale="  227.238">  2  5  1 -1</clus>
</clustering>
</event>
<event>
 9    2  0.3791909E-005  0.1166814E+03  0.7546771E-02  0.1252738E+00
          2   -1    0    0  502    0  0.00000000000E+00  0.00000000000E+00  0.46123818516E+03  0.46123818516E+03  0.00000000000E+00 0. -1.
         -1   -1    0    0    0  501 -0.00000000000E+00 -0.00000000000E+00 -0.98944540641E+02  0.98944540641E+02  0.00000000000E+00 0.  1.
         23    2    1    2    0    0  0.72592744444E+02  0.90808965008E+01 -0.48781637754E+02  0.12813743259E+03  0.93206138331E+02 0.  0.
         24    2    1    2    0    0 -0.52755395150E+02  0.27959105149E+01  0.23257907267E+03  0.25205786083E+03  0.81542573715E+02 0.  0.
        -13    1    4    4    0    0 -0.35122468807E+02 -0.20087873121E+00  0.23601246969E+02  0.42316037455E+02  0.00000000000E+00 0.  1.
         14    1    4    4    0    0 -0.17632926343E+02  0.29967892461E+01  0.20897782570E+03  0.20974182337E+03  0.00000000000E+00 0. -1.
        -11    1    3    3    0    0  0.37387352263E+01  0.40386602731E+02 -0.53298954266E+01  0.40907989519E+02  0.00000000000E+00 0. -1.
         11    1    3    3    0    0  0.68854009218E+02 -0.31305706230E+02 -0.43451742327E+02  0.87229443075E+02  0.00000000000E+00 0.  1.
         21    1    1    2  502  501 -0.19837349294E+02 -0.11876807016E+02  0.17849620960E+03  0.17998743238E+03  0.00000000000E+00 0. -1.
<scales pt_clust_5="13000.00000" pt_clust_6="13000.00000" pt_clust_7="13000.00000" pt_clust_8="13000.00000" pt_clust_9="23.12096"></scales>
<clustering>
<clus scale="   23.121">  1  9  2 -1</clus>
<clus scale="   81.543">  5  6 -1 -1</clus>
<clus scale="   93.206">  7  8 -1 -1</clus>
<clus scale="  107.593">  1  5  2 -1</clus>
<clus scale="   23.121">  1  5  2 -1</clus>
</clustering>
</event>
<event>
 9    2  0.3791909E-005  0.9632905E+02  0.7546771E-02  0.1293889E+00
          2   -1    0    0  502    0  0.00000000000E+00  0.00000000000E+00  0.30115724122E+03  0.30115724122E+03  0.00000000000E+00 0. -1.
         -1   -1    0    0    0  501 -0.00000000000E+00 -0.00000000000E+00 -0.82342269902E+02  0.82342269902E+02  0.00000000000E+00 0.  1.
         23    2    1    2    0    0  0.17899246931E+02 -0.19573543565E+02 -0.24895699138E+02  0.97902702501E+02  0.90893545828E+02 0.  0.
         24    2    1    2    0    0 -0.33969064769E+02  0.55632546052E+02  0.20794062287E+03  0.23232404813E+03  0.80537464321E+02 0.  0.
        -13    1    4    4    0    0 -0.55604142417E+01  0.55378973069E+02  0.60645646684E+02  0.82314296003E+02  0.00000000000E+00 0.  1.
         14    1    4    4    0    0 -0.28408650527E+02  0.25357298256E+00  0.14729497619E+03  0.15000975213E+03  0.00000000000E+00 0. -1.
        -13    1    3    3    0    0  0.52697250787E+02 -0.22181261845E+02 -0.26397360453E+02  0.62974830340E+02  0.00000000000E+00 0.  1.
         13    1    3    3    0    0 -0.34798003856E+02  0.26077182795E+01  0.15016613151E+01  0.34927872161E+02  0.00000000000E+00 0. -1.
         21    1    1    2  502  501  0.16069817838E+02 -0.36059002487E+02  0.35770047580E+02  0.53272760484E+02  0.00000000000E+00 0.  1.
<scales pt_clust_5="13000.00000" pt_clust_6="13000.00000" pt_clust_7="13000.00000" pt_clust_8="13000.00000" pt_clust_9="39.47772"></scales>
<clustering>
<clus scale="   39.478">  1  9  2 -1</clus>
<clus scale="   80.537">  5  6 -1 -1</clus>
<clus scale="   86.625">  1  5  2 -1</clus>
<clus scale="   90.894">  7  8 -1 -1</clus>
<clus scale="   39.478">  1  5  2 -1</clus>
</clustering>
</event>
<event>
 9    2  0.3791909E-005  0.1195056E+03  0.7546771E-02  0.1247149E+00
          2   -1    0    0  502    0  0.00000000000E+00  0.00000000000E+00  0.30815356612E+03  0.30815356612E+03  0.00000000000E+00 0. -1.
         -1   -1    0    0    0  501 -0.00000000000E+00 -0.00000000000E+00 -0.69008850986E+02  0.69008850986E+02  0.00000000000E+00 0.  1.
         23    2    1    2    0    0  0.46066789565E+02 -0.66157593098E+02  0.34490669254E+02  0.12679082974E+03  0.91582378299E+02 0.  0.
         24    2    1    2    0    0 -0.13165216795E+02  0.71320642512E+02  0.17229473149E+03  0.20393565519E+03  0.81512698243E+02 0.  0.
        -11    1    4    4    0    0  0.68388413519E+01  0.45605791888E+02  0.23773104147E+02  0.51882737838E+02  0.00000000000E+00 0.  1.
         12    1    4    4    0    0 -0.20004058147E+02  0.25714850624E+02  0.14852162734E+03  0.15205291735E+03  0.00000000000E+00 0. -1.
        -11    1    3    3    0    0  0.42176117533E+02 -0.52834956581E+01  0.48206189845E+02  0.64269564771E+02  0.00000000000E+00 0. -1.
         11    1    3    3    0    0  0.38906720319E+01 -0.60874097440E+02 -0.13715520591E+02  0.62521264967E+02  0.00000000000E+00 0.  1.
         21    1    1    2  502  501 -0.32901572770E+02 -0.51630494139E+01  0.32359314394E+02  0.46435932187E+02  0.00000000000E+00 0.  1.
<scales pt_clust_5="13000.00000" pt_clust_6="13000.00000" pt_clust_7="13000.00000" pt_clust_8="13000.00000" pt_clust_9="33.30421"></scales>
<clustering>
<clus scale="   33.304">  1  9  2 -1</clus>
<clus scale="   81.513">  5  6 -1 -1</clus>
<clus scale="   91.582">  7  8 -1 -1</clus>
<clus scale="  111.976">  1  5  2 -1</clus>
<clus scale="   33.304">  1  5  2 -1</clus>
</clustering>
</event>
<event>
 9    2  0.4793618E-005  0.1155525E+03  0.7546771E-02  0.1252327E+00
          2   -1    0    0  502    0  0.00000000000E+00  0.00000000000E+00  0.12756461338E+04  0.12756461338E+04  0.00000000000E+00 0. -1.
         -1   -1    0    0    0  501 -0.00000000000E+00 -0.00000000000E+00 -0.88348132577E+02  0.88348132577E+02  0.00000000000E+00 0.  1.
         23    2    1    2    0    0  0.69203424905E+01 -0.78466242856E+02 -0.43153834008E+02  0.12430865777E+03  0.85939202924E+02 0.  0.
         24    2    1    2    0    0  0.23915807236E+01  0.37209631756E+02  0.10722981114E+04  0.10759742155E+04  0.80665955272E+02 0.  0.
        -11    1    4    4    0    0  0.25039303944E+02 -0.31461585502E+01  0.12369953761E+03  0.12624753725E+03  0.00000000000E+00 0.  1.
         12    1    4    4    0    0 -0.22647723221E+02  0.40355790306E+02  0.94859857382E+03  0.94972667828E+03  0.00000000000E+00 0. -1.
        -13    1    3    3    0    0 -0.99500899981E+01 -0.92472528224E+02 -0.26301131358E+02  0.96653620097E+02  0.00000000000E+00 0.  1.
         13    1    3    3    0    0  0.16870432489E+02  0.14006285368E+02 -0.16852702649E+02  0.27655037674E+02  0.00000000000E+00 0. -1.
         21    1    1    2  502  501 -0.93119232141E+01  0.41256611100E+02  0.15815372384E+03  0.16371139312E+03  0.00000000000E+00 0. -1.
<scales pt_clust_5="13000.00000" pt_clust_6="13000.00000" pt_clust_7="13000.00000" pt_clust_8="13000.00000" pt_clust_9="42.29444"></scales>
<clustering>
<clus scale="   42.294">  1  9  2 -1</clus>
<clus scale="   80.666">  5  6 -1 -1</clus>
<clus scale="   85.939">  7  8 -1 -1</clus>
<clus scale="  111.686">  1  5  2 -1</clus>
<clus scale="   42.294">  1  5  2 -1</clus>
</clustering>
</event>
<event>
 9    2  0.3791909E-005  0.9690955E+02  0.7546771E-02  0.1294980E+00
         -1   -1    0    0    0  501 -0.00000000000E+00  0.00000000000E+00  0.82497628484E+02  0.82497628484E+02  0.00000000000E+00 0.  1.
          2   -1    0    0  502    0  0.00000000000E+00 -0.00000000000E+00 -0.39260056211E+03  0.39260056211E+03  0.00000000000E+00 0. -1.
         24    2    1    2    0    0 -0.39651344530E+02  0.53851841672E+01  0.89448713087E+01  0.88823939175E+02  0.78793731453E+02 0.  0.
         23    2    1    2    0    0 -0.19484347940E+02  0.58900640914E+02 -0.98278233722E+02  0.14885289391E+03  0.93003481042E+02 0.  0.
        -13    1    3    3    0    0 -0.19581404444E+02  0.42139430942E+02  0.35748201895E+01  0.46604102604E+02  0.00000000000E+00 0.  1.
         14    1    3    3    0    0 -0.20069940086E+02 -0.36754246775E+02  0.53700511192E+01  0.42219836571E+02  0.00000000000E+00 0. -1.
        -11    1    4    4    0    0 -0.51641508719E+02  0.13833021009E+02 -0.31284058808E+02  0.61942636596E+02  0.00000000000E+00 0. -1.
         11    1    4    4    0    0  0.32157160778E+02  0.45067619905E+02 -0.66994174914E+02  0.86910257310E+02  0.00000000000E+00 0.  1.
         21    1    1    2  502  501  0.59135692470E+02 -0.64285825081E+02 -0.22076957122E+03  0.23742135752E+03  0.00000000000E+00 0. -1.
<scales pt_clust_5="13000.00000" pt_clust_6="13000.00000" pt_clust_7="13000.00000" pt_clust_8="13000.00000" pt_clust_9="87.34814"></scales>
<clustering>
<clus scale="   78.794">  5  6 -1 -1</clus>
<clus scale="   87.348">  2  9  1 -1</clus>
<clus scale="   83.368">  1  5  2 -1</clus>
<clus scale="   93.003">  7  8 -1 -1</clus>
<clus scale="   87.348">  2  5  1 -1</clus>
</clustering>
</event>
<event>
 9    2  0.3791909E-005  0.1038196E+03  0.7546771E-02  0.1277014E+00
          2   -1    0    0  502    0  0.00000000000E+00  0.00000000000E+00  0.11344324017E+04  0.11344324017E+04  0.00000000000E+00 0. -1.
         -1   -1    0    0    0  501 -0.00000000000E+00 -0.00000000000E+00 -0.26423028066E+02  0.26423028066E+02  0.00000000000E+00 0.  1.
         23    2    1    2    0    0  0.23581692729E+02 -0.31273458512E+02  0.12373179677E+03  0.15859076407E+03  0.91144651396E+02 0.  0.
         24    2    1    2    0    0 -0.50211971390E+02  0.85762259162E+02  0.65296143835E+03  0.66544337067E+03  0.81116166290E+02 0.  0.
        -11    1    4    4    0    0 -0.67249212006E+02  0.71381943065E+02  0.41457936393E+03  0.42602099397E+03  0.00000000000E+00 0.  1.
         12    1    4    4    0    0  0.17037240617E+02  0.14380316097E+02  0.23838207442E+03  0.23942237670E+03  0.00000000000E+00 0. -1.
        -13    1    3    3    0    0  0.50780756135E+02 -0.26220382426E+02  0.38315073217E+02  0.68805802691E+02  0.00000000000E+00 0. -1.
         13    1    3    3    0    0 -0.27199063406E+02 -0.50530760856E+01  0.85416723550E+02  0.89784961380E+02  0.00000000000E+00 0.  1.
         21    1    1    2  502  501  0.26630278660E+02 -0.54488800650E+02  0.33131613850E+03  0.33682129500E+03  0.00000000000E+00 0. -1.
<scales pt_clust_5="13000.00000" pt_clust_6="13000.00000" pt_clust_7="13000.00000" pt_clust_8="13000.00000" pt_clust_9="60.64818"></scales>
<clustering>
<clus scale="   60.648">  1  9  2 -1</clus>
<clus scale="   81.116">  5  6 -1 -1</clus>
<clus scale="   91.145">  7  8 -1 -1</clus>
<clus scale="   95.137">  1  5  2 -1</clus>
<clus scale="   60.648">  1  5  2 -1</clus>
</clustering>
</event>
<event>
 9    2  0.3791909E-005  0.9890966E+02  0.7546771E-02  0.1289336E+00
          2   -1    0    0  502    0  0.00000000000E+00  0.00000000000E+00  0.32220355167E+03  0.32220355167E+03  0.00000000000E+00 0. -1.
         -1   -1    0    0    0  501 -0.00000000000E+00 -0.00000000000E+00 -0.41207931523E+02  0.41207931523E+02  0.00000000000E+00 0.  1.
         23    2    1    2    0    0 -0.53172473551E+01 -0.44430997009E+02  0.70175618198E+02  0.12444674980E+03  0.92520211477E+02 0.  0.
         24    2    1    2    0    0 -0.95299471860E+01  0.20221089742E+02  0.14038047667E+03  0.16301550352E+03  0.79797642797E+02 0.  0.
        -13    1    4    4    0    0  0.13714018783E+02 -0.22456193429E+02  0.19555394123E+02  0.32783660165E+02  0.00000000000E+00 0.  1.
         14    1    4    4    0    0 -0.23243965969E+02  0.42677283170E+02  0.12082508254E+03  0.13023184336E+03  0.00000000000E+00 0. -1.
        -13    1    3    3    0    0  0.57588671295E+01 -0.70096901091E+02  0.32358818822E+02  0.77419850483E+02  0.00000000000E+00 0.  1.
         13    1    3    3    0    0 -0.11076114485E+02  0.25665904082E+02  0.37816799376E+02  0.47026899318E+02  0.00000000000E+00 0. -1.
         21    1    1    2  502  501  0.14847194541E+02  0.24209907268E+02  0.70439525280E+02  0.75949229867E+02  0.00000000000E+00 0.  1.
<scales pt_clust_5="13000.00000" pt_clust_6="13000.00000" pt_clust_7="13000.00000" pt_clust_8="13000.00000" pt_clust_9="28.39998"></scales>
<clustering>
<clus scale="   28.400">  1  9  2 -1</clus>
<clus scale="   79.798">  5  6 -1 -1</clus>
<clus scale="   87.125">  1  5  2 -1</clus>
<clus scale="   92.520">  7  8 -1 -1</clus>
<clus scale="   28.400">  1  5  2 -1</clus>
</clustering>
</event>
<event>
 9    2  0.4836359E-005  0.1442177E+03  0.7546771E-02  0.1210681E+00
          2   -1    0    0  502    0  0.00000000000E+00  0.00000000000E+00  0.88088364942E+03  0.88088364942E+03  0.00000000000E+00 0. -1.
         -1   -1    0    0    0  501 -0.00000000000E+00 -0.00000000000E+00 -0.11269330466E+03  0.11269330466E+03  0.00000000000E+00 0.  1.
         23    2    1    2    0    0  0.11016303997E+03 -0.76668989669E+01 -0.55926996068E+02  0.15540594737E+03  0.93960113202E+02 0.  0.
         24    2    1    2    0    0 -0.93957255446E+02 -0.54628330376E+01  0.77549249665E+03  0.78526171844E+03  0.79934633842E+02 0.  0.
        -11    1    4    4    0    0 -0.29678310409E+02  0.18831892046E+02  0.94744487183E+02  0.10105424345E+03  0.00000000000E+00 0.  1.
         12    1    4    4    0    0 -0.64278945037E+02 -0.24294725084E+02  0.68074800947E+03  0.68420747499E+03  0.00000000000E+00 0. -1.
        -11    1    3    3    0    0  0.22697083994E+02  0.11721395705E+02 -0.60529153813E+02  0.65698761027E+02  0.00000000000E+00 0.  1.
         11    1    3    3    0    0  0.87465955980E+02 -0.19388294671E+02  0.46021577458E+01  0.89707186344E+02  0.00000000000E+00 0. -1.
         21    1    1    2  502  501 -0.16205784529E+02  0.13129732004E+02  0.48624844180E+02  0.52909288280E+02  0.00000000000E+00 0.  1.
<scales pt_clust_5="13000.00000" pt_clust_6="13000.00000" pt_clust_7="13000.00000" pt_clust_8="13000.00000" pt_clust_9="20.85707"></scales>
<clustering>
<clus scale="   20.857">  1  9  2 -1</clus>
<clus scale="   79.935">  5  6 -1 -1</clus>
<clus scale="   93.960">  7  8 -1 -1</clus>
<clus scale="  135.498">  1  5  2 -1</clus>
<clus scale="   20.857">  1  5  2 -1</clus>
</clustering>
</event>
<event>
 9    2  0.3791909E-005  0.9859812E+02  0.7546771E-02  0.1287451E+00
         -1   -1    0    0    0  501 -0.00000000000E+00  0.00000000000E+00  0.10728955862E+03  0.10728955862E+03  0.00000000000E+00 0.  1.
          2   -1    0    0  502    0  0.00000000000E+00 -0.00000000000E+00 -0.27500585207E+03  0.27500585207E+03  0.00000000000E+00 0. -1.
         24    2    1    2    0    0 -0.29941319521E+02 -0.16538433853E+02  0.63537241072E+02  0.11003807832E+03  0.83074636736E+02 0.  0.
         23    2    1    2    0    0  0.54992133600E+02  0.35417096177E+02 -0.18435021852E+03  0.21583155609E+03  0.91212674961E+02 0.  0.
        -11    1    3    3    0    0 -0.50256850662E+02 -0.10729619797E+02  0.70985064767E+02  0.87634212494E+02  0.00000000000E+00 0.  1.
         12    1    3    3    0    0  0.20315531141E+02 -0.58088140556E+01 -0.74478236943E+01  0.22403865828E+02  0.00000000000E+00 0. -1.
        -11    1    4    4    0    0  0.34034843726E+02 -0.24268209576E+02 -0.11296736658E+03  0.12045307175E+03  0.00000000000E+00 0. -1.
         11    1    4    4    0    0  0.20957289875E+02  0.59685305753E+02 -0.71382851945E+02  0.95378484332E+02  0.00000000000E+00 0.  1.
         21    1    1    2  502  501 -0.25050814079E+02 -0.18878662324E+02 -0.46903316005E+02  0.56425776285E+02  0.00000000000E+00 0. -1.
<scales pt_clust_5="13000.00000" pt_clust_6="13000.00000" pt_clust_7="13000.00000" pt_clust_8="13000.00000" pt_clust_9="31.36793"></scales>
<clustering>
<clus scale="   31.368">  2  9  1 -1</clus>
<clus scale="   83.075">  5  6 -1 -1</clus>
<clus scale="   91.122">  1  5  2 -1</clus>
<clus scale="   91.213">  7  8 -1 -1</clus>
<clus scale="   31.368">  2  5  1 -1</clus>
</clustering>
</event>
<event>
 9    2  0.3791909E-005  0.1274436E+03  0.7546771E-02  0.1235194E+00
          2   -1    0    0  502    0  0.00000000000E+00  0.00000000000E+00  0.18014663264E+03  0.18014663264E+03  0.00000000000E+00 0. -1.
         -1   -1    0    0    0  501 -0.00000000000E+00 -0.00000000000E+00 -0.40196856914E+03  0.40196856914E+03  0.00000000000E+00 0.  1.
         23    2    1    2    0    0 -0.82147567028E+02  0.24597254139E+02 -0.34733295112E+03  0.37020681374E+03  0.95182237457E+02 0.  0.
         24    2    1    2    0    0  0.80791172453E+02  0.60466990878E-01  0.37958936204E+02  0.12094020981E+03  0.81599242084E+02 0.  0.
        -13    1    4    4    0    0  0.42088100360E+02  0.32240265604E+02 -0.69669240700E+01  0.53473179718E+02  0.00000000000E+00 0.  1.
         14    1    4    4    0    0  0.38703072093E+02 -0.32179798613E+02  0.44925860274E+02  0.67467030093E+02  0.00000000000E+00 0. -1.
        -11    1    3    3    0    0 -0.21949373306E+02  0.49731855828E+02 -0.22603376444E+03  0.23247859072E+03  0.00000000000E+00 0.  1.
         11    1    3    3    0    0 -0.60198193723E+02 -0.25134601689E+02 -0.12129918667E+03  0.13772822302E+03  0.00000000000E+00 0. -1.
         21    1    1    2  502  501  0.13563945752E+01 -0.24657721130E+02  0.87552078411E+02  0.90968178237E+02  0.00000000000E+00 0. -1.
<scales pt_clust_5="13000.00000" pt_clust_6="13000.00000" pt_clust_7="13000.00000" pt_clust_8="13000.00000" pt_clust_9="24.69500"></scales>
<clustering>
<clus scale="   24.695">  1  9  2 -1</clus>
<clus scale="   81.599">  5  6 -1 -1</clus>
<clus scale="   95.182">  7  8 -1 -1</clus>
<clus scale="  117.646">  1  5  2 -1</clus>
<clus scale="   24.695">  1  5  2 -1</clus>
</clustering>
</event>
<event>
 9    2  0.3791909E-005  0.1436620E+03  0.7546771E-02  0.1208590E+00
         -1   -1    0    0    0  501 -0.00000000000E+00  0.00000000000E+00  0.78032761278E+02  0.78032761278E+02  0.00000000000E+00 0.  1.
          2   -1    0    0  502    0  0.00000000000E+00 -0.00000000000E+00 -0.11504263165E+04  0.11504263165E+04  0.00000000000E+00 0. -1.
         24    2    1    2    0    0  0.62670404065E+02 -0.92618756415E+02 -0.90314142138E+01  0.14045907310E+03  0.84506633982E+02 0.  0.
         23    2    1    2    0    0 -0.71507020045E+02  0.14011097887E+03 -0.75580544124E+03  0.77667265197E+03  0.85054118014E+02 0.  0.
        -11    1    3    3    0    0 -0.93220589784E+01 -0.47837068271E+02  0.17242998914E+02  0.51697261977E+02  0.00000000000E+00 0.  1.
         12    1    3    3    0    0  0.71992463043E+02 -0.44781688144E+02 -0.26274413128E+02  0.88761811120E+02  0.00000000000E+00 0. -1.
        -11    1    4    4    0    0 -0.27839303732E+02 -0.29513124505E+01 -0.89130561184E+02  0.93423733678E+02  0.00000000000E+00 0.  1.
         11    1    4    4    0    0 -0.43667716313E+02  0.14306229132E+03 -0.66667488005E+03  0.68324891829E+03  0.00000000000E+00 0. -1.
         21    1    1    2  502  501  0.88366159806E+01 -0.47492222452E+02 -0.30755669977E+03  0.31132735272E+03  0.00000000000E+00 0. -1.
<scales pt_clust_5="13000.00000" pt_clust_6="13000.00000" pt_clust_7="13000.00000" pt_clust_8="13000.00000" pt_clust_9="48.30732"></scales>
<clustering>
<clus scale="   48.307">  2  9  1 -1</clus>
<clus scale="   84.507">  5  6 -1 -1</clus>
<clus scale="   85.054">  7  8 -1 -1</clus>
<clus scale="  143.339">  1  5  2 -1</clus>
<clus scale="   48.307">  2  5  1 -1</clus>
</clustering>
</event>
<event>
 9    2  0.3791909E-005  0.9361679E+02  0.7546771E-02  0.1298222E+00
         -1   -1    0    0    0  501 -0.00000000000E+00  0.00000000000E+00  0.23398911975E+03  0.23398911975E+03  0.00000000000E+00 0.  1.
          2   -1    0    0  502    0  0.00000000000E+00 -0.00000000000E+00 -0.13221622397E+03  0.13221622397E+03  0.00000000000E+00 0. -1.
         24    2    1    2    0    0 -0.82031958782E+01  0.18798727048E+02  0.19513407642E+03  0.21382200632E+03  0.84981515915E+02 0.  0.
         23    2    1    2    0    0  0.17066170354E+02  0.53376688765E+01 -0.81966022556E+02  0.12425919204E+03  0.91663368219E+02 0.  0.
        -13    1    3    3    0    0 -0.25185926874E+02 -0.26769012367E+02  0.10735683510E+03  0.11347423046E+03  0.00000000000E+00 0.  1.
         14    1    3    3    0    0  0.16982730996E+02  0.45567739415E+02  0.87777241320E+02  0.10034777587E+03  0.00000000000E+00 0. -1.
        -11    1    4    4    0    0 -0.21367209821E+01  0.30453891111E+02 -0.87039927285E+02  0.92238571119E+02  0.00000000000E+00 0.  1.
         11    1    4    4    0    0  0.19202891336E+02 -0.25116222234E+02  0.50739047288E+01  0.32020620921E+02  0.00000000000E+00 0. -1.
         21    1    1    2  502  501 -0.88629744760E+01 -0.24136395925E+02 -0.11395158082E+02  0.28124145365E+02  0.00000000000E+00 0.  1.
<scales pt_clust_5="13000.00000" pt_clust_6="13000.00000" pt_clust_7="13000.00000" pt_clust_8="13000.00000" pt_clust_9="25.71221"></scales>
<clustering>
<clus scale="   25.712">  2  9  1 -1</clus>
<clus scale="   84.982">  5  6 -1 -1</clus>
<clus scale="   87.085">  1  5  2 -1</clus>
<clus scale="   91.663">  7  8 -1 -1</clus>
<clus scale="   25.712">  2  5  1 -1</clus>
</clustering>
</event>
<event>
 9    2  0.3791909E-005  0.1787472E+03  0.7546771E-02  0.1170360E+00
         -1   -1    0    0    0  501 -0.00000000000E+00  0.00000000000E+00  0.10007264462E+03  0.10007264462E+03  0.00000000000E+00 0.  1.
          2   -1    0    0  502    0  0.00000000000E+00 -0.00000000000E+00 -0.59433791489E+03  0.59433791489E+03  0.00000000000E+00 0. -1.
         23    2    1    2    0    0 -0.27872778756E+02  0.15512672748E+03 -0.23861775873E+02  0.18404188283E+03  0.91982807697E+02 0.  0.
         24    2    1    2    0    0 -0.14281503118E+01 -0.13984794389E+03 -0.35003032842E+03  0.38554205789E+03  0.81005929181E+02 0.  0.
        -11    1    4    4    0    0 -0.36897725165E+01 -0.14025725352E+03 -0.25965897577E+03  0.29514148350E+03  0.00000000000E+00 0.  1.
         12    1    4    4    0    0  0.22616222047E+01  0.40930962835E+00 -0.90371352650E+02  0.90400574386E+02  0.00000000000E+00 0. -1.
        -13    1    3    3    0    0  0.12970999204E+02  0.12940151994E+03 -0.34637518990E+02  0.13458364650E+03  0.00000000000E+00 0. -1.
         13    1    3    3    0    0 -0.40843777960E+02  0.25725207546E+02  0.10775743117E+02  0.49458236332E+02  0.00000000000E+00 0.  1.
         21    1    1    2  502  501  0.29300929067E+02 -0.15278783593E+02 -0.12037316597E+03  0.12482661879E+03  0.00000000000E+00 0. -1.
<scales pt_clust_5="13000.00000" pt_clust_6="13000.00000" pt_clust_7="13000.00000" pt_clust_8="13000.00000" pt_clust_9="33.04521"></scales>
<clustering>
<clus scale="   33.045">  2  9  1 -1</clus>
<clus scale="   81.006">  5  6 -1 -1</clus>
<clus scale="   91.983">  7  8 -1 -1</clus>
<clus scale="  173.354">  2  5  1 -1</clus>
<clus scale="   33.045">  2  5  1 -1</clus>
</clustering>
</event>
<event>
 9    2  0.3791909E-005  0.1318434E+03  0.7546771E-02  0.1242148E+00
         -1   -1    0    0    0  501 -0.00000000000E+00  0.00000000000E+00  0.82494141187E+02  0.82494141187E+02  0.00000000000E+00 0.  1.
          2   -1    0    0  502    0  0.00000000000E+00 -0.00000000000E+00 -0.54822024012E+03  0.54822024012E+03  0.00000000000E+00 0. -1.
         23    2    1    2    0    0  0.13680079497E+02  0.60058630757E+01 -0.96864665541E+01  0.92739110972E+02  0.91013735795E+02 0.  0.
         24    2    1    2    0    0  0.95264233335E+02 -0.39320839510E+02 -0.37871473923E+03  0.40028761637E+03  0.78637901416E+02 0.  0.
        -13    1    4    4    0    0 -0.97508991850E+01 -0.18436284657E+02 -0.89261303739E+02  0.91665462264E+02  0.00000000000E+00 0.  1.
         14    1    4    4    0    0  0.10501513252E+03 -0.20884554853E+02 -0.28945343549E+03  0.30862215411E+03  0.00000000000E+00 0. -1.
        -13    1    3    3    0    0 -0.63172493129E+01  0.35600167306E+02  0.24197744928E+02  0.43506441025E+02  0.00000000000E+00 0.  1.
         13    1    3    3    0    0  0.19997328810E+02 -0.29594304230E+02 -0.33884211482E+02  0.49232669947E+02  0.00000000000E+00 0. -1.
         21    1    1    2  502  501 -0.10894431283E+03  0.33314976435E+02 -0.77324893151E+02  0.13768765396E+03  0.00000000000E+00 0.  1.
<scales pt_clust_5="13000.00000" pt_clust_6="13000.00000" pt_clust_7="13000.00000" pt_clust_8="13000.00000" pt_clust_9="105.82426"></scales>
<clustering>
<clus scale="   78.638">  5  6 -1 -1</clus>
<clus scale="   91.014">  7  8 -1 -1</clus>
<clus scale="   92.232">  1  7  2 -1</clus>
<clus scale="  105.824">  1  9  2 -1</clus>
<clus scale="  131.843">  2  5  1 -1</clus>
</clustering>
</event>
<event>
 9    2  0.3791909E-005  0.1199871E+03  0.7546771E-02  0.1246892E+00
         -1   -1    0    0    0  501 -0.00000000000E+00  0.00000000000E+00  0.48276697852E+03  0.48276697852E+03  0.00000000000E+00 0.  1.
          2   -1    0    0  502    0  0.00000000000E+00 -0.00000000000E+00 -0.16330511978E+03  0.16330511978E+03  0.00000000000E+00 0. -1.
         24    2    1    2    0    0 -0.82464920899E+02 -0.85859487368E+01  0.37223013245E+03  0.38961280158E+03  0.79804022166E+02 0.  0.
         23    2    1    2    0    0  0.47845630459E+02 -0.75773417704E+02  0.31831637439E+02  0.13207222768E+03  0.91646085563E+02 0.  0.
        -11    1    3    3    0    0 -0.66345414540E+02 -0.39653640125E+02  0.29247313724E+03  0.30251390251E+03  0.00000000000E+00 0.  1.
         12    1    3    3    0    0 -0.16119506360E+02  0.31067691388E+02  0.79756995215E+02  0.87098899070E+02  0.00000000000E+00 0. -1.
        -11    1    4    4    0    0  0.31072322415E+02 -0.92207106500E+02  0.64816205080E+01  0.97517440049E+02  0.00000000000E+00 0.  1.
         11    1    4    4    0    0  0.16773308044E+02  0.16433688796E+02  0.25350016931E+02  0.34554787636E+02  0.00000000000E+00 0. -1.
         21    1    1    2  502  501  0.34619290440E+02  0.84359366441E+02 -0.84599911152E+02  0.12438706904E+03  0.00000000000E+00 0. -1.
<scales pt_clust_5="13000.00000" pt_clust_6="13000.00000" pt_clust_7="13000.00000" pt_clust_8="13000.00000" pt_clust_9="91.18661"></scales>
<clustering>
<clus scale="   79.804">  5  6 -1 -1</clus>
<clus scale="   91.187">  2  9  1 -1</clus>
<clus scale="   91.646">  7  8 -1 -1</clus>
<clus scale="  111.205">  1  5  2 -1</clus>
<clus scale="   91.187">  2  5  1 -1</clus>
</clustering>
</event>
<event>
 9    2  0.3791909E-005  0.1112630E+03  0.7546771E-02  0.1263986E+00
          2   -1    0    0  502    0  0.00000000000E+00  0.00000000000E+00  0.45241258130E+03  0.45241258130E+03  0.00000000000E+00 0. -1.
         -1   -1    0    0    0  501 -0.00000000000E+00 -0.00000000000E+00 -0.40524768742E+02  0.40524768742E+02  0.00000000000E+00 0.  1.
         23    2    1    2    0    0 -0.47223724665E+02 -0.36748029423E+02  0.92446560826E+02  0.14534167362E+03  0.94854296928E+02 0.  0.
         24    2    1    2    0    0  0.25049757634E+02  0.54006049870E+02  0.18659333849E+03  0.21180873987E+03  0.80633271899E+02 0.  0.
        -13    1    4    4    0    0 -0.19355739683E+02  0.33827481356E+02  0.34376169921E+02  0.51967915217E+02  0.00000000000E+00 0.  1.
         14    1    4    4    0    0  0.44405497316E+02  0.20178568514E+02  0.15221716857E+03  0.15984082466E+03  0.00000000000E+00 0. -1.
        -11    1    3    3    0    0 -0.73047117626E+01 -0.58104768887E+02  0.78562370108E+02  0.97987596043E+02  0.00000000000E+00 0. -1.
         11    1    3    3    0    0 -0.39919012903E+02  0.21356739464E+02  0.13884190718E+02  0.47354077581E+02  0.00000000000E+00 0.  1.
         21    1    1    2  502  501  0.22173967032E+02 -0.17258020447E+02  0.13284791324E+03  0.13578693655E+03  0.00000000000E+00 0. -1.
<scales pt_clust_5="13000.00000" pt_clust_6="13000.00000" pt_clust_7="13000.00000" pt_clust_8="13000.00000" pt_clust_9="28.09847"></scales>
<clustering>
<clus scale="   28.098">  1  9  2 -1</clus>
<clus scale="   80.633">  5  6 -1 -1</clus>
<clus scale="   94.854">  7  8 -1 -1</clus>
<clus scale="   99.417">  1  5  2 -1</clus>
<clus scale="   28.098">  1  5  2 -1</clus>
</clustering>
</event>
<event>
 9    2  0.3791909E-005  0.1893638E+03  0.7546771E-02  0.1190169E+00
         -1   -1    0    0    0  501 -0.00000000000E+00  0.00000000000E+00  0.12357881047E+03  0.12357881047E+03  0.00000000000E+00 0.  1.
          2   -1    0    0  502    0  0.00000000000E+00 -0.00000000000E+00 -0.47528302461E+03  0.47528302461E+03  0.00000000000E+00 0. -1.
         23    2    1    2    0    0  0.12388475219E+03  0.64444149021E+02 -0.12549571249E+03  0.20888632393E+03  0.91563324005E+02 0.  0.
         24    2    1    2    0    0  0.33669953358E+02  0.32441409488E+02 -0.17448201719E+03  0.19791842099E+03  0.80880258631E+02 0.  0.
        -13    1    4    4    0    0 -0.11397067596E+02  0.41335868315E+02 -0.53847776691E+02  0.68834077416E+02  0.00000000000E+00 0.  1.
         14    1    4    4    0    0  0.45067020954E+02 -0.88944588269E+01 -0.12063424050E+03  0.12908434357E+03  0.00000000000E+00 0. -1.
        -11    1    3    3    0    0  0.33356673674E+02  0.24477957864E+02  0.85716385587E+01  0.42252941760E+02  0.00000000000E+00 0. -1.
         11    1    3    3    0    0  0.90528078512E+02  0.39966191157E+02 -0.13406735105E+03  0.16663338217E+03  0.00000000000E+00 0.  1.
         21    1    1    2  502  501 -0.15755470554E+03 -0.96885558509E+02 -0.51726484457E+02  0.19205709016E+03  0.00000000000E+00 0.  1.
<scales pt_clust_5="13000.00000" pt_clust_6="13000.00000" pt_clust_7="13000.00000" pt_clust_8="13000.00000" pt_clust_9="165.75522"></scales>
<clustering>
<clus scale="   80.880">  5  6 -1 -1</clus>
<clus scale="   91.563">  7  8 -1 -1</clus>
<clus scale="   93.422">  2  5  1 -1</clus>
<clus scale="  165.755">  1  9  2 -1</clus>
<clus scale="   93.422">  2  5  1 -1</clus>
</clustering>
</event>
<event>
 9    2  0.3791909E-005  0.1543593E+03  0.7546771E-02  0.1197357E+00
          2   -1    0    0  502    0  0.00000000000E+00  0.00000000000E+00  0.48077510874E+03  0.48077510874E+03  0.00000000000E+00 0. -1.
         -1   -1    0    0    0  501 -0.00000000000E+00 -0.00000000000E+00 -0.15493469108E+03  0.15493469108E+03  0.00000000000E+00 0.  1.
         24    2    1    2    0    0 -0.11057887646E+03 -0.71462254864E+02 -0.51782101831E+02  0.16258254258E+03  0.80107148807E+02 0.  0.
         23    2    1    2    0    0  0.72788241864E+02  0.83028877953E+02  0.64965262339E+02  0.15798208549E+03  0.92444206398E+02 0.  0.
        -11    1    3    3    0    0 -0.11497654271E+03 -0.39422000996E+02 -0.44460579317E+02  0.12942350115E+03  0.00000000000E+00 0.  1.
         12    1    3    3    0    0  0.43976662487E+01 -0.32040253867E+02 -0.73215225147E+01  0.33159041426E+02  0.00000000000E+00 0. -1.
        -11    1    4    4    0    0  0.82956769701E+02  0.64175629265E+02  0.18072072731E+02  0.10642808297E+03  0.00000000000E+00 0. -1.
         11    1    4    4    0    0 -0.10168527837E+02  0.18853248688E+02  0.46893189608E+02  0.51554002523E+02  0.00000000000E+00 0.  1.
         21    1    1    2  502  501  0.37790634600E+02 -0.11566623089E+02  0.31265725715E+03  0.31514517176E+03  0.00000000000E+00 0. -1.
<scales pt_clust_5="13000.00000" pt_clust_6="13000.00000" pt_clust_7="13000.00000" pt_clust_8="13000.00000" pt_clust_9="39.52112"></scales>
<clustering>
<clus scale="   39.521">  1  9  2 -1</clus>
<clus scale="   80.107">  5  6 -1 -1</clus>
<clus scale="   92.444">  7  8 -1 -1</clus>
<clus scale="  147.302">  2  5  1 -1</clus>
<clus scale="   39.521">  1  5  2 -1</clus>
</clustering>
</event>
<event>
 9    2  0.3791909E-005  0.1138135E+03  0.7546771E-02  0.1256439E+00
          2   -1    0    0  502    0  0.00000000000E+00  0.00000000000E+00  0.12017241443E+03  0.12017241443E+03  0.00000000000E+00 0. -1.
         -1   -1    0    0    0  501 -0.00000000000E+00 -0.00000000000E+00 -0.26754377692E+03  0.26754377692E+03  0.00000000000E+00 0.  1.
         23    2    1    2    0    0  0.35621114711E+00  0.57867777436E+02 -0.13562758241E+03  0.17298550984E+03  0.90445226252E+02 0.  0.
         24    2    1    2    0    0  0.11366766112E+02 -0.89389777451E+02 -0.74745318675E+02  0.14331458706E+03  0.82658771562E+02 0.  0.
        -13    1    4    4    0    0 -0.34811570271E+02 -0.43213779919E+02 -0.45502488215E+02  0.71761776966E+02  0.00000000000E+00 0.  1.
         14    1    4    4    0    0  0.46178336383E+02 -0.46175997532E+02 -0.29242830460E+02  0.71552810095E+02  0.00000000000E+00 0. -1.
        -11    1    3    3    0    0 -0.39377739214E+02  0.54626096908E+01 -0.67195336904E+02  0.78074706223E+02  0.00000000000E+00 0.  1.
         11    1    3    3    0    0  0.39733950361E+02  0.52405167745E+02 -0.68432245503E+02  0.94910803612E+02  0.00000000000E+00 0. -1.
         21    1    1    2  502  501 -0.11722977260E+02  0.31522000015E+02  0.63001538597E+02  0.71416094450E+02  0.00000000000E+00 0. -1.
<scales pt_clust_5="13000.00000" pt_clust_6="13000.00000" pt_clust_7="13000.00000" pt_clust_8="13000.00000" pt_clust_9="33.63131"></scales>
<clustering>
<clus scale="   33.631">  1  9  2 -1</clus>
<clus scale="   82.659">  5  6 -1 -1</clus>
<clus scale="   90.445">  7  8 -1 -1</clus>
<clus scale="  107.730">  1  5  2 -1</clus>
<clus scale="   33.631">  1  5  2 -1</clus>
</clustering>
</event>
<event>
 9    2  0.3791909E-005  0.1228959E+03  0.7546771E-02  0.1241679E+00
         -1   -1    0    0    0  501 -0.00000000000E+00  0.00000000000E+00  0.22837846093E+03  0.22837846093E+03  0.00000000000E+00 0.  1.
          2   -1    0    0  502    0  0.00000000000E+00 -0.00000000000E+00 -0.14016999699E+03  0.14016999699E+03  0.00000000000E+00 0. -1.
         24    2    1    2    0    0 -0.62762007098E+02 -0.45659839713E+02  0.12658565101E+03  0.16901868676E+03  0.80743414196E+02 0.  0.
         23    2    1    2    0    0  0.47985296642E+02  0.97327156960E+02 -0.28608071457E+02  0.14491019167E+03  0.91680847090E+02 0.  0.
        -11    1    3    3    0    0 -0.53856956216E+02  0.52018734860E+01  0.36773154575E+02  0.65420914989E+02  0.00000000000E+00 0.  1.
         12    1    3    3    0    0 -0.89050508822E+01 -0.50861713199E+02  0.89812496436E+02  0.10359777178E+03  0.00000000000E+00 0. -1.
        -11    1    4    4    0    0  0.36324240300E+02 -0.32463088593E+01  0.78401223901E+01  0.37302231483E+02  0.00000000000E+00 0. -1.
         11    1    4    4    0    0  0.11661056342E+02  0.10057346582E+03 -0.36448193847E+02  0.10760796019E+03  0.00000000000E+00 0.  1.
         21    1    1    2  502  501  0.14776710456E+02 -0.51667317247E+02 -0.97691156134E+01  0.54619579486E+02  0.00000000000E+00 0. -1.
<scales pt_clust_5="13000.00000" pt_clust_6="13000.00000" pt_clust_7="13000.00000" pt_clust_8="13000.00000" pt_clust_9="53.73884"></scales>
<clustering>
<clus scale="   53.739">  2  9  1 -1</clus>
<clus scale="   80.743">  5  6 -1 -1</clus>
<clus scale="   91.681">  7  8 -1 -1</clus>
<clus scale="  114.968">  1  5  2 -1</clus>
<clus scale="   53.739">  2  5  1 -1</clus>
</clustering>
</event>
<event>
 9    2  0.3791909E-005  0.2227370E+03  0.7546771E-02  0.1132924E+00
         -1   -1    0    0    0  501 -0.00000000000E+00  0.00000000000E+00  0.53447080621E+02  0.53447080621E+02  0.00000000000E+00 0.  1.
          2   -1    0    0  502    0  0.00000000000E+00 -0.00000000000E+00 -0.11580525014E+04  0.11580525014E+04  0.00000000000E+00 0. -1.
         23    2    1    2    0    0  0.48444475670E+01  0.21531387421E+03 -0.36819855303E+03  0.43715103274E+03  0.95641611604E+02 0.  0.
         24    2    1    2    0    0 -0.13277966998E+02 -0.18063039605E+03 -0.55479860637E+03  0.58926578805E+03  0.81418861130E+02 0.  0.
        -13    1    4    4    0    0 -0.32289879037E+02 -0.24474752198E+02 -0.94166653072E+02  0.10251345441E+03  0.00000000000E+00 0.  1.
         14    1    4    4    0    0  0.19011912039E+02 -0.15615564385E+03 -0.46063195330E+03  0.48675233364E+03  0.00000000000E+00 0. -1.
        -13    1    3    3    0    0  0.34938427252E+02  0.19663525584E+03 -0.32252962132E+03  0.37935665826E+03  0.00000000000E+00 0.  1.
         13    1    3    3    0    0 -0.30093979685E+02  0.18678618365E+02 -0.45668931714E+02  0.57794374477E+02  0.00000000000E+00 0. -1.
         21    1    1    2  502  501  0.84335194310E+01 -0.34683478159E+02 -0.18160826138E+03  0.18508276124E+03  0.00000000000E+00 0. -1.
<scales pt_clust_5="13000.00000" pt_clust_6="13000.00000" pt_clust_7="13000.00000" pt_clust_8="13000.00000" pt_clust_9="35.69409"></scales>
<clustering>
<clus scale="   35.694">  2  9  1 -1</clus>
<clus scale="   81.419">  5  6 -1 -1</clus>
<clus scale="   95.642">  7  8 -1 -1</clus>
<clus scale="  217.010">  2  5  1 -1</clus>
<clus scale="   35.694">  2  5  1 -1</clus>
</clustering>
</event>
<event>
 9    2  0.3791909E-005  0.1096127E+03  0.7546771E-02  0.1265732E+00
          2   -1    0    0  502    0  0.00000000000E+00  0.00000000000E+00  0.36297563803E+03  0.36297563803E+03  0.00000000000E+00 0. -1.
         -1   -1    0    0    0  501 -0.00000000000E+00 -0.00000000000E+00 -0.92508862449E+02  0.92508862449E+02  0.00000000000E+00 0.  1.
         23    2    1    2    0    0  0.65902598360E+02 -0.29769571829E+02 -0.29082039072E+01  0.11629096466E+03  0.91026100296E+02 0.  0.
         24    2    1    2    0    0 -0.28414053932E+02  0.43523012599E+02  0.41483110931E+02  0.10388865529E+03  0.79814742489E+02 0.  0.
        -11    1    4    4    0    0 -0.83427348176E+01 -0.23450436602E+02  0.65848356955E+01  0.25746538839E+02  0.00000000000E+00 0.  1.
         12    1    4    4    0    0 -0.20071319114E+02  0.66973449200E+02  0.34898275235E+02  0.78142116449E+02  0.00000000000E+00 0. -1.
        -11    1    3    3    0    0  0.69744578282E+02 -0.74384578945E+01  0.30040729352E+02  0.76302570570E+02  0.00000000000E+00 0. -1.
         11    1    3    3    0    0 -0.38419799225E+01 -0.22331113935E+02 -0.32948933260E+02  0.39988394094E+02  0.00000000000E+00 0.  1.
         21    1    1    2  502  501 -0.37488544428E+02 -0.13753440769E+02  0.23189186856E+03  0.23530488053E+03  0.00000000000E+00 0. -1.
<scales pt_clust_5="13000.00000" pt_clust_6="13000.00000" pt_clust_7="13000.00000" pt_clust_8="13000.00000" pt_clust_9="39.93179"></scales>
<clustering>
<clus scale="   39.932">  1  9  2 -1</clus>
<clus scale="   79.815">  5  6 -1 -1</clus>
<clus scale="   91.026">  7  8 -1 -1</clus>
<clus scale="  100.497">  1  5  2 -1</clus>
<clus scale="   39.932">  1  5  2 -1</clus>
</clustering>
</event>
<event>
 9    2  0.3791909E-005  0.1405767E+03  0.7546771E-02  0.1214527E+00
         -1   -1    0    0    0  501 -0.00000000000E+00  0.00000000000E+00  0.17499030805E+03  0.17499030805E+03  0.00000000000E+00 0.  1.
          2   -1    0    0  502    0  0.00000000000E+00 -0.00000000000E+00 -0.21051977039E+03  0.21051977039E+03  0.00000000000E+00 0. -1.
         24    2    1    2    0    0 -0.24725536693E+02 -0.10187942537E+03  0.96995577881E+02  0.16360751572E+03  0.79802929729E+02 0.  0.
         23    2    1    2    0    0  0.38304932599E+02  0.12062631931E+03 -0.11511621371E+03  0.19293856324E+03  0.89194000665E+02 0.  0.
        -13    1    3    3    0    0 -0.20215598046E+02 -0.10858464314E+03  0.10488360389E+03  0.15231502059E+03  0.00000000000E+00 0.  1.
         14    1    3    3    0    0 -0.45099386469E+01  0.67052177726E+01 -0.78880260121E+01  0.11292495134E+02  0.00000000000E+00 0. -1.
        -11    1    4    4    0    0  0.22412321900E+02 -0.87130818980E+00  0.31403610803E+01  0.22648029023E+02  0.00000000000E+00 0.  1.
         11    1    4    4    0    0  0.15892610699E+02  0.12149762750E+03 -0.11825657479E+03  0.17029053422E+03  0.00000000000E+00 0. -1.
         21    1    1    2  502  501 -0.13579395907E+02 -0.18746893941E+02 -0.17408826513E+02  0.28963999485E+02  0.00000000000E+00 0.  1.
<scales pt_clust_5="13000.00000" pt_clust_6="13000.00000" pt_clust_7="13000.00000" pt_clust_8="13000.00000" pt_clust_9="23.14835"></scales>
<clustering>
<clus scale="   23.148">  2  9  1 -1</clus>
<clus scale="   79.803">  5  6 -1 -1</clus>
<clus scale="   89.194">  7  8 -1 -1</clus>
<clus scale="  134.814">  1  5  2 -1</clus>
<clus scale="   23.148">  2  5  1 -1</clus>
</clustering>
</event>
<event>
 9    2  0.3791909E-005  0.2740333E+03  0.7546771E-02  0.1099786E+00
         -1   -1    0    0    0  501 -0.00000000000E+00  0.00000000000E+00  0.15968744930E+03  0.15968744930E+03  0.00000000000E+00 0.  1.
          2   -1    0    0  502    0  0.00000000000E+00 -0.00000000000E+00 -0.15930794602E+04  0.15930794602E+04  0.00000000000E+00 0. -1.
         23    2    1    2    0    0  0.23702358881E+03  0.49483817866E+02 -0.37035583796E+02  0.26394820193E+03  0.98326949258E+02 0.  0.
         24    2    1    2    0    0 -0.28915780520E+03 -0.14379309797E+03 -0.60901000332E+03  0.69413222356E+03  0.81471886577E+02 0.  0.
        -13    1    4    4    0    0 -0.16686084264E+03 -0.12679897677E+03 -0.38604444690E+03  0.43926169455E+03  0.00000000000E+00 0.  1.
         14    1    4    4    0    0 -0.12229696256E+03 -0.16994121208E+02 -0.22296555642E+03  0.25487052901E+03  0.00000000000E+00 0. -1.
        -13    1    3    3    0    0  0.49357047153E+02 -0.15217949513E+02 -0.40145394085E+02  0.65416792625E+02  0.00000000000E+00 0. -1.
         13    1    3    3    0    0  0.18766654166E+03  0.64701767379E+02  0.31098102892E+01  0.19853140930E+03  0.00000000000E+00 0.  1.
         21    1    1    2  502  501  0.52134216393E+02  0.94309280109E+02 -0.78734642381E+03  0.79468648404E+03  0.00000000000E+00 0. -1.
<scales pt_clust_5="13000.00000" pt_clust_6="13000.00000" pt_clust_7="13000.00000" pt_clust_8="13000.00000" pt_clust_9="107.76000"></scales>
<clustering>
<clus scale="   81.472">  5  6 -1 -1</clus>
<clus scale="   98.327">  7  8 -1 -1</clus>
<clus scale="  107.760">  2  9  1 -1</clus>
<clus scale="  268.447">  2  5  1 -1</clus>
<clus scale="  107.760">  2  5  1 -1</clus>
</clustering>
</event>
<event>
 9    2  0.3791909E-005  0.1143960E+03  0.7546771E-02  0.1256992E+00
          2   -1    0    0  502    0  0.00000000000E+00  0.00000000000E+00  0.97483362030E+03  0.97483362030E+03  0.00000000000E+00 0. -1.
         -1   -1    0    0    0  501 -0.00000000000E+00 -0.00000000000E+00 -0.30363670016E+02  0.30363670016E+02  0.00000000000E+00 0.  1.
         23    2    1    2    0    0 -0.32665673517E+01 -0.70306369403E+02  0.11296513525E+03  0.16227655244E+03  0.92838039892E+02 0.  0.
         24    2    1    2    0    0 -0.26532083945E+02  0.49459456174E+02  0.68118012284E+03  0.68825960347E+03  0.80899522447E+02 0.  0.
        -11    1    4    4    0    0 -0.23842089597E+02  0.31095257585E+01  0.51130793725E+02  0.56501968583E+02  0.00000000000E+00 0.  1.
         12    1    4    4    0    0 -0.26899943479E+01  0.46349930415E+02  0.63004932912E+03  0.63175763489E+03  0.00000000000E+00 0. -1.
        -13    1    3    3    0    0 -0.38082677302E+02 -0.71693959651E+02  0.72127455122E+02  0.10859412481E+03  0.00000000000E+00 0.  1.
         13    1    3    3    0    0  0.34816109950E+02  0.13875902474E+01  0.40837680126E+02  0.53682427635E+02  0.00000000000E+00 0. -1.
         21    1    1    2  502  501  0.29798651297E+02  0.20846913230E+02  0.15032469219E+03  0.15466113440E+03  0.00000000000E+00 0. -1.
<scales pt_clust_5="13000.00000" pt_clust_6="13000.00000" pt_clust_7="13000.00000" pt_clust_8="13000.00000" pt_clust_9="36.36693"></scales>
<clustering>
<clus scale="   36.367">  1  9  2 -1</clus>
<clus scale="   80.900">  5  6 -1 -1</clus>
<clus scale="   92.838">  7  8 -1 -1</clus>
<clus scale="  104.939">  1  5  2 -1</clus>
<clus scale="   36.367">  1  5  2 -1</clus>
</clustering>
</event>
<event>
 9    2  0.3791909E-005  0.1103076E+03  0.7546771E-02  0.1263778E+00
         -1   -1    0    0    0  501 -0.00000000000E+00  0.00000000000E+00  0.32446062308E+03  0.32446062308E+03  0.00000000000E+00 0.  1.
          2   -1    0    0  502    0  0.00000000000E+00 -0.00000000000E+00 -0.10794709293E+03  0.10794709293E+03  0.00000000000E+00 0. -1.
         24    2    1    2    0    0  0.56008613846E+02 -0.33178108961E+02  0.26896018057E+03  0.28834811050E+03  0.81038894119E+02 0.  0.
         23    2    1    2    0    0 -0.30122788219E+02  0.38869265914E+02 -0.25679432169E+02  0.10639066328E+03  0.90781814219E+02 0.  0.
        -13    1    3    3    0    0  0.33886688163E+02 -0.50627574216E+02  0.24127333122E+03  0.24884589461E+03  0.00000000000E+00 0.  1.
         14    1    3    3    0    0  0.22121925682E+02  0.17449465255E+02  0.27686849343E+02  0.39502215889E+02  0.00000000000E+00 0. -1.
        -13    1    4    4    0    0 -0.53678735029E+02 -0.83265937756E+00 -0.27239043280E+02  0.60200210920E+02  0.00000000000E+00 0. -1.
         13    1    4    4    0    0  0.23555946811E+02  0.39701925291E+02  0.15596111115E+01  0.46190452355E+02  0.00000000000E+00 0.  1.
         21    1    1    2  502  501 -0.25885825627E+02 -0.56911569526E+01 -0.26767218251E+02  0.37668942230E+02  0.00000000000E+00 0.  1.
<scales pt_clust_5="13000.00000" pt_clust_6="13000.00000" pt_clust_7="13000.00000" pt_clust_8="13000.00000" pt_clust_9="26.50406"></scales>
<clustering>
<clus scale="   26.504">  2  9  1 -1</clus>
<clus scale="   81.039">  5  6 -1 -1</clus>
<clus scale="   90.782">  7  8 -1 -1</clus>
<clus scale="  102.439">  1  5  2 -1</clus>
<clus scale="   26.504">  2  5  1 -1</clus>
</clustering>
</event>
<event>
 9    2  0.4704916E-005  0.1020609E+03  0.7546771E-02  0.1282841E+00
          2   -1    0    0  502    0  0.00000000000E+00  0.00000000000E+00  0.50683374504E+03  0.50683374504E+03  0.00000000000E+00 0. -1.
         -1   -1    0    0    0  501 -0.00000000000E+00 -0.00000000000E+00 -0.84413469922E+02  0.84413469922E+02  0.00000000000E+00 0.  1.
         24    2    1    2    0    0 -0.28181768942E+02 -0.34085875391E+02 -0.50239647424E+02  0.10330536907E+03  0.78688741913E+02 0.  0.
         23    2    1    2    0    0  0.20225119135E+02  0.12009943233E+02  0.41121036403E+03  0.42216416504E+03  0.92603048428E+02 0.  0.
        -13    1    3    3    0    0 -0.26494643120E+02 -0.57929707118E+02 -0.47043772746E+02  0.79189226761E+02  0.00000000000E+00 0.  1.
         14    1    3    3    0    0 -0.16871258217E+01  0.23843831727E+02 -0.31958746778E+01  0.24116142310E+02  0.00000000000E+00 0. -1.
        -13    1    4    4    0    0 -0.29586977694E+02 -0.14043065843E+02  0.83972586548E+02  0.90133191660E+02  0.00000000000E+00 0.  1.
         13    1    4    4    0    0  0.49812096828E+02  0.26053009077E+02  0.32723777748E+03  0.33203097338E+03  0.00000000000E+00 0. -1.
         21    1    1    2  502  501  0.79566498074E+01  0.22075932157E+02  0.61449558505E+02  0.65777680845E+02  0.00000000000E+00 0.  1.
<scales pt_clust_5="13000.00000" pt_clust_6="13000.00000" pt_clust_7="13000.00000" pt_clust_8="13000.00000" pt_clust_9="23.46604"></scales>
<clustering>
<clus scale="   23.466">  1  9  2 -1</clus>
<clus scale="   78.689">  5  6 -1 -1</clus>
<clus scale="   89.627">  2  5  1 -1</clus>
<clus scale="   92.603">  7  8 -1 -1</clus>
<clus scale="   23.466">  1  5  2 -1</clus>
</clustering>
</event>
<event>
 9    2  0.3791909E-005  0.1040863E+03  0.7546771E-02  0.1276349E+00
         -3   -1    0    0    0  501 -0.00000000000E+00  0.00000000000E+00  0.12912878392E+03  0.12912878392E+03  0.00000000000E+00 0.  1.
          4   -1    0    0  502    0  0.00000000000E+00 -0.00000000000E+00 -0.18043968822E+03  0.18043968822E+03  0.00000000000E+00 0. -1.
         24    2    1    2    0    0  0.46870850994E+02 -0.14046160327E+02  0.39567393420E+02  0.10210694739E+03  0.80411931895E+02 0.  0.
         23    2    1    2    0    0 -0.67462065682E+02 -0.46780897094E+02 -0.64365196773E+02  0.13798581994E+03  0.90319573241E+02 0.  0.
        -13    1    3    3    0    0  0.90759951405E+01 -0.35921888647E+02  0.44788040434E+02  0.58126795350E+02  0.00000000000E+00 0.  1.
         14    1    3    3    0    0  0.37794855853E+02  0.21875728320E+02 -0.52206470140E+01  0.43980152043E+02  0.00000000000E+00 0. -1.
        -11    1    4    4    0    0 -0.41019880236E+02 -0.13520681295E+01 -0.73930429630E+02  0.84558660633E+02  0.00000000000E+00 0.  1.
         11    1    4    4    0    0 -0.26442185446E+02 -0.45428828965E+02  0.95652328567E+01  0.53427159309E+02  0.00000000000E+00 0. -1.
         21    1    1    2  502  501  0.20591214688E+02  0.60827057421E+02 -0.26513100944E+02  0.69475704808E+02  0.00000000000E+00 0. -1.
<scales pt_clust_5="13000.00000" pt_clust_6="13000.00000" pt_clust_7="13000.00000" pt_clust_8="13000.00000" pt_clust_9="64.21782"></scales>
<clustering>
<clus scale="   64.218">  2  9  1 -1</clus>
<clus scale="   80.412">  5  6 -1 -1</clus>
<clus scale="   90.320">  7  8 -1 -1</clus>
<clus scale="   95.616">  1  5  2 -1</clus>
<clus scale="   64.218">  2  5  1 -1</clus>
</clustering>
</event>
<event>
 9    2  0.3791909E-005  0.2316267E+03  0.7546771E-02  0.1126338E+00
          2   -1    0    0  502    0  0.00000000000E+00  0.00000000000E+00  0.75003440739E+03  0.75003440739E+03  0.00000000000E+00 0. -1.
         -1   -1    0    0    0  501 -0.00000000000E+00 -0.00000000000E+00 -0.12683100692E+03  0.12683100692E+03  0.00000000000E+00 0.  1.
         23    2    1    2    0    0  0.22005736948E+03  0.46173058843E+02  0.15164617116E+03  0.28571285536E+03  0.89878124495E+02 0.  0.
         24    2    1    2    0    0 -0.20633737491E+03  0.38918580598E+02  0.17973837263E+03  0.28687132314E+03  0.76808236847E+02 0.  0.
        -11    1    4    4    0    0 -0.39192953374E+02  0.31245661361E+02  0.15628267937E+02  0.52503539945E+02  0.00000000000E+00 0.  1.
         12    1    4    4    0    0 -0.16714442153E+03  0.76729192369E+01  0.16411010469E+03  0.23436778320E+03  0.00000000000E+00 0. -1.
        -13    1    3    3    0    0  0.15387992019E+03  0.43445496439E+02  0.56093177443E+02  0.16944906478E+03  0.00000000000E+00 0.  1.
         13    1    3    3    0    0  0.66177449292E+02  0.27275624035E+01  0.95552993718E+02  0.11626379058E+03  0.00000000000E+00 0. -1.
         21    1    1    2  502  501 -0.13719994578E+02 -0.85091639441E+02  0.29181885668E+03  0.30428123581E+03  0.00000000000E+00 0. -1.
<scales pt_clust_5="13000.00000" pt_clust_6="13000.00000" pt_clust_7="13000.00000" pt_clust_8="13000.00000" pt_clust_9="86.19063"></scales>
<clustering>
<clus scale="   76.808">  5  6 -1 -1</clus>
<clus scale="   86.191">  1  9  2 -1</clus>
<clus scale="   89.878">  7  8 -1 -1</clus>
<clus scale="  226.875">  1  5  2 -1</clus>
<clus scale="   86.191">  1  5  2 -1</clus>
</clustering>
</event>
<event>
 9    2  0.3791909E-005  0.2393898E+03  0.7546771E-02  0.1120751E+00
         -1   -1    0    0    0  501 -0.00000000000E+00  0.00000000000E+00  0.62656227028E+03  0.62656227028E+03  0.00000000000E+00 0.  1.
          2   -1    0    0  502    0  0.00000000000E+00 -0.00000000000E+00 -0.29086538828E+03  0.29086538828E+03  0.00000000000E+00 0. -1.
         23    2    1    2    0    0  0.21652024566E+03 -0.19311572447E+02  0.44593859608E+03  0.50412961626E+03  0.89618552241E+02 0.  0.
         24    2    1    2    0    0 -0.23577873051E+03  0.42112366025E+02  0.43764112546E+02  0.25642688478E+03  0.80463585307E+02 0.  0.
        -13    1    4    4    0    0 -0.15056007326E+02  0.27624947203E+02  0.60147021521E+01  0.32031198955E+02  0.00000000000E+00 0.  1.
         14    1    4    4    0    0 -0.22072272318E+03  0.14487418823E+02  0.37749410394E+02  0.22439568583E+03  0.00000000000E+00 0. -1.
        -11    1    3    3    0    0  0.69355804160E+02 -0.48933906386E+02  0.15304124849E+03  0.17500393854E+03  0.00000000000E+00 0.  1.
         11    1    3    3    0    0  0.14716444150E+03  0.29622333939E+02  0.29289734759E+03  0.32912567772E+03  0.00000000000E+00 0. -1.
         21    1    1    2  502  501  0.19258484849E+02 -0.22800793578E+02 -0.15400582663E+03  0.15687115752E+03  0.00000000000E+00 0. -1.
<scales pt_clust_5="13000.00000" pt_clust_6="13000.00000" pt_clust_7="13000.00000" pt_clust_8="13000.00000" pt_clust_9="29.84569"></scales>
<clustering>
<clus scale="   29.846">  2  9  1 -1</clus>
<clus scale="   80.464">  5  6 -1 -1</clus>
<clus scale="   89.619">  7  8 -1 -1</clus>
<clus scale="  236.115">  2  5  1 -1</clus>
<clus scale="   29.846">  2  5  1 -1</clus>
</clustering>
</event>
<event>
 9    2  0.3791909E-005  0.1369952E+03  0.7546771E-02  0.1227476E+00
          2   -1    0    0  502    0  0.00000000000E+00  0.00000000000E+00  0.54616870318E+03  0.54616870318E+03  0.00000000000E+00 0. -1.
         -1   -1    0    0    0  501 -0.00000000000E+00 -0.00000000000E+00 -0.20065591681E+03  0.20065591681E+03  0.00000000000E+00 0.  1.
         24    2    1    2    0    0  0.49560130204E+02 -0.10136326638E+03 -0.14351798548E+03  0.19929359511E+03  0.79936265957E+02 0.  0.
         23    2    1    2    0    0 -0.64231675309E+02 -0.15934766559E+02  0.33779294555E+03  0.35557539752E+03  0.89163694193E+02 0.  0.
        -13    1    3    3    0    0  0.69475686329E+02 -0.89973328635E+02 -0.10666627335E+03  0.15588381804E+03  0.00000000000E+00 0.  1.
         14    1    3    3    0    0 -0.19915556125E+02 -0.11389937750E+02 -0.36851712134E+02  0.43409777066E+02  0.00000000000E+00 0. -1.
        -11    1    4    4    0    0 -0.23260881706E+02 -0.45356285826E+02  0.24204262124E+03  0.24735175717E+03  0.00000000000E+00 0.  1.
         11    1    4    4    0    0 -0.40970793603E+02  0.29421519267E+02  0.95750324312E+02  0.10822364035E+03  0.00000000000E+00 0. -1.
         21    1    1    2  502  501  0.14671545105E+02  0.11729803294E+03  0.15123782630E+03  0.19195562736E+03  0.00000000000E+00 0. -1.
<scales pt_clust_5="13000.00000" pt_clust_6="13000.00000" pt_clust_7="13000.00000" pt_clust_8="13000.00000" pt_clust_9="111.25586"></scales>
<clustering>
<clus scale="   79.936">  5  6 -1 -1</clus>
<clus scale="   89.164">  7  8 -1 -1</clus>
<clus scale="  111.040">  1  7  2 -1</clus>
<clus scale="  111.256">  1  9  2 -1</clus>
<clus scale="  111.040">  1  5  2 -1</clus>
</clustering>
</event>
<event>
 9    2  0.3791909E-005  0.9696838E+02  0.7546771E-02  0.1291449E+00
         -1   -1    0    0    0  501 -0.00000000000E+00  0.00000000000E+00  0.52256334151E+02  0.52256334151E+02  0.00000000000E+00 0.  1.
          2   -1    0    0  502    0  0.00000000000E+00 -0.00000000000E+00 -0.35340612087E+03  0.35340612087E+03  0.00000000000E+00 0. -1.
         23    2    1    2    0    0  0.25365345923E+02 -0.25596669450E+01 -0.15622336411E+02  0.89202597552E+02  0.84042211695E+02 0.  0.
         24    2    1    2    0    0 -0.52725280353E+02 -0.77387754116E+01 -0.26589345152E+03  0.28124455064E+03  0.74560886988E+02 0.  0.
        -13    1    4    4    0    0 -0.49657279914E+02 -0.12014457309E+02 -0.77787285649E+02  0.93064786259E+02  0.00000000000E+00 0.  1.
         14    1    4    4    0    0 -0.30680004388E+01  0.42756818971E+01 -0.18810616587E+03  0.18817976438E+03  0.00000000000E+00 0. -1.
        -13    1    3    3    0    0  0.19113306104E+02  0.38354172210E+02  0.46708212369E+01  0.43106583803E+02  0.00000000000E+00 0. -1.
         13    1    3    3    0    0  0.62520398184E+01 -0.40913839155E+02 -0.20293157648E+02  0.46096013749E+02  0.00000000000E+00 0.  1.
         21    1    1    2  502  501  0.27359934430E+02  0.10298442357E+02 -0.19633998791E+02  0.35215306836E+02  0.00000000000E+00 0.  1.
<scales pt_clust_5="13000.00000" pt_clust_6="13000.00000" pt_clust_7="13000.00000" pt_clust_8="13000.00000" pt_clust_9="29.23395"></scales>
<clustering>
<clus scale="   29.234">  1  9  2 -1</clus>
<clus scale="   74.561">  5  6 -1 -1</clus>
<clus scale="   84.042">  7  8 -1 -1</clus>
<clus scale="   88.877">  2  5  1 -1</clus>
<clus scale="   88.877">  2  5  1 -1</clus>
</clustering>
</event>
<event>
 9    2  0.3791909E-005  0.1096583E+03  0.7546771E-02  0.1263879E+00
          2   -1    0    0  502    0  0.00000000000E+00  0.00000000000E+00  0.10119630923E+03  0.10119630923E+03  0.00000000000E+00 0. -1.
         -1   -1    0    0    0  501 -0.00000000000E+00 -0.00000000000E+00 -0.62102735983E+03  0.62102735983E+03  0.00000000000E+00 0.  1.
         23    2    1    2    0    0  0.10148982715E+02 -0.65846585789E+02 -0.57004378211E+03  0.58059116964E+03  0.87734930505E+02 0.  0.
         24    2    1    2    0    0 -0.30013556934E+02  0.47908962279E+02  0.57314035654E+02  0.11394155927E+03  0.80633107214E+02 0.  0.
        -11    1    4    4    0    0 -0.56886127243E+02  0.24129438092E+02  0.43135872353E+02  0.75358906169E+02  0.00000000000E+00 0.  1.
         12    1    4    4    0    0  0.26872570309E+02  0.23779524187E+02  0.14178163301E+02  0.38582653099E+02  0.00000000000E+00 0. -1.
        -11    1    3    3    0    0 -0.37750048875E+02 -0.39516020774E+02 -0.24888628938E+03  0.25481555512E+03  0.00000000000E+00 0.  1.
         11    1    3    3    0    0  0.47899031590E+02 -0.26330565014E+02 -0.32115749273E+03  0.32577561452E+03  0.00000000000E+00 0. -1.
         21    1    1    2  502  501  0.19864574219E+02  0.17937623510E+02 -0.71013041400E+01  0.27690940154E+02  0.00000000000E+00 0.  1.
<scales pt_clust_5="13000.00000" pt_clust_6="13000.00000" pt_clust_7="13000.00000" pt_clust_8="13000.00000" pt_clust_9="26.76490"></scales>
<clustering>
<clus scale="   26.765">  1  9  2 -1</clus>
<clus scale="   80.633">  5  6 -1 -1</clus>
<clus scale="   87.735">  7  8 -1 -1</clus>
<clus scale="  104.064">  1  5  2 -1</clus>
<clus scale="   26.765">  1  5  2 -1</clus>
</clustering>
</event>
<event>
 9    2  0.3791909E-005  0.9222552E+02  0.7546771E-02  0.1304084E+00
          2   -1    0    0  502    0  0.00000000000E+00  0.00000000000E+00  0.20346474154E+03  0.20346474154E+03  0.00000000000E+00 0. -1.
         -1   -1    0    0    0  501 -0.00000000000E+00 -0.00000000000E+00 -0.18465189924E+03  0.18465189924E+03  0.00000000000E+00 0.  1.
         24    2    1    2    0    0  0.10627911099E+02 -0.20821810385E+01 -0.12606686995E+03  0.14960180826E+03  0.79815771399E+02 0.  0.
         23    2    1    2    0    0 -0.64781154661E+02 -0.81968460780E+01  0.37345889723E+02  0.11767711005E+03  0.90495306319E+02 0.  0.
        -11    1    3    3    0    0 -0.25460528043E+02  0.22110672985E+02 -0.77021535910E+02  0.84079946135E+02  0.00000000000E+00 0.  1.
         12    1    3    3    0    0  0.36088439141E+02 -0.24192854024E+02 -0.49045334036E+02  0.65521862124E+02  0.00000000000E+00 0. -1.
        -13    1    4    4    0    0 -0.41619831381E+02 -0.48096715774E+02  0.32097862889E+02  0.71244489152E+02  0.00000000000E+00 0.  1.
         13    1    4    4    0    0 -0.23161323280E+02  0.39899869696E+02  0.52480268339E+01  0.46432620899E+02  0.00000000000E+00 0. -1.
         21    1    1    2  502  501  0.54153243563E+02  0.10279027116E+02  0.10753382251E+03  0.12083772247E+03  0.00000000000E+00 0. -1.
<scales pt_clust_5="13000.00000" pt_clust_6="13000.00000" pt_clust_7="13000.00000" pt_clust_8="13000.00000" pt_clust_9="55.12016"></scales>
<clustering>
<clus scale="   55.120">  1  9  2 -1</clus>
<clus scale="   79.816">  5  6 -1 -1</clus>
<clus scale="   81.772">  2  5  1 -1</clus>
<clus scale="   90.495">  7  8 -1 -1</clus>
<clus scale="   55.120">  1  5  2 -1</clus>
</clustering>
</event>
<event>
 9    2  0.3791909E-005  0.1563157E+03  0.7546771E-02  0.1206249E+00
          2   -1    0    0  502    0  0.00000000000E+00  0.00000000000E+00  0.23441282267E+03  0.23441282267E+03  0.00000000000E+00 0. -1.
         -1   -1    0    0    0  501 -0.00000000000E+00 -0.00000000000E+00 -0.27327031415E+03  0.27327031415E+03  0.00000000000E+00 0.  1.
         23    2    1    2    0    0 -0.12377921485E+02 -0.69605560723E+02 -0.40683126996E+02  0.12387067847E+03  0.93223822805E+02 0.  0.
         24    2    1    2    0    0 -0.96715172554E+02 -0.21821840463E+02 -0.13535563394E+03  0.18612843384E+03  0.80576851031E+02 0.  0.
        -13    1    4    4    0    0 -0.61983177221E+02  0.19546419623E+02 -0.10682254186E+03  0.12504012247E+03  0.00000000000E+00 0.  1.
         14    1    4    4    0    0 -0.34731995333E+02 -0.41368260086E+02 -0.28533092079E+02  0.61088311369E+02  0.00000000000E+00 0. -1.
        -11    1    3    3    0    0 -0.27874407875E+02 -0.34618420334E+02  0.22643102320E+02  0.49881135948E+02  0.00000000000E+00 0.  1.
         11    1    3    3    0    0  0.15496486390E+02 -0.34987140389E+02 -0.63326229316E+02  0.73989542521E+02  0.00000000000E+00 0. -1.
         21    1    1    2  502  501  0.10909309404E+03  0.91427401186E+02  0.13718126946E+03  0.19768402451E+03  0.00000000000E+00 0. -1.
<scales pt_clust_5="13000.00000" pt_clust_6="13000.00000" pt_clust_7="13000.00000" pt_clust_8="13000.00000" pt_clust_9="133.94762"></scales>
<clustering>
<clus scale="   80.577">  5  6 -1 -1</clus>
<clus scale="   93.224">  7  8 -1 -1</clus>
<clus scale="  116.999">  2  7  1 -1</clus>
<clus scale="  133.948">  1  9  2 -1</clus>
<clus scale="  133.948">  1  5  2 -1</clus>
</clustering>
</event>
<event>
 9    2  0.3791909E-005  0.1602836E+03  0.7546771E-02  0.1191176E+00
          2   -1    0    0  502    0  0.00000000000E+00  0.00000000000E+00  0.86499111011E+03  0.86499111011E+03  0.00000000000E+00 0. -1.
         -1   -1    0    0    0  501 -0.00000000000E+00 -0.00000000000E+00 -0.64066109068E+02  0.64066109068E+02  0.00000000000E+00 0.  1.
         23    2    1    2    0    0 -0.44301465100E+02  0.11674985128E+03  0.67572562387E+02  0.17153996920E+03  0.96264023719E+02 0.  0.
         24    2    1    2    0    0  0.46838062527E+02 -0.13680251757E+03  0.58491321658E+03  0.60770821686E+03  0.79227981157E+02 0.  0.
        -13    1    4    4    0    0  0.41281741721E+02 -0.39901819951E+02  0.12344628915E+03  0.13614449581E+03  0.00000000000E+00 0.  1.
         14    1    4    4    0    0  0.55563208058E+01 -0.96900697616E+02  0.46146692743E+03  0.47156372105E+03  0.00000000000E+00 0. -1.
        -13    1    3    3    0    0 -0.37790885507E+02  0.10697761482E+01  0.80264322293E+00  0.37814543294E+02  0.00000000000E+00 0.  1.
         13    1    3    3    0    0 -0.65105795930E+01  0.11568007513E+03  0.66769919164E+02  0.13372542591E+03  0.00000000000E+00 0. -1.
         21    1    1    2  502  501 -0.25365974277E+01  0.20052666284E+02  0.14843922208E+03  0.14980903311E+03  0.00000000000E+00 0. -1.
<scales pt_clust_5="13000.00000" pt_clust_6="13000.00000" pt_clust_7="13000.00000" pt_clust_8="13000.00000" pt_clust_9="20.21247"></scales>
<clustering>
<clus scale="   20.212">  1  9  2 -1</clus>
<clus scale="   79.228">  5  6 -1 -1</clus>
<clus scale="   96.264">  7  8 -1 -1</clus>
<clus scale="  150.669">  1  5  2 -1</clus>
<clus scale="   20.212">  1  5  2 -1</clus>
</clustering>
</event>
<event>
 9    2  0.3791909E-005  0.9724783E+02  0.7546771E-02  0.1286375E+00
         -1   -1    0    0    0  501 -0.00000000000E+00  0.00000000000E+00  0.24602651624E+02  0.24602651624E+02  0.00000000000E+00 0.  1.
          2   -1    0    0  502    0  0.00000000000E+00 -0.00000000000E+00 -0.88638552414E+03  0.88638552414E+03  0.00000000000E+00 0. -1.
         23    2    1    2    0    0  0.66289882182E+02 -0.32887787637E+02 -0.15860590432E+03  0.19168004987E+03  0.78162993659E+02 0.  0.
         24    2    1    2    0    0 -0.79926988990E+00  0.28717553859E+02 -0.46130958918E+03  0.46869639397E+03  0.77745970414E+02 0.  0.
        -11    1    4    4    0    0  0.26491473714E+02 -0.69058069538E+01 -0.75964228838E+02  0.80746841499E+02  0.00000000000E+00 0.  1.
         12    1    4    4    0    0 -0.27290743604E+02  0.35623360813E+02 -0.38534536034E+03  0.38794955247E+03  0.00000000000E+00 0. -1.
        -11    1    3    3    0    0  0.56821543061E+02  0.12540718537E+02 -0.11022748702E+03  0.12464371734E+03  0.00000000000E+00 0. -1.
         11    1    3    3    0    0  0.94683391204E+01 -0.45428506173E+02 -0.48378417301E+02  0.67036332532E+02  0.00000000000E+00 0.  1.
         21    1    1    2  502  501 -0.65490612292E+02  0.41702337775E+01 -0.24186737902E+03  0.25061173193E+03  0.00000000000E+00 0. -1.
<scales pt_clust_5="13000.00000" pt_clust_6="13000.00000" pt_clust_7="13000.00000" pt_clust_8="13000.00000" pt_clust_9="65.62325"></scales>
<clustering>
<clus scale="   65.623">  2  9  1 -1</clus>
<clus scale="   77.746">  5  6 -1 -1</clus>
<clus scale="   78.163">  7  8 -1 -1</clus>
<clus scale="   96.913">  2  5  1 -1</clus>
<clus scale="   65.623">  2  5  1 -1</clus>
</clustering>
</event>
<event>
 9    2  0.3791909E-005  0.1284922E+03  0.7546771E-02  0.1232955E+00
          2   -1    0    0  502    0  0.00000000000E+00  0.00000000000E+00  0.26199406724E+03  0.26199406724E+03  0.00000000000E+00 0. -1.
         -1   -1    0    0    0  501 -0.00000000000E+00 -0.00000000000E+00 -0.42823880594E+03  0.42823880594E+03  0.00000000000E+00 0.  1.
         23    2    1    2    0    0 -0.26289005345E+02  0.87238009259E+02 -0.39982462374E+03  0.42016195935E+03  0.91513716324E+02 0.  0.
         24    2    1    2    0    0  0.29394205421E+01 -0.74430996450E+02  0.18484739933E+03  0.21453643939E+03  0.79427384203E+02 0.  0.
        -11    1    4    4    0    0  0.23931791982E+02 -0.33102230038E+02  0.24518135375E+02  0.47640605193E+02  0.00000000000E+00 0.  1.
         12    1    4    4    0    0 -0.20992371440E+02 -0.41328766412E+02  0.16032926395E+03  0.16689583419E+03  0.00000000000E+00 0. -1.
        -13    1    3    3    0    0  0.76926681984E+01  0.67915647865E+02 -0.35111634067E+03  0.35770713867E+03  0.00000000000E+00 0.  1.
         13    1    3    3    0    0 -0.33981673544E+02  0.19322361395E+02 -0.48708283062E+02  0.62454820675E+02  0.00000000000E+00 0. -1.
         21    1    1    2  502  501  0.23349584803E+02 -0.12807012809E+02  0.48732485710E+02  0.55534474438E+02  0.00000000000E+00 0. -1.
<scales pt_clust_5="13000.00000" pt_clust_6="13000.00000" pt_clust_7="13000.00000" pt_clust_8="13000.00000" pt_clust_9="26.63124"></scales>
<clustering>
<clus scale="   26.631">  1  9  2 -1</clus>
<clus scale="   79.427">  5  6 -1 -1</clus>
<clus scale="   91.514">  7  8 -1 -1</clus>
<clus scale="  120.184">  1  5  2 -1</clus>
<clus scale="   26.631">  1  5  2 -1</clus>
</clustering>
</event>
<event>
 9    2  0.3791909E-005  0.2061463E+03  0.7546771E-02  0.1145617E+00
          2   -1    0    0  502    0  0.00000000000E+00  0.00000000000E+00  0.14610135087E+04  0.14610135087E+04  0.00000000000E+00 0. -1.
         -1   -1    0    0    0  501 -0.00000000000E+00 -0.00000000000E+00 -0.46667154274E+02  0.46667154274E+02  0.00000000000E+00 0.  1.
         24    2    1    2    0    0  0.13347929145E+02 -0.17918809386E+03  0.30756803181E+03  0.36518977739E+03  0.80491857495E+02 0.  0.
         23    2    1    2    0    0 -0.68924101008E+02  0.18946986009E+03  0.77850145599E+03  0.80938410577E+03  0.91590142040E+02 0.  0.
        -13    1    3    3    0    0  0.12782211827E+02 -0.18091403985E+03  0.31172895309E+03  0.36064971225E+03  0.00000000000E+00 0.  1.
         14    1    3    3    0    0  0.56571731744E+00  0.17259459893E+01 -0.41609212726E+01  0.45400651403E+01  0.00000000000E+00 0. -1.
        -13    1    4    4    0    0 -0.44197228179E+02  0.43991159129E+02  0.12835246635E+03  0.14269888815E+03  0.00000000000E+00 0.  1.
         13    1    4    4    0    0 -0.24726872829E+02  0.14547870096E+03  0.65014898964E+03  0.66668521762E+03  0.00000000000E+00 0. -1.
         21    1    1    2  502  501  0.55576171863E+02 -0.10281766231E+02  0.32827686661E+03  0.33310677979E+03  0.00000000000E+00 0. -1.
<scales pt_clust_5="13000.00000" pt_clust_6="13000.00000" pt_clust_7="13000.00000" pt_clust_8="13000.00000" pt_clust_9="56.51925"></scales>
<clustering>
<clus scale="   56.519">  1  9  2 -1</clus>
<clus scale="   80.492">  5  6 -1 -1</clus>
<clus scale="   91.590">  7  8 -1 -1</clus>
<clus scale="  201.461">  2  5  1 -1</clus>
<clus scale="   56.519">  1  5  2 -1</clus>
</clustering>
</event>
<event>
 9    2  0.3791909E-005  0.1188950E+03  0.7546771E-02  0.1249826E+00
         -1   -1    0    0    0  501 -0.00000000000E+00  0.00000000000E+00  0.12018643543E+03  0.12018643543E+03  0.00000000000E+00 0.  1.
          2   -1    0    0  502    0  0.00000000000E+00 -0.00000000000E+00 -0.32483148952E+03  0.32483148952E+03  0.00000000000E+00 0. -1.
         23    2    1    2    0    0 -0.61875415476E+02  0.20789149735E+02  0.49719701780E+02  0.12473553217E+03  0.93947583538E+02 0.  0.
         24    2    1    2    0    0  0.10530649808E+03 -0.51126243431E+02 -0.19136627161E+03  0.23796953103E+03  0.79404637688E+02 0.  0.
        -13    1    4    4    0    0  0.54034175051E+02 -0.17602868989E+02 -0.27712195470E+02  0.63225934931E+02  0.00000000000E+00 0.  1.
         14    1    4    4    0    0  0.51272323028E+02 -0.33523374442E+02 -0.16365407614E+03  0.17474359610E+03  0.00000000000E+00 0. -1.
        -13    1    3    3    0    0 -0.21866943581E+02 -0.22398029331E+02  0.57385248339E+02  0.65367435825E+02  0.00000000000E+00 0.  1.
         13    1    3    3    0    0 -0.40008471895E+02  0.43187179066E+02 -0.76655465589E+01  0.59368096341E+02  0.00000000000E+00 0. -1.
         21    1    1    2  502  501 -0.43431082603E+02  0.30337093696E+02 -0.62998484267E+02  0.82312861753E+02  0.00000000000E+00 0.  1.
<scales pt_clust_5="13000.00000" pt_clust_6="13000.00000" pt_clust_7="13000.00000" pt_clust_8="13000.00000" pt_clust_9="52.97734"></scales>
<clustering>
<clus scale="   52.977">  2  9  1 -1</clus>
<clus scale="   79.405">  5  6 -1 -1</clus>
<clus scale="   93.948">  7  8 -1 -1</clus>
<clus scale="  107.773">  2  5  1 -1</clus>
<clus scale="   52.977">  2  5  1 -1</clus>
</clustering>
</event>
<event>
 9    2  0.3791909E-005  0.1407064E+03  0.7546771E-02  0.1214568E+00
         -1   -1    0    0    0  501 -0.00000000000E+00  0.00000000000E+00  0.37543654245E+03  0.37543654245E+03  0.00000000000E+00 0.  1.
          2   -1    0    0  502    0  0.00000000000E+00 -0.00000000000E+00 -0.86158518686E+02  0.86158518686E+02  0.00000000000E+00 0. -1.
         24    2    1    2    0    0 -0.11381277030E+03  0.10737985815E+02  0.15054925016E+03  0.20579072509E+03  0.81339380294E+02 0.  0.
         23    2    1    2    0    0  0.93343268340E+02  0.57800472552E+02  0.84346907842E+02  0.16594940792E+03  0.91492867227E+02 0.  0.
        -13    1    3    3    0    0 -0.89121188376E+02 -0.12598268439E+02  0.57682549722E+02  0.10690453277E+03  0.00000000000E+00 0.  1.
         14    1    3    3    0    0 -0.24691581925E+02  0.23336254254E+02  0.92866700439E+02  0.98886192317E+02  0.00000000000E+00 0. -1.
        -13    1    4    4    0    0  0.33524100356E+02  0.53130973350E+02  0.85303307992E+02  0.10594064370E+03  0.00000000000E+00 0.  1.
         13    1    4    4    0    0  0.59819167984E+02  0.46694992023E+01 -0.95640015020E+00  0.60008764212E+02  0.00000000000E+00 0. -1.
         21    1    1    2  502  501  0.20469501961E+02 -0.68538458367E+02  0.54381865763E+02  0.89854928133E+02  0.00000000000E+00 0.  1.
<scales pt_clust_5="13000.00000" pt_clust_6="13000.00000" pt_clust_7="13000.00000" pt_clust_8="13000.00000" pt_clust_9="71.52986"></scales>
<clustering>
<clus scale="   71.530">  2  9  1 -1</clus>
<clus scale="   81.339">  5  6 -1 -1</clus>
<clus scale="   91.493">  7  8 -1 -1</clus>
<clus scale="  134.326">  1  5  2 -1</clus>
<clus scale="   71.530">  2  5  1 -1</clus>
</clustering>
</event>
<event>
 9    2  0.3791909E-005  0.9577582E+02  0.7546771E-02  0.1295700E+00
          2   -1    0    0  502    0  0.00000000000E+00  0.00000000000E+00  0.44604567893E+03  0.44604567893E+03  0.00000000000E+00 0. -1.
         -1   -1    0    0    0  501 -0.00000000000E+00 -0.00000000000E+00 -0.39183523346E+02  0.39183523346E+02  0.00000000000E+00 0.  1.
         23    2    1    2    0    0  0.84517075223E+01  0.69339853159E+01  0.46705188065E+02  0.10360471829E+03  0.91831647848E+02 0.  0.
         24    2    1    2    0    0  0.14281959205E+02 -0.28951805177E+02  0.31279889814E+03  0.32466493054E+03  0.80758807947E+02 0.  0.
        -13    1    4    4    0    0  0.14961092414E+02 -0.15730891681E+02  0.14576821609E+02  0.26149167626E+02  0.00000000000E+00 0.  1.
         14    1    4    4    0    0 -0.67913320932E+00 -0.13220913496E+02  0.29822207653E+03  0.29851576291E+03  0.00000000000E+00 0. -1.
        -13    1    3    3    0    0  0.12688364295E+02 -0.39765224142E+02  0.36871730044E+02  0.55693734980E+02  0.00000000000E+00 0. -1.
         13    1    3    3    0    0 -0.42366567730E+01  0.46699209458E+02  0.98334580214E+01  0.47910983306E+02  0.00000000000E+00 0.  1.
         21    1    1    2  502  501 -0.22733666727E+02  0.22017819861E+02  0.47358069375E+02  0.56959553450E+02  0.00000000000E+00 0.  1.
<scales pt_clust_5="13000.00000" pt_clust_6="13000.00000" pt_clust_7="13000.00000" pt_clust_8="13000.00000" pt_clust_9="31.64813"></scales>
<clustering>
<clus scale="   31.648">  2  9  1 -1</clus>
<clus scale="   80.759">  5  6 -1 -1</clus>
<clus scale="   85.217">  1  5  2 -1</clus>
<clus scale="   91.832">  7  8 -1 -1</clus>
<clus scale="   85.217">  1  5  2 -1</clus>
</clustering>
</event>
<event>
 9    2  0.3791909E-005  0.9491718E+02  0.7546771E-02  0.1300654E+00
         -1   -1    0    0    0  501 -0.00000000000E+00  0.00000000000E+00  0.29810868478E+03  0.29810868478E+03  0.00000000000E+00 0.  1.
          2   -1    0    0  502    0  0.00000000000E+00 -0.00000000000E+00 -0.53555735807E+02  0.53555735807E+02  0.00000000000E+00 0. -1.
         23    2    1    2    0    0  0.29514897583E+02  0.16390235443E+02  0.18122977158E+03  0.20704313787E+03  0.94248935470E+02 0.  0.
         24    2    1    2    0    0 -0.44374526120E+01  0.11786134395E+02  0.12085034256E+02  0.80996339682E+02  0.79093331193E+02 0.  0.
        -11    1    4    4    0    0  0.94018710701E+01 -0.22279282290E+02 -0.20625290794E+02  0.31783080708E+02  0.00000000000E+00 0.  1.
         12    1    4    4    0    0 -0.13839323682E+02  0.34065416685E+02  0.32710325050E+02  0.49213258973E+02  0.00000000000E+00 0. -1.
        -11    1    3    3    0    0  0.42105766094E+01  0.53747919455E+02  0.11358927484E+03  0.12573420839E+03  0.00000000000E+00 0.  1.
         11    1    3    3    0    0  0.25304320974E+02 -0.37357684012E+02  0.67640496739E+02  0.81308929484E+02  0.00000000000E+00 0. -1.
         21    1    1    2  502  501 -0.25077444971E+02 -0.28176369838E+02  0.51238143138E+02  0.63624943032E+02  0.00000000000E+00 0.  1.
<scales pt_clust_5="13000.00000" pt_clust_6="13000.00000" pt_clust_7="13000.00000" pt_clust_8="13000.00000" pt_clust_9="37.71984"></scales>
<clustering>
<clus scale="   37.720">  1  9  2 -1</clus>
<clus scale="   79.093">  5  6 -1 -1</clus>
<clus scale="   79.888">  2  5  1 -1</clus>
<clus scale="   94.249">  7  8 -1 -1</clus>
<clus scale="   79.888">  2  5  1 -1</clus>
</clustering>
</event>
<event>
 9    2  0.3791909E-005  0.1149889E+03  0.7546771E-02  0.1256750E+00
          4   -1    0    0  502    0  0.00000000000E+00  0.00000000000E+00  0.14138955256E+03  0.14138955256E+03  0.00000000000E+00 0. -1.
         -3   -1    0    0    0  501 -0.00000000000E+00 -0.00000000000E+00 -0.17640537520E+03  0.17640537520E+03  0.00000000000E+00 0.  1.
         23    2    1    2    0    0 -0.43005225029E+02 -0.41361795638E+02 -0.96642248423E+02  0.14685086656E+03  0.93087084553E+02 0.  0.
         24    2    1    2    0    0  0.69401400367E+02  0.65356432197E+02  0.46124468436E+02  0.13204918574E+03  0.78876506404E+02 0.  0.
        -11    1    4    4    0    0  0.53605903731E+02  0.67352528207E+01 -0.27674120432E+01  0.54098198813E+02  0.00000000000E+00 0.  1.
         12    1    4    4    0    0  0.15795496637E+02  0.58621179376E+02  0.48891880479E+02  0.77950986923E+02  0.00000000000E+00 0. -1.
        -11    1    3    3    0    0 -0.61193244801E+02  0.28778795567E+01 -0.42245132084E+02  0.74414693340E+02  0.00000000000E+00 0.  1.
         11    1    3    3    0    0  0.18188019772E+02 -0.44239675195E+02 -0.54397116339E+02  0.72436173219E+02  0.00000000000E+00 0. -1.
         21    1    1    2  502  501 -0.26396175338E+02 -0.23994636559E+02  0.15501957344E+02  0.38894875467E+02  0.00000000000E+00 0.  1.
<scales pt_clust_5="13000.00000" pt_clust_6="13000.00000" pt_clust_7="13000.00000" pt_clust_8="13000.00000" pt_clust_9="35.67213"></scales>
<clustering>
<clus scale="   35.672">  1  9  2 -1</clus>
<clus scale="   78.877">  5  6 -1 -1</clus>
<clus scale="   93.087">  7  8 -1 -1</clus>
<clus scale="  103.821">  1  5  2 -1</clus>
<clus scale="   35.672">  1  5  2 -1</clus>
</clustering>
</event>
<event>
 9    2  0.3791909E-005  0.1040382E+03  0.7546771E-02  0.1277122E+00
         -1   -1    0    0    0  501 -0.00000000000E+00  0.00000000000E+00  0.31166967985E+03  0.31166967985E+03  0.00000000000E+00 0.  1.
          2   -1    0    0  502    0  0.00000000000E+00 -0.00000000000E+00 -0.11012303609E+03  0.11012303609E+03  0.00000000000E+00 0. -1.
         23    2    1    2    0    0  0.15197341749E+02 -0.21088945725E+02  0.19333633182E+03  0.21530733235E+03  0.91118644282E+02 0.  0.
         24    2    1    2    0    0  0.51068439261E+02  0.26679511993E+02 -0.56631199789E+02  0.11360465465E+03  0.79869536866E+02 0.  0.
        -11    1    4    4    0    0  0.53394366197E+02  0.91535762606E+01  0.10947832551E+00  0.54173409394E+02  0.00000000000E+00 0.  1.
         12    1    4    4    0    0 -0.23259269353E+01  0.17525935732E+02 -0.56740678115E+02  0.59431245253E+02  0.00000000000E+00 0. -1.
        -13    1    3    3    0    0 -0.34132634392E+02 -0.26967628836E+02  0.70967718277E+02  0.83238853747E+02  0.00000000000E+00 0. -1.
         13    1    3    3    0    0  0.49329976141E+02  0.58786831113E+01  0.12236861354E+03  0.13206847861E+03  0.00000000000E+00 0.  1.
         21    1    1    2  502  501 -0.66265781010E+02 -0.55905662681E+01  0.64841511725E+02  0.92880728932E+02  0.00000000000E+00 0. -1.
<scales pt_clust_5="13000.00000" pt_clust_6="13000.00000" pt_clust_7="13000.00000" pt_clust_8="13000.00000" pt_clust_9="66.50119"></scales>
<clustering>
<clus scale="   66.501">  1  9  2 -1</clus>
<clus scale="   79.870">  5  6 -1 -1</clus>
<clus scale="   91.119">  7  8 -1 -1</clus>
<clus scale="   94.342">  2  5  1 -1</clus>
<clus scale="   94.342">  2  5  1 -1</clus>
</clustering>
</event>
<event>
 9    2  0.3791909E-005  0.1393890E+03  0.7546771E-02  0.1216087E+00
         -1   -1    0    0    0  501 -0.00000000000E+00  0.00000000000E+00  0.95946960443E+02  0.95946960443E+02  0.00000000000E+00 0.  1.
          2   -1    0    0  502    0  0.00000000000E+00 -0.00000000000E+00 -0.28100845826E+03  0.28100845826E+03  0.00000000000E+00 0. -1.
         24    2    1    2    0    0  0.85734566527E+02  0.16127126238E+02  0.46444761133E+00  0.11845038507E+03  0.80123516601E+02 0.  0.
         23    2    1    2    0    0 -0.11224692305E+03 -0.30730122880E+02 -0.17002841255E+03  0.22450023862E+03  0.89145857323E+02 0.  0.
        -13    1    3    3    0    0  0.89170818396E+02  0.34570385996E+01  0.23193432452E+02  0.92202609931E+02  0.00000000000E+00 0.  1.
         14    1    3    3    0    0 -0.34362518688E+01  0.12670087639E+02 -0.22728984840E+02  0.26247775135E+02  0.00000000000E+00 0. -1.
        -11    1    4    4    0    0 -0.56447676291E+02  0.16201320257E+02 -0.28460692230E+02  0.65259742100E+02  0.00000000000E+00 0.  1.
         11    1    4    4    0    0 -0.55799246758E+02 -0.46931443137E+02 -0.14156772032E+03  0.15924049652E+03  0.00000000000E+00 0. -1.
         21    1    1    2  502  501  0.26512356522E+02  0.14602996642E+02 -0.15497532877E+02  0.34004795023E+02  0.00000000000E+00 0.  1.
<scales pt_clust_5="13000.00000" pt_clust_6="13000.00000" pt_clust_7="13000.00000" pt_clust_8="13000.00000" pt_clust_9="30.26801"></scales>
<clustering>
<clus scale="   30.268">  1  9  2 -1</clus>
<clus scale="   80.124">  5  6 -1 -1</clus>
<clus scale="   89.146">  7  8 -1 -1</clus>
<clus scale="  133.799">  1  5  2 -1</clus>
<clus scale="  139.389">  2  5  1 -1</clus>
</clustering>
</event>
<event>
 9    2  0.3791909E-005  0.9401547E+02  0.7546771E-02  0.1301293E+00
          2   -1    0    0  502    0  0.00000000000E+00  0.00000000000E+00  0.28343835271E+03  0.28343835271E+03  0.00000000000E+00 0. -1.
         -1   -1    0    0    0  501 -0.00000000000E+00 -0.00000000000E+00 -0.14541772575E+03  0.14541772575E+03  0.00000000000E+00 0.  1.
         23    2    1    2    0    0  0.12994549598E+02  0.67930157841E+01 -0.11654621452E+03  0.14955054254E+03  0.92559933396E+02 0.  0.
         24    2    1    2    0    0 -0.28082378404E+02 -0.27425639609E+02  0.18446620151E+03  0.20469020593E+03  0.79558250490E+02 0.  0.
        -13    1    4    4    0    0 -0.33303341984E+02  0.28157374026E+01  0.23579459747E+02  0.40902712457E+02  0.00000000000E+00 0.  1.
         14    1    4    4    0    0  0.52209635803E+01 -0.30241377011E+02  0.16088674176E+03  0.16378749348E+03  0.00000000000E+00 0. -1.
        -13    1    3    3    0    0 -0.37507845765E+02  0.18508910270E+02 -0.54339509120E+02  0.68572592956E+02  0.00000000000E+00 0.  1.
         13    1    3    3    0    0  0.50502395363E+02 -0.11715894486E+02 -0.62206705404E+02  0.80977949580E+02  0.00000000000E+00 0. -1.
         21    1    1    2  502  501  0.15087828805E+02  0.20632623824E+02  0.70100639983E+02  0.74615329993E+02  0.00000000000E+00 0. -1.
<scales pt_clust_5="13000.00000" pt_clust_6="13000.00000" pt_clust_7="13000.00000" pt_clust_8="13000.00000" pt_clust_9="25.56067"></scales>
<clustering>
<clus scale="   25.561">  1  9  2 -1</clus>
<clus scale="   79.558">  5  6 -1 -1</clus>
<clus scale="   81.247">  1  5  2 -1</clus>
<clus scale="   92.560">  7  8 -1 -1</clus>
<clus scale="   25.561">  1  5  2 -1</clus>
</clustering>
</event>
<event>
 9    2  0.3791909E-005  0.1062636E+03  0.7546771E-02  0.1271030E+00
          2   -1    0    0  502    0  0.00000000000E+00  0.00000000000E+00  0.13829343804E+03  0.13829343804E+03  0.00000000000E+00 0. -1.
         -1   -1    0    0    0  501 -0.00000000000E+00 -0.00000000000E+00 -0.38407353111E+03  0.38407353111E+03  0.00000000000E+00 0.  1.
         24    2    1    2    0    0 -0.42312481350E+02 -0.32272060017E+02 -0.33785844853E+03  0.35218172983E+03  0.83975041807E+02 0.  0.
         23    2    1    2    0    0  0.60527693978E+02  0.12264783208E+02  0.53168922178E+02  0.12279294991E+03  0.91853947202E+02 0.  0.
        -13    1    3    3    0    0 -0.20991260508E+02 -0.48373203205E+02 -0.30641848270E+03  0.31092263724E+03  0.00000000000E+00 0.  1.
         14    1    3    3    0    0 -0.21321220842E+02  0.16101143189E+02 -0.31439965833E+02  0.41259092595E+02  0.00000000000E+00 0. -1.
        -13    1    4    4    0    0  0.25545956596E+02  0.29627184544E+02  0.70060968409E+02  0.80242789438E+02  0.00000000000E+00 0. -1.
         13    1    4    4    0    0  0.34981737381E+02 -0.17362401336E+02 -0.16892046231E+02  0.42550160472E+02  0.00000000000E+00 0.  1.
         21    1    1    2  502  501 -0.18215212627E+02  0.20007276808E+02  0.38909433286E+02  0.47392289405E+02  0.00000000000E+00 0.  1.
<scales pt_clust_5="13000.00000" pt_clust_6="13000.00000" pt_clust_7="13000.00000" pt_clust_8="13000.00000" pt_clust_9="27.05707"></scales>
<clustering>
<clus scale="   27.057">  1  9  2 -1</clus>
<clus scale="   83.975">  5  6 -1 -1</clus>
<clus scale="   91.854">  7  8 -1 -1</clus>
<clus scale="   99.532">  2  5  1 -1</clus>
<clus scale="   27.057">  1  5  2 -1</clus>
</clustering>
</event>
<event>
 9    2  0.4683649E-005  0.1080910E+03  0.7546771E-02  0.1266965E+00
         -1   -1    0    0    0  501 -0.00000000000E+00  0.00000000000E+00  0.79869186494E+02  0.79869186494E+02  0.00000000000E+00 0.  1.
          2   -1    0    0  502    0  0.00000000000E+00 -0.00000000000E+00 -0.13070661974E+04  0.13070661974E+04  0.00000000000E+00 0. -1.
         23    2    1    2    0    0 -0.14666920684E+02 -0.58743142045E+02  0.34132350216E+02  0.11277148943E+03  0.88806059464E+02 0.  0.
         24    2    1    2    0    0  0.33547958432E+02  0.88042902295E+02 -0.11662425101E+04  0.11728896195E+04  0.81678938199E+02 0.  0.
        -11    1    4    4    0    0  0.16414430307E+02  0.39334030518E+02 -0.16832896027E+03  0.17364111939E+03  0.00000000000E+00 0.  1.
         12    1    4    4    0    0  0.17133528125E+02  0.48708871778E+02 -0.99791354982E+03  0.99924850007E+03  0.00000000000E+00 0. -1.
        -11    1    3    3    0    0  0.26048083245E+02 -0.61382463708E+02  0.20946729599E+02  0.69893311358E+02  0.00000000000E+00 0. -1.
         11    1    3    3    0    0 -0.40715003930E+02  0.26393216628E+01  0.13185620618E+02  0.42878178073E+02  0.00000000000E+00 0.  1.
         21    1    1    2  502  501 -0.18881037748E+02 -0.29299760250E+02 -0.95086851002E+02  0.10127427497E+03  0.00000000000E+00 0. -1.
<scales pt_clust_5="13000.00000" pt_clust_6="13000.00000" pt_clust_7="13000.00000" pt_clust_8="13000.00000" pt_clust_9="34.85641"></scales>
<clustering>
<clus scale="   34.856">  2  9  1 -1</clus>
<clus scale="   81.679">  5  6 -1 -1</clus>
<clus scale="   88.806">  7  8 -1 -1</clus>
<clus scale="  102.316">  2  5  1 -1</clus>
<clus scale="   34.856">  2  5  1 -1</clus>
</clustering>
</event>
<event>
 9    2  0.3791909E-005  0.1163122E+03  0.7546771E-02  0.1253683E+00
         -1   -1    0    0    0  501 -0.00000000000E+00  0.00000000000E+00  0.32519990492E+02  0.32519990492E+02  0.00000000000E+00 0.  1.
          2   -1    0    0  502    0  0.00000000000E+00 -0.00000000000E+00 -0.93129145701E+03  0.93129145701E+03  0.00000000000E+00 0. -1.
         23    2    1    2    0    0  0.70210644730E+02  0.23811781404E+02 -0.10044891507E+03  0.15423139440E+03  0.90558284625E+02 0.  0.
         24    2    1    2    0    0 -0.69934171286E+02  0.91215090075E+00 -0.71705000657E+03  0.72462962157E+03  0.77690129345E+02 0.  0.
        -13    1    4    4    0    0 -0.43862927702E+02  0.62600937569E+00 -0.13401531219E+03  0.14101224137E+03  0.00000000000E+00 0.  1.
         14    1    4    4    0    0 -0.26071243584E+02  0.28614152506E+00 -0.58303469438E+03  0.58361738020E+03  0.00000000000E+00 0. -1.
        -11    1    3    3    0    0  0.13954402455E+02  0.40828587632E+02 -0.81950807836E+02  0.92615516091E+02  0.00000000000E+00 0. -1.
         11    1    3    3    0    0  0.56256242275E+02 -0.17016806228E+02 -0.18498107234E+02  0.61615878314E+02  0.00000000000E+00 0.  1.
         21    1    1    2  502  501 -0.27647344396E+00 -0.24723932305E+02 -0.81272544880E+02  0.84950431532E+02  0.00000000000E+00 0. -1.
<scales pt_clust_5="13000.00000" pt_clust_6="13000.00000" pt_clust_7="13000.00000" pt_clust_8="13000.00000" pt_clust_9="24.72548"></scales>
<clustering>
<clus scale="   24.725">  2  9  1 -1</clus>
<clus scale="   77.690">  5  6 -1 -1</clus>
<clus scale="   90.558">  7  8 -1 -1</clus>
<clus scale="  106.600">  2  5  1 -1</clus>
<clus scale="   24.725">  2  5  1 -1</clus>
</clustering>
</event>
<event>
 9    2  0.3791909E-005  0.9483967E+02  0.7546771E-02  0.1311829E+00
          2   -1    0    0  502    0  0.00000000000E+00  0.00000000000E+00  0.15181985280E+02  0.15181985280E+02  0.00000000000E+00 0. -1.
         -1   -1    0    0    0  501 -0.00000000000E+00 -0.00000000000E+00 -0.60398173975E+03  0.60398173975E+03  0.00000000000E+00 0.  1.
         23    2    1    2    0    0 -0.77260953226E+01  0.86124939882E+01 -0.35780018633E+03  0.36931874098E+03  0.90782660808E+02 0.  0.
         24    2    1    2    0    0  0.26024024202E+02 -0.21435735877E+02 -0.13451324635E+03  0.15080529489E+03  0.59259454245E+02 0.  0.
        -13    1    4    4    0    0  0.10360897931E+02  0.20311696630E+02 -0.35176317147E+02  0.41920001359E+02  0.00000000000E+00 0.  1.
         14    1    4    4    0    0  0.15663126271E+02 -0.41747432507E+02 -0.99336929199E+02  0.10888529353E+03  0.00000000000E+00 0. -1.
        -11    1    3    3    0    0 -0.30570170078E+01 -0.40999378254E+02 -0.18249712686E+03  0.18707083066E+03  0.00000000000E+00 0. -1.
         11    1    3    3    0    0 -0.46690783148E+01  0.49611872242E+02 -0.17530305947E+03  0.18224791033E+03  0.00000000000E+00 0.  1.
         21    1    1    2  502  501 -0.18297928880E+02  0.12823241888E+02 -0.96486321799E+02  0.99039689156E+02  0.00000000000E+00 0.  1.
<scales pt_clust_5="13000.00000" pt_clust_6="13000.00000" pt_clust_7="13000.00000" pt_clust_8="13000.00000" pt_clust_9="22.34390"></scales>
<clustering>
<clus scale="   22.344">  2  9  1 -1</clus>
<clus scale="   59.259">  5  6 -1 -1</clus>
<clus scale="   65.305">  1  5  2 -1</clus>
<clus scale="   90.783">  7  8 -1 -1</clus>
<clus scale="   65.305">  1  5  2 -1</clus>
</clustering>
</event>
<event>
 9    2  0.3791909E-005  0.1288901E+03  0.7546771E-02  0.1231817E+00
         -1   -1    0    0    0  501 -0.00000000000E+00  0.00000000000E+00  0.18150138619E+03  0.18150138619E+03  0.00000000000E+00 0.  1.
          2   -1    0    0  502    0  0.00000000000E+00 -0.00000000000E+00 -0.22059998744E+03  0.22059998744E+03  0.00000000000E+00 0. -1.
         24    2    1    2    0    0  0.59067404406E+02 -0.42292363343E+02  0.37794260036E+02  0.11547214504E+03  0.81411350114E+02 0.  0.
         23    2    1    2    0    0 -0.54017198107E+02  0.12512010869E+03  0.12502966820E+02  0.16465564922E+03  0.91554679568E+02 0.  0.
        -11    1    3    3    0    0  0.48253723773E+02 -0.35485637653E+02  0.63175356077E+02  0.87056176996E+02  0.00000000000E+00 0.  1.
         12    1    3    3    0    0  0.10813680633E+02 -0.68067256896E+01 -0.25381096042E+02  0.28415968041E+02  0.00000000000E+00 0. -1.
        -13    1    4    4    0    0 -0.63854340357E+02  0.79700760447E+02 -0.24765525546E+02  0.10508529514E+03  0.00000000000E+00 0. -1.
         13    1    4    4    0    0  0.98371422504E+01  0.45419348246E+02  0.37268492366E+02  0.59570354086E+02  0.00000000000E+00 0.  1.
         21    1    1    2  502  501 -0.50502062990E+01 -0.82827745351E+02 -0.89395828107E+02  0.12197357938E+03  0.00000000000E+00 0. -1.
<scales pt_clust_5="13000.00000" pt_clust_6="13000.00000" pt_clust_7="13000.00000" pt_clust_8="13000.00000" pt_clust_9="82.98156"></scales>
<clustering>
<clus scale="   81.411">  5  6 -1 -1</clus>
<clus scale="   82.982">  2  9  1 -1</clus>
<clus scale="   91.555">  7  8 -1 -1</clus>
<clus scale="  121.894">  1  5  2 -1</clus>
<clus scale="   82.982">  2  5  1 -1</clus>
</clustering>
</event>
<event>
 9    2  0.3791909E-005  0.9552643E+02  0.7546771E-02  0.1299809E+00
          2   -1    0    0  502    0  0.00000000000E+00  0.00000000000E+00  0.49077847713E+03  0.49077847713E+03  0.00000000000E+00 0. -1.
         -1   -1    0    0    0  501 -0.00000000000E+00 -0.00000000000E+00 -0.36361450282E+02  0.36361450282E+02  0.00000000000E+00 0.  1.
         23    2    1    2    0    0  0.30669788266E+02  0.28536882719E+02  0.75261638983E+02  0.12556525611E+03  0.91363721753E+02 0.  0.
         24    2    1    2    0    0  0.20688869931E+02 -0.13233569705E+02  0.21390772466E+03  0.22785451313E+03  0.74552047437E+02 0.  0.
        -13    1    4    4    0    0  0.62306707839E+01 -0.22538709518E+02  0.14095313155E+02  0.27303709237E+02  0.00000000000E+00 0.  1.
         14    1    4    4    0    0  0.14458199147E+02  0.93051398130E+01  0.19981241151E+03  0.20055080389E+03  0.00000000000E+00 0. -1.
        -11    1    3    3    0    0  0.17385629003E+02  0.60123717194E+02  0.31747152982E+02  0.70178366948E+02  0.00000000000E+00 0.  1.
         11    1    3    3    0    0  0.13284159263E+02 -0.31586834474E+02  0.43514486001E+02  0.55386889165E+02  0.00000000000E+00 0. -1.
         21    1    1    2  502  501 -0.51358658197E+02 -0.15303313014E+02  0.16524766320E+03  0.17372015817E+03  0.00000000000E+00 0. -1.
<scales pt_clust_5="13000.00000" pt_clust_6="13000.00000" pt_clust_7="13000.00000" pt_clust_8="13000.00000" pt_clust_9="53.59014"></scales>
<clustering>
<clus scale="   53.590">  1  9  2 -1</clus>
<clus scale="   74.552">  5  6 -1 -1</clus>
<clus scale="   79.599">  1  5  2 -1</clus>
<clus scale="   91.364">  7  8 -1 -1</clus>
<clus scale="   53.590">  1  5  2 -1</clus>
</clustering>
</event>
<event>
 9    2  0.3791909E-005  0.9629883E+02  0.7546771E-02  0.1293887E+00
          4   -1    0    0  502    0  0.00000000000E+00  0.00000000000E+00  0.33840737965E+03  0.33840737965E+03  0.00000000000E+00 0. -1.
         -3   -1    0    0    0  501 -0.00000000000E+00 -0.00000000000E+00 -0.17880224628E+03  0.17880224628E+03  0.00000000000E+00 0.  1.
         24    2    1    2    0    0 -0.35027135680E+02  0.41662111459E+01 -0.14283842185E+03  0.16729435364E+03  0.79626179454E+02 0.  0.
         23    2    1    2    0    0  0.11244836152E+02 -0.59933567617E+02  0.14508924081E+03  0.18128557124E+03  0.89972727377E+02 0.  0.
        -11    1    3    3    0    0  0.99877384656E+01  0.19830275419E+02 -0.10242741174E+03  0.10480634245E+03  0.00000000000E+00 0.  1.
         12    1    3    3    0    0 -0.45014874145E+02 -0.15664064273E+02 -0.40411010106E+02  0.62488011183E+02  0.00000000000E+00 0. -1.
        -11    1    4    4    0    0 -0.19621925175E+02 -0.61529129557E+02  0.51125826960E+02  0.82369314153E+02  0.00000000000E+00 0.  1.
         11    1    4    4    0    0  0.30866761327E+02  0.15955619400E+01  0.93963413853E+02  0.98916257085E+02  0.00000000000E+00 0. -1.
         21    1    1    2  502  501  0.23782299527E+02  0.55767356471E+02  0.15735431440E+03  0.16862970105E+03  0.00000000000E+00 0. -1.
<scales pt_clust_5="13000.00000" pt_clust_6="13000.00000" pt_clust_7="13000.00000" pt_clust_8="13000.00000" pt_clust_9="60.62669"></scales>
<clustering>
<clus scale="   60.627">  1  9  2 -1</clus>
<clus scale="   79.626">  5  6 -1 -1</clus>
<clus scale="   86.710">  2  5  1 -1</clus>
<clus scale="   89.973">  7  8 -1 -1</clus>
<clus scale="   60.627">  1  5  2 -1</clus>
</clustering>
</event>
<event>
 9    2  0.3791909E-005  0.2139009E+03  0.7546771E-02  0.1139763E+00
          2   -1    0    0  502    0  0.00000000000E+00  0.00000000000E+00  0.29099228453E+03  0.29099228453E+03  0.00000000000E+00 0. -1.
         -1   -1    0    0    0  501 -0.00000000000E+00 -0.00000000000E+00 -0.66805510981E+03  0.66805510981E+03  0.00000000000E+00 0.  1.
         24    2    1    2    0    0  0.11615953396E+03  0.15293716989E+03 -0.60354827520E+03  0.63856301641E+03  0.81298155981E+02 0.  0.
         23    2    1    2    0    0 -0.12087042398E+03 -0.12950035418E+03  0.19144530578E+03  0.27806635681E+03  0.96382532446E+02 0.  0.
        -13    1    3    3    0    0  0.86863557785E+02  0.15653603437E+03 -0.51593988176E+03  0.54611607678E+03  0.00000000000E+00 0.  1.
         14    1    3    3    0    0  0.29295976178E+02 -0.35988644820E+01 -0.87608393434E+02  0.92446939624E+02  0.00000000000E+00 0. -1.
        -13    1    4    4    0    0 -0.32052606333E+02 -0.47517372055E+02  0.13085817506E+03  0.14286053409E+03  0.00000000000E+00 0. -1.
         13    1    4    4    0    0 -0.88817817648E+02 -0.81982982124E+02  0.60587130715E+02  0.13520582272E+03  0.00000000000E+00 0.  1.
         21    1    1    2  502  501  0.47108900180E+01 -0.23436815709E+02  0.35040144138E+02  0.42418021129E+02  0.00000000000E+00 0.  1.
<scales pt_clust_5="13000.00000" pt_clust_6="13000.00000" pt_clust_7="13000.00000" pt_clust_8="13000.00000" pt_clust_9="23.90558"></scales>
<clustering>
<clus scale="   23.906">  1  9  2 -1</clus>
<clus scale="   81.298">  5  6 -1 -1</clus>
<clus scale="   96.383">  7  8 -1 -1</clus>
<clus scale="  207.541">  2  5  1 -1</clus>
<clus scale="   23.906">  1  5  2 -1</clus>
</clustering>
</event>
<event>
 9    2  0.3791909E-005  0.1339770E+03  0.7546771E-02  0.1229841E+00
         -3   -1    0    0    0  501 -0.00000000000E+00  0.00000000000E+00  0.11030675348E+03  0.11030675348E+03  0.00000000000E+00 0.  1.
          4   -1    0    0  502    0  0.00000000000E+00 -0.00000000000E+00 -0.45682884912E+03  0.45682884912E+03  0.00000000000E+00 0. -1.
         24    2    1    2    0    0  0.51012679744E+02 -0.59932682908E+02  0.57533066219E+02  0.12807766007E+03  0.83063911085E+02 0.  0.
         23    2    1    2    0    0 -0.95164865022E+01  0.65988672836E+02 -0.32668061435E+03  0.35104981978E+03  0.10986666335E+03 0.  0.
        -13    1    3    3    0    0  0.32642754373E+02  0.40288128873E+01  0.51699944950E+02  0.61275321739E+02  0.00000000000E+00 0.  1.
         14    1    3    3    0    0  0.18369925372E+02 -0.63961495796E+02  0.58331212692E+01  0.66802338330E+02  0.00000000000E+00 0. -1.
        -11    1    4    4    0    0 -0.38096353948E+02  0.29194498197E+02 -0.28347561549E+03  0.28751013110E+03  0.00000000000E+00 0. -1.
         11    1    4    4    0    0  0.28579867446E+02  0.36794174639E+02 -0.43204998868E+02  0.63539688681E+02  0.00000000000E+00 0.  1.
         21    1    1    2  502  501 -0.41496193242E+02 -0.60559899276E+01 -0.77374547503E+02  0.88008122744E+02  0.00000000000E+00 0. -1.
<scales pt_clust_5="13000.00000" pt_clust_6="13000.00000" pt_clust_7="13000.00000" pt_clust_8="13000.00000" pt_clust_9="41.93577"></scales>
<clustering>
<clus scale="   41.936">  2  9  1 -1</clus>
<clus scale="   83.064">  5  6 -1 -1</clus>
<clus scale="  109.867">  7  8 -1 -1</clus>
<clus scale="  113.043">  1  5  2 -1</clus>
<clus scale="   41.936">  2  5  1 -1</clus>
</clustering>
</event>
<event>
 9    2  0.3791909E-005  0.1226075E+03  0.7546771E-02  0.1240584E+00
          4   -1    0    0  502    0  0.00000000000E+00  0.00000000000E+00  0.45469618453E+02  0.45469618453E+02  0.00000000000E+00 0. -1.
         -3   -1    0    0    0  501 -0.00000000000E+00 -0.00000000000E+00 -0.58316487756E+03  0.58316487756E+03  0.00000000000E+00 0.  1.
         24    2    1    2    0    0  0.83619317779E+02 -0.40628014378E+02 -0.40560801808E+03  0.42394645630E+03  0.81054966663E+02 0.  0.
         23    2    1    2    0    0 -0.73871941885E+02  0.20988078585E+01 -0.11268341345E+03  0.16046112917E+03  0.87113451977E+02 0.  0.
        -13    1    3    3    0    0  0.92391060622E+02 -0.22447083958E+02 -0.37782321564E+03  0.38960282588E+03  0.00000000000E+00 0.  1.
         14    1    3    3    0    0 -0.87717428431E+01 -0.18180930421E+02 -0.27784802438E+02  0.34343630413E+02  0.00000000000E+00 0. -1.
        -11    1    4    4    0    0 -0.49739961612E+02  0.20091543409E+02 -0.11825024880E+03  0.12984935594E+03  0.00000000000E+00 0.  1.
         11    1    4    4    0    0 -0.24131980273E+02 -0.17992735551E+02  0.55668353449E+01  0.30611773230E+02  0.00000000000E+00 0. -1.
         21    1    1    2  502  501 -0.97473758934E+01  0.38529206520E+02 -0.19403827582E+02  0.44226910549E+02  0.00000000000E+00 0.  1.
<scales pt_clust_5="13000.00000" pt_clust_6="13000.00000" pt_clust_7="13000.00000" pt_clust_8="13000.00000" pt_clust_9="39.74306"></scales>
<clustering>
<clus scale="   39.743">  1  9  2 -1</clus>
<clus scale="   81.055">  5  6 -1 -1</clus>
<clus scale="   87.113">  7  8 -1 -1</clus>
<clus scale="  118.380">  2  5  1 -1</clus>
<clus scale="   39.743">  1  5  2 -1</clus>
</clustering>
</event>
<event>
 9    2  0.3791909E-005  0.9558966E+02  0.7546771E-02  0.1293491E+00
          4   -1    0    0  502    0  0.00000000000E+00  0.00000000000E+00  0.28141234473E+03  0.28141234473E+03  0.00000000000E+00 0. -1.
         -3   -1    0    0    0  501 -0.00000000000E+00 -0.00000000000E+00 -0.94131521275E+02  0.94131521275E+02  0.00000000000E+00 0.  1.
         24    2    1    2    0    0 -0.71946710419E+01 -0.34644220795E+02 -0.52875927852E+02  0.10323936080E+03  0.81305083147E+02 0.  0.
         23    2    1    2    0    0 -0.28720421974E+01  0.52960706220E+02  0.22175051458E+03  0.24445451590E+03  0.88156874950E+02 0.  0.
        -13    1    3    3    0    0  0.27372841800E+02  0.56171333115E+01  0.53607435010E+00  0.27948381537E+02  0.00000000000E+00 0.  1.
         14    1    3    3    0    0 -0.34567512842E+02 -0.40261354106E+02 -0.53412002202E+02  0.75290979259E+02  0.00000000000E+00 0. -1.
        -11    1    4    4    0    0 -0.34745961320E+02  0.46438583295E+02  0.78768149255E+02  0.97817407365E+02  0.00000000000E+00 0.  1.
         11    1    4    4    0    0  0.31873919122E+02  0.65221229248E+01  0.14298236532E+03  0.14663710854E+03  0.00000000000E+00 0. -1.
         21    1    1    2  502  501  0.10066713239E+02 -0.18316485425E+02  0.18406236735E+02  0.27849989309E+02  0.00000000000E+00 0.  1.
<scales pt_clust_5="13000.00000" pt_clust_6="13000.00000" pt_clust_7="13000.00000" pt_clust_8="13000.00000" pt_clust_9="20.90053"></scales>
<clustering>
<clus scale="   20.901">  1  9  2 -1</clus>
<clus scale="   81.305">  5  6 -1 -1</clus>
<clus scale="   88.157">  7  8 -1 -1</clus>
<clus scale="   89.310">  2  5  1 -1</clus>
<clus scale="   20.901">  1  5  2 -1</clus>
</clustering>
</event>
<event>
 9    2  0.3791909E-005  0.1534488E+03  0.7546771E-02  0.1199298E+00
          2   -1    0    0  502    0  0.00000000000E+00  0.00000000000E+00  0.38772997862E+03  0.38772997862E+03  0.00000000000E+00 0. -1.
         -1   -1    0    0    0  501 -0.00000000000E+00 -0.00000000000E+00 -0.10880387167E+03  0.10880387167E+03  0.00000000000E+00 0.  1.
         24    2    1    2    0    0 -0.11527448589E+03 -0.42669947625E+02 -0.21987800940E+02  0.14509746524E+03  0.73897763854E+02 0.  0.
         23    2    1    2    0    0  0.12392601259E+03  0.23725115534E+02  0.23204927219E+03  0.27949131136E+03  0.91367339357E+02 0.  0.
        -11    1    3    3    0    0 -0.10536856806E+03 -0.44000784134E+02 -0.42852079914E+02  0.12196271928E+03  0.00000000000E+00 0.  1.
         12    1    3    3    0    0 -0.99059178213E+01  0.13308365096E+01  0.20864278975E+02  0.23134745964E+02  0.00000000000E+00 0. -1.
        -13    1    4    4    0    0  0.10309065967E+03  0.10809213245E+02  0.96100331855E+02  0.14134990974E+03  0.00000000000E+00 0.  1.
         13    1    4    4    0    0  0.20835352916E+02  0.12915902289E+02  0.13594894033E+03  0.13814140162E+03  0.00000000000E+00 0. -1.
         21    1    1    2  502  501 -0.86515267010E+01  0.18944832091E+02  0.68864635701E+02  0.71945073684E+02  0.00000000000E+00 0.  1.
<scales pt_clust_5="13000.00000" pt_clust_6="13000.00000" pt_clust_7="13000.00000" pt_clust_8="13000.00000" pt_clust_9="20.82680"></scales>
<clustering>
<clus scale="   20.827">  1  9  2 -1</clus>
<clus scale="   73.898">  5  6 -1 -1</clus>
<clus scale="   91.367">  7  8 -1 -1</clus>
<clus scale="  143.734">  2  5  1 -1</clus>
<clus scale="   20.827">  1  5  2 -1</clus>
</clustering>
</event>
<event>
 9    2  0.3791909E-005  0.1005634E+03  0.7546771E-02  0.1281996E+00
          2   -1    0    0  502    0  0.00000000000E+00  0.00000000000E+00  0.64125342066E+03  0.64125342066E+03  0.00000000000E+00 0. -1.
         -1   -1    0    0    0  501 -0.00000000000E+00 -0.00000000000E+00 -0.20108984966E+02  0.20108984966E+02  0.00000000000E+00 0.  1.
         24    2    1    2    0    0  0.40094681114E+02 -0.43111454728E+01  0.19916669954E+03  0.21926984067E+03  0.82375478079E+02 0.  0.
         23    2    1    2    0    0 -0.59174512226E+02 -0.59871157457E+01  0.30457699193E+03  0.32270651518E+03  0.88514871486E+02 0.  0.
        -13    1    3    3    0    0  0.19167191781E+02  0.35989141745E+02  0.57404337038E+02  0.70412054899E+02  0.00000000000E+00 0.  1.
         14    1    3    3    0    0  0.20927489333E+02 -0.40300287218E+02  0.14176236251E+03  0.14885778577E+03  0.00000000000E+00 0. -1.
        -11    1    4    4    0    0 -0.12462273033E+02  0.36969840017E+02  0.16221040120E+03  0.16683612192E+03  0.00000000000E+00 0.  1.
         11    1    4    4    0    0 -0.46712239193E+02 -0.42956955762E+02  0.14236659074E+03  0.15587039327E+03  0.00000000000E+00 0. -1.
         21    1    1    2  502  501  0.19079831112E+02  0.10298261218E+02  0.11740074422E+03  0.11938604978E+03  0.00000000000E+00 0.  1.
<scales pt_clust_5="13000.00000" pt_clust_6="13000.00000" pt_clust_7="13000.00000" pt_clust_8="13000.00000" pt_clust_9="21.68165"></scales>
<clustering>
<clus scale="   21.682">  1  9  2 -1</clus>
<clus scale="   82.375">  5  6 -1 -1</clus>
<clus scale="   88.515">  7  8 -1 -1</clus>
<clus scale="   95.204">  2  5  1 -1</clus>
<clus scale="   21.682">  1  5  2 -1</clus>
</clustering>
</event>
<event>
 9    2  0.3791909E-005  0.1025891E+03  0.7546771E-02  0.1279793E+00
         -1   -1    0    0    0  501 -0.00000000000E+00  0.00000000000E+00  0.26115874778E+03  0.26115874778E+03  0.00000000000E+00 0.  1.
          2   -1    0    0  502    0  0.00000000000E+00 -0.00000000000E+00 -0.87791499713E+02  0.87791499713E+02  0.00000000000E+00 0. -1.
         24    2    1    2    0    0 -0.53094668667E+02  0.15969770434E+01  0.17053322753E+03  0.19569426081E+03  0.79956662286E+02 0.  0.
         23    2    1    2    0    0  0.35684268472E+02 -0.14822895539E+02  0.43166688207E+02  0.10737820299E+03  0.90408131591E+02 0.  0.
        -11    1    3    3    0    0  0.49947940703E+01  0.27124855453E+02  0.26251907512E+02  0.38077137487E+02  0.00000000000E+00 0.  1.
         12    1    3    3    0    0 -0.58089462737E+02 -0.25527878410E+02  0.14428132002E+03  0.15761712332E+03  0.00000000000E+00 0. -1.
        -13    1    4    4    0    0 -0.54472067294E+00  0.22641738979E+02  0.49928132101E+02  0.54824843272E+02  0.00000000000E+00 0.  1.
         13    1    4    4    0    0  0.36228989145E+02 -0.37464634518E+02 -0.67614438942E+01  0.52553359717E+02  0.00000000000E+00 0. -1.
         21    1    1    2  502  501  0.17410400195E+02  0.13225918495E+02 -0.40332667674E+02  0.45877783694E+02  0.00000000000E+00 0. -1.
<scales pt_clust_5="13000.00000" pt_clust_6="13000.00000" pt_clust_7="13000.00000" pt_clust_8="13000.00000" pt_clust_9="21.86428"></scales>
<clustering>
<clus scale="   21.864">  2  9  1 -1</clus>
<clus scale="   79.957">  5  6 -1 -1</clus>
<clus scale="   90.408">  7  8 -1 -1</clus>
<clus scale="   93.509">  1  5  2 -1</clus>
<clus scale="   21.864">  2  5  1 -1</clus>
</clustering>
</event>
<event>
 9    2  0.3791909E-005  0.9321851E+02  0.7546771E-02  0.1298229E+00
          2   -1    0    0  502    0  0.00000000000E+00  0.00000000000E+00  0.42099881402E+03  0.42099881402E+03  0.00000000000E+00 0. -1.
         -1   -1    0    0    0  501 -0.00000000000E+00 -0.00000000000E+00 -0.40755534837E+02  0.40755534837E+02  0.00000000000E+00 0.  1.
         23    2    1    2    0    0 -0.19618377125E+02 -0.11851428347E+02  0.60126318768E+02  0.11245745431E+03  0.92228887808E+02 0.  0.
         24    2    1    2    0    0 -0.49269153826E+01  0.13944074223E+02  0.31052485430E+03  0.32286095214E+03  0.87148135839E+02 0.  0.
        -13    1    4    4    0    0 -0.15457400533E+02  0.41844736899E+02  0.26298615441E+03  0.26674262998E+03  0.00000000000E+00 0.  1.
         14    1    4    4    0    0  0.10530485150E+02 -0.27900662676E+02  0.47538699889E+02  0.56118322163E+02  0.00000000000E+00 0. -1.
        -13    1    3    3    0    0  0.28557077545E+02  0.17533289682E+02  0.40827665404E+02  0.52818757911E+02  0.00000000000E+00 0. -1.
         13    1    3    3    0    0 -0.48175454671E+02 -0.29384718029E+02  0.19298653365E+02  0.59638696398E+02  0.00000000000E+00 0.  1.
         21    1    1    2  502  501  0.24545292508E+02 -0.20926458753E+01  0.95921061172E+01  0.26435942405E+02  0.00000000000E+00 0. -1.
<scales pt_clust_5="13000.00000" pt_clust_6="13000.00000" pt_clust_7="13000.00000" pt_clust_8="13000.00000" pt_clust_9="24.63434"></scales>
<clustering>
<clus scale="   24.634">  2  9  1 -1</clus>
<clus scale="   87.148">  5  6 -1 -1</clus>
<clus scale="   88.195">  1  5  2 -1</clus>
<clus scale="   92.229">  7  8 -1 -1</clus>
<clus scale="   88.195">  1  5  2 -1</clus>
</clustering>
</event>
<event>
 9    2  0.3791909E-005  0.9346484E+02  0.7546771E-02  0.1300753E+00
         -1   -1    0    0    0  501 -0.00000000000E+00  0.00000000000E+00  0.27790602809E+02  0.27790602809E+02  0.00000000000E+00 0.  1.
          2   -1    0    0  502    0  0.00000000000E+00 -0.00000000000E+00 -0.51971482279E+03  0.51971482279E+03  0.00000000000E+00 0. -1.
         23    2    1    2    0    0  0.20440804087E+02  0.23458800333E+02 -0.99795955855E+02  0.13913726265E+03  0.91824851042E+02 0.  0.
         24    2    1    2    0    0 -0.16172611187E+02  0.12327944740E+01 -0.34592981685E+03  0.35581163285E+03  0.81678679908E+02 0.  0.
        -11    1    4    4    0    0  0.11954755280E+02 -0.34885993841E+02 -0.13311912316E+03  0.13813272491E+03  0.00000000000E+00 0.  1.
         12    1    4    4    0    0 -0.28127366466E+02  0.36118788316E+02 -0.21281069369E+03  0.21767890794E+03  0.00000000000E+00 0. -1.
        -11    1    3    3    0    0  0.45068006548E+02 -0.18058759601E+02 -0.53637912374E+02  0.72348252615E+02  0.00000000000E+00 0.  1.
         11    1    3    3    0    0 -0.24627202461E+02  0.41517559935E+02 -0.46158043481E+02  0.66789010038E+02  0.00000000000E+00 0. -1.
         21    1    1    2  502  501 -0.42681929009E+01 -0.24691594807E+02 -0.46198447275E+02  0.52556530093E+02  0.00000000000E+00 0.  1.
<scales pt_clust_5="13000.00000" pt_clust_6="13000.00000" pt_clust_7="13000.00000" pt_clust_8="13000.00000" pt_clust_9="25.05778"></scales>
<clustering>
<clus scale="   25.058">  1  9  2 -1</clus>
<clus scale="   81.679">  5  6 -1 -1</clus>
<clus scale="   83.518">  2  5  1 -1</clus>
<clus scale="   91.825">  7  8 -1 -1</clus>
<clus scale="   83.518">  2  5  1 -1</clus>
</clustering>
</event>
<event>
 9    2  0.3791909E-005  0.1139690E+03  0.7546771E-02  0.1255426E+00
         -1   -1    0    0    0  501 -0.00000000000E+00  0.00000000000E+00  0.35213334234E+03  0.35213334234E+03  0.00000000000E+00 0.  1.
          2   -1    0    0  502    0  0.00000000000E+00 -0.00000000000E+00 -0.17295494849E+03  0.17295494849E+03  0.00000000000E+00 0. -1.
         23    2    1    2    0    0  0.61664114415E+02 -0.35585562330E+02  0.29674601284E+03  0.31854358144E+03  0.91340143901E+02 0.  0.
         24    2    1    2    0    0 -0.16246409855E+02  0.27559979860E+02 -0.12985563737E+03  0.15881449613E+03  0.85650798604E+02 0.  0.
        -11    1    4    4    0    0 -0.50928611592E+01 -0.20292528872E+02 -0.10419490598E+01  0.20947783192E+02  0.00000000000E+00 0.  1.
         12    1    4    4    0    0 -0.11153548696E+02  0.47852508732E+02 -0.12881368831E+03  0.13786671294E+03  0.00000000000E+00 0. -1.
        -11    1    3    3    0    0  0.43883973550E+02 -0.66774232851E+02  0.20610327365E+03  0.22105013169E+03  0.00000000000E+00 0.  1.
         11    1    3    3    0    0  0.17780140866E+02  0.31188670521E+02  0.90642739190E+02  0.97493449759E+02  0.00000000000E+00 0. -1.
         21    1    1    2  502  501 -0.45417704560E+02  0.80255824709E+01  0.12288018382E+02  0.47730213254E+02  0.00000000000E+00 0. -1.
<scales pt_clust_5="13000.00000" pt_clust_6="13000.00000" pt_clust_7="13000.00000" pt_clust_8="13000.00000" pt_clust_9="46.12134"></scales>
<clustering>
<clus scale="   46.121">  2  9  1 -1</clus>
<clus scale="   85.651">  5  6 -1 -1</clus>
<clus scale="   91.340">  7  8 -1 -1</clus>
<clus scale="  109.462">  2  5  1 -1</clus>
<clus scale="   46.121">  2  5  1 -1</clus>
</clustering>
</event>
<event>
 9    2  0.3791909E-005  0.1184777E+03  0.7546771E-02  0.1249216E+00
          2   -1    0    0  502    0  0.00000000000E+00  0.00000000000E+00  0.10172494766E+03  0.10172494766E+03  0.00000000000E+00 0. -1.
         -1   -1    0    0    0  501 -0.00000000000E+00 -0.00000000000E+00 -0.30554629357E+03  0.30554629357E+03  0.00000000000E+00 0.  1.
         24    2    1    2    0    0 -0.68109190556E+02  0.41611979970E+02 -0.24160601175E+03  0.26675350594E+03  0.80084638372E+02 0.  0.
         23    2    1    2    0    0  0.46535415627E+02 -0.22693285263E+02  0.39029391361E+02  0.11179676532E+03  0.91075206524E+02 0.  0.
        -13    1    3    3    0    0 -0.70175870631E+02 -0.10412702172E+01 -0.15740091771E+03  0.17233915968E+03  0.00000000000E+00 0.  1.
         14    1    3    3    0    0  0.20666800758E+01  0.42653250188E+02 -0.84205094037E+02  0.94414346261E+02  0.00000000000E+00 0. -1.
        -13    1    4    4    0    0  0.23769611929E+02 -0.83490344091E+01  0.67844749061E+02  0.72371339645E+02  0.00000000000E+00 0. -1.
         13    1    4    4    0    0  0.22765803698E+02 -0.14344250854E+02 -0.28815357700E+02  0.39425425679E+02  0.00000000000E+00 0.  1.
         21    1    1    2  502  501  0.21573774928E+02 -0.18918694707E+02 -0.12447255113E+01  0.28720969964E+02  0.00000000000E+00 0. -1.
<scales pt_clust_5="13000.00000" pt_clust_6="13000.00000" pt_clust_7="13000.00000" pt_clust_8="13000.00000" pt_clust_9="28.69398"></scales>
<clustering>
<clus scale="   28.694">  1  9  2 -1</clus>
<clus scale="   80.085">  5  6 -1 -1</clus>
<clus scale="   91.075">  7  8 -1 -1</clus>
<clus scale="  110.253">  2  5  1 -1</clus>
<clus scale="   28.694">  1  5  2 -1</clus>
</clustering>
</event>
<event>
 9    2  0.3791909E-005  0.1085893E+03  0.7546771E-02  0.1267390E+00
         -1   -1    0    0    0  501 -0.00000000000E+00  0.00000000000E+00  0.43934983051E+02  0.43934983051E+02  0.00000000000E+00 0.  1.
          2   -1    0    0  502    0  0.00000000000E+00 -0.00000000000E+00 -0.38422843724E+03  0.38422843724E+03  0.00000000000E+00 0. -1.
         23    2    1    2    0    0  0.67405217871E+02  0.68763880221E+01 -0.75159226844E+02  0.13591075327E+03  0.90730785101E+02 0.  0.
         24    2    1    2    0    0 -0.45539050522E+02 -0.94689198313E+01 -0.16134561582E+03  0.18615400361E+03  0.80358196540E+02 0.  0.
        -13    1    4    4    0    0 -0.13496187362E+02 -0.20227792031E+02 -0.33064450494E+01  0.24540644300E+02  0.00000000000E+00 0.  1.
         14    1    4    4    0    0 -0.32042863160E+02  0.10758872200E+02 -0.15803917077E+03  0.16161335931E+03  0.00000000000E+00 0. -1.
        -13    1    3    3    0    0  0.24805895912E+02 -0.39780962300E+02 -0.48141197224E+02  0.67196966476E+02  0.00000000000E+00 0. -1.
         13    1    3    3    0    0  0.42599321960E+02  0.46657350322E+02 -0.27018029621E+02  0.68713786790E+02  0.00000000000E+00 0.  1.
         21    1    1    2  502  501 -0.21866167349E+02  0.25925318092E+01 -0.10378861153E+03  0.10609866342E+03  0.00000000000E+00 0. -1.
<scales pt_clust_5="13000.00000" pt_clust_6="13000.00000" pt_clust_7="13000.00000" pt_clust_8="13000.00000" pt_clust_9="22.01932"></scales>
<clustering>
<clus scale="   22.019">  2  9  1 -1</clus>
<clus scale="   80.358">  5  6 -1 -1</clus>
<clus scale="   90.731">  7  8 -1 -1</clus>
<clus scale="  100.085">  2  5  1 -1</clus>
<clus scale="   22.019">  2  5  1 -1</clus>
</clustering>
</event>
<event>
 9    2  0.3791909E-005  0.9810661E+02  0.7546771E-02  0.1290611E+00
         -1   -1    0    0    0  501 -0.00000000000E+00  0.00000000000E+00  0.43243101861E+02  0.43243101861E+02  0.00000000000E+00 0.  1.
          2   -1    0    0  502    0  0.00000000000E+00 -0.00000000000E+00 -0.57897067239E+03  0.57897067239E+03  0.00000000000E+00 0. -1.
         24    2    1    2    0    0  0.34406863048E+02  0.23253819720E+01 -0.15781706831E+02  0.88918926751E+02  0.80425578257E+02 0.  0.
         23    2    1    2    0    0 -0.24773149440E+02 -0.20750044959E+02 -0.41923996767E+03  0.43046511377E+03  0.92161762042E+02 0.  0.
        -13    1    3    3    0    0  0.36526851874E+02 -0.33271414548E+02  0.11977587037E+01  0.49422996265E+02  0.00000000000E+00 0.  1.
         14    1    3    3    0    0 -0.21199888256E+01  0.35596796520E+02 -0.16979465535E+02  0.39495930486E+02  0.00000000000E+00 0. -1.
        -11    1    4    4    0    0  0.27115292027E+02  0.16432596888E+02 -0.10002140332E+03  0.10492640480E+03  0.00000000000E+00 0.  1.
         11    1    4    4    0    0 -0.51888441467E+02 -0.37182641848E+02 -0.31921856434E+03  0.32553870896E+03  0.00000000000E+00 0. -1.
         21    1    1    2  502  501 -0.96337136078E+01  0.18424662987E+02 -0.10070589603E+03  0.10282973374E+03  0.00000000000E+00 0. -1.
<scales pt_clust_5="13000.00000" pt_clust_6="13000.00000" pt_clust_7="13000.00000" pt_clust_8="13000.00000" pt_clust_9="20.79126"></scales>
<clustering>
<clus scale="   20.791">  2  9  1 -1</clus>
<clus scale="   80.426">  5  6 -1 -1</clus>
<clus scale="   87.174">  1  5  2 -1</clus>
<clus scale="   92.162">  7  8 -1 -1</clus>
<clus scale="   20.791">  2  5  1 -1</clus>
</clustering>
</event>
<event>
 9    2  0.3791909E-005  0.1034249E+03  0.7546771E-02  0.1275692E+00
         -1   -1    0    0    0  501 -0.00000000000E+00  0.00000000000E+00  0.40317229813E+03  0.40317229813E+03  0.00000000000E+00 0.  1.
          2   -1    0    0  502    0  0.00000000000E+00 -0.00000000000E+00 -0.92499692388E+02  0.92499692388E+02  0.00000000000E+00 0. -1.
         24    2    1    2    0    0 -0.43908488280E+02 -0.11630826663E+02  0.31364109215E+03  0.32831883675E+03  0.85786318271E+02 0.  0.
         23    2    1    2    0    0  0.64759561925E+02  0.18815415164E+02  0.39007624894E+02  0.11993607347E+03  0.91187971857E+02 0.  0.
        -13    1    3    3    0    0 -0.43784484038E+02  0.25942365885E+02  0.24335896474E+03  0.24862355703E+03  0.00000000000E+00 0.  1.
         14    1    3    3    0    0 -0.12400424175E+00 -0.37573192549E+02  0.70282127415E+02  0.79695279718E+02  0.00000000000E+00 0. -1.
        -11    1    4    4    0    0  0.26208933930E+02  0.39064361251E+02 -0.16081916618E+02  0.49714792364E+02  0.00000000000E+00 0. -1.
         11    1    4    4    0    0  0.38550627996E+02 -0.20248946087E+02  0.55089541511E+02  0.70221281108E+02  0.00000000000E+00 0.  1.
         21    1    1    2  502  501 -0.20851073645E+02 -0.71845885012E+01 -0.41976111305E+02  0.47417080302E+02  0.00000000000E+00 0. -1.
<scales pt_clust_5="13000.00000" pt_clust_6="13000.00000" pt_clust_7="13000.00000" pt_clust_8="13000.00000" pt_clust_9="22.05415"></scales>
<clustering>
<clus scale="   22.054">  2  9  1 -1</clus>
<clus scale="   85.786">  5  6 -1 -1</clus>
<clus scale="   91.188">  7  8 -1 -1</clus>
<clus scale="   98.695">  1  5  2 -1</clus>
<clus scale="   22.054">  2  5  1 -1</clus>
</clustering>
</event>
<event>
 9    2  0.3791909E-005  0.1246336E+03  0.7546771E-02  0.1247060E+00
         -1   -1    0    0    0  501 -0.00000000000E+00  0.00000000000E+00  0.17443041479E+03  0.17443041479E+03  0.00000000000E+00 0.  1.
          2   -1    0    0  502    0  0.00000000000E+00 -0.00000000000E+00 -0.17999510866E+03  0.17999510866E+03  0.00000000000E+00 0. -1.
         23    2    1    2    0    0 -0.23701419031E+02 -0.32266795254E+02  0.56709752594E+02  0.11399658335E+03  0.90423014963E+02 0.  0.
         24    2    1    2    0    0 -0.82209464002E+02  0.46335249012E+02 -0.54315022765E+02  0.13329169652E+03  0.76884350758E+02 0.  0.
        -13    1    4    4    0    0 -0.83032378864E+02  0.32514916916E+02 -0.69267376169E+02  0.11291397240E+03  0.00000000000E+00 0.  1.
         14    1    4    4    0    0  0.82291486162E+00  0.13820332096E+02  0.14952353404E+02  0.20377724123E+02  0.00000000000E+00 0. -1.
        -11    1    3    3    0    0  0.96555773431E+01 -0.43059996669E+02 -0.35584979734E+01  0.44272524152E+02  0.00000000000E+00 0. -1.
         11    1    3    3    0    0 -0.33356996374E+02  0.10793201415E+02  0.60268250568E+02  0.69724059193E+02  0.00000000000E+00 0.  1.
         21    1    1    2  502  501  0.10591088303E+03 -0.14068453758E+02 -0.79594237046E+01  0.10713724358E+03  0.00000000000E+00 0. -1.
<scales pt_clust_5="13000.00000" pt_clust_6="13000.00000" pt_clust_7="13000.00000" pt_clust_8="13000.00000" pt_clust_9="98.09349"></scales>
<clustering>
<clus scale="   76.884">  5  6 -1 -1</clus>
<clus scale="   90.423">  7  8 -1 -1</clus>
<clus scale="   98.890">  1  7  2 -1</clus>
<clus scale="   98.093">  1  9  2 -1</clus>
<clus scale="  124.634">  2  5  1 -1</clus>
</clustering>
</event>
<event>
 9    2  0.3791909E-005  0.1035693E+03  0.7546771E-02  0.1277227E+00
         -1   -1    0    0    0  501 -0.00000000000E+00  0.00000000000E+00  0.91371559010E+02  0.91371559010E+02  0.00000000000E+00 0.  1.
          2   -1    0    0  502    0  0.00000000000E+00 -0.00000000000E+00 -0.20276335975E+03  0.20276335975E+03  0.00000000000E+00 0. -1.
         24    2    1    2    0    0 -0.31403315462E+02 -0.13287675186E+02  0.25966524864E+02  0.91407272717E+02  0.80735980568E+02 0.  0.
         23    2    1    2    0    0  0.57099968326E+02 -0.12597978565E+02 -0.12344461141E+03  0.16368950468E+03  0.90202917953E+02 0.  0.
        -13    1    3    3    0    0 -0.51229240192E+02  0.65757517352E+01  0.34454765801E+02  0.62087087611E+02  0.00000000000E+00 0.  1.
         14    1    3    3    0    0  0.19825924730E+02 -0.19863426922E+02 -0.84882409372E+01  0.29320185107E+02  0.00000000000E+00 0. -1.
        -13    1    4    4    0    0  0.30288224040E+02  0.21572355431E+02 -0.49844520103E+01  0.37517833042E+02  0.00000000000E+00 0.  1.
         13    1    4    4    0    0  0.26811744287E+02 -0.34170333996E+02 -0.11846015940E+03  0.12617167163E+03  0.00000000000E+00 0. -1.
         21    1    1    2  502  501 -0.25696652865E+02  0.25885653751E+02 -0.13913714185E+02  0.39038141362E+02  0.00000000000E+00 0. -1.
<scales pt_clust_5="13000.00000" pt_clust_6="13000.00000" pt_clust_7="13000.00000" pt_clust_8="13000.00000" pt_clust_9="36.47444"></scales>
<clustering>
<clus scale="   36.474">  1  9  2 -1</clus>
<clus scale="   80.736">  5  6 -1 -1</clus>
<clus scale="   90.203">  7  8 -1 -1</clus>
<clus scale="   95.438">  1  5  2 -1</clus>
<clus scale="  103.569">  2  5  1 -1</clus>
</clustering>
</event>
<event>
 9    2  0.3791909E-005  0.1576854E+03  0.7546771E-02  0.1193174E+00
          2   -1    0    0  502    0  0.00000000000E+00  0.00000000000E+00  0.36482034278E+03  0.36482034278E+03  0.00000000000E+00 0. -1.
         -1   -1    0    0    0  501 -0.00000000000E+00 -0.00000000000E+00 -0.12566524356E+03  0.12566524356E+03  0.00000000000E+00 0.  1.
         24    2    1    2    0    0 -0.11447238870E+03  0.42874552030E+02 -0.25043751803E+02  0.14832794485E+03  0.80198720263E+02 0.  0.
         23    2    1    2    0    0  0.14694008094E+03 -0.51813643578E+02  0.24126520822E+03  0.30141441667E+03  0.91464248908E+02 0.  0.
        -11    1    3    3    0    0 -0.96973089039E+02  0.61506581799E+02 -0.36247770708E+02  0.12041902044E+03  0.00000000000E+00 0.  1.
         12    1    3    3    0    0 -0.17499299662E+02 -0.18632029769E+02  0.11204018905E+02  0.27908924408E+02  0.00000000000E+00 0. -1.
        -13    1    4    4    0    0  0.14962649222E+03 -0.28395131351E+02  0.18008053294E+03  0.23584607056E+03  0.00000000000E+00 0. -1.
         13    1    4    4    0    0 -0.26864112805E+01 -0.23418512227E+02  0.61184675289E+02  0.65568346103E+02  0.00000000000E+00 0.  1.
         21    1    1    2  502  501 -0.32467692237E+02  0.89390915484E+01  0.22933642801E+02  0.40743224823E+02  0.00000000000E+00 0. -1.
<scales pt_clust_5="13000.00000" pt_clust_6="13000.00000" pt_clust_7="13000.00000" pt_clust_8="13000.00000" pt_clust_9="33.67578"></scales>
<clustering>
<clus scale="   33.676">  1  9  2 -1</clus>
<clus scale="   80.199">  5  6 -1 -1</clus>
<clus scale="   91.464">  7  8 -1 -1</clus>
<clus scale="  151.429">  2  5  1 -1</clus>
<clus scale="   33.676">  1  5  2 -1</clus>
</clustering>
</event>
<event>
 9    2  0.3791909E-005  0.1539378E+03  0.7546771E-02  0.1222830E+00
         -1   -1    0    0    0  501 -0.00000000000E+00  0.00000000000E+00  0.20870458624E+02  0.20870458624E+02  0.00000000000E+00 0.  1.
          2   -1    0    0  502    0  0.00000000000E+00 -0.00000000000E+00 -0.17565918257E+04  0.17565918257E+04  0.00000000000E+00 0. -1.
         24    2    1    2    0    0  0.14400458805E+02  0.25605243736E+02 -0.33485527617E+03  0.34577482697E+03  0.81050436579E+02 0.  0.
         23    2    1    2    0    0 -0.96476904799E+02  0.72898303989E+02 -0.51182923600E+03  0.53345250964E+03  0.89333405487E+02 0.  0.
        -13    1    3    3    0    0  0.87873159522E+01  0.54696941911E+02 -0.18954494824E+03  0.19747470668E+03  0.00000000000E+00 0.  1.
         14    1    3    3    0    0  0.56131428526E+01 -0.29091698175E+02 -0.14531032793E+03  0.14830012029E+03  0.00000000000E+00 0. -1.
        -11    1    4    4    0    0 -0.84722415472E+02  0.29581421219E+02 -0.43761712842E+03  0.44672329159E+03  0.00000000000E+00 0. -1.
         11    1    4    4    0    0 -0.11754489327E+02  0.43316882770E+02 -0.74212107586E+02  0.86729218056E+02  0.00000000000E+00 0.  1.
         21    1    1    2  502  501  0.82076445994E+02 -0.98503547725E+02 -0.88903685495E+03  0.89823494775E+03  0.00000000000E+00 0. -1.
<scales pt_clust_5="13000.00000" pt_clust_6="13000.00000" pt_clust_7="13000.00000" pt_clust_8="13000.00000" pt_clust_9="125.36504"></scales>
<clustering>
<clus scale="   81.050">  5  6 -1 -1</clus>
<clus scale="   86.210">  1  5  2 -1</clus>
<clus scale="   89.333">  7  8 -1 -1</clus>
<clus scale="  125.365">  2  9  1 -1</clus>
<clus scale="  125.365">  2  5  1 -1</clus>
</clustering>
</event>
<event>
 9    2  0.3791909E-005  0.1113548E+03  0.7546771E-02  0.1262256E+00
          2   -1    0    0  502    0  0.00000000000E+00  0.00000000000E+00  0.83311074979E+03  0.83311074979E+03  0.00000000000E+00 0. -1.
         -1   -1    0    0    0  501 -0.00000000000E+00 -0.00000000000E+00 -0.27033908313E+02  0.27033908313E+02  0.00000000000E+00 0.  1.
         23    2    1    2    0    0  0.55052733457E+02 -0.26135979019E+02  0.12560409380E+03  0.16688363223E+03  0.91432299902E+02 0.  0.
         24    2    1    2    0    0 -0.57911960583E+02  0.47282422606E+02  0.52882531568E+03  0.54011961774E+03  0.80520583036E+02 0.  0.
        -13    1    4    4    0    0 -0.14761493108E+02  0.48692460220E+02  0.14101634922E+03  0.14991486953E+03  0.00000000000E+00 0.  1.
         14    1    4    4    0    0 -0.43150467475E+02 -0.14100376137E+01  0.38780896647E+03  0.39020474820E+03  0.00000000000E+00 0. -1.
        -11    1    3    3    0    0  0.17350840636E+02  0.23765622490E+02  0.34210188312E+01  0.29623636728E+02  0.00000000000E+00 0. -1.
         11    1    3    3    0    0  0.37701892821E+02 -0.49901601509E+02  0.12218307497E+03  0.13725999550E+03  0.00000000000E+00 0.  1.
         21    1    1    2  502  501  0.28592271258E+01 -0.21146443587E+02  0.15164743199E+03  0.15314140813E+03  0.00000000000E+00 0. -1.
<scales pt_clust_5="13000.00000" pt_clust_6="13000.00000" pt_clust_7="13000.00000" pt_clust_8="13000.00000" pt_clust_9="21.33887"></scales>
<clustering>
<clus scale="   21.339">  1  9  2 -1</clus>
<clus scale="   80.521">  5  6 -1 -1</clus>
<clus scale="   91.432">  7  8 -1 -1</clus>
<clus scale="  102.585">  1  5  2 -1</clus>
<clus scale="   21.339">  1  5  2 -1</clus>
</clustering>
</event>
<event>
 9    2  0.3791909E-005  0.1660985E+03  0.7546771E-02  0.1183065E+00
         -1   -1    0    0    0  501 -0.00000000000E+00  0.00000000000E+00  0.91911357475E+03  0.91911357475E+03  0.00000000000E+00 0.  1.
          2   -1    0    0  502    0  0.00000000000E+00 -0.00000000000E+00 -0.75272379283E+02  0.75272379283E+02  0.00000000000E+00 0. -1.
         23    2    1    2    0    0 -0.13505025300E+03  0.37211969048E+02  0.78165695392E+03  0.79914835658E+03  0.89594646766E+02 0.  0.
         24    2    1    2    0    0  0.12714522070E+03 -0.58629934902E+02  0.54814212502E+02  0.17124726346E+03  0.81961277065E+02 0.  0.
        -13    1    4    4    0    0  0.77388102284E+02 -0.75464963048E+02  0.48031599248E+02  0.11828319217E+03  0.00000000000E+00 0.  1.
         14    1    4    4    0    0  0.49757118415E+02  0.16835028146E+02  0.67826132534E+01  0.52964071295E+02  0.00000000000E+00 0. -1.
        -11    1    3    3    0    0 -0.83879685199E+02  0.61595302054E+02  0.59648627495E+03  0.60549620893E+03  0.00000000000E+00 0. -1.
         11    1    3    3    0    0 -0.51170567800E+02 -0.24383333006E+02  0.18517067897E+03  0.19365214765E+03  0.00000000000E+00 0.  1.
         21    1    1    2  502  501  0.79050322999E+01  0.21417965855E+02  0.73700290439E+01  0.23990333993E+02  0.00000000000E+00 0.  1.
<scales pt_clust_5="13000.00000" pt_clust_6="13000.00000" pt_clust_7="13000.00000" pt_clust_8="13000.00000" pt_clust_9="22.83022"></scales>
<clustering>
<clus scale="   22.830">  2  9  1 -1</clus>
<clus scale="   81.961">  5  6 -1 -1</clus>
<clus scale="   89.595">  7  8 -1 -1</clus>
<clus scale="  162.109">  2  5  1 -1</clus>
<clus scale="   22.830">  2  5  1 -1</clus>
</clustering>
</event>
<event>
 9    2  0.3791909E-005  0.1040472E+03  0.7546771E-02  0.1274334E+00
          2   -1    0    0  502    0  0.00000000000E+00  0.00000000000E+00  0.54667189485E+02  0.54667189485E+02  0.00000000000E+00 0. -1.
         -1   -1    0    0    0  501 -0.00000000000E+00 -0.00000000000E+00 -0.35452616235E+03  0.35452616235E+03  0.00000000000E+00 0.  1.
         23    2    1    2    0    0  0.66848668672E+02  0.50625503085E+01 -0.22973404605E+03  0.25411828313E+03  0.85463418992E+02 0.  0.
         24    2    1    2    0    0 -0.36829884873E+02 -0.35490698501E+02 -0.55607491635E+02  0.10993356334E+03  0.79857154483E+02 0.  0.
        -11    1    4    4    0    0 -0.14998825022E+02  0.25298138677E+02 -0.10832513592E+02  0.31341728148E+02  0.00000000000E+00 0.  1.
         12    1    4    4    0    0 -0.21831059851E+02 -0.60788837178E+02 -0.44774978043E+02  0.78591835189E+02  0.00000000000E+00 0. -1.
        -11    1    3    3    0    0  0.74003415800E+01  0.29521714332E+02 -0.24557304877E+02  0.39107005708E+02  0.00000000000E+00 0.  1.
         11    1    3    3    0    0  0.59448327092E+02 -0.24459164024E+02 -0.20517674117E+03  0.21501127742E+03  0.00000000000E+00 0. -1.
         21    1    1    2  502  501 -0.30018783799E+02  0.30428148192E+02 -0.14517435182E+02  0.45141505374E+02  0.00000000000E+00 0.  1.
<scales pt_clust_5="13000.00000" pt_clust_6="13000.00000" pt_clust_7="13000.00000" pt_clust_8="13000.00000" pt_clust_9="42.74342"></scales>
<clustering>
<clus scale="   42.743">  1  9  2 -1</clus>
<clus scale="   79.857">  5  6 -1 -1</clus>
<clus scale="   85.463">  7  8 -1 -1</clus>
<clus scale="   99.494">  1  5  2 -1</clus>
<clus scale="   42.743">  1  5  2 -1</clus>
</clustering>
</event>
<event>
 9    2  0.3791909E-005  0.1598962E+03  0.7546771E-02  0.1211577E+00
         -1   -1    0    0    0  501 -0.00000000000E+00  0.00000000000E+00  0.16203066012E+03  0.16203066012E+03  0.00000000000E+00 0.  1.
          2   -1    0    0  502    0  0.00000000000E+00 -0.00000000000E+00 -0.56908009664E+03  0.56908009664E+03  0.00000000000E+00 0. -1.
         23    2    1    2    0    0  0.25312547166E+02  0.23045535121E+02  0.82093781684E+02  0.12748810736E+03  0.91334587066E+02 0.  0.
         24    2    1    2    0    0  0.72237559379E+02  0.84177319951E+02 -0.58546144541E+02  0.14928070352E+03  0.80950548012E+02 0.  0.
        -13    1    4    4    0    0  0.45830425638E+02  0.89403082374E+02 -0.20275927731E+02  0.10249123034E+03  0.00000000000E+00 0.  1.
         14    1    4    4    0    0  0.26407133741E+02 -0.52257624233E+01 -0.38270216809E+02  0.46789473175E+02  0.00000000000E+00 0. -1.
        -11    1    3    3    0    0 -0.32941505287E+02  0.55148906472E+01  0.45679561628E+02  0.56587800274E+02  0.00000000000E+00 0. -1.
         11    1    3    3    0    0  0.58254052453E+02  0.17530644474E+02  0.36414220057E+02  0.70900307088E+02  0.00000000000E+00 0.  1.
         21    1    1    2  502  501 -0.97550106545E+02 -0.10722285507E+03 -0.43059707366E+03  0.45434194587E+03  0.00000000000E+00 0. -1.
<scales pt_clust_5="13000.00000" pt_clust_6="13000.00000" pt_clust_7="13000.00000" pt_clust_8="13000.00000" pt_clust_9="137.89055"></scales>
<clustering>
<clus scale="   80.951">  5  6 -1 -1</clus>
<clus scale="   91.335">  7  8 -1 -1</clus>
<clus scale="   97.539">  1  7  2 -1</clus>
<clus scale="  137.891">  2  9  1 -1</clus>
<clus scale="  137.891">  2  5  1 -1</clus>
</clustering>
</event>
<event>
 9    2  0.3791909E-005  0.3019620E+03  0.7546771E-02  0.1084641E+00
          2   -1    0    0  502    0  0.00000000000E+00  0.00000000000E+00  0.23719062175E+04  0.23719062175E+04  0.00000000000E+00 0. -1.
         -1   -1    0    0    0  501 -0.00000000000E+00 -0.00000000000E+00 -0.13056603782E+03  0.13056603782E+03  0.00000000000E+00 0.  1.
         23    2    1    2    0    0  0.25684463599E+03 -0.12757683617E+03  0.74886816286E+02  0.31010628005E+03  0.91174851309E+02 0.  0.
         24    2    1    2    0    0 -0.25796461098E+03  0.15303992918E+03  0.19976274122E+04  0.20216269193E+04  0.80580160439E+02 0.  0.
        -11    1    4    4    0    0 -0.12075233129E+03  0.10843073619E+03  0.89439484409E+03  0.90899971793E+03  0.00000000000E+00 0.  1.
         12    1    4    4    0    0 -0.13721227969E+03  0.44609192990E+02  0.11032325681E+04  0.11126272014E+04  0.00000000000E+00 0. -1.
        -11    1    3    3    0    0  0.35437675661E+02  0.70652423688E+01  0.30318118979E+02  0.47169215007E+02  0.00000000000E+00 0. -1.
         11    1    3    3    0    0  0.22140696033E+03 -0.13464207854E+03  0.44568697307E+02  0.26293706505E+03  0.00000000000E+00 0.  1.
         21    1    1    2  502  501  0.11199749937E+01 -0.25463093004E+02  0.16882595115E+03  0.17073905596E+03  0.00000000000E+00 0.  1.
<scales pt_clust_5="13000.00000" pt_clust_6="13000.00000" pt_clust_7="13000.00000" pt_clust_8="13000.00000" pt_clust_9="25.48771"></scales>
<clustering>
<clus scale="   25.488">  1  9  2 -1</clus>
<clus scale="   80.580">  5  6 -1 -1</clus>
<clus scale="   91.175">  7  8 -1 -1</clus>
<clus scale="  298.934">  1  5  2 -1</clus>
<clus scale="   25.488">  1  5  2 -1</clus>
</clustering>
</event>
<event>
 9    2  0.3791909E-005  0.1121426E+03  0.7546771E-02  0.1258711E+00
          2   -1    0    0  502    0  0.00000000000E+00  0.00000000000E+00  0.33126467685E+03  0.33126467685E+03  0.00000000000E+00 0. -1.
         -1   -1    0    0    0  501 -0.00000000000E+00 -0.00000000000E+00 -0.11922660225E+03  0.11922660225E+03  0.00000000000E+00 0.  1.
         24    2    1    2    0    0 -0.25889893043E+02  0.67638042544E+02 -0.76142455244E+02  0.13215668635E+03  0.80140656943E+02 0.  0.
         23    2    1    2    0    0  0.56380062988E+01 -0.69253020212E+02  0.26693661687E+03  0.28893984989E+03  0.86042498250E+02 0.  0.
        -11    1    3    3    0    0 -0.25712838683E+02  0.74931296253E+02 -0.87892801901E+02  0.11832579540E+03  0.00000000000E+00 0.  1.
         12    1    3    3    0    0 -0.17705435995E+00 -0.72932537081E+01  0.11750346656E+02  0.13830890949E+02  0.00000000000E+00 0. -1.
        -11    1    4    4    0    0  0.17707648427E+02  0.13702311451E+02  0.95710252785E+02  0.98294285898E+02  0.00000000000E+00 0.  1.
         11    1    4    4    0    0 -0.12069642128E+02 -0.82955331663E+02  0.17122636409E+03  0.19064556399E+03  0.00000000000E+00 0. -1.
         21    1    1    2  502  501  0.20251886744E+02  0.16149776679E+01  0.21243912970E+02  0.29394742860E+02  0.00000000000E+00 0.  1.
<scales pt_clust_5="13000.00000" pt_clust_6="13000.00000" pt_clust_7="13000.00000" pt_clust_8="13000.00000" pt_clust_9="20.31618"></scales>
<clustering>
<clus scale="   20.316">  1  9  2 -1</clus>
<clus scale="   80.141">  5  6 -1 -1</clus>
<clus scale="   86.042">  7  8 -1 -1</clus>
<clus scale="  107.681">  2  5  1 -1</clus>
<clus scale="   20.316">  1  5  2 -1</clus>
</clustering>
</event>
<event>
 9    2  0.3791909E-005  0.9240388E+02  0.7546771E-02  0.1301957E+00
          2   -1    0    0  502    0  0.00000000000E+00  0.00000000000E+00  0.32069929282E+03  0.32069929282E+03  0.00000000000E+00 0. -1.
         -1   -1    0    0    0  501 -0.00000000000E+00 -0.00000000000E+00 -0.24610487787E+03  0.24610487787E+03  0.00000000000E+00 0.  1.
         23    2    1    2    0    0  0.29208857338E+02  0.10212471811E+02 -0.20967730533E+03  0.22962947498E+03  0.88361029191E+02 0.  0.
         24    2    1    2    0    0 -0.59475739328E+01  0.25008224231E+02  0.47365849973E+02  0.96538089761E+02  0.80095531187E+02 0.  0.
        -11    1    4    4    0    0  0.77096846885E+01  0.51738690712E+02  0.20269214768E+02  0.56099665078E+02  0.00000000000E+00 0.  1.
         12    1    4    4    0    0 -0.13657258621E+02 -0.26730466481E+02  0.27096635205E+02  0.40438424682E+02  0.00000000000E+00 0. -1.
        -13    1    3    3    0    0  0.60817819637E+02  0.72970406093E+01 -0.12509411777E+03  0.13928600895E+03  0.00000000000E+00 0.  1.
         13    1    3    3    0    0 -0.31608962299E+02  0.29154312016E+01 -0.84583187559E+02  0.90343466031E+02  0.00000000000E+00 0. -1.
         21    1    1    2  502  501 -0.23261283405E+02 -0.35220696042E+02  0.23690587031E+03  0.24063660595E+03  0.00000000000E+00 0. -1.
<scales pt_clust_5="13000.00000" pt_clust_6="13000.00000" pt_clust_7="13000.00000" pt_clust_8="13000.00000" pt_clust_9="42.20882"></scales>
<clustering>
<clus scale="   42.209">  1  9  2 -1</clus>
<clus scale="   80.096">  5  6 -1 -1</clus>
<clus scale="   84.535">  1  5  2 -1</clus>
<clus scale="   88.361">  7  8 -1 -1</clus>
<clus scale="   42.209">  1  5  2 -1</clus>
</clustering>
</event>
<event>
 9    2  0.3791909E-005  0.1692822E+03  0.7546771E-02  0.1187068E+00
          2   -1    0    0  502    0  0.00000000000E+00  0.00000000000E+00  0.43828551135E+03  0.43828551135E+03  0.00000000000E+00 0. -1.
         -1   -1    0    0    0  501 -0.00000000000E+00 -0.00000000000E+00 -0.20120570825E+03  0.20120570825E+03  0.00000000000E+00 0.  1.
         24    2    1    2    0    0  0.44501695352E+02 -0.14469617641E+03  0.72204408534E+01  0.17165973941E+03  0.80607363255E+02 0.  0.
         23    2    1    2    0    0 -0.10646055917E+03 -0.54583805487E+01  0.26672508242E+03  0.30126505769E+03  0.90855494159E+02 0.  0.
        -11    1    3    3    0    0 -0.19534297649E+02 -0.37767788005E+02 -0.14939127058E+02  0.45068526852E+02  0.00000000000E+00 0.  1.
         12    1    3    3    0    0  0.64035993000E+02 -0.10692838841E+03  0.22159567911E+02  0.12659121256E+03  0.00000000000E+00 0. -1.
        -11    1    4    4    0    0 -0.21801122303E+02  0.17863588965E+02  0.16273718980E+03  0.16515989128E+03  0.00000000000E+00 0. -1.
         11    1    4    4    0    0 -0.84659436867E+02 -0.23321969513E+02  0.10398789262E+03  0.13610516641E+03  0.00000000000E+00 0.  1.
         21    1    1    2  502  501  0.61958863819E+02  0.15015455696E+03 -0.36865720163E+02  0.16656642250E+03  0.00000000000E+00 0.  1.
<scales pt_clust_5="13000.00000" pt_clust_6="13000.00000" pt_clust_7="13000.00000" pt_clust_8="13000.00000" pt_clust_9="148.85876"></scales>
<clustering>
<clus scale="   80.607">  5  6 -1 -1</clus>
<clus scale="   90.855">  7  8 -1 -1</clus>
<clus scale="  140.066">  1  7  2 -1</clus>
<clus scale="  148.859">  2  9  1 -1</clus>
<clus scale="  140.066">  1  5  2 -1</clus>
</clustering>
</event>
<event>
 9    2  0.3791909E-005  0.1143054E+03  0.7546771E-02  0.1256824E+00
         -1   -1    0    0    0  501 -0.00000000000E+00  0.00000000000E+00  0.10909531476E+03  0.10909531476E+03  0.00000000000E+00 0.  1.
          2   -1    0    0  502    0  0.00000000000E+00 -0.00000000000E+00 -0.39442944946E+03  0.39442944946E+03  0.00000000000E+00 0. -1.
         24    2    1    2    0    0  0.54910309575E+02 -0.43550261422E+02  0.66686259961E+02  0.12599664037E+03  0.80723780573E+02 0.  0.
         23    2    1    2    0    0 -0.43076423223E+02  0.18338720172E+02 -0.31326356344E+03  0.32980229600E+03  0.91889103657E+02 0.  0.
        -11    1    3    3    0    0  0.43679924704E+02 -0.28885923585E+02  0.85095978818E+02  0.99918256662E+02  0.00000000000E+00 0.  1.
         12    1    3    3    0    0  0.11230384871E+02 -0.14664337838E+02 -0.18409718857E+02  0.26078383710E+02  0.00000000000E+00 0. -1.
        -13    1    4    4    0    0  0.20697837018E+02  0.22948658343E+02 -0.49143718305E+02  0.58052962248E+02  0.00000000000E+00 0.  1.
         13    1    4    4    0    0 -0.63774260240E+02 -0.46099381709E+01 -0.26411984513E+03  0.27174933375E+03  0.00000000000E+00 0. -1.
         21    1    1    2  502  501 -0.11833886353E+02  0.25211541250E+02 -0.38756831215E+02  0.47725827854E+02  0.00000000000E+00 0.  1.
<scales pt_clust_5="13000.00000" pt_clust_6="13000.00000" pt_clust_7="13000.00000" pt_clust_8="13000.00000" pt_clust_9="27.85072"></scales>
<clustering>
<clus scale="   27.851">  2  9  1 -1</clus>
<clus scale="   80.724">  5  6 -1 -1</clus>
<clus scale="   91.889">  7  8 -1 -1</clus>
<clus scale="  105.539">  1  5  2 -1</clus>
<clus scale="   27.851">  2  5  1 -1</clus>
</clustering>
</event>
<event>
 9    2  0.3791909E-005  0.9183724E+02  0.7546771E-02  0.1305428E+00
         -1   -1    0    0    0  501 -0.00000000000E+00  0.00000000000E+00  0.10050394496E+03  0.10050394496E+03  0.00000000000E+00 0.  1.
          2   -1    0    0  502    0  0.00000000000E+00 -0.00000000000E+00 -0.28674631257E+03  0.28674631257E+03  0.00000000000E+00 0. -1.
         23    2    1    2    0    0  0.10450534184E+02 -0.13535701714E+02  0.64583347934E+02  0.11231313493E+03  0.90281795300E+02 0.  0.
         24    2    1    2    0    0 -0.24051149021E+02 -0.21541550899E+01 -0.23415478324E+03  0.24830878592E+03  0.79029693761E+02 0.  0.
        -13    1    4    4    0    0 -0.91719889542E+00 -0.35484837629E+02 -0.62044544747E+02  0.71481049854E+02  0.00000000000E+00 0.  1.
         14    1    4    4    0    0 -0.23133950126E+02  0.33330682539E+02 -0.17211023850E+03  0.17682773607E+03  0.00000000000E+00 0. -1.
        -13    1    3    3    0    0 -0.85058966492E+01 -0.35501366216E+02 -0.50717303804E+01  0.36856746059E+02  0.00000000000E+00 0. -1.
         13    1    3    3    0    0  0.18956430833E+02  0.21965664502E+02  0.69655078315E+02  0.75456388875E+02  0.00000000000E+00 0.  1.
         21    1    1    2  502  501  0.13600614837E+02  0.15689856804E+02 -0.16670932305E+02  0.26628336681E+02  0.00000000000E+00 0. -1.
<scales pt_clust_5="13000.00000" pt_clust_6="13000.00000" pt_clust_7="13000.00000" pt_clust_8="13000.00000" pt_clust_9="20.76411"></scales>
<clustering>
<clus scale="   20.764">  2  9  1 -1</clus>
<clus scale="   79.030">  5  6 -1 -1</clus>
<clus scale="   80.802">  2  5  1 -1</clus>
<clus scale="   90.282">  7  8 -1 -1</clus>
<clus scale="   20.764">  2  5  1 -1</clus>
</clustering>
</event>
<event>
 9    2  0.3791909E-005  0.9267323E+02  0.7546771E-02  0.1303682E+00
         -1   -1    0    0    0  501 -0.00000000000E+00  0.00000000000E+00  0.23269207242E+02  0.23269207242E+02  0.00000000000E+00 0.  1.
          2   -1    0    0  502    0  0.00000000000E+00 -0.00000000000E+00 -0.63505781457E+03  0.63505781457E+03  0.00000000000E+00 0. -1.
         23    2    1    2    0    0  0.88870491288E+01 -0.27085316861E+02 -0.11213339303E+03  0.14666735122E+03  0.90137783703E+02 0.  0.
         24    2    1    2    0    0  0.10683754943E+02  0.35452625953E+01 -0.38074668970E+03  0.38887372779E+03  0.78281689690E+02 0.  0.
        -13    1    4    4    0    0 -0.10030668131E+02  0.37033734190E+02 -0.22364379675E+03  0.22691112708E+03  0.00000000000E+00 0.  1.
         14    1    4    4    0    0  0.20714423073E+02 -0.33488471594E+02 -0.15710289295E+03  0.16196260071E+03  0.00000000000E+00 0. -1.
        -11    1    3    3    0    0 -0.24710011420E+02  0.25387208530E+01 -0.95835186931E+02  0.99002084938E+02  0.00000000000E+00 0.  1.
         11    1    3    3    0    0  0.33597060549E+02 -0.29624037714E+02 -0.16298206098E+02  0.47665266285E+02  0.00000000000E+00 0. -1.
         21    1    1    2  502  501 -0.19570804071E+02  0.23540054266E+02 -0.11890852459E+03  0.12278594279E+03  0.00000000000E+00 0.  1.
<scales pt_clust_5="13000.00000" pt_clust_6="13000.00000" pt_clust_7="13000.00000" pt_clust_8="13000.00000" pt_clust_9="30.61291"></scales>
<clustering>
<clus scale="   30.613">  2  9  1 -1</clus>
<clus scale="   78.282">  5  6 -1 -1</clus>
<clus scale="   81.188">  2  5  1 -1</clus>
<clus scale="   90.138">  7  8 -1 -1</clus>
<clus scale="   30.613">  2  5  1 -1</clus>
</clustering>
</event>
<event>
 9    2  0.3791909E-005  0.1729550E+03  0.7546771E-02  0.1206860E+00
         -1   -1    0    0    0  501 -0.00000000000E+00  0.00000000000E+00  0.24640634002E+03  0.24640634002E+03  0.00000000000E+00 0.  1.
          2   -1    0    0  502    0  0.00000000000E+00 -0.00000000000E+00 -0.35433426627E+03  0.35433426627E+03  0.00000000000E+00 0. -1.
         23    2    1    2    0    0 -0.14617690987E+03 -0.18904251745E+02  0.15836750819E+03  0.23625252740E+03  0.94920647596E+02 0.  0.
         24    2    1    2    0    0  0.20963379170E+02  0.74993381699E+01 -0.19412368202E+02  0.87432581354E+02  0.82291633255E+02 0.  0.
        -13    1    4    4    0    0 -0.35323909008E+01 -0.31333900436E+02  0.97921254149E+01  0.33017825824E+02  0.00000000000E+00 0.  1.
         14    1    4    4    0    0  0.24495770071E+02  0.38833238606E+02 -0.29204493617E+02  0.54414755530E+02  0.00000000000E+00 0. -1.
        -11    1    3    3    0    0 -0.33123039508E+02 -0.45964225078E+02  0.70999972475E+02  0.90834144597E+02  0.00000000000E+00 0. -1.
         11    1    3    3    0    0 -0.11305387036E+03  0.27059973333E+02  0.87367535718E+02  0.14541838280E+03  0.00000000000E+00 0.  1.
         21    1    1    2  502  501  0.12521353070E+03  0.11404913575E+02 -0.24688306624E+03  0.27705549754E+03  0.00000000000E+00 0. -1.
<scales pt_clust_5="13000.00000" pt_clust_6="13000.00000" pt_clust_7="13000.00000" pt_clust_8="13000.00000" pt_clust_9="144.58049"></scales>
<clustering>
<clus scale="   82.292">  5  6 -1 -1</clus>
<clus scale="   85.250">  2  5  1 -1</clus>
<clus scale="   94.921">  7  8 -1 -1</clus>
<clus scale="  144.580">  2  9  1 -1</clus>
<clus scale="   85.250">  2  5  1 -1</clus>
</clustering>
</event>
<event>
 9    2  0.3791909E-005  0.2431792E+03  0.7546771E-02  0.1117927E+00
          2   -1    0    0  502    0  0.00000000000E+00  0.00000000000E+00  0.33775720551E+03  0.33775720551E+03  0.00000000000E+00 0. -1.
         -1   -1    0    0    0  501 -0.00000000000E+00 -0.00000000000E+00 -0.25869841560E+03  0.25869841560E+03  0.00000000000E+00 0.  1.
         24    2    1    2    0    0 -0.14186279627E+03 -0.19694520929E+03 -0.63047178801E+02  0.26530284896E+03  0.86592069405E+02 0.  0.
         23    2    1    2    0    0  0.10103724803E+03  0.17616474863E+03  0.49414462006E+02  0.22775901822E+03  0.90497719169E+02 0.  0.
        -11    1    3    3    0    0 -0.15022660166E+03 -0.17307994349E+03 -0.68959208627E+02  0.23933255345E+03  0.00000000000E+00 0.  1.
         12    1    3    3    0    0  0.83638053921E+01 -0.23865265798E+02  0.59120298262E+01  0.25970295511E+02  0.00000000000E+00 0. -1.
        -11    1    4    4    0    0 -0.13932623729E+02  0.28802539326E+02  0.22057956155E+02  0.38862034241E+02  0.00000000000E+00 0.  1.
         11    1    4    4    0    0  0.11496987176E+03  0.14736220930E+03  0.27356505851E+02  0.18889698398E+03  0.00000000000E+00 0. -1.
         21    1    1    2  502  501  0.40825548243E+02  0.20780460665E+02  0.92691506706E+02  0.10339375392E+03  0.00000000000E+00 0. -1.
<scales pt_clust_5="13000.00000" pt_clust_6="13000.00000" pt_clust_7="13000.00000" pt_clust_8="13000.00000" pt_clust_9="45.80997"></scales>
<clustering>
<clus scale="   45.810">  1  9  2 -1</clus>
<clus scale="   86.592">  5  6 -1 -1</clus>
<clus scale="   90.498">  7  8 -1 -1</clus>
<clus scale="  241.753">  2  5  1 -1</clus>
<clus scale="   45.810">  1  5  2 -1</clus>
</clustering>
</event>
<event>
 9    2  0.3791909E-005  0.1555475E+03  0.7546771E-02  0.1196521E+00
         -1   -1    0    0    0  501 -0.00000000000E+00  0.00000000000E+00  0.49322670992E+02  0.49322670992E+02  0.00000000000E+00 0.  1.
          2   -1    0    0  502    0  0.00000000000E+00 -0.00000000000E+00 -0.85779542199E+03  0.85779542199E+03  0.00000000000E+00 0. -1.
         24    2    1    2    0    0 -0.14670050346E+02  0.90673968019E+02 -0.78937447162E+02  0.14368513896E+03  0.77313127857E+02 0.  0.
         23    2    1    2    0    0  0.15770897624E+02 -0.13356879324E+03 -0.67216709377E+03  0.69179295527E+03  0.93164087891E+02 0.  0.
        -13    1    3    3    0    0 -0.30443571331E+02  0.44611898226E+02 -0.37881866873E+01  0.54142246509E+02  0.00000000000E+00 0.  1.
         14    1    3    3    0    0  0.15773520985E+02  0.46062069793E+02 -0.75149260475E+02  0.89542892447E+02  0.00000000000E+00 0. -1.
        -11    1    4    4    0    0  0.46917203321E+02 -0.40178582076E+02 -0.19399356001E+03  0.20359038227E+03  0.00000000000E+00 0.  1.
         11    1    4    4    0    0 -0.31146305697E+02 -0.93390211166E+02 -0.47817353376E+03  0.48820257300E+03  0.00000000000E+00 0. -1.
         21    1    1    2  502  501 -0.11008472778E+01  0.42894825223E+02 -0.57368210069E+02  0.71639998759E+02  0.00000000000E+00 0.  1.
<scales pt_clust_5="13000.00000" pt_clust_6="13000.00000" pt_clust_7="13000.00000" pt_clust_8="13000.00000" pt_clust_9="42.90895"></scales>
<clustering>
<clus scale="   42.909">  1  9  2 -1</clus>
<clus scale="   77.313">  5  6 -1 -1</clus>
<clus scale="   93.164">  7  8 -1 -1</clus>
<clus scale="  146.604">  1  5  2 -1</clus>
<clus scale="  155.548">  2  5  1 -1</clus>
</clustering>
</event>
<event>
 9    2  0.3791909E-005  0.9267513E+02  0.7546771E-02  0.1299764E+00
          2   -1    0    0  502    0  0.00000000000E+00  0.00000000000E+00  0.16241426752E+03  0.16241426752E+03  0.00000000000E+00 0. -1.
         -1   -1    0    0    0  501 -0.00000000000E+00 -0.00000000000E+00 -0.89730507362E+02  0.89730507362E+02  0.00000000000E+00 0.  1.
         23    2    1    2    0    0 -0.83718639670E+01  0.60020491034E+01 -0.26866627025E+02  0.96561332232E+02  0.92174630647E+02 0.  0.
         24    2    1    2    0    0  0.12303249513E+02  0.13614644840E+02  0.49134372052E+02  0.10134282083E+03  0.86714775640E+02 0.  0.
        -13    1    4    4    0    0  0.90995063225E+01  0.50639072301E+02  0.29644996644E+02  0.59379647059E+02  0.00000000000E+00 0.  1.
         14    1    4    4    0    0  0.32037431901E+01 -0.37024427461E+02  0.19489375408E+02  0.41963173772E+02  0.00000000000E+00 0. -1.
        -13    1    3    3    0    0  0.95019741906E+01  0.33265425793E+02 -0.46913827218E+02  0.58290507383E+02  0.00000000000E+00 0.  1.
         13    1    3    3    0    0 -0.17873838158E+02 -0.27263376690E+02  0.20047200193E+02  0.38270824849E+02  0.00000000000E+00 0. -1.
         21    1    1    2  502  501 -0.39313855456E+01 -0.19616693944E+02  0.50416015132E+02  0.54240621820E+02  0.00000000000E+00 0. -1.
<scales pt_clust_5="13000.00000" pt_clust_6="13000.00000" pt_clust_7="13000.00000" pt_clust_8="13000.00000" pt_clust_9="20.00676"></scales>
<clustering>
<clus scale="   20.007">  1  9  2 -1</clus>
<clus scale="   86.715">  5  6 -1 -1</clus>
<clus scale="   87.247">  1  5  2 -1</clus>
<clus scale="   92.175">  7  8 -1 -1</clus>
<clus scale="   20.007">  1  5  2 -1</clus>
</clustering>
</event>
<event>
 9    2  0.3791909E-005  0.2719086E+03  0.7546771E-02  0.1100659E+00
         -1   -1    0    0    0  501 -0.00000000000E+00  0.00000000000E+00  0.41777147641E+03  0.41777147641E+03  0.00000000000E+00 0.  1.
          2   -1    0    0  502    0  0.00000000000E+00 -0.00000000000E+00 -0.85572847368E+03  0.85572847368E+03  0.00000000000E+00 0. -1.
         24    2    1    2    0    0 -0.13266007450E+03  0.23672578807E+03  0.33346589441E+03  0.43735889524E+03  0.80283911291E+02 0.  0.
         23    2    1    2    0    0  0.73408048239E+02 -0.14351211428E+03 -0.30387622920E+03  0.35572511714E+03  0.90637342220E+02 0.  0.
        -13    1    3    3    0    0 -0.65619987153E+02  0.85106845361E+02  0.18922827307E+03  0.21761548008E+03  0.00000000000E+00 0.  1.
         14    1    3    3    0    0 -0.67040087351E+02  0.15161894271E+03  0.14423762134E+03  0.21974341517E+03  0.00000000000E+00 0. -1.
        -13    1    4    4    0    0  0.10996632952E+02 -0.10956968730E+03 -0.21829891557E+03  0.24450124508E+03  0.00000000000E+00 0. -1.
         13    1    4    4    0    0  0.62411415287E+02 -0.33942426988E+02 -0.85577313629E+02  0.11122387206E+03  0.00000000000E+00 0.  1.
         21    1    1    2  502  501  0.59252026265E+02 -0.93213673782E+02 -0.46754666248E+03  0.48041593770E+03  0.00000000000E+00 0. -1.
<scales pt_clust_5="13000.00000" pt_clust_6="13000.00000" pt_clust_7="13000.00000" pt_clust_8="13000.00000" pt_clust_9="110.45176"></scales>
<clustering>
<clus scale="   80.284">  5  6 -1 -1</clus>
<clus scale="   90.637">  7  8 -1 -1</clus>
<clus scale="  110.452">  2  9  1 -1</clus>
<clus scale="  268.635">  1  5  2 -1</clus>
<clus scale="  110.452">  2  5  1 -1</clus>
</clustering>
</event>
<event>
 9    2  0.3791909E-005  0.1699623E+03  0.7546771E-02  0.1178999E+00
         -1   -1    0    0    0  501 -0.00000000000E+00  0.00000000000E+00  0.15837342318E+03  0.15837342318E+03  0.00000000000E+00 0.  1.
          2   -1    0    0  502    0  0.00000000000E+00 -0.00000000000E+00 -0.46704431549E+03  0.46704431549E+03  0.00000000000E+00 0. -1.
         23    2    1    2    0    0 -0.93322166499E+02  0.11470782324E+03  0.82122670229E+02  0.19102881938E+03  0.88774801585E+02 0.  0.
         24    2    1    2    0    0  0.57805019151E+02 -0.11703794321E+03 -0.30105282622E+03  0.33784723414E+03  0.80427912155E+02 0.  0.
        -13    1    4    4    0    0  0.29726679659E+02 -0.38221942762E+01 -0.10991400695E+03  0.11392705375E+03  0.00000000000E+00 0.  1.
         14    1    4    4    0    0  0.28078339492E+02 -0.11321574893E+03 -0.19113881927E+03  0.22392018040E+03  0.00000000000E+00 0. -1.
        -11    1    3    3    0    0 -0.75714968564E+02  0.54252059566E+02  0.87544426686E+02  0.12782827964E+03  0.00000000000E+00 0.  1.
         11    1    3    3    0    0 -0.17607197935E+02  0.60455763677E+02 -0.54217564573E+01  0.63200539744E+02  0.00000000000E+00 0. -1.
         21    1    1    2  502  501  0.35517147348E+02  0.23301199675E+01 -0.89740736326E+02  0.96541685147E+02  0.00000000000E+00 0.  1.
<scales pt_clust_5="13000.00000" pt_clust_6="13000.00000" pt_clust_7="13000.00000" pt_clust_8="13000.00000" pt_clust_9="35.59350"></scales>
<clustering>
<clus scale="   35.593">  2  9  1 -1</clus>
<clus scale="   80.428">  5  6 -1 -1</clus>
<clus scale="   88.775">  7  8 -1 -1</clus>
<clus scale="  165.755">  2  5  1 -1</clus>
<clus scale="   35.593">  2  5  1 -1</clus>
</clustering>
</event>
<event>
 9    2  0.3791909E-005  0.1010124E+03  0.7546771E-02  0.1282004E+00
         -1   -1    0    0    0  501 -0.00000000000E+00  0.00000000000E+00  0.41543334572E+03  0.41543334572E+03  0.00000000000E+00 0.  1.
          2   -1    0    0  502    0  0.00000000000E+00 -0.00000000000E+00 -0.32861763026E+02  0.32861763026E+02  0.00000000000E+00 0. -1.
         24    2    1    2    0    0 -0.48472769335E+02 -0.11650179609E+02  0.25494645081E+03  0.27272647391E+03  0.83046377026E+02 0.  0.
         23    2    1    2    0    0  0.31906771465E+02 -0.50305183772E+01  0.95891070639E+02  0.13607523522E+03  0.90983647048E+02 0.  0.
        -13    1    3    3    0    0 -0.56985726656E+02 -0.38445186336E+02  0.18213261307E+03  0.19467330104E+03  0.00000000000E+00 0.  1.
         14    1    3    3    0    0  0.85129573213E+01  0.26795006727E+02  0.72813837739E+02  0.78053172864E+02  0.00000000000E+00 0. -1.
        -13    1    4    4    0    0  0.63464303255E+02  0.30015135611E+01  0.69457947298E+02  0.94133592910E+02  0.00000000000E+00 0.  1.
         13    1    4    4    0    0 -0.31557531790E+02 -0.80320319383E+01  0.26433123341E+02  0.41941642306E+02  0.00000000000E+00 0. -1.
         21    1    1    2  502  501  0.16565997870E+02  0.16680697987E+02  0.31734061248E+02  0.39493399626E+02  0.00000000000E+00 0. -1.
<scales pt_clust_5="13000.00000" pt_clust_6="13000.00000" pt_clust_7="13000.00000" pt_clust_8="13000.00000" pt_clust_9="23.50910"></scales>
<clustering>
<clus scale="   23.509">  2  9  1 -1</clus>
<clus scale="   83.046">  5  6 -1 -1</clus>
<clus scale="   90.984">  7  8 -1 -1</clus>
<clus scale="   93.927">  1  5  2 -1</clus>
<clus scale="   23.509">  2  5  1 -1</clus>
</clustering>
</event>
<event>
 9    2  0.3791909E-005  0.1482582E+03  0.7546771E-02  0.1220762E+00
         -1   -1    0    0    0  501 -0.00000000000E+00  0.00000000000E+00  0.17652460083E+03  0.17652460083E+03  0.00000000000E+00 0.  1.
          2   -1    0    0  502    0  0.00000000000E+00 -0.00000000000E+00 -0.45755991707E+03  0.45755991707E+03  0.00000000000E+00 0. -1.
         23    2    1    2    0    0 -0.43848208987E+02 -0.12011245531E+02  0.11319140004E+03  0.15154899141E+03  0.89932576430E+02 0.  0.
         24    2    1    2    0    0  0.13552029118E+03 -0.44782275704E+02 -0.28745031034E+03  0.33077757588E+03  0.80093209784E+02 0.  0.
        -11    1    4    4    0    0  0.11337670516E+03 -0.41327529852E+02 -0.15495833472E+03  0.19640348137E+03  0.00000000000E+00 0.  1.
         12    1    4    4    0    0  0.22143586015E+02 -0.34547458520E+01 -0.13249197563E+03  0.13437409451E+03  0.00000000000E+00 0. -1.
        -11    1    3    3    0    0 -0.11315302333E+01 -0.36387517478E+02  0.10824836092E+02  0.37980374739E+02  0.00000000000E+00 0. -1.
         11    1    3    3    0    0 -0.42716678753E+02  0.24376271947E+02  0.10236656394E+03  0.11356861667E+03  0.00000000000E+00 0.  1.
         21    1    1    2  502  501 -0.91672082188E+02  0.56793521235E+02 -0.10677640594E+03  0.15175795061E+03  0.00000000000E+00 0.  1.
<scales pt_clust_5="13000.00000" pt_clust_6="13000.00000" pt_clust_7="13000.00000" pt_clust_8="13000.00000" pt_clust_9="124.76204"></scales>
<clustering>
<clus scale="   80.093">  5  6 -1 -1</clus>
<clus scale="   89.933">  7  8 -1 -1</clus>
<clus scale="  100.771">  1  7  2 -1</clus>
<clus scale="  124.762">  1  9  2 -1</clus>
<clus scale="  148.258">  2  5  1 -1</clus>
</clustering>
</event>
<event>
 9    2  0.3791909E-005  0.1828958E+03  0.7546771E-02  0.1191133E+00
         -1   -1    0    0    0  501 -0.00000000000E+00  0.00000000000E+00  0.88515956761E+03  0.88515956761E+03  0.00000000000E+00 0.  1.
          2   -1    0    0  502    0  0.00000000000E+00 -0.00000000000E+00 -0.91742651104E+02  0.91742651104E+02  0.00000000000E+00 0. -1.
         23    2    1    2    0    0  0.87960836694E+02  0.13524042154E+03  0.56129760694E+03  0.59091082130E+03  0.89963963687E+02 0.  0.
         24    2    1    2    0    0  0.39220772707E+02 -0.36075894764E+02 -0.22083355332E+01  0.10153013397E+03  0.86393009925E+02 0.  0.
        -11    1    4    4    0    0 -0.25538863598E+02 -0.25124183922E+02 -0.10503637815E+01  0.35840778950E+02  0.00000000000E+00 0.  1.
         12    1    4    4    0    0  0.64759636305E+02 -0.10951710842E+02 -0.11579717517E+01  0.65689355023E+02  0.00000000000E+00 0. -1.
        -11    1    3    3    0    0  0.10673352645E+03  0.11893914452E+03  0.49018371919E+03  0.51557603156E+03  0.00000000000E+00 0.  1.
         11    1    3    3    0    0 -0.18772689756E+02  0.16301277016E+02  0.71113887753E+02  0.75334789735E+02  0.00000000000E+00 0. -1.
         21    1    1    2  502  501 -0.12718160940E+03 -0.99164526775E+02  0.23432764509E+03  0.28446126344E+03  0.00000000000E+00 0. -1.
<scales pt_clust_5="13000.00000" pt_clust_6="13000.00000" pt_clust_7="13000.00000" pt_clust_8="13000.00000" pt_clust_9="159.23992"></scales>
<clustering>
<clus scale="   86.393">  5  6 -1 -1</clus>
<clus scale="   89.964">  7  8 -1 -1</clus>
<clus scale="  101.506">  2  5  1 -1</clus>
<clus scale="  159.240">  2  9  1 -1</clus>
<clus scale="  101.506">  2  5  1 -1</clus>
</clustering>
</event>
<event>
 9    2  0.3791909E-005  0.1526370E+03  0.7546771E-02  0.1198976E+00
         -1   -1    0    0    0  501 -0.00000000000E+00  0.00000000000E+00  0.14598751780E+03  0.14598751780E+03  0.00000000000E+00 0.  1.
          2   -1    0    0  502    0  0.00000000000E+00 -0.00000000000E+00 -0.28671315392E+03  0.28671315392E+03  0.00000000000E+00 0. -1.
         23    2    1    2    0    0 -0.10376631534E+03 -0.86415727861E+02  0.44010863754E+02  0.16896184686E+03  0.91520617035E+02 0.  0.
         24    2    1    2    0    0  0.75482601263E+02  0.63927100447E+02 -0.76150844680E+02  0.14929865988E+03  0.81895307755E+02 0.  0.
        -13    1    4    4    0    0  0.27349859885E+02  0.25657033127E+02  0.14122063448E+02  0.40071571726E+02  0.00000000000E+00 0.  1.
         14    1    4    4    0    0  0.48132741378E+02  0.38270067320E+02 -0.90272908128E+02  0.10922708816E+03  0.00000000000E+00 0. -1.
        -13    1    3    3    0    0 -0.26203619153E+02  0.61900036538E+01 -0.18773310952E+02  0.32823513006E+02  0.00000000000E+00 0. -1.
         13    1    3    3    0    0 -0.77562696192E+02 -0.92605731515E+02  0.62784174706E+02  0.13613833385E+03  0.00000000000E+00 0.  1.
         21    1    1    2  502  501  0.28283714082E+02  0.22488627414E+02 -0.10858565520E+03  0.11444016498E+03  0.00000000000E+00 0. -1.
<scales pt_clust_5="13000.00000" pt_clust_6="13000.00000" pt_clust_7="13000.00000" pt_clust_8="13000.00000" pt_clust_9="36.13457"></scales>
<clustering>
<clus scale="   36.135">  2  9  1 -1</clus>
<clus scale="   81.895">  5  6 -1 -1</clus>
<clus scale="   91.521">  7  8 -1 -1</clus>
<clus scale="  147.068">  2  5  1 -1</clus>
<clus scale="   36.135">  2  5  1 -1</clus>
</clustering>
</event>
<event>
 9    2  0.3791909E-005  0.1235894E+03  0.7546771E-02  0.1239864E+00
          2   -1    0    0  502    0  0.00000000000E+00  0.00000000000E+00  0.38230432984E+03  0.38230432984E+03  0.00000000000E+00 0. -1.
         -1   -1    0    0    0  501 -0.00000000000E+00 -0.00000000000E+00 -0.21703350674E+03  0.21703350674E+03  0.00000000000E+00 0.  1.
         23    2    1    2    0    0  0.79226838680E+02 -0.33331016924E+02 -0.18335703881E+03  0.22109022091E+03  0.88731242774E+02 0.  0.
         24    2    1    2    0    0 -0.88793806149E+02  0.13099737427E+02  0.25296115311E+03  0.27999818459E+03  0.79710070027E+02 0.  0.
        -11    1    4    4    0    0 -0.69954653689E+02  0.43490780263E+02  0.15188059066E+03  0.17277967288E+03  0.00000000000E+00 0.  1.
         12    1    4    4    0    0 -0.18839152460E+02 -0.30391042836E+02  0.10108056244E+03  0.10721851171E+03  0.00000000000E+00 0. -1.
        -13    1    3    3    0    0  0.27159544607E+02 -0.33245136837E+02 -0.15693863169E+03  0.16270406911E+03  0.00000000000E+00 0.  1.
         13    1    3    3    0    0  0.52067294073E+02 -0.85880087176E-01 -0.26418407113E+02  0.58386151798E+02  0.00000000000E+00 0. -1.
         21    1    1    2  502  501  0.95669674687E+01  0.20231279497E+02  0.95666708798E+02  0.98249431087E+02  0.00000000000E+00 0.  1.
<scales pt_clust_5="13000.00000" pt_clust_6="13000.00000" pt_clust_7="13000.00000" pt_clust_8="13000.00000" pt_clust_9="22.37927"></scales>
<clustering>
<clus scale="   22.379">  1  9  2 -1</clus>
<clus scale="   79.710">  5  6 -1 -1</clus>
<clus scale="   88.731">  7  8 -1 -1</clus>
<clus scale="  117.281">  1  5  2 -1</clus>
<clus scale="   22.379">  1  5  2 -1</clus>
</clustering>
</event>
<event>
 9    2  0.3791909E-005  0.9208755E+02  0.7546771E-02  0.1315459E+00
         -1   -1    0    0    0  501 -0.00000000000E+00  0.00000000000E+00  0.52865731661E+02  0.52865731661E+02  0.00000000000E+00 0.  1.
          2   -1    0    0  502    0  0.00000000000E+00 -0.00000000000E+00 -0.20714656991E+03  0.20714656991E+03  0.00000000000E+00 0. -1.
         23    2    1    2    0    0  0.35586192522E+01  0.20174708147E+02 -0.27977459937E+02  0.97355947154E+02  0.90971201828E+02 0.  0.
         24    2    1    2    0    0  0.22426251326E+02 -0.13160073536E+01 -0.73276429922E+02  0.10066666697E+03  0.65266178317E+02 0.  0.
        -11    1    4    4    0    0  0.45285369774E+01  0.31299022661E+02 -0.29905641423E+02  0.43525668928E+02  0.00000000000E+00 0.  1.
         12    1    4    4    0    0  0.17897714349E+02 -0.32615030015E+02 -0.43370788498E+02  0.57140998038E+02  0.00000000000E+00 0. -1.
        -11    1    3    3    0    0 -0.28885825383E+02 -0.23628249035E+02 -0.19768611891E+02  0.42231304463E+02  0.00000000000E+00 0. -1.
         11    1    3    3    0    0  0.32444444636E+02  0.43802957182E+02 -0.82088480456E+01  0.55124642691E+02  0.00000000000E+00 0.  1.
         21    1    1    2  502  501 -0.25984870578E+02 -0.18858700793E+02 -0.53026948393E+02  0.61989687453E+02  0.00000000000E+00 0. -1.
<scales pt_clust_5="13000.00000" pt_clust_6="13000.00000" pt_clust_7="13000.00000" pt_clust_8="13000.00000" pt_clust_9="32.10707"></scales>
<clustering>
<clus scale="   32.107">  2  9  1 -1</clus>
<clus scale="   65.266">  5  6 -1 -1</clus>
<clus scale="   66.813">  2  5  1 -1</clus>
<clus scale="   90.971">  7  8 -1 -1</clus>
<clus scale="   32.107">  2  5  1 -1</clus>
</clustering>
</event>
<event>
 9    2  0.3791909E-005  0.1000005E+03  0.7546771E-02  0.1283977E+00
         -3   -1    0    0    0  501 -0.00000000000E+00  0.00000000000E+00  0.14232773449E+03  0.14232773449E+03  0.00000000000E+00 0.  1.
          4   -1    0    0  502    0  0.00000000000E+00 -0.00000000000E+00 -0.24022409541E+03  0.24022409541E+03  0.00000000000E+00 0. -1.
         24    2    1    2    0    0 -0.12121670070E+01  0.43369473293E+02  0.86805079809E+02  0.12652791165E+03  0.81189962338E+02 0.  0.
         23    2    1    2    0    0 -0.16431447043E+02 -0.55809831207E+02 -0.46152145906E+02  0.11580278318E+03  0.88856819153E+02 0.  0.
        -11    1    3    3    0    0 -0.39524602993E+02  0.20479705135E+02  0.59133134647E+02  0.74015810320E+02  0.00000000000E+00 0.  1.
         12    1    3    3    0    0  0.38312435986E+02  0.22889768158E+02  0.27671945162E+02  0.52512101334E+02  0.00000000000E+00 0. -1.
        -11    1    4    4    0    0 -0.22997111348E+02 -0.14355863486E+02 -0.64523506463E+02  0.69987433394E+02  0.00000000000E+00 0. -1.
         11    1    4    4    0    0  0.65656643047E+01 -0.41453967722E+02  0.18371360557E+02  0.45815349790E+02  0.00000000000E+00 0.  1.
         21    1    1    2  502  501  0.17643614050E+02  0.12440357914E+02 -0.13854929482E+03  0.14022113506E+03  0.00000000000E+00 0. -1.
<scales pt_clust_5="13000.00000" pt_clust_6="13000.00000" pt_clust_7="13000.00000" pt_clust_8="13000.00000" pt_clust_9="21.58841"></scales>
<clustering>
<clus scale="   21.588">  2  9  1 -1</clus>
<clus scale="   81.190">  5  6 -1 -1</clus>
<clus scale="   88.857">  7  8 -1 -1</clus>
<clus scale="   93.254">  1  5  2 -1</clus>
<clus scale="   21.588">  2  5  1 -1</clus>
</clustering>
</event>
<event>
 9    2  0.3791909E-005  0.1581244E+03  0.7546771E-02  0.1212097E+00
          2   -1    0    0  502    0  0.00000000000E+00  0.00000000000E+00  0.37401507211E+03  0.37401507211E+03  0.00000000000E+00 0. -1.
         -1   -1    0    0    0  501 -0.00000000000E+00 -0.00000000000E+00 -0.16167515368E+03  0.16167515368E+03  0.00000000000E+00 0.  1.
         24    2    1    2    0    0 -0.51956680623E+02  0.26982854037E+02 -0.51898088421E+02  0.11243783326E+03  0.80754465472E+02 0.  0.
         23    2    1    2    0    0  0.65876509564E+02 -0.14731407273E+03  0.78265222151E+02  0.20130816423E+03  0.91424184162E+02 0.  0.
        -11    1    3    3    0    0 -0.64629300922E+02  0.23859428697E+02 -0.11325422054E+02  0.69817505399E+02  0.00000000000E+00 0.  1.
         12    1    3    3    0    0  0.12672620299E+02  0.31234253398E+01 -0.40572666367E+02  0.42620327864E+02  0.00000000000E+00 0. -1.
        -11    1    4    4    0    0  0.52552343842E+02 -0.41424621571E+02  0.65817995340E+02  0.93860303783E+02  0.00000000000E+00 0.  1.
         11    1    4    4    0    0  0.13324165722E+02 -0.10588945116E+03  0.12447226811E+02  0.10744786044E+03  0.00000000000E+00 0. -1.
         21    1    1    2  502  501 -0.13919828941E+02  0.12033121869E+03  0.18597278470E+03  0.22194422830E+03  0.00000000000E+00 0.  1.
<scales pt_clust_5="13000.00000" pt_clust_6="13000.00000" pt_clust_7="13000.00000" pt_clust_8="13000.00000" pt_clust_9="129.01535"></scales>
<clustering>
<clus scale="   80.754">  5  6 -1 -1</clus>
<clus scale="   91.424">  7  8 -1 -1</clus>
<clus scale="   99.744">  2  5  1 -1</clus>
<clus scale="  129.015">  1  9  2 -1</clus>
<clus scale="  129.015">  1  5  2 -1</clus>
</clustering>
</event>
<event>
 9    2  0.3791909E-005  0.1025253E+03  0.7546771E-02  0.1280334E+00
         -1   -1    0    0    0  501 -0.00000000000E+00  0.00000000000E+00  0.61869772707E+02  0.61869772707E+02  0.00000000000E+00 0.  1.
          2   -1    0    0  502    0  0.00000000000E+00 -0.00000000000E+00 -0.23004631123E+03  0.23004631123E+03  0.00000000000E+00 0. -1.
         23    2    1    2    0    0 -0.22858539285E+02 -0.29061505719E+02 -0.29761422962E+02  0.10366766766E+03  0.92163762341E+02 0.  0.
         24    2    1    2    0    0  0.29721938604E+02  0.50185866083E+02 -0.87935288073E+02  0.13309809593E+03  0.81120117497E+02 0.  0.
        -11    1    4    4    0    0 -0.15942428221E+02  0.19853010060E+02  0.42792079495E+01  0.25818881593E+02  0.00000000000E+00 0.  1.
         12    1    4    4    0    0  0.45664366825E+02  0.30332856023E+02 -0.92214496022E+02  0.10727921434E+03  0.00000000000E+00 0. -1.
        -13    1    3    3    0    0 -0.41970022581E+02 -0.43909220887E+02  0.54017514430E+01  0.60980992063E+02  0.00000000000E+00 0.  1.
         13    1    3    3    0    0  0.19111483296E+02  0.14847715168E+02 -0.35163174405E+02  0.42686675599E+02  0.00000000000E+00 0. -1.
         21    1    1    2  502  501 -0.68633993188E+01 -0.21124360364E+02 -0.50479827488E+02  0.55150320346E+02  0.00000000000E+00 0. -1.
<scales pt_clust_5="13000.00000" pt_clust_6="13000.00000" pt_clust_7="13000.00000" pt_clust_8="13000.00000" pt_clust_9="22.21137"></scales>
<clustering>
<clus scale="   22.211">  2  9  1 -1</clus>
<clus scale="   81.120">  5  6 -1 -1</clus>
<clus scale="   92.164">  7  8 -1 -1</clus>
<clus scale="   92.724">  2  5  1 -1</clus>
<clus scale="   22.211">  2  5  1 -1</clus>
</clustering>
</event>
<event>
 9    2  0.3791909E-005  0.1094277E+03  0.7546771E-02  0.1266241E+00
         -3   -1    0    0    0  501 -0.00000000000E+00  0.00000000000E+00  0.66164653335E+02  0.66164653335E+02  0.00000000000E+00 0.  1.
          4   -1    0    0  502    0  0.00000000000E+00 -0.00000000000E+00 -0.27100480256E+03  0.27100480256E+03  0.00000000000E+00 0. -1.
         24    2    1    2    0    0 -0.57087035867E+02 -0.36624822957E+02 -0.39289918462E+02  0.11101268301E+03  0.78611772498E+02 0.  0.
         23    2    1    2    0    0  0.32559331235E+02  0.46113427320E+02 -0.70918214687E+02  0.12793834094E+03  0.90289909063E+02 0.  0.
        -11    1    3    3    0    0 -0.42150714426E+02 -0.93262334045E-01  0.14253387286E+02  0.44495510713E+02  0.00000000000E+00 0.  1.
         12    1    3    3    0    0 -0.14936321441E+02 -0.36531560623E+02 -0.53543305747E+02  0.66517172295E+02  0.00000000000E+00 0. -1.
        -11    1    4    4    0    0  0.63801895196E+02  0.36070486443E+02 -0.43931502501E+02  0.85450212023E+02  0.00000000000E+00 0. -1.
         11    1    4    4    0    0 -0.31242563961E+02  0.10042940877E+02 -0.26986712186E+02  0.42488128918E+02  0.00000000000E+00 0.  1.
         21    1    1    2  502  501  0.24527704632E+02 -0.94886043627E+01 -0.94632016074E+02  0.98218431944E+02  0.00000000000E+00 0. -1.
<scales pt_clust_5="13000.00000" pt_clust_6="13000.00000" pt_clust_7="13000.00000" pt_clust_8="13000.00000" pt_clust_9="26.29909"></scales>
<clustering>
<clus scale="   26.299">  2  9  1 -1</clus>
<clus scale="   78.612">  5  6 -1 -1</clus>
<clus scale="   90.290">  7  8 -1 -1</clus>
<clus scale="  100.010">  1  5  2 -1</clus>
<clus scale="   26.299">  2  5  1 -1</clus>
</clustering>
</event>
<event>
 9    2  0.3791909E-005  0.1077886E+03  0.7546771E-02  0.1269371E+00
          2   -1    0    0  502    0  0.00000000000E+00  0.00000000000E+00  0.61501402570E+03  0.61501402570E+03  0.00000000000E+00 0. -1.
         -1   -1    0    0    0  501 -0.00000000000E+00 -0.00000000000E+00 -0.25924503937E+02  0.25924503937E+02  0.00000000000E+00 0.  1.
         24    2    1    2    0    0  0.61111294124E+02  0.23302046140E+02  0.14786335494E+03  0.18056549425E+03  0.80391233084E+02 0.  0.
         23    2    1    2    0    0 -0.30404297396E+02 -0.25464729744E+02  0.35761749763E+03  0.37127754496E+03  0.91563459003E+02 0.  0.
        -11    1    3    3    0    0  0.98444869701E+01  0.29680343600E+02  0.92073329660E+01  0.32597725384E+02  0.00000000000E+00 0.  1.
         12    1    3    3    0    0  0.51266807154E+02 -0.63782974600E+01  0.13865602197E+03  0.14796776887E+03  0.00000000000E+00 0. -1.
        -11    1    4    4    0    0  0.30420622244E+02 -0.21745170485E+02  0.16788818904E+03  0.17200206603E+03  0.00000000000E+00 0. -1.
         11    1    4    4    0    0 -0.60824919640E+02 -0.37195592592E+01  0.18972930858E+03  0.19927547894E+03  0.00000000000E+00 0.  1.
         21    1    1    2  502  501 -0.30706996728E+02  0.21626836046E+01  0.83608669197E+02  0.89095490421E+02  0.00000000000E+00 0. -1.
<scales pt_clust_5="13000.00000" pt_clust_6="13000.00000" pt_clust_7="13000.00000" pt_clust_8="13000.00000" pt_clust_9="30.78306"></scales>
<clustering>
<clus scale="   30.783">  1  9  2 -1</clus>
<clus scale="   80.391">  5  6 -1 -1</clus>
<clus scale="   91.563">  7  8 -1 -1</clus>
<clus scale="   98.475">  2  5  1 -1</clus>
<clus scale="   30.783">  1  5  2 -1</clus>
</clustering>
</event>
<event>
 9    2  0.3791909E-005  0.1445964E+03  0.7546771E-02  0.1210431E+00
          2   -1    0    0  502    0  0.00000000000E+00  0.00000000000E+00  0.51543716609E+03  0.51543716609E+03  0.00000000000E+00 0. -1.
         -1   -1    0    0    0  501 -0.00000000000E+00 -0.00000000000E+00 -0.13311981623E+03  0.13311981623E+03  0.00000000000E+00 0.  1.
         24    2    1    2    0    0 -0.45737281432E+02  0.95193318158E+02 -0.69976967400E+02  0.15022984973E+03  0.80737630927E+02 0.  0.
         23    2    1    2    0    0  0.66862123465E+02 -0.12134791968E+03  0.41633264735E+03  0.44909742779E+03  0.95706662461E+02 0.  0.
        -13    1    3    3    0    0 -0.52003455637E+02  0.18986913119E+02 -0.39053901142E+02  0.67750051383E+02  0.00000000000E+00 0.  1.
         14    1    3    3    0    0  0.62661742044E+01  0.76206405039E+02 -0.30923066258E+02  0.82479798344E+02  0.00000000000E+00 0. -1.
        -11    1    4    4    0    0  0.65540377970E+02 -0.46845985902E+02  0.30251329522E+03  0.31305651459E+03  0.00000000000E+00 0. -1.
         11    1    4    4    0    0  0.13217454949E+01 -0.74501933779E+02  0.11381935212E+03  0.13604091320E+03  0.00000000000E+00 0.  1.
         21    1    1    2  502  501 -0.21124842032E+02  0.26154601523E+02  0.35961669909E+02  0.49229704797E+02  0.00000000000E+00 0. -1.
<scales pt_clust_5="13000.00000" pt_clust_6="13000.00000" pt_clust_7="13000.00000" pt_clust_8="13000.00000" pt_clust_9="33.62026"></scales>
<clustering>
<clus scale="   33.620">  1  9  2 -1</clus>
<clus scale="   80.738">  5  6 -1 -1</clus>
<clus scale="   95.707">  7  8 -1 -1</clus>
<clus scale="  135.155">  2  5  1 -1</clus>
<clus scale="   33.620">  1  5  2 -1</clus>
</clustering>
</event>
<event>
 9    2  0.3791909E-005  0.9826098E+02  0.7546771E-02  0.1289108E+00
          2   -1    0    0  502    0  0.00000000000E+00  0.00000000000E+00  0.27382140468E+03  0.27382140468E+03  0.00000000000E+00 0. -1.
         -1   -1    0    0    0  501 -0.00000000000E+00 -0.00000000000E+00 -0.75294899123E+02  0.75294899123E+02  0.00000000000E+00 0.  1.
         23    2    1    2    0    0 -0.40362203065E+02 -0.17856796831E+02 -0.18204191026E+02  0.10196209232E+03  0.90093857003E+02 0.  0.
         24    2    1    2    0    0  0.27329603022E+02 -0.68600255309E+01  0.12410169148E+03  0.15040245410E+03  0.80160471669E+02 0.  0.
        -13    1    4    4    0    0  0.35358090896E+01 -0.22712375603E+02 -0.65533573202E-01  0.22986044595E+02  0.00000000000E+00 0.  1.
         14    1    4    4    0    0  0.23793793933E+02  0.15852350072E+02  0.12416722506E+03  0.12741640950E+03  0.00000000000E+00 0. -1.
        -13    1    3    3    0    0 -0.56634827306E+02  0.14620229695E+02  0.52436006641E+01  0.58726060044E+02  0.00000000000E+00 0.  1.
         13    1    3    3    0    0  0.16272624241E+02 -0.32477026526E+02 -0.23447791690E+02  0.43236032275E+02  0.00000000000E+00 0. -1.
         21    1    1    2  502  501  0.13032600043E+02  0.24716822362E+02  0.92629005099E+02  0.96751757386E+02  0.00000000000E+00 0. -1.
<scales pt_clust_5="13000.00000" pt_clust_6="13000.00000" pt_clust_7="13000.00000" pt_clust_8="13000.00000" pt_clust_9="27.94226"></scales>
<clustering>
<clus scale="   27.942">  1  9  2 -1</clus>
<clus scale="   80.160">  5  6 -1 -1</clus>
<clus scale="   89.241">  1  5  2 -1</clus>
<clus scale="   90.094">  7  8 -1 -1</clus>
<clus scale="   27.942">  1  5  2 -1</clus>
</clustering>
</event>
<event>
 9    2  0.3791909E-005  0.1224188E+03  0.7546771E-02  0.1243170E+00
          2   -1    0    0  502    0  0.00000000000E+00  0.00000000000E+00  0.24904237866E+03  0.24904237866E+03  0.00000000000E+00 0. -1.
         -1   -1    0    0    0  501 -0.00000000000E+00 -0.00000000000E+00 -0.29071622788E+03  0.29071622788E+03  0.00000000000E+00 0.  1.
         23    2    1    2    0    0 -0.42604099573E+02  0.51250191517E+02 -0.22958145037E+03  0.25596350638E+03  0.91476679057E+02 0.  0.
         24    2    1    2    0    0  0.11373695645E+02 -0.70199164753E+02  0.39981411402E+02  0.13142528907E+03  0.10303790402E+03 0.  0.
        -11    1    4    4    0    0 -0.17503742526E+02  0.13415510377E+02 -0.15544966729E+02  0.26981529084E+02  0.00000000000E+00 0.  1.
         12    1    4    4    0    0  0.28877438171E+02 -0.83614675131E+02  0.55526378130E+02  0.10444375999E+03  0.00000000000E+00 0. -1.
        -13    1    3    3    0    0  0.88610960914E+01  0.56478266894E+02 -0.15492297525E+03  0.16513461756E+03  0.00000000000E+00 0.  1.
         13    1    3    3    0    0 -0.51465195665E+02 -0.52280753770E+01 -0.74658475123E+02  0.90828888822E+02  0.00000000000E+00 0. -1.
         21    1    1    2  502  501  0.31230403928E+02  0.18948973236E+02  0.14792618976E+03  0.15236981109E+03  0.00000000000E+00 0. -1.
<scales pt_clust_5="13000.00000" pt_clust_6="13000.00000" pt_clust_7="13000.00000" pt_clust_8="13000.00000" pt_clust_9="36.52946"></scales>
<clustering>
<clus scale="   36.529">  1  9  2 -1</clus>
<clus scale="   91.477">  7  8 -1 -1</clus>
<clus scale="  103.038">  5  6 -1 -1</clus>
<clus scale="  112.861">  2  7  1 -1</clus>
<clus scale="   36.529">  1  5  2 -1</clus>
</clustering>
</event>
<event>
 9    2  0.3791909E-005  0.1175017E+03  0.7546771E-02  0.1252902E+00
          2   -1    0    0  502    0  0.00000000000E+00  0.00000000000E+00  0.25921440715E+03  0.25921440715E+03  0.00000000000E+00 0. -1.
         -1   -1    0    0    0  501 -0.00000000000E+00 -0.00000000000E+00 -0.35960765862E+03  0.35960765862E+03  0.00000000000E+00 0.  1.
         23    2    1    2    0    0  0.67810435983E+02  0.22347600118E+02 -0.33040343343E+03  0.35112003809E+03  0.94979902438E+02 0.  0.
         24    2    1    2    0    0 -0.37071178950E+02 -0.25082701354E+02  0.10444279840E+03  0.13839792675E+03  0.79008061462E+02 0.  0.
        -11    1    4    4    0    0  0.24162152595E+02 -0.14284712216E+02  0.25622689550E+02  0.38005063359E+02  0.00000000000E+00 0.  1.
         12    1    4    4    0    0 -0.61233331545E+02 -0.10797989138E+02  0.78820108847E+02  0.10039286339E+03  0.00000000000E+00 0. -1.
        -13    1    3    3    0    0  0.89449524876E+02  0.31871804984E+02 -0.25558048028E+03  0.27265071310E+03  0.00000000000E+00 0.  1.
         13    1    3    3    0    0 -0.21639088893E+02 -0.95242048659E+01 -0.74822953150E+02  0.78469324991E+02  0.00000000000E+00 0. -1.
         21    1    1    2  502  501 -0.30739257033E+02  0.27351012358E+01  0.12556738356E+03  0.12930410093E+03  0.00000000000E+00 0. -1.
<scales pt_clust_5="13000.00000" pt_clust_6="13000.00000" pt_clust_7="13000.00000" pt_clust_8="13000.00000" pt_clust_9="30.86070"></scales>
<clustering>
<clus scale="   30.861">  1  9  2 -1</clus>
<clus scale="   79.008">  5  6 -1 -1</clus>
<clus scale="   94.980">  7  8 -1 -1</clus>
<clus scale="  105.013">  1  5  2 -1</clus>
<clus scale="   30.861">  1  5  2 -1</clus>
</clustering>
</event>
<event>
 9    2  0.3791909E-005  0.1153979E+03  0.7546771E-02  0.1254386E+00
         -1   -1    0    0    0  501 -0.00000000000E+00  0.00000000000E+00  0.12891361547E+03  0.12891361547E+03  0.00000000000E+00 0.  1.
          2   -1    0    0  502    0  0.00000000000E+00 -0.00000000000E+00 -0.34530867150E+03  0.34530867150E+03  0.00000000000E+00 0. -1.
         23    2    1    2    0    0 -0.27346409839E+02  0.77572864158E+02  0.78968697738E+02  0.14523397627E+03  0.89952638964E+02 0.  0.
         24    2    1    2    0    0  0.95633601174E+01 -0.27956262589E+02 -0.12935756046E+03  0.15481569452E+03  0.79759076896E+02 0.  0.
        -11    1    4    4    0    0 -0.34117003470E+02 -0.22601744018E+02 -0.58158464360E+02  0.71114103631E+02  0.00000000000E+00 0.  1.
         12    1    4    4    0    0  0.43680363588E+02 -0.53545185717E+01 -0.71199096097E+02  0.83701590888E+02  0.00000000000E+00 0. -1.
        -11    1    3    3    0    0 -0.50762840404E+02  0.78476072783E+02  0.44405533822E+02  0.10347565607E+03  0.00000000000E+00 0.  1.
         11    1    3    3    0    0  0.23416430564E+02 -0.90320862429E+00  0.34563163915E+02  0.41758320201E+02  0.00000000000E+00 0. -1.
         21    1    1    2  502  501  0.17783049722E+02 -0.49616601569E+02 -0.16600619331E+03  0.17417261618E+03  0.00000000000E+00 0. -1.
<scales pt_clust_5="13000.00000" pt_clust_6="13000.00000" pt_clust_7="13000.00000" pt_clust_8="13000.00000" pt_clust_9="52.70715"></scales>
<clustering>
<clus scale="   52.707">  2  9  1 -1</clus>
<clus scale="   79.759">  5  6 -1 -1</clus>
<clus scale="   89.953">  7  8 -1 -1</clus>
<clus scale="  107.642">  2  5  1 -1</clus>
<clus scale="   52.707">  2  5  1 -1</clus>
</clustering>
</event>
<event>
 9    2  0.3791909E-005  0.1185005E+03  0.7546771E-02  0.1248701E+00
          2   -1    0    0  502    0  0.00000000000E+00  0.00000000000E+00  0.99201958193E+03  0.99201958193E+03  0.00000000000E+00 0. -1.
         -1   -1    0    0    0  501 -0.00000000000E+00 -0.00000000000E+00 -0.28876630011E+02  0.28876630011E+02  0.00000000000E+00 0.  1.
         23    2    1    2    0    0  0.12790856476E+02 -0.73297133634E+02  0.12859187773E+03  0.17466591144E+03  0.91848972735E+02 0.  0.
         24    2    1    2    0    0  0.11525133552E+02  0.79432111466E+02  0.68821030638E+03  0.69775631070E+03  0.82390255990E+02 0.  0.
        -13    1    4    4    0    0 -0.13674530696E+02  0.17022467125E+02  0.36156023983E+02  0.42237604656E+02  0.00000000000E+00 0.  1.
         14    1    4    4    0    0  0.25199664248E+02  0.62409644341E+02  0.65205428240E+03  0.65551870605E+03  0.00000000000E+00 0. -1.
        -11    1    3    3    0    0  0.46526173355E+02 -0.33545398400E+02  0.34057552681E+02  0.66707536722E+02  0.00000000000E+00 0.  1.
         11    1    3    3    0    0 -0.33735316879E+02 -0.39751735234E+02  0.94534325052E+02  0.10795837472E+03  0.00000000000E+00 0. -1.
         21    1    1    2  502  501 -0.24315990028E+02 -0.61349778325E+01  0.14634076781E+03  0.14847398980E+03  0.00000000000E+00 0. -1.
<scales pt_clust_5="13000.00000" pt_clust_6="13000.00000" pt_clust_7="13000.00000" pt_clust_8="13000.00000" pt_clust_9="25.07798"></scales>
<clustering>
<clus scale="   25.078">  1  9  2 -1</clus>
<clus scale="   82.390">  5  6 -1 -1</clus>
<clus scale="   91.849">  7  8 -1 -1</clus>
<clus scale="  111.330">  1  5  2 -1</clus>
<clus scale="   25.078">  1  5  2 -1</clus>
</clustering>
</event>
<event>
 9    2  0.3791909E-005  0.1307078E+03  0.7546771E-02  0.1227282E+00
          2   -1    0    0  502    0  0.00000000000E+00  0.00000000000E+00  0.90804686774E+03  0.90804686774E+03  0.00000000000E+00 0. -1.
         -1   -1    0    0    0  501 -0.00000000000E+00 -0.00000000000E+00 -0.53112627385E+03  0.53112627385E+03  0.00000000000E+00 0.  1.
         23    2    1    2    0    0 -0.90494998248E+02 -0.17064021490E+02 -0.51359187420E+03  0.52969005066E+03  0.91183392076E+02 0.  0.
         24    2    1    2    0    0  0.10795707871E+02 -0.11052752013E+02  0.37132390699E+03  0.38346095088E+03  0.94457113604E+02 0.  0.
        -13    1    4    4    0    0 -0.25413461195E+02 -0.38884673478E+02  0.13510799581E+03  0.14287068409E+03  0.00000000000E+00 0.  1.
         14    1    4    4    0    0  0.36209169066E+02  0.27831921465E+02  0.23621591118E+03  0.24059026679E+03  0.00000000000E+00 0. -1.
        -11    1    3    3    0    0 -0.43505879450E+02 -0.48448746344E+02 -0.36406639247E+03  0.36984372469E+03  0.00000000000E+00 0.  1.
         11    1    3    3    0    0 -0.46989118799E+02  0.31384724853E+02 -0.14952548173E+03  0.15984632597E+03  0.00000000000E+00 0. -1.
         21    1    1    2  502  501  0.79699290377E+02  0.28116773504E+02  0.51918856110E+03  0.52602214005E+03  0.00000000000E+00 0. -1.
<scales pt_clust_5="13000.00000" pt_clust_6="13000.00000" pt_clust_7="13000.00000" pt_clust_8="13000.00000" pt_clust_9="84.51349"></scales>
<clustering>
<clus scale="   84.513">  1  9  2 -1</clus>
<clus scale="   91.183">  7  8 -1 -1</clus>
<clus scale="   94.457">  5  6 -1 -1</clus>
<clus scale="  128.362">  2  7  1 -1</clus>
<clus scale="   84.513">  1  5  2 -1</clus>
</clustering>
</event>
<event>
 9    2  0.3791909E-005  0.1566766E+03  0.7546771E-02  0.1194294E+00
          2   -1    0    0  502    0  0.00000000000E+00  0.00000000000E+00  0.72600154120E+03  0.72600154120E+03  0.00000000000E+00 0. -1.
         -1   -1    0    0    0  501 -0.00000000000E+00 -0.00000000000E+00 -0.13550129268E+03  0.13550129268E+03  0.00000000000E+00 0.  1.
         24    2    1    2    0    0 -0.12531930502E+03 -0.15890787170E+02 -0.75619858278E+02  0.16814017169E+03  0.81211508067E+02 0.  0.
         23    2    1    2    0    0  0.12880074268E+03  0.43884090377E+02  0.56583054043E+03  0.58918136563E+03  0.91951271962E+02 0.  0.
        -13    1    3    3    0    0 -0.97664245199E+02 -0.21572519328E+02 -0.91662742717E+02  0.13566774408E+03  0.00000000000E+00 0.  1.
         14    1    3    3    0    0 -0.27655059820E+02  0.56817321588E+01  0.16042884439E+02  0.32472427613E+02  0.00000000000E+00 0. -1.
        -13    1    4    4    0    0  0.47513209624E+02 -0.14342998569E+02  0.88277691028E+02  0.10127278721E+03  0.00000000000E+00 0.  1.
         13    1    4    4    0    0  0.81287533057E+02  0.58227088947E+02  0.47755284941E+03  0.48790857842E+03  0.00000000000E+00 0. -1.
         21    1    1    2  502  501 -0.34814376619E+01 -0.27993303208E+02  0.10028956637E+03  0.10418129657E+03  0.00000000000E+00 0.  1.
<scales pt_clust_5="13000.00000" pt_clust_6="13000.00000" pt_clust_7="13000.00000" pt_clust_8="13000.00000" pt_clust_9="28.20896"></scales>
<clustering>
<clus scale="   28.209">  1  9  2 -1</clus>
<clus scale="   81.212">  5  6 -1 -1</clus>
<clus scale="   91.951">  7  8 -1 -1</clus>
<clus scale="  150.625">  2  5  1 -1</clus>
<clus scale="   28.209">  1  5  2 -1</clus>
</clustering>
</event>
<event>
 9    2  0.3791909E-005  0.1115330E+03  0.7546771E-02  0.1263136E+00
         -1   -1    0    0    0  501 -0.00000000000E+00  0.00000000000E+00  0.34246647573E+03  0.34246647573E+03  0.00000000000E+00 0.  1.
          2   -1    0    0  502    0  0.00000000000E+00 -0.00000000000E+00 -0.74486585786E+03  0.74486585786E+03  0.00000000000E+00 0. -1.
         24    2    1    2    0    0 -0.42373265791E+02  0.41419956719E+02  0.32646280206E+03  0.34148808405E+03  0.80777744140E+02 0.  0.
         23    2    1    2    0    0  0.41867410875E+02 -0.71519038305E+02 -0.52690840487E+03  0.54165918745E+03  0.94309889665E+02 0.  0.
        -11    1    3    3    0    0 -0.44144254226E+01  0.58401501484E+02  0.18689873994E+03  0.19586056653E+03  0.00000000000E+00 0.  1.
         12    1    3    3    0    0 -0.37958840369E+02 -0.16981544764E+02  0.13956406212E+03  0.14562751752E+03  0.00000000000E+00 0. -1.
        -11    1    4    4    0    0  0.10358268216E+02  0.21027646049E+02 -0.55969775099E+02  0.60680073694E+02  0.00000000000E+00 0.  1.
         11    1    4    4    0    0  0.31509142659E+02 -0.92546684353E+02 -0.47093862977E+03  0.48097911375E+03  0.00000000000E+00 0. -1.
         21    1    1    2  502  501  0.50585491628E+00  0.30099081585E+02 -0.20195377932E+03  0.20418506209E+03  0.00000000000E+00 0. -1.
<scales pt_clust_5="13000.00000" pt_clust_6="13000.00000" pt_clust_7="13000.00000" pt_clust_8="13000.00000" pt_clust_9="30.10333"></scales>
<clustering>
<clus scale="   30.103">  2  9  1 -1</clus>
<clus scale="   80.778">  5  6 -1 -1</clus>
<clus scale="   94.310">  7  8 -1 -1</clus>
<clus scale="  100.351">  1  5  2 -1</clus>
<clus scale="   30.103">  2  5  1 -1</clus>
</clustering>
</event>
<event>
 9    2  0.3791909E-005  0.1147367E+03  0.7546771E-02  0.1255987E+00
         -1   -1    0    0    0  501 -0.00000000000E+00  0.00000000000E+00  0.26364917390E+02  0.26364917390E+02  0.00000000000E+00 0.  1.
          2   -1    0    0  502    0  0.00000000000E+00 -0.00000000000E+00 -0.13150538236E+04  0.13150538236E+04  0.00000000000E+00 0. -1.
         23    2    1    2    0    0  0.59420628982E+02 -0.39533613901E+02 -0.14687367305E+03  0.18676915491E+03  0.90648351403E+02 0.  0.
         24    2    1    2    0    0 -0.77756764194E+02 -0.49214719277E+01 -0.96566461933E+03  0.97205301639E+03  0.79426534558E+02 0.  0.
        -13    1    4    4    0    0 -0.30205487536E+02 -0.15821774384E+02 -0.11395097192E+03  0.11894336477E+03  0.00000000000E+00 0.  1.
         14    1    4    4    0    0 -0.47551276658E+02  0.10900302456E+02 -0.85171364741E+03  0.85310965162E+03  0.00000000000E+00 0. -1.
        -11    1    3    3    0    0  0.13627568101E+02 -0.26206895017E+02  0.28094276124E+01  0.29671616779E+02  0.00000000000E+00 0.  1.
         11    1    3    3    0    0  0.45793060881E+02 -0.13326718884E+02 -0.14968310067E+03  0.15709753813E+03  0.00000000000E+00 0. -1.
         21    1    1    2  502  501  0.18336135212E+02  0.44455085828E+02 -0.17615061385E+03  0.18259656971E+03  0.00000000000E+00 0.  1.
<scales pt_clust_5="13000.00000" pt_clust_6="13000.00000" pt_clust_7="13000.00000" pt_clust_8="13000.00000" pt_clust_9="48.08813"></scales>
<clustering>
<clus scale="   48.088">  2  9  1 -1</clus>
<clus scale="   79.427">  5  6 -1 -1</clus>
<clus scale="   90.648">  7  8 -1 -1</clus>
<clus scale="  106.094">  2  5  1 -1</clus>
<clus scale="   48.088">  2  5  1 -1</clus>
</clustering>
</event>
<event>
 9    2  0.3791909E-005  0.1156925E+03  0.7546771E-02  0.1253215E+00
         -1   -1    0    0    0  501 -0.00000000000E+00  0.00000000000E+00  0.57428010413E+02  0.57428010413E+02  0.00000000000E+00 0.  1.
          2   -1    0    0  502    0  0.00000000000E+00 -0.00000000000E+00 -0.43510869423E+03  0.43510869423E+03  0.00000000000E+00 0. -1.
         23    2    1    2    0    0 -0.30993488591E+02  0.61806874351E+02 -0.39090816849E+02  0.11920482261E+03  0.88887635354E+02 0.  0.
         24    2    1    2    0    0  0.29053316825E+02 -0.82847590631E+02 -0.19711515054E+03  0.23028793286E+03  0.80438367433E+02 0.  0.
        -11    1    4    4    0    0  0.40032086558E+02 -0.50459079788E+01 -0.72444247245E+02  0.82922844262E+02  0.00000000000E+00 0.  1.
         12    1    4    4    0    0 -0.10978769733E+02 -0.77801682653E+02 -0.12467090329E+03  0.14736508860E+03  0.00000000000E+00 0. -1.
        -11    1    3    3    0    0 -0.30043293504E+01  0.77327741133E+02 -0.14240718729E+02  0.78685472696E+02  0.00000000000E+00 0.  1.
         11    1    3    3    0    0 -0.27989159241E+02 -0.15520866781E+02 -0.24850098120E+02  0.40519349911E+02  0.00000000000E+00 0. -1.
         21    1    1    2  502  501  0.19401717664E+01  0.21040716280E+02 -0.14147471643E+03  0.14304394918E+03  0.00000000000E+00 0.  1.
<scales pt_clust_5="13000.00000" pt_clust_6="13000.00000" pt_clust_7="13000.00000" pt_clust_8="13000.00000" pt_clust_9="21.12998"></scales>
<clustering>
<clus scale="   21.130">  2  9  1 -1</clus>
<clus scale="   80.438">  5  6 -1 -1</clus>
<clus scale="   88.888">  7  8 -1 -1</clus>
<clus scale="  109.335">  2  5  1 -1</clus>
<clus scale="   21.130">  2  5  1 -1</clus>
</clustering>
</event>
<event>
 9    2  0.1085533E-004  0.1968952E+03  0.7546771E-02  0.1153568E+00
          2   -1    0    0  502    0  0.00000000000E+00  0.00000000000E+00  0.17568995827E+04  0.17568995827E+04  0.00000000000E+00 0. -1.
         -1   -1    0    0    0  501 -0.00000000000E+00 -0.00000000000E+00 -0.10002598393E+03  0.10002598393E+03  0.00000000000E+00 0.  1.
         23    2    1    2    0    0  0.15228919597E+03  0.85593136007E+02  0.11321751637E+02  0.19747275180E+03  0.91373527365E+02 0.  0.
         24    2    1    2    0    0 -0.13854580278E+03 -0.10054563034E+03  0.15675988067E+04  0.15788976508E+04  0.79040556754E+02 0.  0.
        -13    1    4    4    0    0 -0.21425341491E+02 -0.23804580257E+02  0.10940130281E+03  0.11399275571E+03  0.00000000000E+00 0.  1.
         14    1    4    4    0    0 -0.11712046129E+03 -0.76741050087E+02  0.14581975039E+04  0.14649048951E+04  0.00000000000E+00 0. -1.
        -13    1    3    3    0    0  0.13154875980E+03  0.31998692833E+02 -0.10980692193E+02  0.13582918740E+03  0.00000000000E+00 0.  1.
         13    1    3    3    0    0  0.20740436171E+02  0.53594443173E+02  0.22302443831E+02  0.61643564404E+02  0.00000000000E+00 0. -1.
         21    1    1    2  502  501 -0.13743393191E+02  0.14952494337E+02  0.77953040417E+02  0.80555164040E+02  0.00000000000E+00 0. -1.
<scales pt_clust_5="13000.00000" pt_clust_6="13000.00000" pt_clust_7="13000.00000" pt_clust_8="13000.00000" pt_clust_9="20.30906"></scales>
<clustering>
<clus scale="   20.309">  1  9  2 -1</clus>
<clus scale="   79.041">  5  6 -1 -1</clus>
<clus scale="   91.374">  7  8 -1 -1</clus>
<clus scale="  191.484">  1  5  2 -1</clus>
<clus scale="   20.309">  1  5  2 -1</clus>
</clustering>
</event>
<event>
 9    2  0.3791909E-005  0.1315200E+03  0.7546771E-02  0.1227164E+00
          2   -1    0    0  502    0  0.00000000000E+00  0.00000000000E+00  0.31692857810E+03  0.31692857810E+03  0.00000000000E+00 0. -1.
         -1   -1    0    0    0  501 -0.00000000000E+00 -0.00000000000E+00 -0.16071035212E+03  0.16071035212E+03  0.00000000000E+00 0.  1.
         24    2    1    2    0    0  0.45038492482E+02  0.90401218343E+02 -0.10697384642E+03  0.16818106125E+03  0.81489996082E+02 0.  0.
         23    2    1    2    0    0 -0.35938924987E+02 -0.49293533995E+02  0.23521927457E+03  0.25890966169E+03  0.89356851809E+02 0.  0.
        -11    1    3    3    0    0  0.64715277030E+02  0.44712533952E+02 -0.77157030090E+02  0.11018386935E+03  0.00000000000E+00 0.  1.
         12    1    3    3    0    0 -0.19676784548E+02  0.45688684391E+02 -0.29816816332E+02  0.57997191894E+02  0.00000000000E+00 0. -1.
        -11    1    4    4    0    0  0.26229054983E+02 -0.33888056869E+02  0.11441724311E+03  0.12217884123E+03  0.00000000000E+00 0.  1.
         11    1    4    4    0    0 -0.62167979970E+02 -0.15405477125E+02  0.12080203145E+03  0.13673082046E+03  0.00000000000E+00 0. -1.
         21    1    1    2  502  501 -0.90995674956E+01 -0.41107684348E+02  0.27972797827E+02  0.50548207281E+02  0.00000000000E+00 0. -1.
<scales pt_clust_5="13000.00000" pt_clust_6="13000.00000" pt_clust_7="13000.00000" pt_clust_8="13000.00000" pt_clust_9="42.10278"></scales>
<clustering>
<clus scale="   42.103">  1  9  2 -1</clus>
<clus scale="   81.490">  5  6 -1 -1</clus>
<clus scale="   89.357">  7  8 -1 -1</clus>
<clus scale="  126.307">  2  5  1 -1</clus>
<clus scale="   42.103">  1  5  2 -1</clus>
</clustering>
</event>
<event>
 9    2  0.3791909E-005  0.1021553E+03  0.7546771E-02  0.1278741E+00
         -1   -1    0    0    0  501 -0.00000000000E+00  0.00000000000E+00  0.16182916966E+03  0.16182916966E+03  0.00000000000E+00 0.  1.
          2   -1    0    0  502    0  0.00000000000E+00 -0.00000000000E+00 -0.29125281729E+03  0.29125281729E+03  0.00000000000E+00 0. -1.
         24    2    1    2    0    0 -0.14593205353E+02 -0.46497505730E+02  0.12859765810E+03  0.16102024360E+03  0.83756680324E+02 0.  0.
         23    2    1    2    0    0  0.42320429506E+02  0.28636902190E+02 -0.20357606525E+03  0.22840575911E+03  0.90082659445E+02 0.  0.
        -13    1    3    3    0    0 -0.33974336172E+02  0.10153090343E+02  0.34394181742E+02  0.49399397765E+02  0.00000000000E+00 0.  1.
         14    1    3    3    0    0  0.19381130819E+02 -0.56650596073E+02  0.94203476360E+02  0.11162084584E+03  0.00000000000E+00 0. -1.
        -13    1    4    4    0    0  0.50814460966E+02  0.49655481934E+02 -0.10183629443E+03  0.12417087901E+03  0.00000000000E+00 0. -1.
         13    1    4    4    0    0 -0.84940314602E+01 -0.21018579744E+02 -0.10173977082E+03  0.10423488011E+03  0.00000000000E+00 0.  1.
         21    1    1    2  502  501 -0.27727224153E+02  0.17860603541E+02 -0.54445240480E+02  0.63655984236E+02  0.00000000000E+00 0. -1.
<scales pt_clust_5="13000.00000" pt_clust_6="13000.00000" pt_clust_7="13000.00000" pt_clust_8="13000.00000" pt_clust_9="32.98181"></scales>
<clustering>
<clus scale="   32.982">  2  9  1 -1</clus>
<clus scale="   83.757">  5  6 -1 -1</clus>
<clus scale="   90.083">  7  8 -1 -1</clus>
<clus scale="   96.623">  1  5  2 -1</clus>
<clus scale="   32.982">  2  5  1 -1</clus>
</clustering>
</event>
<event>
 9    2  0.3791909E-005  0.1502888E+03  0.7546771E-02  0.1200844E+00
         -1   -1    0    0    0  501 -0.00000000000E+00  0.00000000000E+00  0.61180532670E+03  0.61180532670E+03  0.00000000000E+00 0.  1.
          2   -1    0    0  502    0  0.00000000000E+00 -0.00000000000E+00 -0.47092330502E+02  0.47092330502E+02  0.00000000000E+00 0. -1.
         24    2    1    2    0    0 -0.38889700411E+01 -0.13302420190E+03  0.36785313930E+03  0.39966482115E+03  0.81886963534E+02 0.  0.
         23    2    1    2    0    0  0.18535814464E+02  0.10683660054E+03  0.16677583481E+03  0.21674320318E+03  0.86056966098E+02 0.  0.
        -11    1    3    3    0    0 -0.14731700108E+02 -0.84050182044E+02  0.31681027837E+03  0.32810091218E+03  0.00000000000E+00 0.  1.
         12    1    3    3    0    0  0.10842730067E+02 -0.48974019858E+02  0.51042860925E+02  0.71563908975E+02  0.00000000000E+00 0. -1.
        -13    1    4    4    0    0  0.29545795590E+02  0.46279733947E+02  0.13854429861E+03  0.14902781783E+03  0.00000000000E+00 0.  1.
         13    1    4    4    0    0 -0.11009981126E+02  0.60556866592E+02  0.28231536203E+02  0.67715385344E+02  0.00000000000E+00 0. -1.
         21    1    1    2  502  501 -0.14646844423E+02  0.26187601363E+02  0.30084022093E+02  0.42489632876E+02  0.00000000000E+00 0. -1.
<scales pt_clust_5="13000.00000" pt_clust_6="13000.00000" pt_clust_7="13000.00000" pt_clust_8="13000.00000" pt_clust_9="30.00534"></scales>
<clustering>
<clus scale="   30.005">  2  9  1 -1</clus>
<clus scale="   81.887">  5  6 -1 -1</clus>
<clus scale="   86.057">  7  8 -1 -1</clus>
<clus scale="  147.940">  1  5  2 -1</clus>
<clus scale="   30.005">  2  5  1 -1</clus>
</clustering>
</event>
<event>
 9    2  0.3791909E-005  0.1125599E+03  0.7546771E-02  0.1267772E+00
         -1   -1    0    0    0  501 -0.00000000000E+00  0.00000000000E+00  0.18058059119E+03  0.18058059119E+03  0.00000000000E+00 0.  1.
          2   -1    0    0  502    0  0.00000000000E+00 -0.00000000000E+00 -0.76949060291E+03  0.76949060291E+03  0.00000000000E+00 0. -1.
         23    2    1    2    0    0 -0.82615476379E+01  0.23734084698E+02  0.14437304301E+03  0.18273116389E+03  0.10915833803E+03 0.  0.
         24    2    1    2    0    0  0.72511204900E+01 -0.10202260608E+03 -0.58217614266E+03  0.59715362529E+03  0.84865777625E+02 0.  0.
        -13    1    4    4    0    0 -0.30105240357E+02 -0.98201200944E+01 -0.10292873363E+03  0.10768976025E+03  0.00000000000E+00 0.  1.
         14    1    4    4    0    0  0.37356360847E+02 -0.92202485984E+02 -0.47924740903E+03  0.48946386504E+03  0.00000000000E+00 0. -1.
        -13    1    3    3    0    0 -0.13652346424E+02 -0.21931420027E+02 -0.51112687339E+01  0.26334365672E+02  0.00000000000E+00 0. -1.
         13    1    3    3    0    0  0.53907987865E+01  0.45665504725E+02  0.14948431175E+03  0.15639679821E+03  0.00000000000E+00 0.  1.
         21    1    1    2  502  501  0.10104271479E+01  0.78288521380E+02 -0.15110691208E+03  0.17018640492E+03  0.00000000000E+00 0.  1.
<scales pt_clust_5="13000.00000" pt_clust_6="13000.00000" pt_clust_7="13000.00000" pt_clust_8="13000.00000" pt_clust_9="78.29504"></scales>
<clustering>
<clus scale="   78.295">  2  9  1 -1</clus>
<clus scale="   84.866">  5  6 -1 -1</clus>
<clus scale="   89.199">  2  5  1 -1</clus>
<clus scale="  109.158">  7  8 -1 -1</clus>
<clus scale="   78.295">  2  5  1 -1</clus>
</clustering>
</event>
<event>
 9    2  0.3791909E-005  0.1293256E+03  0.7546771E-02  0.1233180E+00
          2   -1    0    0  502    0  0.00000000000E+00  0.00000000000E+00  0.21326768077E+03  0.21326768077E+03  0.00000000000E+00 0. -1.
         -1   -1    0    0    0  501 -0.00000000000E+00 -0.00000000000E+00 -0.19506718696E+03  0.19506718696E+03  0.00000000000E+00 0.  1.
         24    2    1    2    0    0  0.29505429266E+02 -0.94443386975E+02 -0.11673643481E+03  0.18489314518E+03  0.10376876325E+03 0.  0.
         23    2    1    2    0    0 -0.25336814088E+02  0.88325781702E+01  0.72034423178E+02  0.11712468192E+03  0.88370042480E+02 0.  0.
        -13    1    3    3    0    0 -0.30610213187E+02 -0.31038425682E+02 -0.77920359395E+02  0.89285785142E+02  0.00000000000E+00 0.  1.
         14    1    3    3    0    0  0.60115642453E+02 -0.63404961293E+02 -0.38816075411E+02  0.95607360042E+02  0.00000000000E+00 0. -1.
        -11    1    4    4    0    0  0.26958309866E+02 -0.12986740993E+02  0.45735426007E+02  0.54654689685E+02  0.00000000000E+00 0.  1.
         11    1    4    4    0    0 -0.52295123954E+02  0.21819319164E+02  0.26298997170E+02  0.62469992239E+02  0.00000000000E+00 0. -1.
         21    1    1    2  502  501 -0.41686151774E+01  0.85610808805E+02  0.62902505435E+02  0.10631704062E+03  0.00000000000E+00 0. -1.
<scales pt_clust_5="13000.00000" pt_clust_6="13000.00000" pt_clust_7="13000.00000" pt_clust_8="13000.00000" pt_clust_9="85.71224"></scales>
<clustering>
<clus scale="   85.712">  1  9  2 -1</clus>
<clus scale="   88.370">  7  8 -1 -1</clus>
<clus scale="  103.769">  5  6 -1 -1</clus>
<clus scale="  117.330">  1  7  2 -1</clus>
<clus scale="   85.712">  1  5  2 -1</clus>
</clustering>
</event>
<event>
 9    2  0.3791909E-005  0.1267257E+03  0.7546771E-02  0.1235776E+00
         -3   -1    0    0    0  501 -0.00000000000E+00  0.00000000000E+00  0.46723679592E+02  0.46723679592E+02  0.00000000000E+00 0.  1.
          4   -1    0    0  502    0  0.00000000000E+00 -0.00000000000E+00 -0.55637663920E+03  0.55637663920E+03  0.00000000000E+00 0. -1.
         24    2    1    2    0    0 -0.61499623733E+02  0.52569297729E+02 -0.79467192859E+02  0.13819922511E+03  0.78982632876E+02 0.  0.
         23    2    1    2    0    0  0.86666964214E+02 -0.66055780715E+02 -0.30465177624E+03  0.33616080076E+03  0.91196767196E+02 0.  0.
        -11    1    3    3    0    0 -0.76867813690E+02  0.53358804525E+02 -0.52882627566E+02  0.10748206874E+03  0.00000000000E+00 0.  1.
         12    1    3    3    0    0  0.15368189958E+02 -0.78950679611E+00 -0.26584565293E+02  0.30717156368E+02  0.00000000000E+00 0. -1.
        -11    1    4    4    0    0  0.41702776106E+02 -0.33806825985E+02 -0.43171011808E+02  0.68889471464E+02  0.00000000000E+00 0.  1.
         11    1    4    4    0    0  0.44964188109E+02 -0.32248954729E+02 -0.26148076443E+03  0.26727132929E+03  0.00000000000E+00 0. -1.
         21    1    1    2  502  501 -0.25167340481E+02  0.13486482986E+02 -0.12553399050E+03  0.12874029292E+03  0.00000000000E+00 0. -1.
<scales pt_clust_5="13000.00000" pt_clust_6="13000.00000" pt_clust_7="13000.00000" pt_clust_8="13000.00000" pt_clust_9="28.55311"></scales>
<clustering>
<clus scale="   28.553">  2  9  1 -1</clus>
<clus scale="   78.983">  5  6 -1 -1</clus>
<clus scale="   91.197">  7  8 -1 -1</clus>
<clus scale="  118.240">  1  5  2 -1</clus>
<clus scale="   28.553">  2  5  1 -1</clus>
</clustering>
</event>
<event>
 9    2  0.3791909E-005  0.2334136E+03  0.7546771E-02  0.1124868E+00
         -1   -1    0    0    0  501 -0.00000000000E+00  0.00000000000E+00  0.38034612837E+02  0.38034612837E+02  0.00000000000E+00 0.  1.
          2   -1    0    0  502    0  0.00000000000E+00 -0.00000000000E+00 -0.17135687167E+04  0.17135687167E+04  0.00000000000E+00 0. -1.
         24    2    1    2    0    0  0.89356885835E+02  0.20576691333E+03 -0.58465222135E+03  0.63139459613E+03  0.80723233477E+02 0.  0.
         23    2    1    2    0    0 -0.61996843226E+02 -0.19262436646E+03 -0.89635465618E+03  0.92332770269E+03  0.90192138171E+02 0.  0.
        -11    1    3    3    0    0  0.65763336349E+01  0.11634157398E+03 -0.28099923375E+03  0.30420253018E+03  0.00000000000E+00 0.  1.
         12    1    3    3    0    0  0.82780552200E+02  0.89425339347E+02 -0.30365298760E+03  0.32719206595E+03  0.00000000000E+00 0. -1.
        -13    1    4    4    0    0  0.11658987939E+01 -0.10554041313E+03 -0.31816225753E+03  0.33521241063E+03  0.00000000000E+00 0.  1.
         13    1    4    4    0    0 -0.63162742020E+02 -0.87083953332E+02 -0.57819239865E+03  0.58811529207E+03  0.00000000000E+00 0. -1.
         21    1    1    2  502  501 -0.27360042609E+02 -0.13142546871E+02 -0.19452722636E+03  0.19688103074E+03  0.00000000000E+00 0. -1.
<scales pt_clust_5="13000.00000" pt_clust_6="13000.00000" pt_clust_7="13000.00000" pt_clust_8="13000.00000" pt_clust_9="30.35290"></scales>
<clustering>
<clus scale="   30.353">  2  9  1 -1</clus>
<clus scale="   80.723">  5  6 -1 -1</clus>
<clus scale="   90.192">  7  8 -1 -1</clus>
<clus scale="  229.921">  1  5  2 -1</clus>
<clus scale="   30.353">  2  5  1 -1</clus>
</clustering>
</event>
<event>
 9    2  0.3791909E-005  0.1036827E+03  0.7546771E-02  0.1277844E+00
          2   -1    0    0  502    0  0.00000000000E+00  0.00000000000E+00  0.50500204903E+03  0.50500204903E+03  0.00000000000E+00 0. -1.
         -1   -1    0    0    0  501 -0.00000000000E+00 -0.00000000000E+00 -0.49643301093E+02  0.49643301093E+02  0.00000000000E+00 0.  1.
         23    2    1    2    0    0 -0.76599930459E+01  0.49188815481E+02  0.25684937719E+02  0.10690284990E+03  0.91051019928E+02 0.  0.
         24    2    1    2    0    0 -0.20739416181E+02 -0.51125673520E+02  0.34609160582E+03  0.35944605207E+03  0.79863050617E+02 0.  0.
        -13    1    4    4    0    0  0.13619688438E+02  0.16301739495E+02  0.67940492015E+02  0.71183938350E+02  0.00000000000E+00 0.  1.
         14    1    4    4    0    0 -0.34359104620E+02 -0.67427413015E+02  0.27815111381E+03  0.28826211372E+03  0.00000000000E+00 0. -1.
        -11    1    3    3    0    0  0.48573859339E+01  0.22160987232E+02  0.58404602862E+02  0.62656214286E+02  0.00000000000E+00 0. -1.
         11    1    3    3    0    0 -0.12517378980E+02  0.27027828250E+02 -0.32719665143E+02  0.44246635618E+02  0.00000000000E+00 0.  1.
         21    1    1    2  502  501  0.28399409227E+02  0.19368580390E+01  0.83582204394E+02  0.88296448144E+02  0.00000000000E+00 0.  1.
<scales pt_clust_5="13000.00000" pt_clust_6="13000.00000" pt_clust_7="13000.00000" pt_clust_8="13000.00000" pt_clust_9="28.46538"></scales>
<clustering>
<clus scale="   28.465">  1  9  2 -1</clus>
<clus scale="   79.863">  5  6 -1 -1</clus>
<clus scale="   91.051">  7  8 -1 -1</clus>
<clus scale="   94.010">  1  5  2 -1</clus>
<clus scale="   28.465">  1  5  2 -1</clus>
</clustering>
</event>
<event>
 9    2  0.3791909E-005  0.1000993E+03  0.7546771E-02  0.1285577E+00
         -1   -1    0    0    0  501 -0.00000000000E+00  0.00000000000E+00  0.11042487944E+03  0.11042487944E+03  0.00000000000E+00 0.  1.
          2   -1    0    0  502    0  0.00000000000E+00 -0.00000000000E+00 -0.21280958420E+03  0.21280958420E+03  0.00000000000E+00 0. -1.
         23    2    1    2    0    0 -0.31732167470E+02 -0.19663417586E+02  0.50812020762E+02  0.11125137996E+03  0.91659302019E+02 0.  0.
         24    2    1    2    0    0  0.63357961872E+02 -0.41675984038E+01 -0.13138857373E+03  0.16677574268E+03  0.80743983259E+02 0.  0.
        -13    1    4    4    0    0  0.79150862240E+02 -0.10849871382E+02 -0.81952718741E+02  0.11445010621E+03  0.00000000000E+00 0.  1.
         14    1    4    4    0    0 -0.15792900368E+02  0.66822729783E+01 -0.49435854984E+02  0.52325636472E+02  0.00000000000E+00 0. -1.
        -11    1    3    3    0    0 -0.52387572674E+02 -0.42990710733E+02  0.36319535661E+02  0.76888020202E+02  0.00000000000E+00 0. -1.
         11    1    3    3    0    0  0.20655405205E+02  0.23327293147E+02  0.14492485102E+02  0.34363359762E+02  0.00000000000E+00 0.  1.
         21    1    1    2  502  501 -0.31625794403E+02  0.23831015990E+02 -0.21808151799E+02  0.45207340992E+02  0.00000000000E+00 0. -1.
<scales pt_clust_5="13000.00000" pt_clust_6="13000.00000" pt_clust_7="13000.00000" pt_clust_8="13000.00000" pt_clust_9="39.59935"></scales>
<clustering>
<clus scale="   39.599">  2  9  1 -1</clus>
<clus scale="   80.744">  5  6 -1 -1</clus>
<clus scale="   90.211">  2  5  1 -1</clus>
<clus scale="   91.659">  7  8 -1 -1</clus>
<clus scale="   39.599">  2  5  1 -1</clus>
</clustering>
</event>
<event>
 9    2  0.3791909E-005  0.1644766E+03  0.7546771E-02  0.1214587E+00
          2   -1    0    0  502    0  0.00000000000E+00  0.00000000000E+00  0.77823054593E+03  0.77823054593E+03  0.00000000000E+00 0. -1.
         -1   -1    0    0    0  501 -0.00000000000E+00 -0.00000000000E+00 -0.59474627096E+02  0.59474627096E+02  0.00000000000E+00 0.  1.
         24    2    1    2    0    0  0.14718824205E+02 -0.24262968951E+02  0.36881929297E+02  0.91799763722E+02  0.79130174159E+02 0.  0.
         23    2    1    2    0    0  0.60973307788E+02 -0.10466289444E+03  0.31431129222E+03  0.34910128438E+03  0.91695433937E+02 0.  0.
        -13    1    3    3    0    0  0.21994638924E+02 -0.50858119029E+02  0.17542200898E+02  0.58120918996E+02  0.00000000000E+00 0.  1.
         14    1    3    3    0    0 -0.72758147194E+01  0.26595150078E+02  0.19339728399E+02  0.33678844726E+02  0.00000000000E+00 0. -1.
        -13    1    4    4    0    0  0.41348027429E+02 -0.24858694780E+02  0.39771725143E+02  0.62525228503E+02  0.00000000000E+00 0. -1.
         13    1    4    4    0    0  0.19625280359E+02 -0.79804199658E+02  0.27453956708E+03  0.28657605588E+03  0.00000000000E+00 0.  1.
         21    1    1    2  502  501 -0.75692131993E+02  0.12892586339E+03  0.36756269732E+03  0.39680412492E+03  0.00000000000E+00 0. -1.
<scales pt_clust_5="13000.00000" pt_clust_6="13000.00000" pt_clust_7="13000.00000" pt_clust_8="13000.00000" pt_clust_9="136.54491"></scales>
<clustering>
<clus scale="   79.130">  5  6 -1 -1</clus>
<clus scale="   84.065">  2  5  1 -1</clus>
<clus scale="   91.695">  7  8 -1 -1</clus>
<clus scale="  136.545">  2  9  1 -1</clus>
<clus scale="  164.477">  1  5  2 -1</clus>
</clustering>
</event>
<event>
 9    2  0.3791909E-005  0.1414884E+03  0.7546771E-02  0.1226583E+00
         -1   -1    0    0    0  501 -0.00000000000E+00  0.00000000000E+00  0.73357693197E+03  0.73357693197E+03  0.00000000000E+00 0.  1.
          2   -1    0    0  502    0  0.00000000000E+00 -0.00000000000E+00 -0.80614187020E+02  0.80614187020E+02  0.00000000000E+00 0. -1.
         24    2    1    2    0    0  0.70462752270E+02 -0.96015642239E+02  0.28891104486E+03  0.32234465026E+03  0.79072616608E+02 0.  0.
         23    2    1    2    0    0  0.30477283734E+02  0.32349742672E+02 -0.61730963832E+01  0.10286235908E+03  0.92559100698E+02 0.  0.
        -11    1    3    3    0    0  0.29598032296E+01 -0.35728461068E+02  0.25984993504E+02  0.44277570539E+02  0.00000000000E+00 0.  1.
         12    1    3    3    0    0  0.67502949040E+02 -0.60287181171E+02  0.26292605136E+03  0.27806707972E+03  0.00000000000E+00 0. -1.
        -11    1    4    4    0    0  0.54778652254E+02 -0.81698290022E+01 -0.48356285748E+01  0.55595234980E+02  0.00000000000E+00 0. -1.
         11    1    4    4    0    0 -0.24301368520E+02  0.40519571675E+02 -0.13374678083E+01  0.47267124101E+02  0.00000000000E+00 0.  1.
         21    1    1    2  502  501 -0.10094003600E+03  0.63665899567E+02  0.37022479647E+03  0.38898410965E+03  0.00000000000E+00 0.  1.
<scales pt_clust_5="13000.00000" pt_clust_6="13000.00000" pt_clust_7="13000.00000" pt_clust_8="13000.00000" pt_clust_9="117.33074"></scales>
<clustering>
<clus scale="   79.073">  5  6 -1 -1</clus>
<clus scale="   92.559">  7  8 -1 -1</clus>
<clus scale="  102.677">  2  7  1 -1</clus>
<clus scale="  117.331">  1  9  2 -1</clus>
<clus scale="  102.677">  2  5  1 -1</clus>
</clustering>
</event>
<event>
 9    2  0.3791909E-005  0.1569500E+03  0.7546771E-02  0.1219331E+00
         -1   -1    0    0    0  501 -0.00000000000E+00  0.00000000000E+00  0.56271473939E+03  0.56271473939E+03  0.00000000000E+00 0.  1.
          2   -1    0    0  502    0  0.00000000000E+00 -0.00000000000E+00 -0.10513680829E+03  0.10513680829E+03  0.00000000000E+00 0. -1.
         24    2    1    2    0    0  0.12439964265E+02 -0.77553942877E+01  0.14993410321E+03  0.17361363692E+03  0.86293457271E+02 0.  0.
         23    2    1    2    0    0  0.11628912268E+03  0.34210573035E+02  0.32861985635E+03  0.36115504905E+03  0.88025201557E+02 0.  0.
        -13    1    3    3    0    0 -0.12773957664E+02 -0.41301809643E+02  0.95925692653E+02  0.10521764104E+03  0.00000000000E+00 0.  1.
         14    1    3    3    0    0  0.25213921928E+02  0.33546415355E+02  0.54008410560E+02  0.68395995888E+02  0.00000000000E+00 0. -1.
        -13    1    4    4    0    0  0.10418034282E+03  0.28495053743E+01  0.17317791678E+03  0.20211940622E+03  0.00000000000E+00 0. -1.
         13    1    4    4    0    0  0.12108779864E+02  0.31361067661E+02  0.15544193957E+03  0.15903564283E+03  0.00000000000E+00 0.  1.
         21    1    1    2  502  501 -0.12872908695E+03 -0.26455178748E+02 -0.20976028459E+02  0.13308286170E+03  0.00000000000E+00 0. -1.
<scales pt_clust_5="13000.00000" pt_clust_6="13000.00000" pt_clust_7="13000.00000" pt_clust_8="13000.00000" pt_clust_9="129.94176"></scales>
<clustering>
<clus scale="   86.293">  5  6 -1 -1</clus>
<clus scale="   87.530">  1  5  2 -1</clus>
<clus scale="   88.025">  7  8 -1 -1</clus>
<clus scale="  129.942">  2  9  1 -1</clus>
<clus scale="  129.942">  2  5  1 -1</clus>
</clustering>
</event>
<event>
 9    2  0.3791909E-005  0.1028403E+03  0.7546771E-02  0.1282832E+00
          2   -1    0    0  502    0  0.00000000000E+00  0.00000000000E+00  0.48456694247E+03  0.48456694247E+03  0.00000000000E+00 0. -1.
         -1   -1    0    0    0  501 -0.00000000000E+00 -0.00000000000E+00 -0.70484960443E+02  0.70484960443E+02  0.00000000000E+00 0.  1.
         23    2    1    2    0    0 -0.12934203636E+02 -0.11716757392E+02  0.21335153150E+02  0.10019022344E+03  0.96324016137E+02 0.  0.
         24    2    1    2    0    0  0.25855585577E+01  0.77880926486E+02  0.85977423384E+02  0.14086763515E+03  0.79871455961E+02 0.  0.
        -13    1    4    4    0    0 -0.27709804807E+02  0.27480569774E+02  0.29663878104E+01  0.39138401273E+02  0.00000000000E+00 0.  1.
         14    1    4    4    0    0  0.30295363364E+02  0.50400356712E+02  0.83011035574E+02  0.10172923388E+03  0.00000000000E+00 0. -1.
        -13    1    3    3    0    0 -0.45448248999E+02 -0.19994335657E+02 -0.13875304180E+02  0.51554251634E+02  0.00000000000E+00 0.  1.
         13    1    3    3    0    0  0.32514045363E+02  0.82775782645E+01  0.35210457331E+02  0.48635971803E+02  0.00000000000E+00 0. -1.
         21    1    1    2  502  501  0.10348645079E+02 -0.66164169094E+02  0.30676940549E+03  0.31399404433E+03  0.00000000000E+00 0. -1.
<scales pt_clust_5="13000.00000" pt_clust_6="13000.00000" pt_clust_7="13000.00000" pt_clust_8="13000.00000" pt_clust_9="66.96859"></scales>
<clustering>
<clus scale="   66.969">  1  9  2 -1</clus>
<clus scale="   79.871">  5  6 -1 -1</clus>
<clus scale="   87.620">  1  5  2 -1</clus>
<clus scale="   96.324">  7  8 -1 -1</clus>
<clus scale="   66.969">  1  5  2 -1</clus>
</clustering>
</event>
<event>
 9    2  0.3791909E-005  0.1035157E+03  0.7546771E-02  0.1276656E+00
          2   -1    0    0  502    0  0.00000000000E+00  0.00000000000E+00  0.23604855431E+03  0.23604855431E+03  0.00000000000E+00 0. -1.
         -1   -1    0    0    0  501 -0.00000000000E+00 -0.00000000000E+00 -0.80021090870E+02  0.80021090870E+02  0.00000000000E+00 0.  1.
         24    2    1    2    0    0  0.14260269645E+02  0.41132814795E+02 -0.12652210530E+02  0.94674807575E+02  0.83114240746E+02 0.  0.
         23    2    1    2    0    0 -0.21329762325E+02 -0.67998096533E+02  0.13466667902E+03  0.17747895306E+03  0.91021780079E+02 0.  0.
        -13    1    3    3    0    0  0.46928750540E+02  0.23661735363E+02 -0.21172321531E+02  0.56660855506E+02  0.00000000000E+00 0.  1.
         14    1    3    3    0    0 -0.32668480894E+02  0.17471079432E+02  0.85201110013E+01  0.38013952070E+02  0.00000000000E+00 0. -1.
        -11    1    4    4    0    0 -0.45497194618E+02 -0.39088700917E+01  0.67899306265E+02  0.81826583546E+02  0.00000000000E+00 0. -1.
         11    1    4    4    0    0  0.24167432293E+02 -0.64089226441E+02  0.66767372758E+02  0.95652369519E+02  0.00000000000E+00 0.  1.
         21    1    1    2  502  501  0.70694926800E+01  0.26865281738E+02  0.34012994943E+02  0.43915884536E+02  0.00000000000E+00 0.  1.
<scales pt_clust_5="13000.00000" pt_clust_6="13000.00000" pt_clust_7="13000.00000" pt_clust_8="13000.00000" pt_clust_9="27.77987"></scales>
<clustering>
<clus scale="   27.780">  1  9  2 -1</clus>
<clus scale="   83.114">  5  6 -1 -1</clus>
<clus scale="   91.022">  7  8 -1 -1</clus>
<clus scale="   96.636">  2  5  1 -1</clus>
<clus scale="   27.780">  1  5  2 -1</clus>
</clustering>
</event>
<event>
 9    2  0.3791909E-005  0.9973249E+02  0.7546771E-02  0.1286650E+00
          2   -1    0    0  502    0  0.00000000000E+00  0.00000000000E+00  0.35510545186E+02  0.35510545186E+02  0.00000000000E+00 0. -1.
         -1   -1    0    0    0  501 -0.00000000000E+00 -0.00000000000E+00 -0.49296286794E+03  0.49296286794E+03  0.00000000000E+00 0.  1.
         24    2    1    2    0    0  0.14173568622E+02  0.46934385964E+02 -0.33528321520E+03  0.34824071191E+03  0.80330768713E+02 0.  0.
         23    2    1    2    0    0  0.39510502876E+00 -0.93471973702E+01 -0.86237216889E+02  0.12623137008E+03  0.91705915883E+02 0.  0.
        -11    1    3    3    0    0  0.34199545651E+02 -0.81776749290E+01 -0.13961661398E+03  0.14397667238E+03  0.00000000000E+00 0.  1.
         12    1    3    3    0    0 -0.20025977029E+02  0.55112060893E+02 -0.19566660122E+03  0.20426403953E+03  0.00000000000E+00 0. -1.
        -13    1    4    4    0    0 -0.10899233004E+02  0.23775234240E+02 -0.87387373289E+02  0.91217367062E+02  0.00000000000E+00 0.  1.
         13    1    4    4    0    0  0.11294338033E+02 -0.33122431611E+02  0.11501563999E+01  0.35014003015E+02  0.00000000000E+00 0. -1.
         21    1    1    2  502  501 -0.14568673651E+02 -0.37587188594E+02 -0.35931890664E+02  0.54001331141E+02  0.00000000000E+00 0. -1.
<scales pt_clust_5="13000.00000" pt_clust_6="13000.00000" pt_clust_7="13000.00000" pt_clust_8="13000.00000" pt_clust_9="40.31182"></scales>
<clustering>
<clus scale="   40.312">  1  9  2 -1</clus>
<clus scale="   80.331">  5  6 -1 -1</clus>
<clus scale="   89.385">  2  5  1 -1</clus>
<clus scale="   91.706">  7  8 -1 -1</clus>
<clus scale="   40.312">  1  5  2 -1</clus>
</clustering>
</event>
<event>
 9    2  0.3791909E-005  0.9198230E+02  0.7546771E-02  0.1305973E+00
         -1   -1    0    0    0  501 -0.00000000000E+00  0.00000000000E+00  0.76061151786E+02  0.76061151786E+02  0.00000000000E+00 0.  1.
          2   -1    0    0  502    0  0.00000000000E+00 -0.00000000000E+00 -0.31533380988E+03  0.31533380988E+03  0.00000000000E+00 0. -1.
         23    2    1    2    0    0 -0.39167614581E+02 -0.42643966342E+01  0.34344754181E+02  0.97866492634E+02  0.82740565203E+02 0.  0.
         24    2    1    2    0    0  0.47305495929E+02 -0.15259819061E+02 -0.22718520629E+03  0.24250524036E+03  0.68738647227E+02 0.  0.
        -13    1    4    4    0    0 -0.16931363424E+02 -0.11290544534E+02 -0.60191845784E+02  0.63539009767E+02  0.00000000000E+00 0.  1.
         14    1    4    4    0    0  0.64236859353E+02 -0.39692745271E+01 -0.16699336051E+03  0.17896623060E+03  0.00000000000E+00 0. -1.
        -13    1    3    3    0    0 -0.23832874856E+02  0.13999409464E+02  0.58016807021E+02  0.64264603680E+02  0.00000000000E+00 0.  1.
         13    1    3    3    0    0 -0.15334739726E+02 -0.18263806098E+02 -0.23672052840E+02  0.33601888954E+02  0.00000000000E+00 0. -1.
         21    1    1    2  502  501 -0.81378813475E+01  0.19524215695E+02 -0.46432205978E+02  0.51023228665E+02  0.00000000000E+00 0. -1.
<scales pt_clust_5="13000.00000" pt_clust_6="13000.00000" pt_clust_7="13000.00000" pt_clust_8="13000.00000" pt_clust_9="21.15231"></scales>
<clustering>
<clus scale="   21.152">  2  9  1 -1</clus>
<clus scale="   68.739">  5  6 -1 -1</clus>
<clus scale="   79.623">  2  5  1 -1</clus>
<clus scale="   82.741">  7  8 -1 -1</clus>
<clus scale="   21.152">  2  5  1 -1</clus>
</clustering>
</event>
<event>
 9    2  0.3791909E-005  0.9212258E+02  0.7546771E-02  0.1305033E+00
         -1   -1    0    0    0  501 -0.00000000000E+00  0.00000000000E+00  0.17208043766E+03  0.17208043766E+03  0.00000000000E+00 0.  1.
          2   -1    0    0  502    0  0.00000000000E+00 -0.00000000000E+00 -0.90374545452E+02  0.90374545452E+02  0.00000000000E+00 0. -1.
         23    2    1    2    0    0 -0.44056538292E+01 -0.23400694856E+02  0.10488404284E+03  0.14083915746E+03  0.90928562762E+02 0.  0.
         24    2    1    2    0    0 -0.98288674991E+01 -0.11237427319E+02 -0.24008914384E+02  0.84157698713E+02  0.79266663067E+02 0.  0.
        -13    1    4    4    0    0 -0.11208518083E+02 -0.20537234664E+02  0.25008585858E+02  0.34246726148E+02  0.00000000000E+00 0.  1.
         14    1    4    4    0    0  0.13796505838E+01  0.92998073446E+01 -0.49017500242E+02  0.49910972565E+02  0.00000000000E+00 0. -1.
        -13    1    3    3    0    0 -0.21783996927E+02 -0.44833906456E+02  0.23892759588E+02  0.55276447525E+02  0.00000000000E+00 0.  1.
         13    1    3    3    0    0  0.17378343098E+02  0.21433211601E+02  0.80991283256E+02  0.85562709938E+02  0.00000000000E+00 0. -1.
         21    1    1    2  502  501  0.14234521328E+02  0.34638122175E+02  0.83076374823E+00  0.37458126937E+02  0.00000000000E+00 0. -1.
<scales pt_clust_5="13000.00000" pt_clust_6="13000.00000" pt_clust_7="13000.00000" pt_clust_8="13000.00000" pt_clust_9="37.44891"></scales>
<clustering>
<clus scale="   37.449">  2  9  1 -1</clus>
<clus scale="   79.267">  5  6 -1 -1</clus>
<clus scale="   80.634">  2  5  1 -1</clus>
<clus scale="   90.929">  7  8 -1 -1</clus>
<clus scale="   37.449">  2  5  1 -1</clus>
</clustering>
</event>
<event>
 9    2  0.3791909E-005  0.1694073E+03  0.7546771E-02  0.1204133E+00
         -1   -1    0    0    0  501 -0.00000000000E+00  0.00000000000E+00  0.16537769187E+03  0.16537769187E+03  0.00000000000E+00 0.  1.
          2   -1    0    0  502    0  0.00000000000E+00 -0.00000000000E+00 -0.58834051738E+03  0.58834051738E+03  0.00000000000E+00 0. -1.
         23    2    1    2    0    0 -0.44646626709E+02  0.13142484423E+03  0.93951608907E+02  0.19816734650E+03  0.10572408166E+03 0.  0.
         24    2    1    2    0    0 -0.21559099958E+02 -0.48204793005E+02 -0.27331160581E+03  0.28974809136E+03  0.80412845485E+02 0.  0.
        -11    1    4    4    0    0 -0.36754427168E+02  0.42909875418E+01 -0.15603796933E+03  0.16036567077E+03  0.00000000000E+00 0.  1.
         12    1    4    4    0    0  0.15195327211E+02 -0.52495780547E+02 -0.11727363648E+03  0.12938242059E+03  0.00000000000E+00 0. -1.
        -13    1    3    3    0    0 -0.33032120849E+02  0.69198234877E+02 -0.91107454628E+01  0.77217371108E+02  0.00000000000E+00 0. -1.
         13    1    3    3    0    0 -0.11614505860E+02  0.62226609356E+02  0.10306235437E+03  0.12094997539E+03  0.00000000000E+00 0.  1.
         21    1    1    2  502  501  0.66205726666E+02 -0.83220051228E+02 -0.24360282861E+03  0.26580277139E+03  0.00000000000E+00 0. -1.
<scales pt_clust_5="13000.00000" pt_clust_6="13000.00000" pt_clust_7="13000.00000" pt_clust_8="13000.00000" pt_clust_9="132.36787"></scales>
<clustering>
<clus scale="   80.413">  5  6 -1 -1</clus>
<clus scale="   96.201">  2  5  1 -1</clus>
<clus scale="  105.724">  7  8 -1 -1</clus>
<clus scale="  132.368">  2  9  1 -1</clus>
<clus scale="   96.201">  2  5  1 -1</clus>
</clustering>
</event>
<event>
 9    2  0.3791909E-005  0.1612204E+03  0.7546771E-02  0.1188803E+00
          2   -1    0    0  502    0  0.00000000000E+00  0.00000000000E+00  0.13243905540E+04  0.13243905540E+04  0.00000000000E+00 0. -1.
         -1   -1    0    0    0  501 -0.00000000000E+00 -0.00000000000E+00 -0.32786779291E+02  0.32786779291E+02  0.00000000000E+00 0.  1.
         24    2    1    2    0    0 -0.55470600044E+02  0.98276078068E+02  0.32159330945E+03  0.35078542045E+03  0.83023969622E+02 0.  0.
         23    2    1    2    0    0  0.11833464711E+03 -0.12860162467E+03  0.68472471241E+03  0.71269225678E+03  0.92416743653E+02 0.  0.
        -13    1    3    3    0    0 -0.42755606708E+02  0.10976763122E+02  0.58437412232E+02  0.73235663320E+02  0.00000000000E+00 0.  1.
         14    1    3    3    0    0 -0.12714993336E+02  0.87299314946E+02  0.26315589722E+03  0.27754975713E+03  0.00000000000E+00 0. -1.
        -11    1    4    4    0    0  0.36842039547E+02 -0.79745579334E+02  0.19554180289E+03  0.21436718494E+03  0.00000000000E+00 0.  1.
         11    1    4    4    0    0  0.81492607567E+02 -0.48856045332E+02  0.48918290952E+03  0.49832507184E+03  0.00000000000E+00 0. -1.
         21    1    1    2  502  501 -0.62864047070E+02  0.30325546599E+02  0.28528575281E+03  0.29369965602E+03  0.00000000000E+00 0. -1.
<scales pt_clust_5="13000.00000" pt_clust_6="13000.00000" pt_clust_7="13000.00000" pt_clust_8="13000.00000" pt_clust_9="69.79633"></scales>
<clustering>
<clus scale="   69.796">  1  9  2 -1</clus>
<clus scale="   83.024">  5  6 -1 -1</clus>
<clus scale="   92.417">  7  8 -1 -1</clus>
<clus scale="  156.026">  2  5  1 -1</clus>
<clus scale="   69.796">  1  5  2 -1</clus>
</clustering>
</event>
<event>
 9    2  0.3791909E-005  0.9911410E+02  0.7546771E-02  0.1288290E+00
          2   -1    0    0  502    0  0.00000000000E+00  0.00000000000E+00  0.23311163701E+03  0.23311163701E+03  0.00000000000E+00 0. -1.
         -1   -1    0    0    0  501 -0.00000000000E+00 -0.00000000000E+00 -0.16473763563E+03  0.16473763563E+03  0.00000000000E+00 0.  1.
         24    2    1    2    0    0  0.36560030498E+02  0.26202734774E+02 -0.11675576383E+03  0.14803894637E+03  0.79122702916E+02 0.  0.
         23    2    1    2    0    0  0.29247028992E+00 -0.20520542510E+02  0.42773295843E+02  0.10265136971E+03  0.91030602884E+02 0.  0.
        -11    1    3    3    0    0  0.29631655235E+02  0.10308963059E+02 -0.12497379946E+03  0.12885169872E+03  0.00000000000E+00 0.  1.
         12    1    3    3    0    0  0.69283752637E+01  0.15893771716E+02  0.82180356277E+01  0.19187247659E+02  0.00000000000E+00 0. -1.
        -13    1    4    4    0    0 -0.10168773922E+02 -0.53992972571E+02  0.39006309676E+02  0.67380540549E+02  0.00000000000E+00 0. -1.
         13    1    4    4    0    0  0.10461244212E+02  0.33472430061E+02  0.37669861670E+01  0.35270829157E+02  0.00000000000E+00 0.  1.
         21    1    1    2  502  501 -0.36852500788E+02 -0.56821922646E+01  0.14235646937E+03  0.14715895656E+03  0.00000000000E+00 0. -1.
<scales pt_clust_5="13000.00000" pt_clust_6="13000.00000" pt_clust_7="13000.00000" pt_clust_8="13000.00000" pt_clust_9="37.28799"></scales>
<clustering>
<clus scale="   37.288">  1  9  2 -1</clus>
<clus scale="   79.123">  5  6 -1 -1</clus>
<clus scale="   88.303">  2  5  1 -1</clus>
<clus scale="   91.031">  7  8 -1 -1</clus>
<clus scale="   37.288">  1  5  2 -1</clus>
</clustering>
</event>
<event>
 9    2  0.3791909E-005  0.2120599E+03  0.7546771E-02  0.1173554E+00
         -1   -1    0    0    0  501 -0.00000000000E+00  0.00000000000E+00  0.18510171479E+03  0.18510171479E+03  0.00000000000E+00 0.  1.
          2   -1    0    0  502    0  0.00000000000E+00 -0.00000000000E+00 -0.47706764711E+03  0.47706764711E+03  0.00000000000E+00 0. -1.
         23    2    1    2    0    0 -0.19452417666E+01  0.16522512892E+03 -0.14919462881E+03  0.24109581366E+03  0.92547430575E+02 0.  0.
         24    2    1    2    0    0 -0.38295869734E+02  0.32922580177E+02 -0.19028913981E+03  0.21337230501E+03  0.82263685113E+02 0.  0.
        -13    1    4    4    0    0 -0.47896425986E+02 -0.63070088036E+01 -0.60367581029E+02  0.77318114446E+02  0.00000000000E+00 0.  1.
         14    1    4    4    0    0  0.96005562513E+01  0.39229588981E+02 -0.12992155878E+03  0.13605419056E+03  0.00000000000E+00 0. -1.
        -13    1    3    3    0    0  0.25920170179E+02  0.54406022272E+02 -0.10137307896E+02  0.61111664131E+02  0.00000000000E+00 0.  1.
         13    1    3    3    0    0 -0.27865411945E+02  0.11081910665E+03 -0.13905732092E+03  0.17998414953E+03  0.00000000000E+00 0. -1.
         21    1    1    2  502  501  0.40241111501E+02 -0.19814770910E+03  0.47517836304E+02  0.20770124324E+03  0.00000000000E+00 0.  1.
<scales pt_clust_5="13000.00000" pt_clust_6="13000.00000" pt_clust_7="13000.00000" pt_clust_8="13000.00000" pt_clust_9="190.79926"></scales>
<clustering>
<clus scale="   82.264">  5  6 -1 -1</clus>
<clus scale="   92.547">  7  8 -1 -1</clus>
<clus scale="   96.529">  2  5  1 -1</clus>
<clus scale="  190.799">  1  9  2 -1</clus>
<clus scale="   96.529">  2  5  1 -1</clus>
</clustering>
</event>
<event>
 9    2  0.3791909E-005  0.1610587E+03  0.7546771E-02  0.1201708E+00
          2   -1    0    0  502    0  0.00000000000E+00  0.00000000000E+00  0.86615359117E+03  0.86615359117E+03  0.00000000000E+00 0. -1.
         -1   -1    0    0    0  501 -0.00000000000E+00 -0.00000000000E+00 -0.66552033389E+02  0.66552033389E+02  0.00000000000E+00 0.  1.
         23    2    1    2    0    0 -0.93124421581E+01 -0.74153797912E+02  0.68549026452E+02  0.13644281099E+03  0.91280689737E+02 0.  0.
         24    2    1    2    0    0 -0.12746838706E+03  0.43640666091E+01  0.25528939794E+03  0.29633265752E+03  0.79831901119E+02 0.  0.
        -13    1    4    4    0    0 -0.61948859510E+02  0.39614947431E+02  0.99841696842E+02  0.12399745837E+03  0.00000000000E+00 0.  1.
         14    1    4    4    0    0 -0.65519527548E+02 -0.35250880822E+02  0.15544770109E+03  0.17233519914E+03  0.00000000000E+00 0. -1.
        -11    1    3    3    0    0  0.30359796316E+02 -0.26046347145E+02 -0.46660679103E+01  0.40272839752E+02  0.00000000000E+00 0.  1.
         11    1    3    3    0    0 -0.39672238474E+02 -0.48107450766E+02  0.73215094363E+02  0.96169971235E+02  0.00000000000E+00 0. -1.
         21    1    1    2  502  501  0.13678082922E+03  0.69789731302E+02  0.47576313339E+03  0.49993015605E+03  0.00000000000E+00 0.  1.
<scales pt_clust_5="13000.00000" pt_clust_6="13000.00000" pt_clust_7="13000.00000" pt_clust_8="13000.00000" pt_clust_9="139.88129"></scales>
<clustering>
<clus scale="   79.832">  5  6 -1 -1</clus>
<clus scale="   91.281">  7  8 -1 -1</clus>
<clus scale="  117.973">  2  7  1 -1</clus>
<clus scale="  139.881">  1  9  2 -1</clus>
<clus scale="  139.881">  1  5  2 -1</clus>
</clustering>
</event>
<event>
 9    2  0.3791909E-005  0.1127938E+03  0.7546771E-02  0.1258745E+00
          2   -1    0    0  502    0  0.00000000000E+00  0.00000000000E+00  0.62011967781E+03  0.62011967781E+03  0.00000000000E+00 0. -1.
         -1   -1    0    0    0  501 -0.00000000000E+00 -0.00000000000E+00 -0.25670010898E+02  0.25670010898E+02  0.00000000000E+00 0.  1.
         23    2    1    2    0    0 -0.73854950155E+02  0.12396031688E+02  0.21832973109E+03  0.24755327290E+03  0.89479250019E+02 0.  0.
         24    2    1    2    0    0  0.62752759007E+02  0.66236100232E+01  0.24808623030E+03  0.26832246286E+03  0.80426273312E+02 0.  0.
        -11    1    4    4    0    0  0.49216370245E+02 -0.19647627392E+02  0.69979612043E+02  0.87780558576E+02  0.00000000000E+00 0.  1.
         12    1    4    4    0    0  0.13536388762E+02  0.26271237416E+02  0.17810661825E+03  0.18054190428E+03  0.00000000000E+00 0. -1.
        -13    1    3    3    0    0 -0.48066204334E+01 -0.25172052974E+02  0.11445108052E+03  0.11728506164E+03  0.00000000000E+00 0. -1.
         13    1    3    3    0    0 -0.69048329722E+02  0.37568084662E+02  0.10387865057E+03  0.13026821126E+03  0.00000000000E+00 0.  1.
         21    1    1    2  502  501  0.11102191148E+02 -0.19019641711E+02  0.12803370553E+03  0.12991395295E+03  0.00000000000E+00 0.  1.
<scales pt_clust_5="13000.00000" pt_clust_6="13000.00000" pt_clust_7="13000.00000" pt_clust_8="13000.00000" pt_clust_9="22.02284"></scales>
<clustering>
<clus scale="   22.023">  1  9  2 -1</clus>
<clus scale="   80.426">  5  6 -1 -1</clus>
<clus scale="   89.479">  7  8 -1 -1</clus>
<clus scale="  105.756">  1  5  2 -1</clus>
<clus scale="   22.023">  1  5  2 -1</clus>
</clustering>
</event>
<event>
 9    2  0.3791909E-005  0.1269532E+03  0.7546771E-02  0.1234131E+00
         -1   -1    0    0    0  501 -0.00000000000E+00  0.00000000000E+00  0.32951803369E+03  0.32951803369E+03  0.00000000000E+00 0.  1.
          2   -1    0    0  502    0  0.00000000000E+00 -0.00000000000E+00 -0.10979557254E+03  0.10979557254E+03  0.00000000000E+00 0. -1.
         23    2    1    2    0    0 -0.49090018429E+02  0.88022508290E+02  0.19094672509E+03  0.23411092881E+03  0.90495763921E+02 0.  0.
         24    2    1    2    0    0  0.73135406912E+02 -0.34910690213E+02  0.68515921602E+02  0.13464540796E+03  0.82869839722E+02 0.  0.
        -11    1    4    4    0    0  0.55850866530E+02  0.18588594350E+02  0.27021342809E+02  0.64768882183E+02  0.00000000000E+00 0.  1.
         12    1    4    4    0    0  0.17284540382E+02 -0.53499284564E+02  0.41494578793E+02  0.69876525774E+02  0.00000000000E+00 0. -1.
        -13    1    3    3    0    0 -0.49293402256E+02  0.36798579334E+02  0.16620716464E+03  0.17722527056E+03  0.00000000000E+00 0.  1.
         13    1    3    3    0    0  0.20338382620E+00  0.51223928956E+02  0.24739560450E+02  0.56885658245E+02  0.00000000000E+00 0. -1.
         21    1    1    2  502  501 -0.24045388482E+02 -0.53111818077E+02 -0.39740185543E+02  0.70557269460E+02  0.00000000000E+00 0. -1.
<scales pt_clust_5="13000.00000" pt_clust_6="13000.00000" pt_clust_7="13000.00000" pt_clust_8="13000.00000" pt_clust_9="58.30134"></scales>
<clustering>
<clus scale="   58.301">  2  9  1 -1</clus>
<clus scale="   82.870">  5  6 -1 -1</clus>
<clus scale="   90.496">  7  8 -1 -1</clus>
<clus scale="  121.635">  2  5  1 -1</clus>
<clus scale="   58.301">  2  5  1 -1</clus>
</clustering>
</event>
<event>
 9    2  0.3791909E-005  0.1041525E+03  0.7546771E-02  0.1275543E+00
          2   -1    0    0  502    0  0.00000000000E+00  0.00000000000E+00  0.47943424870E+03  0.47943424870E+03  0.00000000000E+00 0. -1.
         -1   -1    0    0    0  501 -0.00000000000E+00 -0.00000000000E+00 -0.24817477943E+03  0.24817477943E+03  0.00000000000E+00 0.  1.
         23    2    1    2    0    0 -0.25887279523E+02  0.47476451033E+02 -0.21919628908E+03  0.24362124549E+03  0.91543068888E+02 0.  0.
         24    2    1    2    0    0  0.17750227702E+02  0.33087847704E+02  0.18247908821E+03  0.20404437124E+03  0.83220259275E+02 0.  0.
        -13    1    4    4    0    0 -0.17919248610E+01  0.36151814704E+02  0.22014405625E+02  0.42365065280E+02  0.00000000000E+00 0.  1.
         14    1    4    4    0    0  0.19542152563E+02 -0.30639670007E+01  0.16046468258E+03  0.16167930596E+03  0.00000000000E+00 0. -1.
        -11    1    3    3    0    0 -0.24503960814E+02  0.74176873225E+02 -0.17948222109E+03  0.19574606076E+03  0.00000000000E+00 0.  1.
         11    1    3    3    0    0 -0.13833187087E+01 -0.26700422192E+02 -0.39714067997E+02  0.47875184728E+02  0.00000000000E+00 0. -1.
         21    1    1    2  502  501  0.81370518213E+01 -0.80564298737E+02  0.26797667015E+03  0.27994341140E+03  0.00000000000E+00 0. -1.
<scales pt_clust_5="13000.00000" pt_clust_6="13000.00000" pt_clust_7="13000.00000" pt_clust_8="13000.00000" pt_clust_9="80.97418"></scales>
<clustering>
<clus scale="   80.974">  1  9  2 -1</clus>
<clus scale="   83.220">  5  6 -1 -1</clus>
<clus scale="   91.543">  7  8 -1 -1</clus>
<clus scale="   96.919">  1  5  2 -1</clus>
<clus scale="   80.974">  1  5  2 -1</clus>
</clustering>
</event>
<event>
 9    2  0.3791909E-005  0.1166714E+03  0.7546771E-02  0.1256174E+00
         -1   -1    0    0    0  501 -0.00000000000E+00  0.00000000000E+00  0.25217078655E+03  0.25217078655E+03  0.00000000000E+00 0.  1.
          2   -1    0    0  502    0  0.00000000000E+00 -0.00000000000E+00 -0.61092114150E+02  0.61092114150E+02  0.00000000000E+00 0. -1.
         24    2    1    2    0    0  0.23444196894E+02  0.62376395734E+02  0.12352651071E+03  0.16149207215E+03  0.79877690306E+02 0.  0.
         23    2    1    2    0    0 -0.32376941095E+02 -0.40939074466E+02  0.51516154384E+02  0.12354838725E+03  0.99428445112E+02 0.  0.
        -13    1    3    3    0    0  0.43924339677E+02  0.64117298274E+02  0.11594636671E+03  0.13958486847E+03  0.00000000000E+00 0.  1.
         14    1    3    3    0    0 -0.20480142783E+02 -0.17409025402E+01  0.75801439992E+01  0.21907203681E+02  0.00000000000E+00 0. -1.
        -13    1    4    4    0    0 -0.27736387216E+02 -0.15288521076E+02  0.79336357351E+02  0.85424256802E+02  0.00000000000E+00 0.  1.
         13    1    4    4    0    0 -0.46405538793E+01 -0.25650553390E+02 -0.27820202967E+02  0.38124130451E+02  0.00000000000E+00 0. -1.
         21    1    1    2  502  501  0.89327442014E+01 -0.21437321268E+02  0.16036007312E+02  0.28222441294E+02  0.00000000000E+00 0. -1.
<scales pt_clust_5="13000.00000" pt_clust_6="13000.00000" pt_clust_7="13000.00000" pt_clust_8="13000.00000" pt_clust_9="23.22397"></scales>
<clustering>
<clus scale="   23.224">  2  9  1 -1</clus>
<clus scale="   79.878">  5  6 -1 -1</clus>
<clus scale="   99.428">  7  8 -1 -1</clus>
<clus scale="  100.532">  1  5  2 -1</clus>
<clus scale="   23.224">  2  5  1 -1</clus>
</clustering>
</event>
<event>
 9    2  0.3791909E-005  0.1076701E+03  0.7546771E-02  0.1272085E+00
         -1   -1    0    0    0  501 -0.00000000000E+00  0.00000000000E+00  0.15736554971E+03  0.15736554971E+03  0.00000000000E+00 0.  1.
          2   -1    0    0  502    0  0.00000000000E+00 -0.00000000000E+00 -0.46719545588E+03  0.46719545588E+03  0.00000000000E+00 0. -1.
         23    2    1    2    0    0  0.47644600734E+02 -0.71459646092E+01  0.12583441379E+03  0.16581760172E+03  0.96644216362E+02 0.  0.
         24    2    1    2    0    0 -0.39995078015E+02 -0.36191267760E+02 -0.33644112909E+03  0.35019906955E+03  0.80853823908E+02 0.  0.
        -11    1    4    4    0    0  0.16720018357E+02 -0.11487173957E+02 -0.22811549866E+02  0.30526725777E+02  0.00000000000E+00 0.  1.
         12    1    4    4    0    0 -0.56715096371E+02 -0.24704093803E+02 -0.31362957923E+03  0.31967234377E+03  0.00000000000E+00 0. -1.
        -13    1    3    3    0    0  0.38250745396E+02 -0.43099693051E+02  0.34380834410E+02  0.67102495029E+02  0.00000000000E+00 0. -1.
         13    1    3    3    0    0  0.93938553381E+01  0.35953728442E+02  0.91453579384E+02  0.98715106691E+02  0.00000000000E+00 0.  1.
         21    1    1    2  502  501 -0.76495227195E+01  0.43337232369E+02 -0.99223190870E+02  0.10854433432E+03  0.00000000000E+00 0. -1.
<scales pt_clust_5="13000.00000" pt_clust_6="13000.00000" pt_clust_7="13000.00000" pt_clust_8="13000.00000" pt_clust_9="44.00717"></scales>
<clustering>
<clus scale="   44.007">  2  9  1 -1</clus>
<clus scale="   80.854">  5  6 -1 -1</clus>
<clus scale="   93.755">  2  5  1 -1</clus>
<clus scale="   96.644">  7  8 -1 -1</clus>
<clus scale="   44.007">  2  5  1 -1</clus>
</clustering>
</event>
<event>
 9    2  0.3791909E-005  0.9010924E+02  0.7546771E-02  0.1310814E+00
         -1   -1    0    0    0  501 -0.00000000000E+00  0.00000000000E+00  0.55000521434E+03  0.55000521434E+03  0.00000000000E+00 0.  1.
          2   -1    0    0  502    0  0.00000000000E+00 -0.00000000000E+00 -0.24807213413E+02  0.24807213413E+02  0.00000000000E+00 0. -1.
         24    2    1    2    0    0 -0.99159130687E+01  0.26583971132E+02  0.31216710013E+03  0.32284882043E+03  0.77317718506E+02 0.  0.
         23    2    1    2    0    0 -0.11425395522E+02  0.66617699485E+01  0.11716695166E+03  0.14827837455E+03  0.89908080590E+02 0.  0.
        -13    1    3    3    0    0 -0.41873815558E+02  0.26872571204E+02  0.20923511958E+03  0.21506949290E+03  0.00000000000E+00 0.  1.
         14    1    3    3    0    0  0.31957902489E+02 -0.28860007213E+00  0.10293198055E+03  0.10777932753E+03  0.00000000000E+00 0. -1.
        -11    1    4    4    0    0 -0.26375340324E+02  0.35031862337E+02  0.10533348804E+03  0.11409659792E+03  0.00000000000E+00 0.  1.
         11    1    4    4    0    0  0.14949944802E+02 -0.28370092388E+02  0.11833463623E+02  0.34181776622E+02  0.00000000000E+00 0. -1.
         21    1    1    2  502  501  0.21341308590E+02 -0.33245741080E+02  0.95863949135E+02  0.10368523278E+03  0.00000000000E+00 0. -1.
<scales pt_clust_5="13000.00000" pt_clust_6="13000.00000" pt_clust_7="13000.00000" pt_clust_8="13000.00000" pt_clust_9="39.50609"></scales>
<clustering>
<clus scale="   39.506">  1  9  2 -1</clus>
<clus scale="   77.318">  5  6 -1 -1</clus>
<clus scale="   77.552">  1  5  2 -1</clus>
<clus scale="   89.908">  7  8 -1 -1</clus>
<clus scale="   90.109">  2  5  1 -1</clus>
</clustering>
</event>
<event>
 9    2  0.3791909E-005  0.9901751E+02  0.7546771E-02  0.1289498E+00
         -1   -1    0    0    0  501 -0.00000000000E+00  0.00000000000E+00  0.98556541971E+02  0.98556541971E+02  0.00000000000E+00 0.  1.
          2   -1    0    0  502    0  0.00000000000E+00 -0.00000000000E+00 -0.24334584198E+03  0.24334584198E+03  0.00000000000E+00 0. -1.
         24    2    1    2    0    0  0.27524394867E+02  0.21841410537E+02  0.46572842309E+02  0.97979103045E+02  0.78716170294E+02 0.  0.
         23    2    1    2    0    0 -0.51620584780E+02  0.51724837642E+01 -0.99749921310E+02  0.14541858106E+03  0.92222977370E+02 0.  0.
        -11    1    3    3    0    0  0.22952726485E+02  0.38347404904E+02  0.60976099312E+02  0.75600501342E+02  0.00000000000E+00 0.  1.
         12    1    3    3    0    0  0.45716683821E+01 -0.16505994367E+02 -0.14403257003E+02  0.22378601702E+02  0.00000000000E+00 0. -1.
        -13    1    4    4    0    0 -0.28802480587E+02  0.13731221591E+02 -0.11318052744E+03  0.11759235147E+03  0.00000000000E+00 0. -1.
         13    1    4    4    0    0 -0.22818104193E+02 -0.85587378268E+01  0.13430606126E+02  0.27826229587E+02  0.00000000000E+00 0.  1.
         21    1    1    2  502  501  0.24096189913E+02 -0.27013894301E+02 -0.91612221010E+02  0.98504699848E+02  0.00000000000E+00 0.  1.
<scales pt_clust_5="13000.00000" pt_clust_6="13000.00000" pt_clust_7="13000.00000" pt_clust_8="13000.00000" pt_clust_9="36.19913"></scales>
<clustering>
<clus scale="   36.199">  2  9  1 -1</clus>
<clus scale="   78.716">  5  6 -1 -1</clus>
<clus scale="   86.577">  1  5  2 -1</clus>
<clus scale="   92.223">  7  8 -1 -1</clus>
<clus scale="   36.199">  2  5  1 -1</clus>
</clustering>
</event>
<event>
 9    2  0.3791909E-005  0.1563873E+03  0.7546771E-02  0.1194829E+00
         -1   -1    0    0    0  501 -0.00000000000E+00  0.00000000000E+00  0.81760923348E+02  0.81760923348E+02  0.00000000000E+00 0.  1.
          2   -1    0    0  502    0  0.00000000000E+00 -0.00000000000E+00 -0.47039330933E+03  0.47039330933E+03  0.00000000000E+00 0. -1.
         24    2    1    2    0    0 -0.79697985724E+02  0.10676781125E+03 -0.39361531798E+02  0.16010991707E+03  0.79590959985E+02 0.  0.
         23    2    1    2    0    0  0.78978871705E+02 -0.77341968480E+02 -0.24756450812E+03  0.28616429777E+03  0.91555324110E+02 0.  0.
        -13    1    3    3    0    0 -0.86315448627E+02  0.56417651479E+02 -0.35978157400E+02  0.10921417435E+03  0.00000000000E+00 0.  1.
         14    1    3    3    0    0  0.66174629034E+01  0.50350159772E+02 -0.33833743986E+01  0.50895742716E+02  0.00000000000E+00 0. -1.
        -13    1    4    4    0    0  0.47994000575E+01 -0.36661242692E+02 -0.17244747987E+02  0.40797822120E+02  0.00000000000E+00 0.  1.
         13    1    4    4    0    0  0.74179471648E+02 -0.40680725788E+02 -0.23031976013E+03  0.24536647565E+03  0.00000000000E+00 0. -1.
         21    1    1    2  502  501  0.71911401880E+00 -0.29425842770E+02 -0.10170634606E+03  0.10588001784E+03  0.00000000000E+00 0. -1.
<scales pt_clust_5="13000.00000" pt_clust_6="13000.00000" pt_clust_7="13000.00000" pt_clust_8="13000.00000" pt_clust_9="29.43463"></scales>
<clustering>
<clus scale="   29.435">  2  9  1 -1</clus>
<clus scale="   79.591">  5  6 -1 -1</clus>
<clus scale="   91.555">  7  8 -1 -1</clus>
<clus scale="  149.698">  1  5  2 -1</clus>
<clus scale="   29.435">  2  5  1 -1</clus>
</clustering>
</event>
<event>
 9    2  0.3791909E-005  0.1041812E+03  0.7546771E-02  0.1279676E+00
          4   -1    0    0  502    0  0.00000000000E+00  0.00000000000E+00  0.86536177117E+02  0.86536177117E+02  0.00000000000E+00 0. -1.
         -3   -1    0    0    0  501 -0.00000000000E+00 -0.00000000000E+00 -0.40377012624E+03  0.40377012624E+03  0.00000000000E+00 0.  1.
         24    2    1    2    0    0 -0.37651385097E+02  0.39461086186E+02 -0.32002135071E+03  0.33334472941E+03  0.75698346034E+02 0.  0.
         23    2    1    2    0    0 -0.27293901395E+01 -0.19942050426E+02 -0.32186098875E+02  0.10008675087E+03  0.92608195062E+02 0.  0.
        -13    1    3    3    0    0  0.29397778687E+00  0.52172153040E+02 -0.15519329351E+03  0.16372836750E+03  0.00000000000E+00 0.  1.
         14    1    3    3    0    0 -0.37945362884E+02 -0.12711066854E+02 -0.16482805721E+03  0.16961636191E+03  0.00000000000E+00 0. -1.
        -13    1    4    4    0    0 -0.25642062314E+02  0.97833173513E+01 -0.51141544239E+02  0.58040384262E+02  0.00000000000E+00 0.  1.
         13    1    4    4    0    0  0.22912672175E+02 -0.29725367777E+02  0.18955445365E+02  0.42046366605E+02  0.00000000000E+00 0. -1.
         21    1    1    2  502  501  0.40380775237E+02 -0.19519035760E+02  0.34973500463E+02  0.56874823080E+02  0.00000000000E+00 0. -1.
<scales pt_clust_5="13000.00000" pt_clust_6="13000.00000" pt_clust_7="13000.00000" pt_clust_8="13000.00000" pt_clust_9="44.85086"></scales>
<clustering>
<clus scale="   44.851">  1  9  2 -1</clus>
<clus scale="   75.698">  5  6 -1 -1</clus>
<clus scale="   89.486">  2  5  1 -1</clus>
<clus scale="   92.608">  7  8 -1 -1</clus>
<clus scale="   44.851">  1  5  2 -1</clus>
</clustering>
</event>
<event>
 9    2  0.3791909E-005  0.9400421E+02  0.7546771E-02  0.1296768E+00
          2   -1    0    0  502    0  0.00000000000E+00  0.00000000000E+00  0.31232002607E+03  0.31232002607E+03  0.00000000000E+00 0. -1.
         -1   -1    0    0    0  501 -0.00000000000E+00 -0.00000000000E+00 -0.95734197061E+02  0.95734197061E+02  0.00000000000E+00 0.  1.
         24    2    1    2    0    0 -0.14169003009E+02 -0.46849843637E+02 -0.39995665455E+02  0.10284457161E+03  0.81127579521E+02 0.  0.
         23    2    1    2    0    0 -0.16911996631E+02 -0.95536086199E+01  0.91029188335E+02  0.12757253820E+03  0.87241918286E+02 0.  0.
        -13    1    3    3    0    0  0.11763624696E+02 -0.62066831666E+02 -0.18307189003E+02  0.65771024230E+02  0.00000000000E+00 0.  1.
         14    1    3    3    0    0 -0.25932627705E+02  0.15216988029E+02 -0.21688476451E+02  0.37073547377E+02  0.00000000000E+00 0. -1.
        -11    1    4    4    0    0 -0.94469808665E+01 -0.40760348355E+02  0.85256652716E+02  0.94970249436E+02  0.00000000000E+00 0.  1.
         11    1    4    4    0    0 -0.74650157646E+01  0.31206739735E+02  0.57725356185E+01  0.32602288765E+02  0.00000000000E+00 0. -1.
         21    1    1    2  502  501  0.31080999640E+02  0.56403452257E+02  0.16555230613E+03  0.17763711332E+03  0.00000000000E+00 0. -1.
<scales pt_clust_5="13000.00000" pt_clust_6="13000.00000" pt_clust_7="13000.00000" pt_clust_8="13000.00000" pt_clust_9="64.40014"></scales>
<clustering>
<clus scale="   64.400">  1  9  2 -1</clus>
<clus scale="   81.128">  5  6 -1 -1</clus>
<clus scale="   87.242">  7  8 -1 -1</clus>
<clus scale="   88.359">  2  5  1 -1</clus>
<clus scale="   64.400">  1  5  2 -1</clus>
</clustering>
</event>
<event>
 9    2  0.3791909E-005  0.1154134E+03  0.7546771E-02  0.1254746E+00
          2   -1    0    0  502    0  0.00000000000E+00  0.00000000000E+00  0.98226372942E+02  0.98226372942E+02  0.00000000000E+00 0. -1.
         -1   -1    0    0    0  501 -0.00000000000E+00 -0.00000000000E+00 -0.15848452799E+03  0.15848452799E+03  0.00000000000E+00 0.  1.
         24    2    1    2    0    0  0.27373211338E+02  0.55125216857E+02 -0.24867624946E+02  0.10323193884E+03  0.79059168936E+02 0.  0.
         23    2    1    2    0    0 -0.27041703471E+02 -0.80351541647E+02 -0.32629890436E+02  0.12809986654E+03  0.90317451723E+02 0.  0.
        -13    1    3    3    0    0 -0.11724092368E+02  0.39049550776E+02 -0.41153217919E+02  0.57930208896E+02  0.00000000000E+00 0.  1.
         14    1    3    3    0    0  0.39097303706E+02  0.16075666081E+02  0.16285592973E+02  0.45301729940E+02  0.00000000000E+00 0. -1.
        -13    1    4    4    0    0 -0.32598349019E+02 -0.12024372010E+02 -0.46610701959E+02  0.58136007931E+02  0.00000000000E+00 0.  1.
         13    1    4    4    0    0  0.55566455479E+01 -0.68327169637E+02  0.13980811524E+02  0.69963858608E+02  0.00000000000E+00 0. -1.
         21    1    1    2  502  501 -0.33150786638E+00  0.25226324790E+02 -0.27606396660E+01  0.25379095556E+02  0.00000000000E+00 0.  1.
<scales pt_clust_5="13000.00000" pt_clust_6="13000.00000" pt_clust_7="13000.00000" pt_clust_8="13000.00000" pt_clust_9="25.22850"></scales>
<clustering>
<clus scale="   25.229">  1  9  2 -1</clus>
<clus scale="   79.059">  5  6 -1 -1</clus>
<clus scale="   90.317">  7  8 -1 -1</clus>
<clus scale="  106.833">  2  5  1 -1</clus>
<clus scale="   25.229">  1  5  2 -1</clus>
</clustering>
</event>
<event>
 9    2  0.3791909E-005  0.1949616E+03  0.7546771E-02  0.1169561E+00
          2   -1    0    0  502    0  0.00000000000E+00  0.00000000000E+00  0.93255425308E+03  0.93255425308E+03  0.00000000000E+00 0. -1.
         -1   -1    0    0    0  501 -0.00000000000E+00 -0.00000000000E+00 -0.29664152741E+03  0.29664152741E+03  0.00000000000E+00 0.  1.
         24    2    1    2    0    0  0.28438958814E+02 -0.17492678474E+03 -0.22656757068E+03  0.29842669081E+03  0.79482522015E+02 0.  0.
         23    2    1    2    0    0  0.10163094356E+03  0.57412953395E+01  0.35964547559E+03  0.38452302216E+03  0.90284413362E+02 0.  0.
        -11    1    3    3    0    0  0.23551455676E+02 -0.18248870373E+03 -0.20744802964E+03  0.27729313561E+03  0.00000000000E+00 0.  1.
         12    1    3    3    0    0  0.48875031377E+01  0.75619189945E+01 -0.19119541036E+02  0.21133555196E+02  0.00000000000E+00 0. -1.
        -13    1    4    4    0    0  0.72455995395E+02  0.34979767527E+02  0.30830127041E+03  0.31862694290E+03  0.00000000000E+00 0. -1.
         13    1    4    4    0    0  0.29174948160E+02 -0.29238472187E+02  0.51344205183E+02  0.65896079260E+02  0.00000000000E+00 0.  1.
         21    1    1    2  502  501 -0.13006990237E+03  0.16918548940E+03  0.50283482075E+03  0.54624606752E+03  0.00000000000E+00 0. -1.
<scales pt_clust_5="13000.00000" pt_clust_6="13000.00000" pt_clust_7="13000.00000" pt_clust_8="13000.00000" pt_clust_9="178.02399"></scales>
<clustering>
<clus scale="   79.483">  5  6 -1 -1</clus>
<clus scale="   90.284">  7  8 -1 -1</clus>
<clus scale="  136.063">  1  7  2 -1</clus>
<clus scale="  178.024">  1  9  2 -1</clus>
<clus scale="  136.063">  1  5  2 -1</clus>
</clustering>
</event>
<event>
 9    2  0.3791909E-005  0.1052767E+03  0.7546771E-02  0.1275756E+00
          4   -1    0    0  502    0  0.00000000000E+00  0.00000000000E+00  0.57190102624E+02  0.57190102624E+02  0.00000000000E+00 0. -1.
         -3   -1    0    0    0  501 -0.00000000000E+00 -0.00000000000E+00 -0.41936765464E+03  0.41936765464E+03  0.00000000000E+00 0.  1.
         23    2    1    2    0    0  0.23935947369E+02  0.47520087493E+02 -0.32136518994E+03  0.33806125005E+03  0.90436359879E+02 0.  0.
         24    2    1    2    0    0 -0.48789045331E+02 -0.38644855057E+02 -0.11704193361E+02  0.99206155792E+02  0.76361491853E+02 0.  0.
        -13    1    4    4    0    0 -0.25010110321E+02 -0.18482756168E+02 -0.44284163823E+02  0.54112891803E+02  0.00000000000E+00 0.  1.
         14    1    4    4    0    0 -0.23778935010E+02 -0.20162098889E+02  0.32579970462E+02  0.45093263988E+02  0.00000000000E+00 0. -1.
        -13    1    3    3    0    0 -0.31393860720E+02  0.32778508356E+01 -0.13612195240E+03  0.13973369215E+03  0.00000000000E+00 0. -1.
         13    1    3    3    0    0  0.55329808089E+02  0.44242236657E+02 -0.18524323754E+03  0.19832755789E+03  0.00000000000E+00 0.  1.
         21    1    1    2  502  501  0.24853097962E+02 -0.88752324358E+01 -0.29108168723E+02  0.39290351430E+02  0.00000000000E+00 0. -1.
<scales pt_clust_5="13000.00000" pt_clust_6="13000.00000" pt_clust_7="13000.00000" pt_clust_8="13000.00000" pt_clust_9="26.39027"></scales>
<clustering>
<clus scale="   26.390">  1  9  2 -1</clus>
<clus scale="   76.361">  5  6 -1 -1</clus>
<clus scale="   90.436">  7  8 -1 -1</clus>
<clus scale="   93.464">  1  5  2 -1</clus>
<clus scale="   26.390">  1  5  2 -1</clus>
</clustering>
</event>
<event>
 9    2  0.3791909E-005  0.1659647E+03  0.7546771E-02  0.1183791E+00
          2   -1    0    0  502    0  0.00000000000E+00  0.00000000000E+00  0.56703155064E+03  0.56703155064E+03  0.00000000000E+00 0. -1.
         -1   -1    0    0    0  501 -0.00000000000E+00 -0.00000000000E+00 -0.10871248676E+03  0.10871248676E+03  0.00000000000E+00 0.  1.
         23    2    1    2    0    0  0.13467571244E+03  0.76008837653E+02  0.23788548122E+02  0.18091917699E+03  0.90834809737E+02 0.  0.
         24    2    1    2    0    0 -0.10618254053E+03 -0.40796946131E+02  0.14061497569E+03  0.19743944911E+03  0.79187385052E+02 0.  0.
        -11    1    4    4    0    0 -0.95230631305E+02 -0.54515472791E+02  0.84073992351E+02  0.13823619679E+03  0.00000000000E+00 0.  1.
         12    1    4    4    0    0 -0.10951909227E+02  0.13718526660E+02  0.56540983334E+02  0.59203252325E+02  0.00000000000E+00 0. -1.
        -13    1    3    3    0    0  0.51688173358E+02 -0.15645001889E+02  0.18778209666E+02  0.57175646104E+02  0.00000000000E+00 0.  1.
         13    1    3    3    0    0  0.82987539080E+02  0.91653839542E+02  0.50103384564E+01  0.12374353089E+03  0.00000000000E+00 0. -1.
         21    1    1    2  502  501 -0.28493171906E+02 -0.35211891523E+02  0.29391554008E+03  0.29738541129E+03  0.00000000000E+00 0.  1.
<scales pt_clust_5="13000.00000" pt_clust_6="13000.00000" pt_clust_7="13000.00000" pt_clust_8="13000.00000" pt_clust_9="45.29612"></scales>
<clustering>
<clus scale="   45.296">  1  9  2 -1</clus>
<clus scale="   79.187">  5  6 -1 -1</clus>
<clus scale="   90.835">  7  8 -1 -1</clus>
<clus scale="  159.887">  1  5  2 -1</clus>
<clus scale="   45.296">  1  5  2 -1</clus>
</clustering>
</event>
<event>
 9    2  0.3791909E-005  0.1393726E+03  0.7546771E-02  0.1231507E+00
          4   -1    0    0  502    0  0.00000000000E+00  0.00000000000E+00  0.83195680780E+03  0.83195680780E+03  0.00000000000E+00 0. -1.
         -3   -1    0    0    0  501 -0.00000000000E+00 -0.00000000000E+00 -0.16142282807E+03  0.16142282807E+03  0.00000000000E+00 0.  1.
         23    2    1    2    0    0  0.29951513464E+02  0.13209087821E+02 -0.11307740776E+03  0.14899737967E+03  0.91335348265E+02 0.  0.
         24    2    1    2    0    0  0.15240178282E+02 -0.11714203522E+03  0.17884687855E+03  0.22909008348E+03  0.80879793108E+02 0.  0.
        -11    1    4    4    0    0  0.39522136757E+02 -0.87947320112E+02  0.87654376708E+02  0.13030740641E+03  0.00000000000E+00 0.  1.
         12    1    4    4    0    0 -0.24281958475E+02 -0.29194715103E+02  0.91192501838E+02  0.98782677068E+02  0.00000000000E+00 0. -1.
        -11    1    3    3    0    0  0.44526150703E+02  0.33879776073E+02 -0.32857485762E+02  0.64884757022E+02  0.00000000000E+00 0.  1.
         11    1    3    3    0    0 -0.14574637239E+02 -0.20670688252E+02 -0.80219921994E+02  0.84112622644E+02  0.00000000000E+00 0. -1.
         21    1    1    2  502  501 -0.45191691746E+02  0.10393294739E+03  0.60476450894E+03  0.61529217273E+03  0.00000000000E+00 0. -1.
<scales pt_clust_5="13000.00000" pt_clust_6="13000.00000" pt_clust_7="13000.00000" pt_clust_8="13000.00000" pt_clust_9="113.50415"></scales>
<clustering>
<clus scale="   80.880">  5  6 -1 -1</clus>
<clus scale="   91.335">  7  8 -1 -1</clus>
<clus scale="   97.024">  2  7  1 -1</clus>
<clus scale="  113.504">  1  9  2 -1</clus>
<clus scale="  113.504">  1  5  2 -1</clus>
</clustering>
</event>
<event>
 9    2  0.3791909E-005  0.9936417E+02  0.7546771E-02  0.1288773E+00
         -1   -1    0    0    0  501 -0.00000000000E+00  0.00000000000E+00  0.13580017265E+03  0.13580017265E+03  0.00000000000E+00 0.  1.
          2   -1    0    0  502    0  0.00000000000E+00 -0.00000000000E+00 -0.22372662506E+03  0.22372662506E+03  0.00000000000E+00 0. -1.
         23    2    1    2    0    0 -0.19233204101E+02 -0.13215118821E+02  0.84426083021E+02  0.12897069132E+03  0.94663193584E+02 0.  0.
         24    2    1    2    0    0  0.57078660711E+02  0.34543838950E+02 -0.94793097807E+02  0.14165920401E+03  0.81426951125E+02 0.  0.
        -11    1    4    4    0    0  0.24236514320E+02  0.57397496014E+02 -0.40870873387E+02  0.74513820641E+02  0.00000000000E+00 0.  1.
         12    1    4    4    0    0  0.32842146391E+02 -0.22853657064E+02 -0.53922224419E+02  0.67145383364E+02  0.00000000000E+00 0. -1.
        -13    1    3    3    0    0 -0.19741791630E+02 -0.43325782506E+02  0.99551857234E+01  0.48641211841E+02  0.00000000000E+00 0. -1.
         13    1    3    3    0    0  0.50858752909E+00  0.30110663686E+02  0.74470897297E+02  0.80329479477E+02  0.00000000000E+00 0.  1.
         21    1    1    2  502  501 -0.37845456610E+02 -0.21328720130E+02 -0.77559437629E+02  0.88896902386E+02  0.00000000000E+00 0. -1.
<scales pt_clust_5="13000.00000" pt_clust_6="13000.00000" pt_clust_7="13000.00000" pt_clust_8="13000.00000" pt_clust_9="43.44183"></scales>
<clustering>
<clus scale="   43.442">  2  9  1 -1</clus>
<clus scale="   81.427">  5  6 -1 -1</clus>
<clus scale="   86.847">  2  5  1 -1</clus>
<clus scale="   94.663">  7  8 -1 -1</clus>
<clus scale="   43.442">  2  5  1 -1</clus>
</clustering>
</event>
<event>
 9    2  0.3791909E-005  0.1185510E+03  0.7546771E-02  0.1251021E+00
          2   -1    0    0  502    0  0.00000000000E+00  0.00000000000E+00  0.11196600922E+03  0.11196600922E+03  0.00000000000E+00 0. -1.
         -1   -1    0    0    0  501 -0.00000000000E+00 -0.00000000000E+00 -0.14450227931E+03  0.14450227931E+03  0.00000000000E+00 0.  1.
         23    2    1    2    0    0 -0.19527559753E+02  0.84282277110E+02 -0.54403794175E+02  0.13578531901E+03  0.89403871362E+02 0.  0.
         24    2    1    2    0    0  0.12433173492E+02 -0.64192167358E+02  0.18348271523E+02  0.99088341367E+02  0.72156927413E+02 0.  0.
        -13    1    4    4    0    0  0.36777326917E+02 -0.42653541028E+02 -0.84642900465E+01  0.56952089895E+02  0.00000000000E+00 0.  1.
         14    1    4    4    0    0 -0.24344153425E+02 -0.21538626330E+02  0.26812561569E+02  0.42136251471E+02  0.00000000000E+00 0. -1.
        -11    1    3    3    0    0 -0.45661194009E+02  0.81610129493E+02 -0.25929125829E+02  0.97043688308E+02  0.00000000000E+00 0. -1.
         11    1    3    3    0    0  0.26133634256E+02  0.26721476165E+01 -0.28474668347E+02  0.38741630706E+02  0.00000000000E+00 0.  1.
         21    1    1    2  502  501  0.70943862604E+01 -0.20090109751E+02  0.35192525633E+01  0.21594628148E+02  0.00000000000E+00 0. -1.
<scales pt_clust_5="13000.00000" pt_clust_6="13000.00000" pt_clust_7="13000.00000" pt_clust_8="13000.00000" pt_clust_9="21.30593"></scales>
<clustering>
<clus scale="   21.306">  1  9  2 -1</clus>
<clus scale="   72.157">  5  6 -1 -1</clus>
<clus scale="   89.404">  7  8 -1 -1</clus>
<clus scale="  106.150">  1  5  2 -1</clus>
<clus scale="   21.306">  1  5  2 -1</clus>
</clustering>
</event>
<event>
 9    2  0.4546576E-005  0.2588358E+03  0.7546771E-02  0.1108393E+00
          4   -1    0    0  502    0  0.00000000000E+00  0.00000000000E+00  0.39332355216E+03  0.39332355216E+03  0.00000000000E+00 0. -1.
         -3   -1    0    0    0  501 -0.00000000000E+00 -0.00000000000E+00 -0.42719422585E+03  0.42719422585E+03  0.00000000000E+00 0.  1.
         23    2    1    2    0    0  0.15869936976E+03  0.18339560083E+03 -0.32462832014E+03  0.41558502761E+03  0.92238454946E+02 0.  0.
         24    2    1    2    0    0 -0.13885382413E+03 -0.19283497452E+03  0.28892017350E+03  0.38288000082E+03  0.81587477586E+02 0.  0.
        -13    1    4    4    0    0 -0.12643645634E+02 -0.81839969998E+02  0.85916136811E+02  0.11932822394E+03  0.00000000000E+00 0.  1.
         14    1    4    4    0    0 -0.12621017849E+03 -0.11099500452E+03  0.20300403669E+03  0.26355177688E+03  0.00000000000E+00 0. -1.
        -11    1    3    3    0    0  0.65718869735E+02  0.71106667162E+02 -0.61315135685E+02  0.11460660460E+03  0.00000000000E+00 0. -1.
         11    1    3    3    0    0  0.92980500021E+02  0.11228893367E+03 -0.26331318445E+03  0.30097842301E+03  0.00000000000E+00 0.  1.
         21    1    1    2  502  501 -0.19845545631E+02  0.94393736910E+01  0.18374729380E+01  0.22052749576E+02  0.00000000000E+00 0.  1.
<scales pt_clust_5="13000.00000" pt_clust_6="13000.00000" pt_clust_7="13000.00000" pt_clust_8="13000.00000" pt_clust_9="21.97607"></scales>
<clustering>
<clus scale="   21.976">  1  9  2 -1</clus>
<clus scale="   81.587">  5  6 -1 -1</clus>
<clus scale="   92.238">  7  8 -1 -1</clus>
<clus scale="  255.234">  1  5  2 -1</clus>
<clus scale="   21.976">  1  5  2 -1</clus>
</clustering>
</event>
<event>
 9    2  0.3791909E-005  0.9589775E+02  0.7546771E-02  0.1295408E+00
         -1   -1    0    0    0  501 -0.00000000000E+00  0.00000000000E+00  0.10877706884E+03  0.10877706884E+03  0.00000000000E+00 0.  1.
          2   -1    0    0  502    0  0.00000000000E+00 -0.00000000000E+00 -0.13410376739E+03  0.13410376739E+03  0.00000000000E+00 0. -1.
         23    2    1    2    0    0  0.41141770197E+02  0.80534779054E+01  0.18080310322E+02  0.10242215516E+03  0.91683676214E+02 0.  0.
         24    2    1    2    0    0  0.21996179714E+01 -0.28384859127E+02 -0.23771837041E+02  0.88715266386E+02  0.80590072011E+02 0.  0.
        -13    1    4    4    0    0 -0.12281123536E+02 -0.34541753271E+02  0.20309385038E+02  0.41909782091E+02  0.00000000000E+00 0.  1.
         14    1    4    4    0    0  0.14480741507E+02  0.61568941437E+01 -0.44081222079E+02  0.46805484295E+02  0.00000000000E+00 0. -1.
        -11    1    3    3    0    0 -0.26280445223E+02  0.18978986374E+02  0.79020712253E+01  0.33366247236E+02  0.00000000000E+00 0.  1.
         11    1    3    3    0    0  0.67422215421E+02 -0.10925508469E+02  0.10178239097E+02  0.69055907920E+02  0.00000000000E+00 0. -1.
         21    1    1    2  502  501 -0.43341388169E+02  0.20331381222E+02 -0.19635171828E+02  0.51743414687E+02  0.00000000000E+00 0.  1.
<scales pt_clust_5="13000.00000" pt_clust_6="13000.00000" pt_clust_7="13000.00000" pt_clust_8="13000.00000" pt_clust_9="47.87318"></scales>
<clustering>
<clus scale="   47.873">  2  9  1 -1</clus>
<clus scale="   80.590">  5  6 -1 -1</clus>
<clus scale="   85.354">  2  5  1 -1</clus>
<clus scale="   91.684">  7  8 -1 -1</clus>
<clus scale="   47.873">  2  5  1 -1</clus>
</clustering>
</event>
<event>
 9    2  0.3791909E-005  0.1254111E+03  0.7546771E-02  0.1241197E+00
         -1   -1    0    0    0  501 -0.00000000000E+00  0.00000000000E+00  0.12427979211E+03  0.12427979211E+03  0.00000000000E+00 0.  1.
          2   -1    0    0  502    0  0.00000000000E+00 -0.00000000000E+00 -0.17002331442E+03  0.17002331442E+03  0.00000000000E+00 0. -1.
         23    2    1    2    0    0  0.19855430524E+02  0.94291765267E+02  0.29505246353E+02  0.13502903404E+03  0.89872717515E+02 0.  0.
         24    2    1    2    0    0 -0.28459180646E+02 -0.71707150250E+02 -0.26073536219E+02  0.10448089009E+03  0.65456754747E+02 0.  0.
        -13    1    4    4    0    0  0.20766005517E+02 -0.16133223256E+02 -0.17373085669E+01  0.26353863451E+02  0.00000000000E+00 0.  1.
         14    1    4    4    0    0 -0.49225186163E+02 -0.55573926994E+02 -0.24336227652E+02  0.78127026634E+02  0.00000000000E+00 0. -1.
        -13    1    3    3    0    0 -0.91831900175E+01  0.99725395009E+02  0.32612175738E+02  0.10532349878E+03  0.00000000000E+00 0.  1.
         13    1    3    3    0    0  0.29038620541E+02 -0.54336297417E+01 -0.31069293851E+01  0.29705535264E+02  0.00000000000E+00 0. -1.
         21    1    1    2  502  501  0.86037501226E+01 -0.22584615017E+02 -0.49175232445E+02  0.54793182401E+02  0.00000000000E+00 0. -1.
<scales pt_clust_5="13000.00000" pt_clust_6="13000.00000" pt_clust_7="13000.00000" pt_clust_8="13000.00000" pt_clust_9="24.16794"></scales>
<clustering>
<clus scale="   24.168">  2  9  1 -1</clus>
<clus scale="   65.457">  5  6 -1 -1</clus>
<clus scale="   89.873">  7  8 -1 -1</clus>
<clus scale="  109.249">  2  5  1 -1</clus>
<clus scale="   24.168">  2  5  1 -1</clus>
</clustering>
</event>
<event>
 9    2  0.3791909E-005  0.1079538E+03  0.7546771E-02  0.1265337E+00
         -1   -1    0    0    0  501 -0.00000000000E+00  0.00000000000E+00  0.11144582768E+03  0.11144582768E+03  0.00000000000E+00 0.  1.
          2   -1    0    0  502    0  0.00000000000E+00 -0.00000000000E+00 -0.32048096485E+03  0.32048096485E+03  0.00000000000E+00 0. -1.
         23    2    1    2    0    0 -0.13563645965E+01  0.68368474661E+02  0.47011822553E+02  0.11623776631E+03  0.81394218498E+02 0.  0.
         24    2    1    2    0    0  0.60278146872E+02 -0.59972398678E+02 -0.13154038622E+03  0.17768845607E+03  0.83905724592E+02 0.  0.
        -13    1    4    4    0    0  0.18213473309E+01 -0.44299672942E+02 -0.15779322653E+02  0.47061293568E+02  0.00000000000E+00 0.  1.
         14    1    4    4    0    0  0.58456799542E+02 -0.15672725736E+02 -0.11576106357E+03  0.13062716250E+03  0.00000000000E+00 0. -1.
        -13    1    3    3    0    0  0.99111924970E+01  0.25421694385E+02 -0.21402911808E+02  0.34678219620E+02  0.00000000000E+00 0. -1.
         13    1    3    3    0    0 -0.11267557094E+02  0.42946780275E+02  0.68414734361E+02  0.81559546691E+02  0.00000000000E+00 0.  1.
         21    1    1    2  502  501 -0.58921782276E+02 -0.83960759829E+01 -0.12450657350E+03  0.13800057015E+03  0.00000000000E+00 0.  1.
<scales pt_clust_5="13000.00000" pt_clust_6="13000.00000" pt_clust_7="13000.00000" pt_clust_8="13000.00000" pt_clust_9="59.51698"></scales>
<clustering>
<clus scale="   59.517">  2  9  1 -1</clus>
<clus scale="   81.394">  7  8 -1 -1</clus>
<clus scale="   83.906">  5  6 -1 -1</clus>
<clus scale="  106.014">  1  7  2 -1</clus>
<clus scale="   59.517">  2  5  1 -1</clus>
</clustering>
</event>
<event>
 9    2  0.3791909E-005  0.1720151E+03  0.7546771E-02  0.1176905E+00
         -1   -1    0    0    0  501 -0.00000000000E+00  0.00000000000E+00  0.54054700400E+02  0.54054700400E+02  0.00000000000E+00 0.  1.
          2   -1    0    0  502    0  0.00000000000E+00 -0.00000000000E+00 -0.10176084333E+04  0.10176084333E+04  0.00000000000E+00 0. -1.
         24    2    1    2    0    0 -0.14819675387E+03 -0.36614062484E+02 -0.18430951092E+03  0.25301102206E+03  0.82107941396E+02 0.  0.
         23    2    1    2    0    0  0.11558664423E+03  0.80058814999E+02 -0.37330322298E+03  0.40909264045E+03  0.90729300655E+02 0.  0.
        -13    1    3    3    0    0 -0.13337588281E+03 -0.56374188682E+01 -0.11727017061E+03  0.17768849012E+03  0.00000000000E+00 0.  1.
         14    1    3    3    0    0 -0.14820871059E+02 -0.30976643616E+02 -0.67039340306E+02  0.75322531937E+02  0.00000000000E+00 0. -1.
        -11    1    4    4    0    0  0.56673130505E+01  0.34678995236E+02 -0.31491596861E+02  0.47185504349E+02  0.00000000000E+00 0.  1.
         11    1    4    4    0    0  0.10991933118E+03  0.45379819762E+02 -0.34181162612E+03  0.36190713610E+03  0.00000000000E+00 0. -1.
         21    1    1    2  502  501  0.32610109643E+02 -0.43444752514E+02 -0.40594099905E+03  0.40955947124E+03  0.00000000000E+00 0. -1.
<scales pt_clust_5="13000.00000" pt_clust_6="13000.00000" pt_clust_7="13000.00000" pt_clust_8="13000.00000" pt_clust_9="54.32187"></scales>
<clustering>
<clus scale="   54.322">  2  9  1 -1</clus>
<clus scale="   82.108">  5  6 -1 -1</clus>
<clus scale="   90.729">  7  8 -1 -1</clus>
<clus scale="  167.628">  1  5  2 -1</clus>
<clus scale="   54.322">  2  5  1 -1</clus>
</clustering>
</event>
<event>
 9    2  0.3791909E-005  0.1191613E+03  0.7546771E-02  0.1247315E+00
         -1   -1    0    0    0  501 -0.00000000000E+00  0.00000000000E+00  0.38632987178E+03  0.38632987178E+03  0.00000000000E+00 0.  1.
          2   -1    0    0  502    0  0.00000000000E+00 -0.00000000000E+00 -0.10420563074E+03  0.10420563074E+03  0.00000000000E+00 0. -1.
         23    2    1    2    0    0  0.54898606515E+02 -0.60805924802E+02  0.33411486085E+03  0.35528958774E+03  0.88807282537E+02 0.  0.
         24    2    1    2    0    0 -0.48243004742E+02  0.41445548116E+02 -0.32702219514E+02  0.10711828412E+03  0.79748170299E+02 0.  0.
        -11    1    4    4    0    0 -0.64276892053E+02  0.34915747555E+02 -0.35761287777E+01  0.73235353323E+02  0.00000000000E+00 0.  1.
         12    1    4    4    0    0  0.16033887311E+02  0.65298005611E+01 -0.29126090737E+02  0.33882930795E+02  0.00000000000E+00 0. -1.
        -13    1    3    3    0    0 -0.19779533501E+02 -0.99327132537E+01  0.25734281486E+02  0.33943217021E+02  0.00000000000E+00 0. -1.
         13    1    3    3    0    0  0.74678140016E+02 -0.50873211548E+02  0.30838057936E+03  0.32134637072E+03  0.00000000000E+00 0.  1.
         21    1    1    2  502  501 -0.66556017728E+01  0.19360376686E+02 -0.19288400301E+02  0.28127630660E+02  0.00000000000E+00 0. -1.
<scales pt_clust_5="13000.00000" pt_clust_6="13000.00000" pt_clust_7="13000.00000" pt_clust_8="13000.00000" pt_clust_9="20.47245"></scales>
<clustering>
<clus scale="   20.472">  2  9  1 -1</clus>
<clus scale="   79.748">  5  6 -1 -1</clus>
<clus scale="   88.807">  7  8 -1 -1</clus>
<clus scale="  112.572">  2  5  1 -1</clus>
<clus scale="   20.472">  2  5  1 -1</clus>
</clustering>
</event>
<event>
 9    2  0.3791909E-005  0.1035165E+03  0.7546771E-02  0.1277665E+00
         -1   -1    0    0    0  501 -0.00000000000E+00  0.00000000000E+00  0.12398879895E+03  0.12398879895E+03  0.00000000000E+00 0.  1.
          2   -1    0    0  502    0  0.00000000000E+00 -0.00000000000E+00 -0.21409909525E+03  0.21409909525E+03  0.00000000000E+00 0. -1.
         23    2    1    2    0    0  0.90940087551E+01 -0.50761043132E+02  0.82010772117E+02  0.13309347452E+03  0.91261830578E+02 0.  0.
         24    2    1    2    0    0  0.13568085547E+01  0.32009344096E+02 -0.15340206975E+03  0.17651202669E+03  0.81227221572E+02 0.  0.
        -11    1    4    4    0    0  0.28963759791E+02 -0.14697964687E+02 -0.67547259470E+02  0.74950395657E+02  0.00000000000E+00 0.  1.
         12    1    4    4    0    0 -0.27606951236E+02  0.46707308783E+02 -0.85854810282E+02  0.10156163104E+03  0.00000000000E+00 0. -1.
        -13    1    3    3    0    0  0.25991337378E+02 -0.72019778940E+02  0.51643691373E+02  0.92355124579E+02  0.00000000000E+00 0.  1.
         13    1    3    3    0    0 -0.16897328623E+02  0.21258735808E+02  0.30367080744E+02  0.40738349938E+02  0.00000000000E+00 0. -1.
         21    1    1    2  502  501 -0.10450817310E+02  0.18751699036E+02 -0.18718998665E+02  0.28482392986E+02  0.00000000000E+00 0. -1.
<scales pt_clust_5="13000.00000" pt_clust_6="13000.00000" pt_clust_7="13000.00000" pt_clust_8="13000.00000" pt_clust_9="21.46732"></scales>
<clustering>
<clus scale="   21.467">  2  9  1 -1</clus>
<clus scale="   81.227">  5  6 -1 -1</clus>
<clus scale="   91.262">  7  8 -1 -1</clus>
<clus scale="   94.788">  2  5  1 -1</clus>
<clus scale="   21.467">  2  5  1 -1</clus>
</clustering>
</event>
<event>
 9    2  0.3791909E-005  0.1331351E+03  0.7546771E-02  0.1225319E+00
         -1   -1    0    0    0  501 -0.00000000000E+00  0.00000000000E+00  0.63223278127E+03  0.63223278127E+03  0.00000000000E+00 0.  1.
          2   -1    0    0  502    0  0.00000000000E+00 -0.00000000000E+00 -0.96280922598E+02  0.96280922598E+02  0.00000000000E+00 0. -1.
         23    2    1    2    0    0  0.23818269226E+02  0.95277211280E+02  0.55612690226E+03  0.57196634492E+03  0.90682475536E+02 0.  0.
         24    2    1    2    0    0  0.14382128381E+01 -0.94548603099E+02 -0.12322810584E+00  0.12429063778E+03  0.80663750531E+02 0.  0.
        -13    1    4    4    0    0 -0.34183384234E+02 -0.16053320234E+02 -0.41771930599E+01  0.37995549609E+02  0.00000000000E+00 0.  1.
         14    1    4    4    0    0  0.35621597072E+02 -0.78495282865E+02  0.40539649541E+01  0.86295088168E+02  0.00000000000E+00 0. -1.
        -13    1    3    3    0    0  0.39543113047E+02  0.26818528751E+01  0.15427699109E+03  0.15928666016E+03  0.00000000000E+00 0. -1.
         13    1    3    3    0    0 -0.15724843821E+02  0.92595358405E+02  0.40184991116E+03  0.41267968476E+03  0.00000000000E+00 0.  1.
         21    1    1    2  502  501 -0.25256482064E+02 -0.72860818031E+00 -0.20051815484E+02  0.32256721165E+02  0.00000000000E+00 0. -1.
<scales pt_clust_5="13000.00000" pt_clust_6="13000.00000" pt_clust_7="13000.00000" pt_clust_8="13000.00000" pt_clust_9="25.26699"></scales>
<clustering>
<clus scale="   25.267">  2  9  1 -1</clus>
<clus scale="   80.664">  5  6 -1 -1</clus>
<clus scale="   90.682">  7  8 -1 -1</clus>
<clus scale="  126.524">  2  5  1 -1</clus>
<clus scale="   25.267">  2  5  1 -1</clus>
</clustering>
</event>
<event>
 9    2  0.3791909E-005  0.1045102E+03  0.7546771E-02  0.1276959E+00
         -1   -1    0    0    0  501 -0.00000000000E+00  0.00000000000E+00  0.20275177645E+03  0.20275177645E+03  0.00000000000E+00 0.  1.
          2   -1    0    0  502    0  0.00000000000E+00 -0.00000000000E+00 -0.93940618944E+02  0.93940618944E+02  0.00000000000E+00 0. -1.
         24    2    1    2    0    0 -0.28249712681E+02 -0.41443945756E+02  0.12052715781E+03  0.15303387006E+03  0.79855636675E+02 0.  0.
         23    2    1    2    0    0 -0.55621415723E+01  0.51882105169E+02  0.17371109999E+00  0.10632808337E+03  0.92644162699E+02 0.  0.
        -13    1    3    3    0    0 -0.61688124975E+01 -0.47818625974E+02  0.12078192949E+03  0.13004979711E+03  0.00000000000E+00 0.  1.
         14    1    3    3    0    0 -0.22080900183E+02  0.63746802183E+01 -0.25477167432E+00  0.22984072951E+02  0.00000000000E+00 0. -1.
        -11    1    4    4    0    0 -0.33881405232E+01  0.78680032803E+02  0.54038421041E+01  0.78938131265E+02  0.00000000000E+00 0.  1.
         11    1    4    4    0    0 -0.21740010491E+01 -0.26797927634E+02 -0.52301310041E+01  0.27389952106E+02  0.00000000000E+00 0. -1.
         21    1    1    2  502  501  0.33811854253E+02 -0.10438159412E+02 -0.11889711404E+02  0.37330441964E+02  0.00000000000E+00 0.  1.
<scales pt_clust_5="13000.00000" pt_clust_6="13000.00000" pt_clust_7="13000.00000" pt_clust_8="13000.00000" pt_clust_9="35.38639"></scales>
<clustering>
<clus scale="   35.386">  2  9  1 -1</clus>
<clus scale="   79.856">  5  6 -1 -1</clus>
<clus scale="   92.644">  7  8 -1 -1</clus>
<clus scale="   93.362">  1  5  2 -1</clus>
<clus scale="   35.386">  2  5  1 -1</clus>
</clustering>
</event>
<event>
 9    2  0.3791909E-005  0.1807895E+03  0.7546771E-02  0.1168325E+00
          2   -1    0    0  502    0  0.00000000000E+00  0.00000000000E+00  0.32145054793E+03  0.32145054793E+03  0.00000000000E+00 0. -1.
         -1   -1    0    0    0  501 -0.00000000000E+00 -0.00000000000E+00 -0.27420822548E+03  0.27420822548E+03  0.00000000000E+00 0.  1.
         23    2    1    2    0    0  0.15604170508E+03 -0.19662743000E+02 -0.19852588338E+03  0.26916071467E+03  0.91100640853E+02 0.  0.
         24    2    1    2    0    0 -0.15128606627E+03 -0.19362545934E+02  0.22018957949E+03  0.27959544257E+03  0.80173428030E+02 0.  0.
        -13    1    4    4    0    0 -0.13498586842E+03  0.60902991977E+00  0.13628783814E+03  0.19182265355E+03  0.00000000000E+00 0.  1.
         14    1    4    4    0    0 -0.16300197847E+02 -0.19971575853E+02  0.83901741343E+02  0.87772789020E+02  0.00000000000E+00 0. -1.
        -11    1    3    3    0    0  0.13989015971E+03 -0.48147578875E+02 -0.15055145328E+03  0.21107625689E+03  0.00000000000E+00 0.  1.
         11    1    3    3    0    0  0.16151545360E+02  0.28484835875E+02 -0.47974430101E+02  0.58084457783E+02  0.00000000000E+00 0. -1.
         21    1    1    2  502  501 -0.47556388071E+01  0.39025288934E+02  0.25578626349E+02  0.46902616161E+02  0.00000000000E+00 0. -1.
<scales pt_clust_5="13000.00000" pt_clust_6="13000.00000" pt_clust_7="13000.00000" pt_clust_8="13000.00000" pt_clust_9="39.31398"></scales>
<clustering>
<clus scale="   39.314">  1  9  2 -1</clus>
<clus scale="   80.173">  5  6 -1 -1</clus>
<clus scale="   91.101">  7  8 -1 -1</clus>
<clus scale="  175.537">  1  5  2 -1</clus>
<clus scale="   39.314">  1  5  2 -1</clus>
</clustering>
</event>
<event>
 9    2  0.3791909E-005  0.1427748E+03  0.7546771E-02  0.1211334E+00
          2   -1    0    0  502    0  0.00000000000E+00  0.00000000000E+00  0.52964109871E+03  0.52964109871E+03  0.00000000000E+00 0. -1.
         -1   -1    0    0    0  501 -0.00000000000E+00 -0.00000000000E+00 -0.98746151825E+02  0.98746151825E+02  0.00000000000E+00 0.  1.
         24    2    1    2    0    0 -0.18105748102E+02  0.93997743133E+02  0.22266099980E+02  0.12856841228E+03  0.82889466158E+02 0.  0.
         23    2    1    2    0    0  0.11579516976E+03 -0.49351615117E+02  0.33595439717E+03  0.37013431530E+03  0.91049168727E+02 0.  0.
        -13    1    3    3    0    0 -0.45650302573E+02  0.30268425867E+02 -0.25673540415E+01  0.54833557574E+02  0.00000000000E+00 0.  1.
         14    1    3    3    0    0  0.27544554471E+02  0.63729317266E+02  0.24833454022E+02  0.73734854708E+02  0.00000000000E+00 0. -1.
        -13    1    4    4    0    0  0.46729425511E+02 -0.67078442737E+02  0.14747410599E+03  0.16861722518E+03  0.00000000000E+00 0.  1.
         13    1    4    4    0    0  0.69065744248E+02  0.17726827620E+02  0.18848029118E+03  0.20151709012E+03  0.00000000000E+00 0. -1.
         21    1    1    2  502  501 -0.97689421657E+02 -0.44646128015E+02  0.72674449728E+02  0.12968452295E+03  0.00000000000E+00 0.  1.
<scales pt_clust_5="13000.00000" pt_clust_6="13000.00000" pt_clust_7="13000.00000" pt_clust_8="13000.00000" pt_clust_9="107.40810"></scales>
<clustering>
<clus scale="   82.889">  5  6 -1 -1</clus>
<clus scale="   91.049">  7  8 -1 -1</clus>
<clus scale="  107.408">  2  9  1 -1</clus>
<clus scale="  137.715">  2  5  1 -1</clus>
<clus scale="  142.775">  1  5  2 -1</clus>
</clustering>
</event>
<event>
 9    2  0.3791909E-005  0.1097668E+03  0.7546771E-02  0.1265056E+00
          2   -1    0    0  502    0  0.00000000000E+00  0.00000000000E+00  0.71376177172E+02  0.71376177172E+02  0.00000000000E+00 0. -1.
         -1   -1    0    0    0  501 -0.00000000000E+00 -0.00000000000E+00 -0.47062364638E+03  0.47062364638E+03  0.00000000000E+00 0.  1.
         24    2    1    2    0    0  0.70335541010E+02  0.70926537539E+02 -0.31676003775E+03  0.34170715201E+03  0.80306874966E+02 0.  0.
         23    2    1    2    0    0 -0.56114357391E+02 -0.11495348093E+02 -0.13400390616E+02  0.10805749628E+03  0.90641535183E+02 0.  0.
        -11    1    3    3    0    0  0.65867703021E+02  0.61821791589E+02 -0.15332677401E+03  0.17795951181E+03  0.00000000000E+00 0.  1.
         12    1    3    3    0    0  0.44678379890E+01  0.91047459501E+01 -0.16343326374E+03  0.16374764020E+03  0.00000000000E+00 0. -1.
        -13    1    4    4    0    0 -0.47309955600E+02  0.33530993776E+02  0.58940918618E+01  0.58286359994E+02  0.00000000000E+00 0.  1.
         13    1    4    4    0    0 -0.88044017913E+01 -0.45026341870E+02 -0.19294482478E+02  0.49771136286E+02  0.00000000000E+00 0. -1.
         21    1    1    2  502  501 -0.14221183619E+02 -0.59431189445E+02 -0.69087040841E+02  0.92235175257E+02  0.00000000000E+00 0. -1.
<scales pt_clust_5="13000.00000" pt_clust_6="13000.00000" pt_clust_7="13000.00000" pt_clust_8="13000.00000" pt_clust_9="61.10899"></scales>
<clustering>
<clus scale="   61.109">  2  9  1 -1</clus>
<clus scale="   80.307">  5  6 -1 -1</clus>
<clus scale="   90.642">  7  8 -1 -1</clus>
<clus scale="  101.400">  2  5  1 -1</clus>
<clus scale="  109.767">  1  5  2 -1</clus>
</clustering>
</event>
<event>
 9    2  0.3791909E-005  0.9725622E+02  0.7546771E-02  0.1294171E+00
          2   -1    0    0  502    0  0.00000000000E+00  0.00000000000E+00  0.32516831424E+02  0.32516831424E+02  0.00000000000E+00 0. -1.
         -1   -1    0    0    0  501 -0.00000000000E+00 -0.00000000000E+00 -0.54754803638E+03  0.54754803638E+03  0.00000000000E+00 0.  1.
         24    2    1    2    0    0  0.18774928732E+02  0.12810930826E+02 -0.34465963356E+03  0.35454744541E+03  0.79981311236E+02 0.  0.
         23    2    1    2    0    0 -0.12014296845E+02 -0.32130667801E+02 -0.17754935494E+03  0.20382689550E+03  0.94047364396E+02 0.  0.
        -13    1    3    3    0    0  0.36740158500E+02  0.45950491963E+00 -0.70300452196E+02  0.79323413759E+02  0.00000000000E+00 0.  1.
         14    1    3    3    0    0 -0.17965229768E+02  0.12351425906E+02 -0.27435918136E+03  0.27522403165E+03  0.00000000000E+00 0. -1.
        -11    1    4    4    0    0  0.17342090629E+01 -0.55505064147E+02 -0.16471684459E+03  0.17382594317E+03  0.00000000000E+00 0.  1.
         11    1    4    4    0    0 -0.13748505908E+02  0.23374396346E+02 -0.12832510351E+02  0.30000952337E+02  0.00000000000E+00 0. -1.
         21    1    1    2  502  501 -0.67606318869E+01  0.19319736975E+02  0.71777835363E+01  0.21690526891E+02  0.00000000000E+00 0. -1.
<scales pt_clust_5="13000.00000" pt_clust_6="13000.00000" pt_clust_7="13000.00000" pt_clust_8="13000.00000" pt_clust_9="20.46847"></scales>
<clustering>
<clus scale="   20.468">  1  9  2 -1</clus>
<clus scale="   79.981">  5  6 -1 -1</clus>
<clus scale="   83.731">  2  5  1 -1</clus>
<clus scale="   94.047">  7  8 -1 -1</clus>
<clus scale="   20.468">  1  5  2 -1</clus>
</clustering>
</event>
<event>
 9    2  0.3791909E-005  0.1001851E+03  0.7546771E-02  0.1284881E+00
          2   -1    0    0  502    0  0.00000000000E+00  0.00000000000E+00  0.20844224084E+03  0.20844224084E+03  0.00000000000E+00 0. -1.
         -1   -1    0    0    0  501 -0.00000000000E+00 -0.00000000000E+00 -0.14965361997E+03  0.14965361997E+03  0.00000000000E+00 0.  1.
         23    2    1    2    0    0 -0.28025294250E+02 -0.22388333573E+02 -0.96944146567E+02  0.13793366500E+03  0.91328384362E+02 0.  0.
         24    2    1    2    0    0  0.59659705560E+02  0.50558507907E+02  0.12033360202E+03  0.16495897477E+03  0.81337841088E+02 0.  0.
        -11    1    4    4    0    0  0.47605073846E+01  0.33246745145E+02  0.23335420349E+01  0.33666807270E+02  0.00000000000E+00 0.  1.
         12    1    4    4    0    0  0.54899198175E+02  0.17311762761E+02  0.11800005999E+03  0.13129216750E+03  0.00000000000E+00 0. -1.
        -13    1    3    3    0    0 -0.53582227217E+02  0.12338044211E+02 -0.55664963803E+02  0.78242383679E+02  0.00000000000E+00 0.  1.
         13    1    3    3    0    0  0.25556932967E+02 -0.34726377784E+02 -0.41279182764E+02  0.59691281326E+02  0.00000000000E+00 0. -1.
         21    1    1    2  502  501 -0.31634411310E+02 -0.28170174334E+02  0.35399165412E+02  0.55203221036E+02  0.00000000000E+00 0. -1.
<scales pt_clust_5="13000.00000" pt_clust_6="13000.00000" pt_clust_7="13000.00000" pt_clust_8="13000.00000" pt_clust_9="42.35912"></scales>
<clustering>
<clus scale="   42.359">  1  9  2 -1</clus>
<clus scale="   81.338">  5  6 -1 -1</clus>
<clus scale="   91.170">  1  5  2 -1</clus>
<clus scale="   91.328">  7  8 -1 -1</clus>
<clus scale="   42.359">  1  5  2 -1</clus>
</clustering>
</event>
<event>
 9    2  0.3791909E-005  0.1269048E+03  0.7546771E-02  0.1234913E+00
          2   -1    0    0  502    0  0.00000000000E+00  0.00000000000E+00  0.51721869683E+02  0.51721869683E+02  0.00000000000E+00 0. -1.
         -1   -1    0    0    0  501 -0.00000000000E+00 -0.00000000000E+00 -0.41219162892E+03  0.41219162892E+03  0.00000000000E+00 0.  1.
         24    2    1    2    0    0  0.88003710010E+02 -0.33698014530E+01 -0.17628251190E+03  0.21307672024E+03  0.81056499863E+02 0.  0.
         23    2    1    2    0    0 -0.84942887321E+02  0.32896800443E+02 -0.17920025584E+03  0.22073557591E+03  0.91180969470E+02 0.  0.
        -13    1    3    3    0    0  0.59319723016E+02 -0.38972218182E+02 -0.83121805487E+02  0.10930186584E+03  0.00000000000E+00 0.  1.
         14    1    3    3    0    0  0.28683986994E+02  0.35602416729E+02 -0.93160706409E+02  0.10377485440E+03  0.00000000000E+00 0. -1.
        -13    1    4    4    0    0 -0.44344590748E+02  0.39701677146E+02 -0.31370184442E+02  0.67281159092E+02  0.00000000000E+00 0. -1.
         13    1    4    4    0    0 -0.40598296573E+02 -0.68048767035E+01 -0.14783007139E+03  0.15345441682E+03  0.00000000000E+00 0.  1.
         21    1    1    2  502  501 -0.30608226897E+01 -0.29526998990E+02 -0.49869915004E+01  0.30101202453E+02  0.00000000000E+00 0. -1.
<scales pt_clust_5="13000.00000" pt_clust_6="13000.00000" pt_clust_7="13000.00000" pt_clust_8="13000.00000" pt_clust_9="29.68522"></scales>
<clustering>
<clus scale="   29.685">  1  9  2 -1</clus>
<clus scale="   81.056">  5  6 -1 -1</clus>
<clus scale="   91.181">  7  8 -1 -1</clus>
<clus scale="  119.837">  2  5  1 -1</clus>
<clus scale="   29.685">  1  5  2 -1</clus>
</clustering>
</event>
<event>
 9    2  0.3791909E-005  0.1970338E+03  0.7546771E-02  0.1153410E+00
         -1   -1    0    0    0  501 -0.00000000000E+00  0.00000000000E+00  0.80817272181E+03  0.80817272181E+03  0.00000000000E+00 0.  1.
          2   -1    0    0  502    0  0.00000000000E+00 -0.00000000000E+00 -0.54244734821E+03  0.54244734821E+03  0.00000000000E+00 0. -1.
         24    2    1    2    0    0 -0.98646678247E+02 -0.14245466817E+03  0.75639523144E+03  0.78007575257E+03  0.79749194268E+02 0.  0.
         23    2    1    2    0    0  0.10812244260E+03  0.17692336393E+03 -0.29714151712E+03  0.37374213312E+03  0.91639301466E+02 0.  0.
        -11    1    3    3    0    0 -0.74074220688E+02 -0.14686063854E+03  0.68392465737E+03  0.70342588400E+03  0.00000000000E+00 0.  1.
         12    1    3    3    0    0 -0.24572457559E+02  0.44059703693E+01  0.72470574071E+02  0.76649868569E+02  0.00000000000E+00 0. -1.
        -13    1    4    4    0    0  0.11087653805E+03  0.10332002894E+03 -0.21934360582E+03  0.26660880046E+03  0.00000000000E+00 0.  1.
         13    1    4    4    0    0 -0.27540954509E+01  0.73603334987E+02 -0.77797911305E+02  0.10713333266E+03  0.00000000000E+00 0. -1.
         21    1    1    2  502  501 -0.94757643504E+01 -0.34468695760E+02 -0.19352834072E+03  0.19680218433E+03  0.00000000000E+00 0. -1.
<scales pt_clust_5="13000.00000" pt_clust_6="13000.00000" pt_clust_7="13000.00000" pt_clust_8="13000.00000" pt_clust_9="35.74746"></scales>
<clustering>
<clus scale="   35.747">  2  9  1 -1</clus>
<clus scale="   79.749">  5  6 -1 -1</clus>
<clus scale="   91.639">  7  8 -1 -1</clus>
<clus scale="  191.793">  1  5  2 -1</clus>
<clus scale="   35.747">  2  5  1 -1</clus>
</clustering>
</event>
<event>
 9    2  0.3791909E-005  0.1382599E+03  0.7546771E-02  0.1217239E+00
          2   -1    0    0  502    0  0.00000000000E+00  0.00000000000E+00  0.33401965911E+03  0.33401965911E+03  0.00000000000E+00 0. -1.
         -1   -1    0    0    0  501 -0.00000000000E+00 -0.00000000000E+00 -0.28255173376E+03  0.28255173376E+03  0.00000000000E+00 0.  1.
         23    2    1    2    0    0 -0.98512141210E+02  0.38720416752E+02 -0.15666569946E+03  0.21012359814E+03  0.91672637509E+02 0.  0.
         24    2    1    2    0    0  0.36946332184E+02 -0.12989750435E+03 -0.12443976707E+02  0.15995623618E+03  0.84810092791E+02 0.  0.
        -13    1    4    4    0    0  0.18485729539E+02 -0.13684172066E+03 -0.18512896582E+02  0.13932015665E+03  0.00000000000E+00 0.  1.
         14    1    4    4    0    0  0.18460602645E+02  0.69442163047E+01  0.60689198756E+01  0.20636079535E+02  0.00000000000E+00 0. -1.
        -11    1    3    3    0    0 -0.10215694009E+03  0.11065822417E+02 -0.14935418293E+03  0.18128751968E+03  0.00000000000E+00 0.  1.
         11    1    3    3    0    0  0.36447988800E+01  0.27654594335E+02 -0.73115165318E+01  0.28836078456E+02  0.00000000000E+00 0. -1.
         21    1    1    2  502  501  0.61565809026E+02  0.91177087600E+02  0.22057760151E+03  0.24649155854E+03  0.00000000000E+00 0. -1.
<scales pt_clust_5="13000.00000" pt_clust_6="13000.00000" pt_clust_7="13000.00000" pt_clust_8="13000.00000" pt_clust_9="110.01641"></scales>
<clustering>
<clus scale="   84.810">  5  6 -1 -1</clus>
<clus scale="   91.673">  7  8 -1 -1</clus>
<clus scale="  110.016">  1  9  2 -1</clus>
<clus scale="  133.808">  1  5  2 -1</clus>
<clus scale="  110.016">  1  5  2 -1</clus>
</clustering>
</event>
<event>
 9    2  0.3791909E-005  0.1674907E+03  0.7546771E-02  0.1211522E+00
         -1   -1    0    0    0  501 -0.00000000000E+00  0.00000000000E+00  0.10717664586E+03  0.10717664586E+03  0.00000000000E+00 0.  1.
          2   -1    0    0  502    0  0.00000000000E+00 -0.00000000000E+00 -0.74311100098E+03  0.74311100098E+03  0.00000000000E+00 0. -1.
         23    2    1    2    0    0 -0.13416712904E+03 -0.34911570465E+02  0.63468086881E+01  0.16637951001E+03  0.91772670781E+02 0.  0.
         24    2    1    2    0    0 -0.15091181912E+01 -0.27717389971E+02 -0.25593816044E+03  0.26967227769E+03  0.80301084934E+02 0.  0.
        -13    1    4    4    0    0  0.13773120324E+02 -0.51195488069E+02 -0.12512435704E+03  0.13589253683E+03  0.00000000000E+00 0.  1.
         14    1    4    4    0    0 -0.15282238515E+02  0.23478098099E+02 -0.13081380340E+03  0.13377974086E+03  0.00000000000E+00 0. -1.
        -11    1    3    3    0    0 -0.10002850746E+02 -0.39936943508E+02 -0.55605508928E+01  0.41544388382E+02  0.00000000000E+00 0. -1.
         11    1    3    3    0    0 -0.12416427830E+03  0.50253730433E+01  0.11907359581E+02  0.12483512163E+03  0.00000000000E+00 0.  1.
         21    1    1    2  502  501  0.13567624724E+03  0.62628960435E+02 -0.38634300336E+03  0.41423585914E+03  0.00000000000E+00 0. -1.
<scales pt_clust_5="13000.00000" pt_clust_6="13000.00000" pt_clust_7="13000.00000" pt_clust_8="13000.00000" pt_clust_9="140.11030"></scales>
<clustering>
<clus scale="   80.301">  5  6 -1 -1</clus>
<clus scale="   84.963">  2  5  1 -1</clus>
<clus scale="   91.773">  7  8 -1 -1</clus>
<clus scale="  140.110">  2  9  1 -1</clus>
<clus scale="   84.963">  2  5  1 -1</clus>
</clustering>
</event>
<event>
 9    2  0.3791909E-005  0.9579844E+02  0.7546771E-02  0.1294948E+00
         -1   -1    0    0    0  501 -0.00000000000E+00  0.00000000000E+00  0.63432428780E+02  0.63432428780E+02  0.00000000000E+00 0.  1.
          2   -1    0    0  502    0  0.00000000000E+00 -0.00000000000E+00 -0.69307790580E+03  0.69307790580E+03  0.00000000000E+00 0. -1.
         23    2    1    2    0    0 -0.32232199503E+02  0.16453386030E+02  0.97479721546E+01  0.97693791839E+02  0.90218764157E+02 0.  0.
         24    2    1    2    0    0 -0.27882370692E+02 -0.25236876275E+02 -0.48290752862E+03  0.49095125573E+03  0.80119459479E+02 0.  0.
        -11    1    4    4    0    0 -0.37935921352E+02 -0.48835039886E+02 -0.30516526526E+03  0.31136768357E+03  0.00000000000E+00 0.  1.
         12    1    4    4    0    0  0.10053550660E+02  0.23598163611E+02 -0.17774226336E+03  0.17958357216E+03  0.00000000000E+00 0. -1.
        -13    1    3    3    0    0 -0.36156247000E+02  0.44937757411E+02 -0.15177334415E+02  0.59640822582E+02  0.00000000000E+00 0. -1.
         13    1    3    3    0    0  0.39240474969E+01 -0.28484371381E+02  0.24925306569E+02  0.38052969257E+02  0.00000000000E+00 0.  1.
         21    1    1    2  502  501  0.60114570195E+02  0.87834902448E+01 -0.15648592056E+03  0.16786528702E+03  0.00000000000E+00 0. -1.
<scales pt_clust_5="13000.00000" pt_clust_6="13000.00000" pt_clust_7="13000.00000" pt_clust_8="13000.00000" pt_clust_9="60.75287"></scales>
<clustering>
<clus scale="   60.753">  2  9  1 -1</clus>
<clus scale="   80.119">  5  6 -1 -1</clus>
<clus scale="   86.354">  2  5  1 -1</clus>
<clus scale="   90.219">  7  8 -1 -1</clus>
<clus scale="   60.753">  2  5  1 -1</clus>
</clustering>
</event>
<event>
 9    2  0.3791909E-005  0.1138052E+03  0.7546771E-02  0.1256440E+00
         -1   -1    0    0    0  501 -0.00000000000E+00  0.00000000000E+00  0.50001180294E+03  0.50001180294E+03  0.00000000000E+00 0.  1.
          2   -1    0    0  502    0  0.00000000000E+00 -0.00000000000E+00 -0.62691546756E+02  0.62691546756E+02  0.00000000000E+00 0. -1.
         24    2    1    2    0    0 -0.35924916285E+02 -0.45643139058E+02  0.37252577039E+03  0.38578003903E+03  0.81712258291E+02 0.  0.
         23    2    1    2    0    0  0.29350398174E+02  0.66252612518E+02  0.72180454228E+01  0.11541704131E+03  0.89544060140E+02 0.  0.
        -11    1    3    3    0    0 -0.61354597697E+02 -0.41823543207E+02  0.26346799480E+03  0.27373158332E+03  0.00000000000E+00 0.  1.
         12    1    3    3    0    0  0.25429681412E+02 -0.38195958513E+01  0.10905777559E+03  0.11204845570E+03  0.00000000000E+00 0. -1.
        -13    1    4    4    0    0 -0.29186537772E+02  0.28270223857E+02  0.18646613065E+02  0.44707445944E+02  0.00000000000E+00 0.  1.
         13    1    4    4    0    0  0.58536935946E+02  0.37982388661E+02 -0.11428567642E+02  0.70709595365E+02  0.00000000000E+00 0. -1.
         21    1    1    2  502  501  0.65745181110E+01 -0.20609473460E+02  0.57576440376E+02  0.61506269364E+02  0.00000000000E+00 0. -1.
<scales pt_clust_5="13000.00000" pt_clust_6="13000.00000" pt_clust_7="13000.00000" pt_clust_8="13000.00000" pt_clust_9="21.63272"></scales>
<clustering>
<clus scale="   21.633">  1  9  2 -1</clus>
<clus scale="   81.712">  5  6 -1 -1</clus>
<clus scale="   89.544">  7  8 -1 -1</clus>
<clus scale="  107.751">  1  5  2 -1</clus>
<clus scale="  113.805">  2  5  1 -1</clus>
</clustering>
</event>
<event>
 9    2  0.3791909E-005  0.8233654E+02  0.7546771E-02  0.1329672E+00
         -1   -1    0    0    0  501 -0.00000000000E+00  0.00000000000E+00  0.42409016507E+02  0.42409016507E+02  0.00000000000E+00 0.  1.
          2   -1    0    0  502    0  0.00000000000E+00 -0.00000000000E+00 -0.78533985725E+03  0.78533985725E+03  0.00000000000E+00 0. -1.
         23    2    1    2    0    0 -0.15876695177E+02  0.21218762511E+02  0.38171953201E+01  0.72522409211E+02  0.67398987569E+02 0.  0.
         24    2    1    2    0    0  0.38333636665E+02 -0.14556491221E+02 -0.63398401665E+03  0.64005518274E+03  0.77804527130E+02 0.  0.
        -13    1    4    4    0    0  0.25883159083E+02 -0.77706696469E+01 -0.58981689797E+02  0.64878046843E+02  0.00000000000E+00 0.  1.
         14    1    4    4    0    0  0.12450477582E+02 -0.67858215745E+01 -0.57500232685E+03  0.57517713589E+03  0.00000000000E+00 0. -1.
        -13    1    3    3    0    0 -0.39625373785E+02  0.97175354040E+01  0.15526464996E+02  0.43654001618E+02  0.00000000000E+00 0.  1.
         13    1    3    3    0    0  0.23748678608E+02  0.11501227107E+02 -0.11709269676E+02  0.28868407593E+02  0.00000000000E+00 0. -1.
         21    1    1    2  502  501 -0.22456941488E+02 -0.66622712900E+01 -0.11276401942E+03  0.11517128181E+03  0.00000000000E+00 0.  1.
<scales pt_clust_5="13000.00000" pt_clust_6="13000.00000" pt_clust_7="13000.00000" pt_clust_8="13000.00000" pt_clust_9="23.42435"></scales>
<clustering>
<clus scale="   23.424">  2  9  1 -1</clus>
<clus scale="   67.399">  7  8 -1 -1</clus>
<clus scale="   72.584">  1  7  2 -1</clus>
<clus scale="   77.805">  5  6 -1 -1</clus>
<clus scale="   23.424">  2  5  1 -1</clus>
</clustering>
</event>
<event>
 9    2  0.3791909E-005  0.1051625E+03  0.7546771E-02  0.1273943E+00
          2   -1    0    0  502    0  0.00000000000E+00  0.00000000000E+00  0.10591122871E+03  0.10591122871E+03  0.00000000000E+00 0. -1.
         -1   -1    0    0    0  501 -0.00000000000E+00 -0.00000000000E+00 -0.29175217833E+03  0.29175217833E+03  0.00000000000E+00 0.  1.
         24    2    1    2    0    0  0.66757880293E+00 -0.51349331976E+02 -0.18499380298E+03  0.20850648510E+03  0.81332943097E+02 0.  0.
         23    2    1    2    0    0  0.63193221635E+02  0.55005757923E+02 -0.12312504620E+02  0.12417211050E+03  0.90819043112E+02 0.  0.
        -13    1    3    3    0    0  0.29560957954E+02 -0.70337597842E+01 -0.12445004653E+03  0.12810596432E+03  0.00000000000E+00 0.  1.
         14    1    3    3    0    0 -0.28893379152E+02 -0.44315572192E+02 -0.60543756444E+02  0.80400520781E+02  0.00000000000E+00 0. -1.
        -11    1    4    4    0    0  0.53672665532E+02  0.73362426823E+02  0.12629209490E+02  0.91773076809E+02  0.00000000000E+00 0.  1.
         11    1    4    4    0    0  0.95205561026E+01 -0.18356668900E+02 -0.24941714110E+02  0.32399033695E+02  0.00000000000E+00 0. -1.
         21    1    1    2  502  501 -0.63860800438E+02 -0.36564259471E+01  0.11465357975E+02  0.64984811432E+02  0.00000000000E+00 0. -1.
<scales pt_clust_5="13000.00000" pt_clust_6="13000.00000" pt_clust_7="13000.00000" pt_clust_8="13000.00000" pt_clust_9="63.96539"></scales>
<clustering>
<clus scale="   63.965">  1  9  2 -1</clus>
<clus scale="   81.333">  5  6 -1 -1</clus>
<clus scale="   90.819">  7  8 -1 -1</clus>
<clus scale="   97.088">  2  5  1 -1</clus>
<clus scale="   63.965">  1  5  2 -1</clus>
</clustering>
</event>
<event>
 9    2  0.3791909E-005  0.1012061E+03  0.7546771E-02  0.1284649E+00
          2   -1    0    0  502    0  0.00000000000E+00  0.00000000000E+00  0.61749388286E+02  0.61749388286E+02  0.00000000000E+00 0. -1.
         -1   -1    0    0    0  501 -0.00000000000E+00 -0.00000000000E+00 -0.31444656452E+03  0.31444656452E+03  0.00000000000E+00 0.  1.
         23    2    1    2    0    0  0.33116977264E+01 -0.45113907569E+02 -0.23156155705E+03  0.25379591251E+03  0.93516728487E+02 0.  0.
         24    2    1    2    0    0  0.18801492431E+01  0.23534749677E+02 -0.40737346747E+02  0.92788504467E+02  0.79954710541E+02 0.  0.
        -13    1    4    4    0    0 -0.89954273879E+01 -0.21059075370E+02 -0.40914768264E+02  0.46887318450E+02  0.00000000000E+00 0.  1.
         14    1    4    4    0    0  0.10875576631E+02  0.44593825047E+02  0.17742151690E+00  0.45901186017E+02  0.00000000000E+00 0. -1.
        -13    1    3    3    0    0 -0.40522309185E+02 -0.86299704321E+00 -0.10950564036E+03  0.11676595213E+03  0.00000000000E+00 0.  1.
         13    1    3    3    0    0  0.43834006911E+02 -0.44250910526E+02 -0.12205591669E+03  0.13702996038E+03  0.00000000000E+00 0. -1.
         21    1    1    2  502  501 -0.51918469696E+01  0.21579157892E+02  0.19601727566E+02  0.29611535823E+02  0.00000000000E+00 0.  1.
<scales pt_clust_5="13000.00000" pt_clust_6="13000.00000" pt_clust_7="13000.00000" pt_clust_8="13000.00000" pt_clust_9="22.19494"></scales>
<clustering>
<clus scale="   22.195">  1  9  2 -1</clus>
<clus scale="   79.955">  5  6 -1 -1</clus>
<clus scale="   88.826">  1  5  2 -1</clus>
<clus scale="   93.517">  7  8 -1 -1</clus>
<clus scale="   22.195">  1  5  2 -1</clus>
</clustering>
</event>
<event>
 9    2  0.3791909E-005  0.1035873E+03  0.7546771E-02  0.1277405E+00
         -1   -1    0    0    0  501 -0.00000000000E+00  0.00000000000E+00  0.92392863033E+02  0.92392863033E+02  0.00000000000E+00 0.  1.
          2   -1    0    0  502    0  0.00000000000E+00 -0.00000000000E+00 -0.41662859310E+03  0.41662859310E+03  0.00000000000E+00 0. -1.
         23    2    1    2    0    0  0.25474649337E+02  0.53082545468E+02  0.34047385472E+02  0.11443755128E+03  0.92032680572E+02 0.  0.
         24    2    1    2    0    0 -0.26499544401E+02  0.22562001937E+02 -0.18237138372E+03  0.20309477891E+03  0.82321915893E+02 0.  0.
        -11    1    4    4    0    0 -0.50473838004E+02  0.35838206763E+02 -0.13002726014E+03  0.14401067240E+03  0.00000000000E+00 0.  1.
         12    1    4    4    0    0  0.23974293603E+02 -0.13276204827E+02 -0.52344123584E+02  0.59084106511E+02  0.00000000000E+00 0. -1.
        -11    1    3    3    0    0 -0.15989128754E+02  0.16657796059E+02  0.51593808555E+02  0.56524821884E+02  0.00000000000E+00 0. -1.
         11    1    3    3    0    0  0.41463778091E+02  0.36424749410E+02 -0.17546423083E+02  0.57912729396E+02  0.00000000000E+00 0.  1.
         21    1    1    2  502  501  0.10248950635E+01 -0.75644547405E+02 -0.17591173182E+03  0.19148912594E+03  0.00000000000E+00 0. -1.
<scales pt_clust_5="13000.00000" pt_clust_6="13000.00000" pt_clust_7="13000.00000" pt_clust_8="13000.00000" pt_clust_9="75.65149"></scales>
<clustering>
<clus scale="   75.651">  2  9  1 -1</clus>
<clus scale="   82.322">  5  6 -1 -1</clus>
<clus scale="   92.033">  7  8 -1 -1</clus>
<clus scale="   95.064">  2  5  1 -1</clus>
<clus scale="   75.651">  2  5  1 -1</clus>
</clustering>
</event>
<event>
 9    2  0.3791909E-005  0.1256259E+03  0.7546771E-02  0.1238082E+00
          2   -1    0    0  502    0  0.00000000000E+00  0.00000000000E+00  0.26219598000E+03  0.26219598000E+03  0.00000000000E+00 0. -1.
         -1   -1    0    0    0  501 -0.00000000000E+00 -0.00000000000E+00 -0.18218584739E+03  0.18218584739E+03  0.00000000000E+00 0.  1.
         24    2    1    2    0    0 -0.80301523902E+02  0.26874341752E+02 -0.13616143131E+03  0.17891834588E+03  0.79380565180E+02 0.  0.
         23    2    1    2    0    0  0.67502798377E+02 -0.51160042809E+02  0.18677395714E+03  0.22524132425E+03  0.93140567495E+02 0.  0.
        -13    1    3    3    0    0 -0.46267423907E+02 -0.21274326344E+02 -0.92352074979E+02  0.10546173348E+03  0.00000000000E+00 0.  1.
         14    1    3    3    0    0 -0.34034099995E+02  0.48148668096E+02 -0.43809356334E+02  0.73456612394E+02  0.00000000000E+00 0. -1.
        -13    1    4    4    0    0  0.22320255373E+02  0.20959805568E+02  0.16258075819E+02  0.34667452729E+02  0.00000000000E+00 0.  1.
         13    1    4    4    0    0  0.45182543004E+02 -0.72119848376E+02  0.17051588132E+03  0.19057387152E+03  0.00000000000E+00 0. -1.
         21    1    1    2  502  501  0.12798725525E+02  0.24285701056E+02  0.29397606778E+02  0.40222157266E+02  0.00000000000E+00 0. -1.
<scales pt_clust_5="13000.00000" pt_clust_6="13000.00000" pt_clust_7="13000.00000" pt_clust_8="13000.00000" pt_clust_9="27.45182"></scales>
<clustering>
<clus scale="   27.452">  1  9  2 -1</clus>
<clus scale="   79.381">  5  6 -1 -1</clus>
<clus scale="   93.141">  7  8 -1 -1</clus>
<clus scale="  115.793">  2  5  1 -1</clus>
<clus scale="   27.452">  1  5  2 -1</clus>
</clustering>
</event>
<event>
 9    2  0.3791909E-005  0.1240896E+03  0.7546771E-02  0.1238513E+00
         -1   -1    0    0    0  501 -0.00000000000E+00  0.00000000000E+00  0.31388807546E+03  0.31388807546E+03  0.00000000000E+00 0.  1.
          2   -1    0    0  502    0  0.00000000000E+00 -0.00000000000E+00 -0.27308529811E+03  0.27308529811E+03  0.00000000000E+00 0. -1.
         23    2    1    2    0    0  0.48651521543E+02 -0.75004399737E+02  0.27778439702E+03  0.30466463969E+03  0.87542794809E+02 0.  0.
         24    2    1    2    0    0 -0.90569333871E+01  0.70482186249E+02 -0.20444604145E+03  0.23086220167E+03  0.80308191829E+02 0.  0.
        -13    1    4    4    0    0 -0.22332484266E+02  0.51793018627E+02 -0.52042695285E+02  0.76744372852E+02  0.00000000000E+00 0.  1.
         14    1    4    4    0    0  0.13275550879E+02  0.18689167622E+02 -0.15240334616E+03  0.15411782881E+03  0.00000000000E+00 0. -1.
        -11    1    3    3    0    0  0.56567249768E+02 -0.22181242754E+02  0.84117468130E+02  0.10376709363E+03  0.00000000000E+00 0.  1.
         11    1    3    3    0    0 -0.79157282256E+01 -0.52823156983E+02  0.19366692889E+03  0.20089754606E+03  0.00000000000E+00 0. -1.
         21    1    1    2  502  501 -0.39594588156E+02  0.45222134881E+01 -0.32535578227E+02  0.51446532212E+02  0.00000000000E+00 0. -1.
<scales pt_clust_5="13000.00000" pt_clust_6="13000.00000" pt_clust_7="13000.00000" pt_clust_8="13000.00000" pt_clust_9="39.85200"></scales>
<clustering>
<clus scale="   39.852">  2  9  1 -1</clus>
<clus scale="   80.308">  5  6 -1 -1</clus>
<clus scale="   87.543">  7  8 -1 -1</clus>
<clus scale="  119.096">  2  5  1 -1</clus>
<clus scale="   39.852">  2  5  1 -1</clus>
</clustering>
</event>
<event>
 9    2  0.3791909E-005  0.2876304E+03  0.7546771E-02  0.1092004E+00
         -1   -1    0    0    0  501 -0.00000000000E+00  0.00000000000E+00  0.40413743175E+03  0.40413743175E+03  0.00000000000E+00 0.  1.
          2   -1    0    0  502    0  0.00000000000E+00 -0.00000000000E+00 -0.51214436115E+03  0.51214436115E+03  0.00000000000E+00 0. -1.
         23    2    1    2    0    0  0.25039455941E+03 -0.11762065711E+03  0.29670378893E+03  0.41550702612E+03  0.89893804173E+02 0.  0.
         24    2    1    2    0    0 -0.21889989683E+03  0.12223781754E+03 -0.35684562375E+03  0.44329173259E+03  0.79432437476E+02 0.  0.
        -11    1    4    4    0    0 -0.74328826211E+01  0.21327373030E+02 -0.66282888066E+02  0.70025180005E+02  0.00000000000E+00 0.  1.
         12    1    4    4    0    0 -0.21146701421E+03  0.10091044451E+03 -0.29056273569E+03  0.37326655259E+03  0.00000000000E+00 0. -1.
        -11    1    3    3    0    0  0.43288795074E+02 -0.26460213433E+02  0.12552991656E+02  0.52265096129E+02  0.00000000000E+00 0. -1.
         11    1    3    3    0    0  0.20710576434E+03 -0.91160443676E+02  0.28415079727E+03  0.36324192999E+03  0.00000000000E+00 0.  1.
         21    1    1    2  502  501 -0.31494662582E+02 -0.46171604285E+01 -0.47865094567E+02  0.57483034188E+02  0.00000000000E+00 0. -1.
<scales pt_clust_5="13000.00000" pt_clust_6="13000.00000" pt_clust_7="13000.00000" pt_clust_8="13000.00000" pt_clust_9="31.83130"></scales>
<clustering>
<clus scale="   31.831">  2  9  1 -1</clus>
<clus scale="   79.432">  5  6 -1 -1</clus>
<clus scale="   89.894">  7  8 -1 -1</clus>
<clus scale="  284.534">  2  5  1 -1</clus>
<clus scale="   31.831">  2  5  1 -1</clus>
</clustering>
</event>
<event>
 9    2  0.3791909E-005  0.1023589E+03  0.7546771E-02  0.1279245E+00
         -1   -1    0    0    0  501 -0.00000000000E+00  0.00000000000E+00  0.31988180033E+03  0.31988180033E+03  0.00000000000E+00 0.  1.
          2   -1    0    0  502    0  0.00000000000E+00 -0.00000000000E+00 -0.12216574325E+03  0.12216574325E+03  0.00000000000E+00 0. -1.
         23    2    1    2    0    0 -0.47832951167E+02 -0.22430979259E+02  0.27553835543E+03  0.29434503112E+03  0.89030736180E+02 0.  0.
         24    2    1    2    0    0  0.27412839865E+02  0.18791010391E+01 -0.82242718146E+02  0.11839550382E+03  0.80614116801E+02 0.  0.
        -13    1    4    4    0    0  0.19511021068E+02 -0.38841287766E+02 -0.46347215388E+02  0.63540459179E+02  0.00000000000E+00 0.  1.
         14    1    4    4    0    0  0.79018187971E+01  0.40720388805E+02 -0.35895502758E+02  0.54855044645E+02  0.00000000000E+00 0. -1.
        -11    1    3    3    0    0 -0.72452903743E+01  0.19411235999E+02  0.10996480790E+02  0.23456617518E+02  0.00000000000E+00 0. -1.
         11    1    3    3    0    0 -0.40587660793E+02 -0.41842215258E+02  0.26454187464E+03  0.27088841360E+03  0.00000000000E+00 0.  1.
         21    1    1    2  502  501  0.20420111302E+02  0.20551878220E+02  0.44204197973E+01  0.29307008635E+02  0.00000000000E+00 0. -1.
<scales pt_clust_5="13000.00000" pt_clust_6="13000.00000" pt_clust_7="13000.00000" pt_clust_8="13000.00000" pt_clust_9="28.97172"></scales>
<clustering>
<clus scale="   28.972">  2  9  1 -1</clus>
<clus scale="   80.614">  5  6 -1 -1</clus>
<clus scale="   89.031">  7  8 -1 -1</clus>
<clus scale="   95.129">  2  5  1 -1</clus>
<clus scale="   28.972">  2  5  1 -1</clus>
</clustering>
</event>
<event>
 9    2  0.3791909E-005  0.2789952E+03  0.7546771E-02  0.1096622E+00
          2   -1    0    0  502    0  0.00000000000E+00  0.00000000000E+00  0.18433800958E+04  0.18433800958E+04  0.00000000000E+00 0. -1.
         -1   -1    0    0    0  501 -0.00000000000E+00 -0.00000000000E+00 -0.59346392576E+02  0.59346392576E+02  0.00000000000E+00 0.  1.
         24    2    1    2    0    0  0.13972134477E+03  0.22517225979E+03  0.60725513571E+03  0.66782575875E+03  0.83712863051E+02 0.  0.
         23    2    1    2    0    0 -0.64422578853E+02 -0.26042889350E+03  0.79364855586E+03  0.84285284965E+03  0.92463066659E+02 0.  0.
        -11    1    3    3    0    0  0.10160236290E+03  0.10053683870E+03  0.25648560821E+03  0.29362486833E+03  0.00000000000E+00 0.  1.
         12    1    3    3    0    0  0.38118981872E+02  0.12463542109E+03  0.35076952750E+03  0.37420089042E+03  0.00000000000E+00 0. -1.
        -11    1    4    4    0    0 -0.59176254150E+02 -0.79883451547E+02  0.21950090490E+03  0.24096440014E+03  0.00000000000E+00 0.  1.
         11    1    4    4    0    0 -0.52463247036E+01 -0.18054544195E+03  0.57414765097E+03  0.60188844950E+03  0.00000000000E+00 0. -1.
         21    1    1    2  502  501 -0.75298765917E+02  0.35256633705E+02  0.38313001164E+03  0.39204787996E+03  0.00000000000E+00 0.  1.
<scales pt_clust_5="13000.00000" pt_clust_6="13000.00000" pt_clust_7="13000.00000" pt_clust_8="13000.00000" pt_clust_9="83.14406"></scales>
<clustering>
<clus scale="   83.144">  1  9  2 -1</clus>
<clus scale="   83.713">  5  6 -1 -1</clus>
<clus scale="   92.463">  7  8 -1 -1</clus>
<clus scale="  276.219">  2  5  1 -1</clus>
<clus scale="   83.144">  1  5  2 -1</clus>
</clustering>
</event>
<event>
 9    2  0.3791909E-005  0.9085340E+02  0.7546771E-02  0.1303549E+00
          2   -1    0    0  502    0  0.00000000000E+00  0.00000000000E+00  0.80842327972E+02  0.80842327972E+02  0.00000000000E+00 0. -1.
         -1   -1    0    0    0  501 -0.00000000000E+00 -0.00000000000E+00 -0.21166813948E+03  0.21166813948E+03  0.00000000000E+00 0.  1.
         23    2    1    2    0    0  0.47553528891E+01  0.12669427816E+02 -0.12494391369E+03  0.15448387881E+03  0.89839631909E+02 0.  0.
         24    2    1    2    0    0 -0.12459940036E+02  0.12256837684E+02  0.31360330053E+02  0.92555027070E+02  0.85308162325E+02 0.  0.
        -11    1    4    4    0    0  0.23961259610E+02  0.26268740447E+02  0.39016977255E+02  0.52787434120E+02  0.00000000000E+00 0.  1.
         12    1    4    4    0    0 -0.36421199647E+02 -0.14011902762E+02 -0.76566472026E+01  0.39767592951E+02  0.00000000000E+00 0. -1.
        -11    1    3    3    0    0  0.45296705755E+02 -0.67251908318E+01 -0.66995774332E+02  0.81150807281E+02  0.00000000000E+00 0.  1.
         11    1    3    3    0    0 -0.40541352866E+02  0.19394618648E+02 -0.57948139363E+02  0.73333071532E+02  0.00000000000E+00 0. -1.
         21    1    1    2  502  501  0.77045871473E+01 -0.24926265501E+02 -0.37242227862E+02  0.45471561564E+02  0.00000000000E+00 0.  1.
<scales pt_clust_5="13000.00000" pt_clust_6="13000.00000" pt_clust_7="13000.00000" pt_clust_8="13000.00000" pt_clust_9="26.08983"></scales>
<clustering>
<clus scale="   26.090">  2  9  1 -1</clus>
<clus scale="   85.308">  5  6 -1 -1</clus>
<clus scale="   86.375">  1  5  2 -1</clus>
<clus scale="   89.840">  7  8 -1 -1</clus>
<clus scale="   86.375">  1  5  2 -1</clus>
</clustering>
</event>
<event>
 9    2  0.3791909E-005  0.1266731E+03  0.7546771E-02  0.1244730E+00
         -1   -1    0    0    0  501 -0.00000000000E+00  0.00000000000E+00  0.14682237598E+03  0.14682237598E+03  0.00000000000E+00 0.  1.
          2   -1    0    0  502    0  0.00000000000E+00 -0.00000000000E+00 -0.28795023679E+03  0.28795023679E+03  0.00000000000E+00 0. -1.
         24    2    1    2    0    0 -0.54278463408E+02  0.18677171899E+02  0.10495217233E+03  0.14496346171E+03  0.81880757291E+02 0.  0.
         23    2    1    2    0    0  0.33725759021E+02  0.68998417887E+01 -0.20648481451E+03  0.23838562896E+03  0.11404689751E+03 0.  0.
        -13    1    3    3    0    0  0.20009706983E+02  0.72987657091E+01  0.91021020464E+01  0.23162655635E+02  0.00000000000E+00 0.  1.
         14    1    3    3    0    0 -0.74288170390E+02  0.11378406190E+02  0.95850070287E+02  0.12180080608E+03  0.00000000000E+00 0. -1.
        -11    1    4    4    0    0 -0.11756759974E+02 -0.39392741434E+02 -0.13818459678E+03  0.14417001168E+03  0.00000000000E+00 0. -1.
         11    1    4    4    0    0  0.45482518994E+02  0.46292583222E+02 -0.68300217733E+02  0.94215617271E+02  0.00000000000E+00 0.  1.
         21    1    1    2  502  501  0.20552704387E+02 -0.25577013687E+02 -0.39595218627E+02  0.51423522097E+02  0.00000000000E+00 0. -1.
<scales pt_clust_5="13000.00000" pt_clust_6="13000.00000" pt_clust_7="13000.00000" pt_clust_8="13000.00000" pt_clust_9="32.81154"></scales>
<clustering>
<clus scale="   32.812">  2  9  1 -1</clus>
<clus scale="   81.881">  5  6 -1 -1</clus>
<clus scale="   98.711">  1  5  2 -1</clus>
<clus scale="  114.047">  7  8 -1 -1</clus>
<clus scale="   32.812">  2  5  1 -1</clus>
</clustering>
</event>
<event>
 9    2  0.3791909E-005  0.1469764E+03  0.7546771E-02  0.1206693E+00
         -1   -1    0    0    0  501 -0.00000000000E+00  0.00000000000E+00  0.28021998291E+03  0.28021998291E+03  0.00000000000E+00 0.  1.
          2   -1    0    0  502    0  0.00000000000E+00 -0.00000000000E+00 -0.10077128218E+03  0.10077128218E+03  0.00000000000E+00 0. -1.
         24    2    1    2    0    0  0.34862948842E+02 -0.11262342401E+03  0.12044042891E+03  0.18651793680E+03  0.79897327837E+02 0.  0.
         23    2    1    2    0    0 -0.15040140203E+02  0.10941012830E+03  0.80545928724E+02  0.16502609282E+03  0.92461790416E+02 0.  0.
        -11    1    3    3    0    0  0.45748173746E+02 -0.33407820090E+02  0.24753668074E+02  0.61820077058E+02  0.00000000000E+00 0.  1.
         12    1    3    3    0    0 -0.10885224905E+02 -0.79215603921E+02  0.95686760837E+02  0.12469785975E+03  0.00000000000E+00 0. -1.
        -11    1    4    4    0    0 -0.44785885223E+02  0.79749327723E+02  0.23956669403E+02  0.94549737156E+02  0.00000000000E+00 0. -1.
         11    1    4    4    0    0  0.29745745019E+02  0.29660800575E+02  0.56589259322E+02  0.70476355667E+02  0.00000000000E+00 0.  1.
         21    1    1    2  502  501 -0.19822808638E+02  0.32132957136E+01 -0.21537656903E+02  0.29447235465E+02  0.00000000000E+00 0. -1.
<scales pt_clust_5="13000.00000" pt_clust_6="13000.00000" pt_clust_7="13000.00000" pt_clust_8="13000.00000" pt_clust_9="20.08156"></scales>
<clustering>
<clus scale="   20.082">  2  9  1 -1</clus>
<clus scale="   79.897">  5  6 -1 -1</clus>
<clus scale="   92.462">  7  8 -1 -1</clus>
<clus scale="  139.415">  1  5  2 -1</clus>
<clus scale="   20.082">  2  5  1 -1</clus>
</clustering>
</event>
<event>
 9    2  0.3791909E-005  0.1207711E+03  0.7546771E-02  0.1244154E+00
          2   -1    0    0  502    0  0.00000000000E+00  0.00000000000E+00  0.31329649048E+03  0.31329649048E+03  0.00000000000E+00 0. -1.
         -1   -1    0    0    0  501 -0.00000000000E+00 -0.00000000000E+00 -0.69179242704E+02  0.69179242704E+02  0.00000000000E+00 0.  1.
         23    2    1    2    0    0  0.98094169123E+02  0.18981310619E+02  0.56619423459E+02  0.14577530629E+03  0.89788221059E+02 0.  0.
         24    2    1    2    0    0 -0.53841920084E+02 -0.71232339154E+01  0.12292732831E+03  0.15752830755E+03  0.82184833233E+02 0.  0.
        -13    1    4    4    0    0 -0.56467938558E+02  0.28113958191E+02  0.82070692123E+02  0.10351145461E+03  0.00000000000E+00 0.  1.
         14    1    4    4    0    0  0.26260184746E+01 -0.35237192107E+02  0.40856636189E+02  0.54016852937E+02  0.00000000000E+00 0. -1.
        -11    1    3    3    0    0  0.76098928809E+02 -0.17464016579E+02  0.41189304812E+01  0.78185704763E+02  0.00000000000E+00 0.  1.
         11    1    3    3    0    0  0.21995240313E+02  0.36445327197E+02  0.52500492978E+02  0.67589601522E+02  0.00000000000E+00 0. -1.
         21    1    1    2  502  501 -0.44252249039E+02 -0.11858076703E+02  0.64570496001E+02  0.79172119347E+02  0.00000000000E+00 0. -1.
<scales pt_clust_5="13000.00000" pt_clust_6="13000.00000" pt_clust_7="13000.00000" pt_clust_8="13000.00000" pt_clust_9="45.81349"></scales>
<clustering>
<clus scale="   45.813">  1  9  2 -1</clus>
<clus scale="   82.185">  5  6 -1 -1</clus>
<clus scale="   89.788">  7  8 -1 -1</clus>
<clus scale="  115.231">  1  5  2 -1</clus>
<clus scale="   45.813">  1  5  2 -1</clus>
</clustering>
</event>
<event>
 9    2  0.3791909E-005  0.1278950E+03  0.7546771E-02  0.1255971E+00
          2   -1    0    0  502    0  0.00000000000E+00  0.00000000000E+00  0.44618654344E+03  0.44618654344E+03  0.00000000000E+00 0. -1.
         -1   -1    0    0    0  501 -0.00000000000E+00 -0.00000000000E+00 -0.78006215088E+02  0.78006215088E+02  0.00000000000E+00 0.  1.
         23    2    1    2    0    0 -0.23073948777E+02  0.82928224244E+02  0.13310516593E+02  0.12715607812E+03  0.92639089280E+02 0.  0.
         24    2    1    2    0    0 -0.32804017633E+01  0.57716142152E+01  0.22411220152E+03  0.23685002125E+03  0.76338595298E+02 0.  0.
        -11    1    4    4    0    0  0.23419475709E+02  0.21102685408E+01  0.19720130176E+02  0.30688900436E+02  0.00000000000E+00 0.  1.
         12    1    4    4    0    0 -0.26699877472E+02  0.36613456743E+01  0.20439207134E+03  0.20616112082E+03  0.00000000000E+00 0. -1.
        -13    1    3    3    0    0 -0.47707931737E+02  0.43563814460E+02  0.37599930552E+02  0.74750300724E+02  0.00000000000E+00 0. -1.
         13    1    3    3    0    0  0.24633982960E+02  0.39364409784E+02 -0.24289413959E+02  0.52405777396E+02  0.00000000000E+00 0.  1.
         21    1    1    2  502  501  0.26354350540E+02 -0.88699838459E+02  0.13075761024E+03  0.16018665915E+03  0.00000000000E+00 0. -1.
<scales pt_clust_5="13000.00000" pt_clust_6="13000.00000" pt_clust_7="13000.00000" pt_clust_8="13000.00000" pt_clust_9="88.17677"></scales>
<clustering>
<clus scale="   76.339">  5  6 -1 -1</clus>
<clus scale="   76.627">  1  5  2 -1</clus>
<clus scale="   88.177">  1  9  2 -1</clus>
<clus scale="   92.639">  7  8 -1 -1</clus>
<clus scale="   76.627">  1  5  2 -1</clus>
</clustering>
</event>
<event>
 9    2  0.3791909E-005  0.1309734E+03  0.7546771E-02  0.1235543E+00
          2   -1    0    0  502    0  0.00000000000E+00  0.00000000000E+00  0.11413338286E+03  0.11413338286E+03  0.00000000000E+00 0. -1.
         -1   -1    0    0    0  501 -0.00000000000E+00 -0.00000000000E+00 -0.38643085298E+03  0.38643085298E+03  0.00000000000E+00 0.  1.
         23    2    1    2    0    0  0.77599295967E+02  0.15476112294E+02 -0.31287311114E+03  0.33874226001E+03  0.10293480585E+03 0.  0.
         24    2    1    2    0    0 -0.83551057228E+02 -0.50409957293E+02  0.37280534850E+02  0.12623188291E+03  0.70871059157E+02 0.  0.
        -13    1    4    4    0    0 -0.22614782294E+02  0.60012110196E+00  0.40836103209E+02  0.46683785717E+02  0.00000000000E+00 0.  1.
         14    1    4    4    0    0 -0.60936274934E+02 -0.51010078395E+02 -0.35555683590E+01  0.79548097194E+02  0.00000000000E+00 0. -1.
        -13    1    3    3    0    0  0.63302530924E+02  0.39407688291E+02 -0.29791655513E+03  0.30710657781E+03  0.00000000000E+00 0.  1.
         13    1    3    3    0    0  0.14296765043E+02 -0.23931575997E+02 -0.14956556019E+02  0.31635682202E+02  0.00000000000E+00 0. -1.
         21    1    1    2  502  501  0.59517612611E+01  0.34933844999E+02  0.32951061750E+01  0.35590092909E+02  0.00000000000E+00 0.  1.
<scales pt_clust_5="13000.00000" pt_clust_6="13000.00000" pt_clust_7="13000.00000" pt_clust_8="13000.00000" pt_clust_9="35.43723"></scales>
<clustering>
<clus scale="   35.437">  1  9  2 -1</clus>
<clus scale="   70.871">  5  6 -1 -1</clus>
<clus scale="  102.935">  7  8 -1 -1</clus>
<clus scale="  107.616">  1  5  2 -1</clus>
<clus scale="   35.437">  1  5  2 -1</clus>
</clustering>
</event>
<event>
 9    2  0.3791909E-005  0.1253856E+03  0.7546771E-02  0.1237151E+00
          2   -1    0    0  502    0  0.00000000000E+00  0.00000000000E+00  0.20398732143E+03  0.20398732143E+03  0.00000000000E+00 0. -1.
         -1   -1    0    0    0  501 -0.00000000000E+00 -0.00000000000E+00 -0.32296896229E+03  0.32296896229E+03  0.00000000000E+00 0.  1.
         23    2    1    2    0    0  0.29980392813E+02 -0.84100153236E+02 -0.27511767950E+03  0.30287467914E+03  0.89842495307E+02 0.  0.
         24    2    1    2    0    0 -0.55020318637E+02  0.57662551031E+02  0.76556757270E+02  0.13656699597E+03  0.80233422277E+02 0.  0.
        -13    1    4    4    0    0  0.19044512266E+02  0.23999255131E+02  0.12795968855E+02  0.33202326925E+02  0.00000000000E+00 0.  1.
         14    1    4    4    0    0 -0.74064830903E+02  0.33663295900E+02  0.63760788415E+02  0.10336466905E+03  0.00000000000E+00 0. -1.
        -13    1    3    3    0    0 -0.17969224405E+02 -0.75899142772E+02 -0.17199085502E+03  0.18885027697E+03  0.00000000000E+00 0. -1.
         13    1    3    3    0    0  0.47949617218E+02 -0.82010104640E+01 -0.10312682448E+03  0.11402440218E+03  0.00000000000E+00 0.  1.
         21    1    1    2  502  501  0.25039925824E+02  0.26437602205E+02  0.79579281372E+02  0.87514608605E+02  0.00000000000E+00 0.  1.
<scales pt_clust_5="13000.00000" pt_clust_6="13000.00000" pt_clust_7="13000.00000" pt_clust_8="13000.00000" pt_clust_9="36.41352"></scales>
<clustering>
<clus scale="   36.414">  1  9  2 -1</clus>
<clus scale="   80.233">  5  6 -1 -1</clus>
<clus scale="   89.842">  7  8 -1 -1</clus>
<clus scale="  118.690">  1  5  2 -1</clus>
<clus scale="   36.414">  1  5  2 -1</clus>
</clustering>
</event>
<event>
 9    2  0.3791909E-005  0.1657304E+03  0.7546771E-02  0.1202717E+00
          2   -1    0    0  502    0  0.00000000000E+00  0.00000000000E+00  0.36332418500E+03  0.36332418500E+03  0.00000000000E+00 0. -1.
         -1   -1    0    0    0  501 -0.00000000000E+00 -0.00000000000E+00 -0.20260167756E+03  0.20260167756E+03  0.00000000000E+00 0.  1.
         23    2    1    2    0    0  0.16365617900E+03 -0.70172197722E+02 -0.10139806848E+03  0.21422198881E+03  0.62466070321E+02 0.  0.
         24    2    1    2    0    0 -0.54823695929E+02  0.45645344056E+02  0.19385570115E+03  0.22091331962E+03  0.78316836297E+02 0.  0.
        -11    1    4    4    0    0 -0.36487663839E+02  0.12967983913E+02  0.21016631621E+02  0.44059244477E+02  0.00000000000E+00 0.  1.
         12    1    4    4    0    0 -0.18336032090E+02  0.32677360143E+02  0.17283906953E+03  0.17685407514E+03  0.00000000000E+00 0. -1.
        -11    1    3    3    0    0  0.72977025849E+02 -0.65141603576E+02 -0.49780670355E+02  0.10975969187E+03  0.00000000000E+00 0.  1.
         11    1    3    3    0    0  0.90679153149E+02 -0.50305941470E+01 -0.51617398121E+02  0.10446229694E+03  0.00000000000E+00 0. -1.
         21    1    1    2  502  501 -0.10883248307E+03  0.24526853667E+02  0.68264874768E+02  0.13079055413E+03  0.00000000000E+00 0.  1.
<scales pt_clust_5="13000.00000" pt_clust_6="13000.00000" pt_clust_7="13000.00000" pt_clust_8="13000.00000" pt_clust_9="153.50749"></scales>
<clustering>
<clus scale="   62.466">  7  8 -1 -1</clus>
<clus scale="   78.317">  5  6 -1 -1</clus>
<clus scale="  105.937">  1  5  2 -1</clus>
<clus scale="  153.507">  1  9  2 -1</clus>
<clus scale="  105.937">  1  5  2 -1</clus>
</clustering>
</event>
<event>
 9    2  0.3791909E-005  0.1231370E+03  0.7546771E-02  0.1241272E+00
         -1   -1    0    0    0  501 -0.00000000000E+00  0.00000000000E+00  0.20311036855E+03  0.20311036855E+03  0.00000000000E+00 0.  1.
          2   -1    0    0  502    0  0.00000000000E+00 -0.00000000000E+00 -0.15418922829E+03  0.15418922829E+03  0.00000000000E+00 0. -1.
         24    2    1    2    0    0  0.85896852920E+02 -0.43300907426E+00  0.12549450285E+03  0.17219436883E+03  0.80768642251E+02 0.  0.
         23    2    1    2    0    0 -0.63590531265E+02 -0.38030348468E+02 -0.76706760664E+02  0.14064153884E+03  0.91684525655E+02 0.  0.
        -11    1    3    3    0    0  0.36945323077E+01 -0.21067239841E+02  0.64008516996E+02  0.67487542640E+02  0.00000000000E+00 0.  1.
         12    1    3    3    0    0  0.82202320612E+02  0.20634230767E+02  0.61485985855E+02  0.10470682619E+03  0.00000000000E+00 0. -1.
        -11    1    4    4    0    0 -0.39200347848E+02 -0.51947215290E+02 -0.69544209363E+01  0.65448792337E+02  0.00000000000E+00 0.  1.
         11    1    4    4    0    0 -0.24390183418E+02  0.13916866822E+02 -0.69752339727E+02  0.75192746503E+02  0.00000000000E+00 0. -1.
         21    1    1    2  502  501 -0.22306321655E+02  0.38463357542E+02  0.13339807187E+00  0.44463689165E+02  0.00000000000E+00 0. -1.
<scales pt_clust_5="13000.00000" pt_clust_6="13000.00000" pt_clust_7="13000.00000" pt_clust_8="13000.00000" pt_clust_9="44.46349"></scales>
<clustering>
<clus scale="   44.463">  2  9  1 -1</clus>
<clus scale="   80.769">  5  6 -1 -1</clus>
<clus scale="   91.685">  7  8 -1 -1</clus>
<clus scale="  115.240">  1  5  2 -1</clus>
<clus scale="   44.463">  2  5  1 -1</clus>
</clustering>
</event>
<event>
 9    2  0.3791909E-005  0.9926666E+02  0.7546771E-02  0.1282523E+00
          2   -1    0    0  502    0  0.00000000000E+00  0.00000000000E+00  0.45551450974E+03  0.45551450974E+03  0.00000000000E+00 0. -1.
         -1   -1    0    0    0  501 -0.00000000000E+00 -0.00000000000E+00 -0.43216017330E+02  0.43216017330E+02  0.00000000000E+00 0.  1.
         23    2    1    2    0    0  0.27130021436E+02 -0.60917530843E+02  0.64718771361E+02  0.12329606010E+03  0.81033421762E+02 0.  0.
         24    2    1    2    0    0 -0.43539779369E+02  0.18490007497E+02  0.18833242855E+03  0.20981721225E+03  0.79476827743E+02 0.  0.
        -11    1    4    4    0    0 -0.83664989032E+01 -0.28626627570E+02  0.37393490326E+02  0.47830484303E+02  0.00000000000E+00 0.  1.
         12    1    4    4    0    0 -0.35173280466E+02  0.47116635066E+02  0.15093893823E+03  0.16198672795E+03  0.00000000000E+00 0. -1.
        -13    1    3    3    0    0  0.50970703790E+02 -0.61023681175E+02  0.58336443539E+02  0.98615632400E+02  0.00000000000E+00 0. -1.
         13    1    3    3    0    0 -0.23840682354E+02  0.10615033170E+00  0.63823278223E+01  0.24680427699E+02  0.00000000000E+00 0.  1.
         21    1    1    2  502  501  0.16409757933E+02  0.42427523347E+02  0.15924729250E+03  0.16561725472E+03  0.00000000000E+00 0. -1.
<scales pt_clust_5="13000.00000" pt_clust_6="13000.00000" pt_clust_7="13000.00000" pt_clust_8="13000.00000" pt_clust_9="45.49038"></scales>
<clustering>
<clus scale="   45.490">  1  9  2 -1</clus>
<clus scale="   79.477">  5  6 -1 -1</clus>
<clus scale="   81.033">  7  8 -1 -1</clus>
<clus scale="   98.000">  1  5  2 -1</clus>
<clus scale="   45.490">  1  5  2 -1</clus>
</clustering>
</event>
<event>
 9    2  0.3791909E-005  0.2083607E+03  0.7546771E-02  0.1167629E+00
         -1   -1    0    0    0  501 -0.00000000000E+00  0.00000000000E+00  0.38149361304E+03  0.38149361304E+03  0.00000000000E+00 0.  1.
          2   -1    0    0  502    0  0.00000000000E+00 -0.00000000000E+00 -0.29791043246E+03  0.29791043246E+03  0.00000000000E+00 0. -1.
         23    2    1    2    0    0 -0.21166379815E+02  0.64152871529E+02  0.18024442349E+03  0.21462410055E+03  0.94930742019E+02 0.  0.
         24    2    1    2    0    0 -0.16971017035E+03 -0.96620090298E+02 -0.15580808336E+03  0.26232914491E+03  0.80021482513E+02 0.  0.
        -13    1    4    4    0    0 -0.11220580733E+02 -0.35435664284E+02 -0.49566760468E+02  0.61955237700E+02  0.00000000000E+00 0.  1.
         14    1    4    4    0    0 -0.15848958962E+03 -0.61184426014E+02 -0.10624132289E+03  0.20037390721E+03  0.00000000000E+00 0. -1.
        -11    1    3    3    0    0 -0.41736832825E+02 -0.25482590014E+01  0.39498569146E+02  0.57520377283E+02  0.00000000000E+00 0. -1.
         11    1    3    3    0    0  0.20570453011E+02  0.66701130531E+02  0.14074585434E+03  0.15710372327E+03  0.00000000000E+00 0.  1.
         21    1    1    2  502  501  0.19087655016E+03  0.32467218769E+02  0.59146840454E+02  0.20245080003E+03  0.00000000000E+00 0.  1.
<scales pt_clust_5="13000.00000" pt_clust_6="13000.00000" pt_clust_7="13000.00000" pt_clust_8="13000.00000" pt_clust_9="192.38179"></scales>
<clustering>
<clus scale="   80.021">  5  6 -1 -1</clus>
<clus scale="   94.931">  7  8 -1 -1</clus>
<clus scale="  116.514">  1  7  2 -1</clus>
<clus scale="  192.382">  1  9  2 -1</clus>
<clus scale="  208.361">  2  5  1 -1</clus>
</clustering>
</event>
<event>
 9    2  0.3791909E-005  0.1223601E+03  0.7546771E-02  0.1244990E+00
         -3   -1    0    0    0  501 -0.00000000000E+00  0.00000000000E+00  0.37368544886E+03  0.37368544886E+03  0.00000000000E+00 0.  1.
          4   -1    0    0  502    0  0.00000000000E+00 -0.00000000000E+00 -0.48015825677E+02  0.48015825677E+02  0.00000000000E+00 0. -1.
         23    2    1    2    0    0 -0.31327083612E+02  0.79720756357E+02  0.21289519843E+03  0.24944802093E+03  0.97791433513E+02 0.  0.
         24    2    1    2    0    0  0.31925288999E+02 -0.50790030541E+02  0.95837912308E+02  0.13872430791E+03  0.80378335941E+02 0.  0.
        -13    1    4    4    0    0  0.22496305074E+01 -0.59788644676E+02  0.88551786844E+02  0.10686983589E+03  0.00000000000E+00 0.  1.
         14    1    4    4    0    0  0.29675658492E+02  0.89986141347E+01  0.72861254635E+01  0.31854472018E+02  0.00000000000E+00 0. -1.
        -13    1    3    3    0    0 -0.56994437155E+02  0.59113527430E+02  0.19587763011E+03  0.21239308127E+03  0.00000000000E+00 0.  1.
         13    1    3    3    0    0  0.25667353543E+02  0.20607228927E+02  0.17017568323E+02  0.37054939665E+02  0.00000000000E+00 0. -1.
         21    1    1    2  502  501 -0.59820538759E+00 -0.28930725816E+02  0.16936512439E+02  0.33528945696E+02  0.00000000000E+00 0.  1.
<scales pt_clust_5="13000.00000" pt_clust_6="13000.00000" pt_clust_7="13000.00000" pt_clust_8="13000.00000" pt_clust_9="28.93691"></scales>
<clustering>
<clus scale="   28.937">  2  9  1 -1</clus>
<clus scale="   80.378">  5  6 -1 -1</clus>
<clus scale="   97.791">  7  8 -1 -1</clus>
<clus scale="  108.947">  2  5  1 -1</clus>
<clus scale="   28.937">  2  5  1 -1</clus>
</clustering>
</event>
<event>
 9    2  0.3791909E-005  0.1138713E+03  0.7546771E-02  0.1255881E+00
         -3   -1    0    0    0  501 -0.00000000000E+00  0.00000000000E+00  0.42552889424E+02  0.42552889424E+02  0.00000000000E+00 0.  1.
          4   -1    0    0  502    0  0.00000000000E+00 -0.00000000000E+00 -0.55295826004E+03  0.55295826004E+03  0.00000000000E+00 0. -1.
         23    2    1    2    0    0  0.32052246516E+02 -0.58757732035E+02 -0.67784620129E+02  0.13020395183E+03  0.88760896597E+02 0.  0.
         24    2    1    2    0    0 -0.50195972186E+02  0.72459421467E+02 -0.36022638613E+03  0.37983344521E+03  0.82099899267E+02 0.  0.
        -11    1    4    4    0    0  0.22002988453E+02  0.24248176004E+02 -0.12057381202E+03  0.12494058462E+03  0.00000000000E+00 0.  1.
         12    1    4    4    0    0 -0.72198960638E+02  0.48211245463E+02 -0.23965257411E+03  0.25489286060E+03  0.00000000000E+00 0. -1.
        -13    1    3    3    0    0  0.10046963871E+02 -0.77206838496E+02 -0.64869534489E+02  0.10134048499E+03  0.00000000000E+00 0. -1.
         13    1    3    3    0    0  0.22005282644E+02  0.18449106461E+02 -0.29150856399E+01  0.28863466835E+02  0.00000000000E+00 0.  1.
         21    1    1    2  502  501  0.18143725670E+02 -0.13701689432E+02 -0.82394364362E+02  0.85473752422E+02  0.00000000000E+00 0.  1.
<scales pt_clust_5="13000.00000" pt_clust_6="13000.00000" pt_clust_7="13000.00000" pt_clust_8="13000.00000" pt_clust_9="22.73612"></scales>
<clustering>
<clus scale="   22.736">  2  9  1 -1</clus>
<clus scale="   82.100">  5  6 -1 -1</clus>
<clus scale="   88.761">  7  8 -1 -1</clus>
<clus scale="  108.759">  2  5  1 -1</clus>
<clus scale="   22.736">  2  5  1 -1</clus>
</clustering>
</event>
<event>
 9    2  0.3791909E-005  0.1099386E+03  0.7546771E-02  0.1264885E+00
         -1   -1    0    0    0  501 -0.00000000000E+00  0.00000000000E+00  0.47511694392E+03  0.47511694392E+03  0.00000000000E+00 0.  1.
          2   -1    0    0  502    0  0.00000000000E+00 -0.00000000000E+00 -0.55585888784E+02  0.55585888784E+02  0.00000000000E+00 0. -1.
         23    2    1    2    0    0  0.23540626937E+02  0.53210148132E+02  0.31708232175E+03  0.33487165962E+03  0.90622009831E+02 0.  0.
         24    2    1    2    0    0 -0.26311572384E+01 -0.75665428046E+02  0.11806285374E+03  0.16140376723E+03  0.79875895328E+02 0.  0.
        -13    1    4    4    0    0 -0.18699714936E+02  0.79067069909E+01  0.69811224715E+01  0.21469313569E+02  0.00000000000E+00 0.  1.
         14    1    4    4    0    0  0.16068557698E+02 -0.83572135037E+02  0.11108173127E+03  0.13993445366E+03  0.00000000000E+00 0. -1.
        -13    1    3    3    0    0 -0.17704244759E+02  0.62851535898E+02  0.18789827806E+03  0.19892088565E+03  0.00000000000E+00 0.  1.
         13    1    3    3    0    0  0.41244871696E+02 -0.96413877666E+01  0.12918404369E+03  0.13595077397E+03  0.00000000000E+00 0. -1.
         21    1    1    2  502  501 -0.20909469698E+02  0.22455279915E+02 -0.15614120357E+02  0.34427405851E+02  0.00000000000E+00 0. -1.
<scales pt_clust_5="13000.00000" pt_clust_6="13000.00000" pt_clust_7="13000.00000" pt_clust_8="13000.00000" pt_clust_9="30.68298"></scales>
<clustering>
<clus scale="   30.683">  2  9  1 -1</clus>
<clus scale="   79.876">  5  6 -1 -1</clus>
<clus scale="   90.622">  7  8 -1 -1</clus>
<clus scale="  101.264">  2  5  1 -1</clus>
<clus scale="   30.683">  2  5  1 -1</clus>
</clustering>
</event>
<event>
 9    2  0.3791909E-005  0.1157654E+03  0.7546771E-02  0.1251043E+00
         -3   -1    0    0    0  501 -0.00000000000E+00  0.00000000000E+00  0.29886664632E+02  0.29886664632E+02  0.00000000000E+00 0.  1.
          4   -1    0    0  502    0  0.00000000000E+00 -0.00000000000E+00 -0.14392754581E+04  0.14392754581E+04  0.00000000000E+00 0. -1.
         23    2    1    2    0    0 -0.12914004731E+02 -0.81126793887E+02 -0.10338699431E+03  0.15569902539E+03  0.82492349417E+02 0.  0.
         24    2    1    2    0    0 -0.14053762995E+02  0.75976380156E+02 -0.11089364683E+04  0.11144944268E+04  0.79923825487E+02 0.  0.
        -11    1    4    4    0    0  0.25340064785E+02  0.10909989794E+02 -0.14779573862E+03  0.15034868511E+03  0.00000000000E+00 0.  1.
         12    1    4    4    0    0 -0.39393827780E+02  0.65066390361E+02 -0.96114072971E+03  0.96414574164E+03  0.00000000000E+00 0. -1.
        -13    1    3    3    0    0 -0.45407428724E+02 -0.66866251194E+02 -0.68732240578E+02  0.10609925083E+03  0.00000000000E+00 0.  1.
         13    1    3    3    0    0  0.32493423993E+02 -0.14260542693E+02 -0.34654753728E+02  0.49599774562E+02  0.00000000000E+00 0. -1.
         21    1    1    2  502  501  0.26967767727E+02  0.51504137316E+01 -0.19706533083E+03  0.19896867058E+03  0.00000000000E+00 0.  1.
<scales pt_clust_5="13000.00000" pt_clust_6="13000.00000" pt_clust_7="13000.00000" pt_clust_8="13000.00000" pt_clust_9="27.45519"></scales>
<clustering>
<clus scale="   27.455">  2  9  1 -1</clus>
<clus scale="   79.924">  5  6 -1 -1</clus>
<clus scale="   82.492">  7  8 -1 -1</clus>
<clus scale="  113.949">  2  5  1 -1</clus>
<clus scale="   27.455">  2  5  1 -1</clus>
</clustering>
</event>
<event>
 9    2  0.3791909E-005  0.1662901E+03  0.7546771E-02  0.1182947E+00
          2   -1    0    0  502    0  0.00000000000E+00  0.00000000000E+00  0.45754282262E+03  0.45754282262E+03  0.00000000000E+00 0. -1.
         -1   -1    0    0    0  501 -0.00000000000E+00 -0.00000000000E+00 -0.10850061013E+03  0.10850061013E+03  0.00000000000E+00 0.  1.
         23    2    1    2    0    0  0.10956343209E+03 -0.68510990367E+02  0.21768548616E+02  0.16016876553E+03  0.92099198096E+02 0.  0.
         24    2    1    2    0    0 -0.12057377399E+03  0.11631107613E+03  0.22808094501E+03  0.29521631325E+03  0.84056247391E+02 0.  0.
        -11    1    4    4    0    0 -0.89555442243E+02  0.48290178314E+02  0.17865309619E+03  0.20559437573E+03  0.00000000000E+00 0.  1.
         12    1    4    4    0    0 -0.31018331750E+02  0.68020897815E+02  0.49427848825E+02  0.89621937513E+02  0.00000000000E+00 0. -1.
        -11    1    3    3    0    0  0.48588444213E+02 -0.50275251042E+02 -0.31962715373E+02  0.76876868773E+02  0.00000000000E+00 0.  1.
         11    1    3    3    0    0  0.60974987875E+02 -0.18235739326E+02  0.53731263989E+02  0.83291896755E+02  0.00000000000E+00 0. -1.
         21    1    1    2  502  501  0.11010341905E+02 -0.47800085762E+02  0.99192718869E+02  0.11065835397E+03  0.00000000000E+00 0.  1.
<scales pt_clust_5="13000.00000" pt_clust_6="13000.00000" pt_clust_7="13000.00000" pt_clust_8="13000.00000" pt_clust_9="49.05177"></scales>
<clustering>
<clus scale="   49.052">  1  9  2 -1</clus>
<clus scale="   84.056">  5  6 -1 -1</clus>
<clus scale="   92.099">  7  8 -1 -1</clus>
<clus scale="  161.974">  1  5  2 -1</clus>
<clus scale="   49.052">  1  5  2 -1</clus>
</clustering>
</event>
<event>
 9    2  0.3791909E-005  0.9721080E+02  0.7546771E-02  0.1291571E+00
          4   -1    0    0  502    0  0.00000000000E+00  0.00000000000E+00  0.40494309376E+03  0.40494309376E+03  0.00000000000E+00 0. -1.
         -3   -1    0    0    0  501 -0.00000000000E+00 -0.00000000000E+00 -0.31173103626E+02  0.31173103626E+02  0.00000000000E+00 0.  1.
         23    2    1    2    0    0  0.23105758306E+02  0.45684073908E+01  0.11658201677E+03  0.15000405213E+03  0.91406250380E+02 0.  0.
         24    2    1    2    0    0 -0.41639302876E+02 -0.27601980686E+02  0.20230627372E+03  0.22377404512E+03  0.81555465787E+02 0.  0.
        -13    1    4    4    0    0 -0.62642573070E+01  0.21263998749E+02  0.14430932546E+02  0.26450905023E+02  0.00000000000E+00 0.  1.
         14    1    4    4    0    0 -0.35375045569E+02 -0.48865979435E+02  0.18787534118E+03  0.19732314010E+03  0.00000000000E+00 0. -1.
        -11    1    3    3    0    0  0.54792340349E+02 -0.13021822170E+02  0.56080464764E+02  0.79478216775E+02  0.00000000000E+00 0.  1.
         11    1    3    3    0    0 -0.31686582043E+02  0.17590229561E+02  0.60501552004E+02  0.70525835355E+02  0.00000000000E+00 0. -1.
         21    1    1    2  502  501  0.18533544570E+02  0.23033573295E+02  0.54881699647E+02  0.62338100141E+02  0.00000000000E+00 0. -1.
<scales pt_clust_5="13000.00000" pt_clust_6="13000.00000" pt_clust_7="13000.00000" pt_clust_8="13000.00000" pt_clust_9="29.56413"></scales>
<clustering>
<clus scale="   29.564">  1  9  2 -1</clus>
<clus scale="   81.555">  5  6 -1 -1</clus>
<clus scale="   88.012">  1  5  2 -1</clus>
<clus scale="   91.406">  7  8 -1 -1</clus>
<clus scale="   29.564">  1  5  2 -1</clus>
</clustering>
</event>
<event>
 9    2  0.3791909E-005  0.1021705E+03  0.7546771E-02  0.1280400E+00
         -1   -1    0    0    0  501 -0.00000000000E+00  0.00000000000E+00  0.29148773352E+02  0.29148773352E+02  0.00000000000E+00 0.  1.
          2   -1    0    0  502    0  0.00000000000E+00 -0.00000000000E+00 -0.78704440015E+03  0.78704440015E+03  0.00000000000E+00 0. -1.
         23    2    1    2    0    0  0.14842612628E+02 -0.31758075872E+02 -0.11108548198E+03  0.14771417275E+03  0.90832890475E+02 0.  0.
         24    2    1    2    0    0 -0.46698110406E+02  0.69511563484E+02 -0.39334260271E+03  0.41024288115E+03  0.81044725011E+02 0.  0.
        -13    1    4    4    0    0 -0.17672479399E+02 -0.13327511464E+02 -0.35857121908E+02  0.42138726623E+02  0.00000000000E+00 0.  1.
         14    1    4    4    0    0 -0.29025631007E+02  0.82839074947E+02 -0.35748548081E+03  0.36810415453E+03  0.00000000000E+00 0. -1.
        -11    1    3    3    0    0 -0.18303962739E+02 -0.53213281337E+02 -0.78117255830E+02  0.96275614883E+02  0.00000000000E+00 0. -1.
         11    1    3    3    0    0  0.33146575368E+02  0.21455205465E+02 -0.32968226152E+02  0.51438557870E+02  0.00000000000E+00 0.  1.
         21    1    1    2  502  501  0.31855497777E+02 -0.37753487612E+02 -0.25346754210E+03  0.25823611960E+03  0.00000000000E+00 0. -1.
<scales pt_clust_5="13000.00000" pt_clust_6="13000.00000" pt_clust_7="13000.00000" pt_clust_8="13000.00000" pt_clust_9="49.39735"></scales>
<clustering>
<clus scale="   49.397">  2  9  1 -1</clus>
<clus scale="   81.045">  5  6 -1 -1</clus>
<clus scale="   90.833">  7  8 -1 -1</clus>
<clus scale="   93.576">  2  5  1 -1</clus>
<clus scale="   49.397">  2  5  1 -1</clus>
</clustering>
</event>
<event>
 9    2  0.3791909E-005  0.1878405E+03  0.7546771E-02  0.1161663E+00
         -1   -1    0    0    0  501 -0.00000000000E+00  0.00000000000E+00  0.29736113720E+03  0.29736113720E+03  0.00000000000E+00 0.  1.
          2   -1    0    0  502    0  0.00000000000E+00 -0.00000000000E+00 -0.24499621978E+03  0.24499621978E+03  0.00000000000E+00 0. -1.
         24    2    1    2    0    0  0.10835313894E+03  0.12989758909E+03  0.19077818570E+03  0.26752417338E+03  0.80988152408E+02 0.  0.
         23    2    1    2    0    0 -0.10772436922E+03 -0.10094796438E+03 -0.49095024424E+02  0.18093842972E+03  0.92376201971E+02 0.  0.
        -13    1    3    3    0    0  0.75372855647E+02  0.98122572503E+02  0.18325393314E+03  0.22111334337E+03  0.00000000000E+00 0.  1.
         14    1    3    3    0    0  0.32980283293E+02  0.31775016590E+02  0.75242525575E+01  0.46410830007E+02  0.00000000000E+00 0. -1.
        -13    1    4    4    0    0 -0.72419214379E+02 -0.23201155194E+02 -0.57215948527E+02  0.95165650208E+02  0.00000000000E+00 0. -1.
         13    1    4    4    0    0 -0.35305154839E+02 -0.77746809189E+02  0.81209241031E+01  0.85772779514E+02  0.00000000000E+00 0.  1.
         21    1    1    2  502  501 -0.62876972283E+00 -0.28949624710E+02 -0.89318243856E+02  0.93894753889E+02  0.00000000000E+00 0. -1.
<scales pt_clust_5="13000.00000" pt_clust_6="13000.00000" pt_clust_7="13000.00000" pt_clust_8="13000.00000" pt_clust_9="28.95645"></scales>
<clustering>
<clus scale="   28.956">  2  9  1 -1</clus>
<clus scale="   80.988">  5  6 -1 -1</clus>
<clus scale="   92.376">  7  8 -1 -1</clus>
<clus scale="  182.510">  1  5  2 -1</clus>
<clus scale="   28.956">  2  5  1 -1</clus>
</clustering>
</event>
<event>
 9    2  0.3791909E-005  0.9433673E+02  0.7546771E-02  0.1298879E+00
         -1   -1    0    0    0  501 -0.00000000000E+00  0.00000000000E+00  0.26062321114E+02  0.26062321114E+02  0.00000000000E+00 0.  1.
          2   -1    0    0  502    0  0.00000000000E+00 -0.00000000000E+00 -0.95464242149E+03  0.95464242149E+03  0.00000000000E+00 0. -1.
         23    2    1    2    0    0  0.31438812609E+02  0.31147565346E+01 -0.13447747419E+03  0.16614063545E+03  0.92306115933E+02 0.  0.
         24    2    1    2    0    0  0.35382872877E+02 -0.44857398062E+02 -0.37063319087E+03  0.38382758859E+03  0.81795609500E+02 0.  0.
        -13    1    4    4    0    0  0.49224865275E+02 -0.36705323835E+01 -0.12522667847E+03  0.13460416475E+03  0.00000000000E+00 0.  1.
         14    1    4    4    0    0 -0.13841992398E+02 -0.41186865679E+02 -0.24540651241E+03  0.24922342384E+03  0.00000000000E+00 0. -1.
        -13    1    3    3    0    0  0.27230252159E+02 -0.24056637773E+02 -0.86580809615E+01  0.37351985483E+02  0.00000000000E+00 0.  1.
         13    1    3    3    0    0  0.42085604501E+01  0.27171394307E+02 -0.12581939322E+03  0.12878864997E+03  0.00000000000E+00 0. -1.
         21    1    1    2  502  501 -0.66821685485E+02  0.41742641528E+02 -0.42346943532E+03  0.43073651856E+03  0.00000000000E+00 0. -1.
<scales pt_clust_5="13000.00000" pt_clust_6="13000.00000" pt_clust_7="13000.00000" pt_clust_8="13000.00000" pt_clust_9="78.78823"></scales>
<clustering>
<clus scale="   78.788">  2  9  1 -1</clus>
<clus scale="   81.796">  5  6 -1 -1</clus>
<clus scale="   84.080">  2  5  1 -1</clus>
<clus scale="   92.306">  7  8 -1 -1</clus>
<clus scale="   78.788">  2  5  1 -1</clus>
</clustering>
</event>
<event>
 9    2  0.3791909E-005  0.9186577E+02  0.7546771E-02  0.1304713E+00
         -3   -1    0    0    0  501 -0.00000000000E+00  0.00000000000E+00  0.79646113400E+02  0.79646113400E+02  0.00000000000E+00 0.  1.
          4   -1    0    0  502    0  0.00000000000E+00 -0.00000000000E+00 -0.10295784177E+04  0.10295784177E+04  0.00000000000E+00 0. -1.
         23    2    1    2    0    0 -0.19682671255E+01  0.13503270752E+02  0.45295344934E+02  0.10236461386E+03  0.90777935101E+02 0.  0.
         24    2    1    2    0    0  0.50758335352E+02 -0.16612530851E+02 -0.78989976950E+03  0.79579197450E+03  0.80565724958E+02 0.  0.
        -11    1    4    4    0    0  0.48620300689E+02 -0.10556729525E+02 -0.20839883577E+03  0.21425557852E+03  0.00000000000E+00 0.  1.
         12    1    4    4    0    0  0.21380346631E+01 -0.60558013259E+01 -0.58150093373E+03  0.58153639598E+03  0.00000000000E+00 0. -1.
        -11    1    3    3    0    0  0.40869718781E+02  0.17476833109E+02  0.74578084905E+01  0.45070971991E+02  0.00000000000E+00 0. -1.
         11    1    3    3    0    0 -0.42837985906E+02 -0.39735623568E+01  0.37837536444E+02  0.57293641868E+02  0.00000000000E+00 0.  1.
         21    1    1    2  502  501 -0.48790068227E+02  0.31092600993E+01 -0.20532787975E+03  0.21106794275E+03  0.00000000000E+00 0.  1.
<scales pt_clust_5="13000.00000" pt_clust_6="13000.00000" pt_clust_7="13000.00000" pt_clust_8="13000.00000" pt_clust_9="48.88904"></scales>
<clustering>
<clus scale="   48.889">  2  9  1 -1</clus>
<clus scale="   80.566">  5  6 -1 -1</clus>
<clus scale="   81.790">  2  5  1 -1</clus>
<clus scale="   90.778">  7  8 -1 -1</clus>
<clus scale="   48.889">  2  5  1 -1</clus>
</clustering>
</event>
<event>
 9    2  0.3791909E-005  0.9939864E+02  0.7546771E-02  0.1286105E+00
         -3   -1    0    0    0  501 -0.00000000000E+00  0.00000000000E+00  0.14722573556E+03  0.14722573556E+03  0.00000000000E+00 0.  1.
          4   -1    0    0  502    0  0.00000000000E+00 -0.00000000000E+00 -0.18472277602E+03  0.18472277602E+03  0.00000000000E+00 0. -1.
         24    2    1    2    0    0  0.43257229493E+02 -0.13498800590E+02  0.10745728366E+03  0.14180291311E+03  0.80669652488E+02 0.  0.
         23    2    1    2    0    0 -0.18267306727E+02  0.60348888775E+01 -0.13255216179E+03  0.16126619667E+03  0.89814231702E+02 0.  0.
        -13    1    3    3    0    0  0.31220273882E+02  0.13034781529E+02  0.10746707622E+03  0.11266669207E+03  0.00000000000E+00 0.  1.
         14    1    3    3    0    0  0.12036955611E+02 -0.26533582119E+02 -0.97925558680E-02  0.29136221037E+02  0.00000000000E+00 0. -1.
        -13    1    4    4    0    0  0.14485370353E+02  0.29617127811E+02 -0.13619032095E+02  0.35671813092E+02  0.00000000000E+00 0.  1.
         13    1    4    4    0    0 -0.32752677080E+02 -0.23582238933E+02 -0.11893312969E+03  0.12559438358E+03  0.00000000000E+00 0. -1.
         21    1    1    2  502  501 -0.24989922766E+02  0.74639117122E+01 -0.12402162337E+02  0.28879401803E+02  0.00000000000E+00 0.  1.
<scales pt_clust_5="13000.00000" pt_clust_6="13000.00000" pt_clust_7="13000.00000" pt_clust_8="13000.00000" pt_clust_9="26.08076"></scales>
<clustering>
<clus scale="   26.081">  2  9  1 -1</clus>
<clus scale="   80.670">  5  6 -1 -1</clus>
<clus scale="   89.814">  7  8 -1 -1</clus>
<clus scale="   91.220">  1  5  2 -1</clus>
<clus scale="   26.081">  2  5  1 -1</clus>
</clustering>
</event>
<event>
 9    2  0.3791909E-005  0.2157584E+03  0.7546771E-02  0.1178026E+00
          2   -1    0    0  502    0  0.00000000000E+00  0.00000000000E+00  0.15183234712E+03  0.15183234712E+03  0.00000000000E+00 0. -1.
         -1   -1    0    0    0  501 -0.00000000000E+00 -0.00000000000E+00 -0.49515621641E+03  0.49515621641E+03  0.00000000000E+00 0.  1.
         24    2    1    2    0    0 -0.38161520446E+02  0.19914788979E+02 -0.10041519197E+03  0.13016377310E+03  0.70756601013E+02 0.  0.
         23    2    1    2    0    0  0.17244946575E+03  0.11781144062E+03 -0.23083198392E+03  0.32408762977E+03  0.90172241800E+02 0.  0.
        -11    1    3    3    0    0 -0.17845607177E+02  0.18430260734E+02 -0.10598520920E+03  0.10904588381E+03  0.00000000000E+00 0.  1.
         12    1    3    3    0    0 -0.20315913269E+02  0.14845282454E+01  0.55700172347E+01  0.21117889290E+02  0.00000000000E+00 0. -1.
        -13    1    4    4    0    0  0.16297680127E+03  0.91869565805E+02 -0.15358857022E+03  0.24205557993E+03  0.00000000000E+00 0.  1.
         13    1    4    4    0    0  0.94726644835E+01  0.25941874814E+02 -0.77243413698E+02  0.82032049840E+02  0.00000000000E+00 0. -1.
         21    1    1    2  502  501 -0.13428794530E+03 -0.13772622960E+03 -0.12076693398E+02  0.19273716065E+03  0.00000000000E+00 0. -1.
<scales pt_clust_5="13000.00000" pt_clust_6="13000.00000" pt_clust_7="13000.00000" pt_clust_8="13000.00000" pt_clust_9="196.01187"></scales>
<clustering>
<clus scale="   70.757">  5  6 -1 -1</clus>
<clus scale="   82.821">  2  5  1 -1</clus>
<clus scale="   90.172">  7  8 -1 -1</clus>
<clus scale="  196.012">  1  9  2 -1</clus>
<clus scale="  196.012">  1  5  2 -1</clus>
</clustering>
</event>
<event>
 9    2  0.3791909E-005  0.1013419E+03  0.7546771E-02  0.1285605E+00
         -1   -1    0    0    0  501 -0.00000000000E+00  0.00000000000E+00  0.51487656736E+03  0.51487656736E+03  0.00000000000E+00 0.  1.
          2   -1    0    0  502    0  0.00000000000E+00 -0.00000000000E+00 -0.25833086901E+02  0.25833086901E+02  0.00000000000E+00 0. -1.
         24    2    1    2    0    0  0.29890115322E+02  0.38206835735E+02  0.32052396352E+03  0.33278306457E+03  0.75204890668E+02 0.  0.
         23    2    1    2    0    0 -0.29917749006E+02 -0.14064725124E+02  0.12847708493E+03  0.16116935892E+03  0.91522197879E+02 0.  0.
        -11    1    3    3    0    0  0.50600853844E+02  0.25105957641E+02  0.27819503725E+03  0.28387186241E+03  0.00000000000E+00 0.  1.
         12    1    3    3    0    0 -0.20710738522E+02  0.13100878094E+02  0.42328926273E+02  0.48911202156E+02  0.00000000000E+00 0. -1.
        -13    1    4    4    0    0  0.29145754721E+02  0.13457950411E+02  0.44747775639E+02  0.55072269538E+02  0.00000000000E+00 0.  1.
         13    1    4    4    0    0 -0.59063503727E+02 -0.27522675535E+02  0.83729309290E+02  0.10609708938E+03  0.00000000000E+00 0. -1.
         21    1    1    2  502  501  0.27633683487E-01 -0.24142110611E+02  0.40042432011E+02  0.46757230774E+02  0.00000000000E+00 0. -1.
<scales pt_clust_5="13000.00000" pt_clust_6="13000.00000" pt_clust_7="13000.00000" pt_clust_8="13000.00000" pt_clust_9="24.14213"></scales>
<clustering>
<clus scale="   24.142">  2  9  1 -1</clus>
<clus scale="   75.205">  5  6 -1 -1</clus>
<clus scale="   86.889">  1  5  2 -1</clus>
<clus scale="   91.522">  7  8 -1 -1</clus>
<clus scale="   24.142">  2  5  1 -1</clus>
</clustering>
</event>
<event>
 9    2  0.3791909E-005  0.1541767E+03  0.7546771E-02  0.1196834E+00
          2   -1    0    0  502    0  0.00000000000E+00  0.00000000000E+00  0.52556026272E+03  0.52556026272E+03  0.00000000000E+00 0. -1.
         -1   -1    0    0    0  501 -0.00000000000E+00 -0.00000000000E+00 -0.26432514801E+03  0.26432514801E+03  0.00000000000E+00 0.  1.
         23    2    1    2    0    0  0.75423902305E+02 -0.98406348843E+02 -0.22111306789E+03  0.26916730392E+03  0.90484662668E+02 0.  0.
         24    2    1    2    0    0 -0.64008593326E+02  0.12474530710E+03  0.35939608819E+03  0.39445937435E+03  0.82305274096E+02 0.  0.
        -13    1    4    4    0    0 -0.62025686929E+02  0.46774047695E+02  0.12252227152E+03  0.14507482344E+03  0.00000000000E+00 0.  1.
         14    1    4    4    0    0 -0.19829063967E+01  0.77971259405E+02  0.23687381667E+03  0.24938455091E+03  0.00000000000E+00 0. -1.
        -11    1    3    3    0    0 -0.93112093047E+01 -0.55724225949E+02 -0.61719630352E+02  0.83673178182E+02  0.00000000000E+00 0. -1.
         11    1    3    3    0    0  0.84735111610E+02 -0.42682122894E+02 -0.15939343754E+03  0.18549412574E+03  0.00000000000E+00 0.  1.
         21    1    1    2  502  501 -0.11415308980E+02 -0.26338958257E+02  0.12295209441E+03  0.12625873246E+03  0.00000000000E+00 0. -1.
<scales pt_clust_5="13000.00000" pt_clust_6="13000.00000" pt_clust_7="13000.00000" pt_clust_8="13000.00000" pt_clust_9="28.70627"></scales>
<clustering>
<clus scale="   28.706">  1  9  2 -1</clus>
<clus scale="   82.305">  5  6 -1 -1</clus>
<clus scale="   90.485">  7  8 -1 -1</clus>
<clus scale="  149.523">  1  5  2 -1</clus>
<clus scale="   28.706">  1  5  2 -1</clus>
</clustering>
</event>
<event>
 9    2  0.3791909E-005  0.1447568E+03  0.7546771E-02  0.1213094E+00
          2   -1    0    0  502    0  0.00000000000E+00  0.00000000000E+00  0.48760322119E+03  0.48760322119E+03  0.00000000000E+00 0. -1.
         -1   -1    0    0    0  501 -0.00000000000E+00 -0.00000000000E+00 -0.11118005068E+03  0.11118005068E+03  0.00000000000E+00 0.  1.
         24    2    1    2    0    0  0.98213577176E+02  0.67316210849E+02 -0.33383532725E+02  0.14480397618E+03  0.75341570706E+02 0.  0.
         23    2    1    2    0    0 -0.21802452638E+02 -0.22976431700E+02  0.23012221024E+03  0.25375144299E+03  0.10212883933E+03 0.  0.
        -13    1    3    3    0    0  0.10527916473E+03  0.46245550832E+02 -0.15001082576E+02  0.11596286465E+03  0.00000000000E+00 0.  1.
         14    1    3    3    0    0 -0.70655875587E+01  0.21070660017E+02 -0.18382450149E+02  0.28841111535E+02  0.00000000000E+00 0. -1.
        -11    1    4    4    0    0 -0.81701135907E+01 -0.61546900472E+02  0.17042793330E+03  0.18138481789E+03  0.00000000000E+00 0. -1.
         11    1    4    4    0    0 -0.13632339047E+02  0.38570468772E+02  0.59694276942E+02  0.72366625103E+02  0.00000000000E+00 0.  1.
         21    1    1    2  502  501 -0.76411124538E+02 -0.44339779149E+02  0.17968449300E+03  0.20022785269E+03  0.00000000000E+00 0. -1.
<scales pt_clust_5="13000.00000" pt_clust_6="13000.00000" pt_clust_7="13000.00000" pt_clust_8="13000.00000" pt_clust_9="88.34408"></scales>
<clustering>
<clus scale="   75.342">  5  6 -1 -1</clus>
<clus scale="   88.344">  1  9  2 -1</clus>
<clus scale="  102.129">  7  8 -1 -1</clus>
<clus scale="  127.281">  2  5  1 -1</clus>
<clus scale="   88.344">  1  5  2 -1</clus>
</clustering>
</event>
<event>
 9    2  0.3791909E-005  0.1256914E+03  0.7546771E-02  0.1236353E+00
          4   -1    0    0  502    0  0.00000000000E+00  0.00000000000E+00  0.28438958194E+02  0.28438958194E+02  0.00000000000E+00 0. -1.
         -3   -1    0    0    0  501 -0.00000000000E+00 -0.00000000000E+00 -0.75654184320E+03  0.75654184320E+03  0.00000000000E+00 0.  1.
         24    2    1    2    0    0  0.78978597843E+02 -0.24188709812E+02 -0.38399245670E+03  0.40088958858E+03  0.80246762126E+02 0.  0.
         23    2    1    2    0    0 -0.10268525672E+03  0.32417196325E+00 -0.29254178065E+03  0.32252135604E+03  0.88853613549E+02 0.  0.
        -11    1    3    3    0    0  0.29527388995E+02  0.29026316971E+02 -0.16716145133E+03  0.17221307903E+03  0.00000000000E+00 0.  1.
         12    1    3    3    0    0  0.49451208848E+02 -0.53215026782E+02 -0.21683100537E+03  0.22867650955E+03  0.00000000000E+00 0. -1.
        -11    1    4    4    0    0 -0.62285319690E+02  0.40595311274E+02 -0.20469902928E+03  0.21778230630E+03  0.00000000000E+00 0.  1.
         11    1    4    4    0    0 -0.40399937029E+02 -0.40271139311E+02 -0.87842751366E+02  0.10473904974E+03  0.00000000000E+00 0. -1.
         21    1    1    2  502  501  0.23706658876E+02  0.23864537848E+02 -0.51568647653E+02  0.61569856768E+02  0.00000000000E+00 0. -1.
<scales pt_clust_5="13000.00000" pt_clust_6="13000.00000" pt_clust_7="13000.00000" pt_clust_8="13000.00000" pt_clust_9="33.63810"></scales>
<clustering>
<clus scale="   33.638">  1  9  2 -1</clus>
<clus scale="   80.247">  5  6 -1 -1</clus>
<clus scale="   88.854">  7  8 -1 -1</clus>
<clus scale="  119.762">  2  5  1 -1</clus>
<clus scale="   33.638">  1  5  2 -1</clus>
</clustering>
</event>
<event>
 9    2  0.3791909E-005  0.1701439E+03  0.7546771E-02  0.1197874E+00
          2   -1    0    0  502    0  0.00000000000E+00  0.00000000000E+00  0.11277450003E+04  0.11277450003E+04  0.00000000000E+00 0. -1.
         -1   -1    0    0    0  501 -0.00000000000E+00 -0.00000000000E+00 -0.64210112525E+02  0.64210112525E+02  0.00000000000E+00 0.  1.
         24    2    1    2    0    0 -0.95263302223E+02 -0.12582143750E+03  0.10724696618E+03  0.20793834790E+03  0.82645713076E+02 0.  0.
         23    2    1    2    0    0 -0.63740058551E+01  0.58522929606E+02  0.39935971913E+03  0.41390427228E+03  0.91449440204E+02 0.  0.
        -11    1    3    3    0    0 -0.10234720333E+03 -0.90247441718E+02  0.10390872537E+03  0.17151260588E+03  0.00000000000E+00 0.  1.
         12    1    3    3    0    0  0.70839011097E+01 -0.35573995779E+02  0.33382408133E+01  0.36425742028E+02  0.00000000000E+00 0. -1.
        -11    1    4    4    0    0  0.36156293585E+02  0.20635605786E+01  0.17360209433E+03  0.17733928782E+03  0.00000000000E+00 0.  1.
         11    1    4    4    0    0 -0.42530299440E+02  0.56459369028E+02  0.22575762480E+03  0.23656498447E+03  0.00000000000E+00 0. -1.
         21    1    1    2  502  501  0.10163730808E+03  0.67298507890E+02  0.55692820246E+03  0.57011249263E+03  0.00000000000E+00 0. -1.
<scales pt_clust_5="13000.00000" pt_clust_6="13000.00000" pt_clust_7="13000.00000" pt_clust_8="13000.00000" pt_clust_9="148.72331"></scales>
<clustering>
<clus scale="   82.646">  5  6 -1 -1</clus>
<clus scale="   91.449">  7  8 -1 -1</clus>
<clus scale="  108.759">  1  7  2 -1</clus>
<clus scale="  148.723">  1  9  2 -1</clus>
<clus scale="  108.759">  1  5  2 -1</clus>
</clustering>
</event>
<event>
 9    2  0.3791909E-005  0.1696891E+03  0.7546771E-02  0.1180139E+00
          2   -1    0    0  502    0  0.00000000000E+00  0.00000000000E+00  0.29319919301E+03  0.29319919301E+03  0.00000000000E+00 0. -1.
         -1   -1    0    0    0  501 -0.00000000000E+00 -0.00000000000E+00 -0.20484967050E+03  0.20484967050E+03  0.00000000000E+00 0.  1.
         23    2    1    2    0    0  0.12278210812E+03  0.73152844068E+02 -0.10702014452E+03  0.20201740768E+03  0.94503634871E+02 0.  0.
         24    2    1    2    0    0 -0.84968080694E+02 -0.11233948670E+03  0.17290633891E+03  0.23712394577E+03  0.80569402442E+02 0.  0.
        -13    1    4    4    0    0  0.97967362376E+01 -0.41958432136E+02  0.34356423264E+02  0.55107620959E+02  0.00000000000E+00 0.  1.
         14    1    4    4    0    0 -0.94764816931E+02 -0.70381054568E+02  0.13854991565E+03  0.18201632481E+03  0.00000000000E+00 0. -1.
        -13    1    3    3    0    0  0.61771403623E+02 -0.15093758327E+02 -0.32682788309E+02  0.71496101276E+02  0.00000000000E+00 0. -1.
         13    1    3    3    0    0  0.61010704496E+02  0.88246602395E+02 -0.74337356209E+02  0.13052130640E+03  0.00000000000E+00 0.  1.
         21    1    1    2  502  501 -0.37814027425E+02  0.39186642636E+02  0.22463328116E+02  0.58907510058E+02  0.00000000000E+00 0.  1.
<scales pt_clust_5="13000.00000" pt_clust_6="13000.00000" pt_clust_7="13000.00000" pt_clust_8="13000.00000" pt_clust_9="54.45635"></scales>
<clustering>
<clus scale="   54.456">  1  9  2 -1</clus>
<clus scale="   80.569">  5  6 -1 -1</clus>
<clus scale="   94.504">  7  8 -1 -1</clus>
<clus scale="  162.342">  1  5  2 -1</clus>
<clus scale="   54.456">  1  5  2 -1</clus>
</clustering>
</event>
<event>
 9    2  0.3791909E-005  0.9390928E+02  0.7546771E-02  0.1302269E+00
          2   -1    0    0  502    0  0.00000000000E+00  0.00000000000E+00  0.68193828323E+03  0.68193828323E+03  0.00000000000E+00 0. -1.
         -1   -1    0    0    0  501 -0.00000000000E+00 -0.00000000000E+00 -0.39618479267E+02  0.39618479267E+02  0.00000000000E+00 0.  1.
         23    2    1    2    0    0 -0.13696912140E+02  0.75413885543E+00  0.28567005979E+02  0.98532926587E+02  0.93297854550E+02 0.  0.
         24    2    1    2    0    0 -0.12176168154E+02  0.43835975631E+01  0.48130753217E+03  0.48797732149E+03  0.79356479064E+02 0.  0.
        -11    1    4    4    0    0 -0.12647229093E+02 -0.36529556101E+02  0.19896904760E+03  0.20268952310E+03  0.00000000000E+00 0.  1.
         12    1    4    4    0    0  0.47106093913E+00  0.40913153665E+02  0.28233848457E+03  0.28528779839E+03  0.00000000000E+00 0. -1.
        -11    1    3    3    0    0 -0.44968577995E+02 -0.14574227711E+01 -0.12660850405E+02  0.46739642928E+02  0.00000000000E+00 0.  1.
         11    1    3    3    0    0  0.31271665855E+02  0.22115616266E+01  0.41227856384E+02  0.51793283659E+02  0.00000000000E+00 0. -1.
         21    1    1    2  502  501  0.25873080294E+02 -0.51377364186E+01  0.13244526582E+03  0.13504651442E+03  0.00000000000E+00 0.  1.
<scales pt_clust_5="13000.00000" pt_clust_6="13000.00000" pt_clust_7="13000.00000" pt_clust_8="13000.00000" pt_clust_9="26.37826"></scales>
<clustering>
<clus scale="   26.378">  1  9  2 -1</clus>
<clus scale="   79.356">  5  6 -1 -1</clus>
<clus scale="   80.074">  1  5  2 -1</clus>
<clus scale="   93.298">  7  8 -1 -1</clus>
<clus scale="   26.378">  1  5  2 -1</clus>
</clustering>
</event>
<event>
 9    2  0.3903011E-005  0.1245652E+03  0.7546771E-02  0.1236065E+00
         -1   -1    0    0    0  501 -0.00000000000E+00  0.00000000000E+00  0.65293635716E+02  0.65293635716E+02  0.00000000000E+00 0.  1.
          2   -1    0    0  502    0  0.00000000000E+00 -0.00000000000E+00 -0.13481643300E+04  0.13481643300E+04  0.00000000000E+00 0. -1.
         23    2    1    2    0    0  0.56729052695E+02  0.75199111077E+02 -0.17189819504E+02  0.13216933574E+03  0.91105168296E+02 0.  0.
         24    2    1    2    0    0 -0.70539840640E+02 -0.44701772529E+02 -0.12095703631E+04  0.12159493995E+04  0.92186556508E+02 0.  0.
        -13    1    4    4    0    0 -0.33862375006E+02  0.13966172376E+02 -0.16168186746E+03  0.16577919253E+03  0.00000000000E+00 0.  1.
         14    1    4    4    0    0 -0.36677465634E+02 -0.58667944905E+02 -0.10478884956E+04  0.10501702069E+04  0.00000000000E+00 0. -1.
        -13    1    3    3    0    0  0.46294590907E+02  0.93047626302E+02  0.20198595192E+01  0.10394772600E+03  0.00000000000E+00 0.  1.
         13    1    3    3    0    0  0.10434461787E+02 -0.17848515225E+02 -0.19209679023E+02  0.28221609747E+02  0.00000000000E+00 0. -1.
         21    1    1    2  502  501  0.13810787945E+02 -0.30497338548E+02 -0.56110511736E+02  0.65339230554E+02  0.00000000000E+00 0.  1.
<scales pt_clust_5="13000.00000" pt_clust_6="13000.00000" pt_clust_7="13000.00000" pt_clust_8="13000.00000" pt_clust_9="33.47873"></scales>
<clustering>
<clus scale="   33.479">  1  9  2 -1</clus>
<clus scale="   91.105">  7  8 -1 -1</clus>
<clus scale="   92.187">  5  6 -1 -1</clus>
<clus scale="  123.767">  1  7  2 -1</clus>
<clus scale="  124.565">  2  5  1 -1</clus>
</clustering>
</event>
<event>
 9    2  0.3791909E-005  0.1182952E+03  0.7546771E-02  0.1261716E+00
          2   -1    0    0  502    0  0.00000000000E+00  0.00000000000E+00  0.82798472670E+03  0.82798472670E+03  0.00000000000E+00 0. -1.
         -1   -1    0    0    0  501 -0.00000000000E+00 -0.00000000000E+00 -0.24304849780E+02  0.24304849780E+02  0.00000000000E+00 0.  1.
         23    2    1    2    0    0 -0.73974794947E+01  0.34624581066E+02  0.15728510022E+03  0.19732426806E+03  0.11377468831E+03 0.  0.
         24    2    1    2    0    0 -0.11186242425E+02 -0.25334592237E+02  0.52081533892E+03  0.52767880557E+03  0.80183109273E+02 0.  0.
        -13    1    4    4    0    0  0.15267944545E+02 -0.45924691018E+02  0.23702260695E+03  0.24191300829E+03  0.00000000000E+00 0.  1.
         14    1    4    4    0    0 -0.26454186971E+02  0.20590098781E+02  0.28379273197E+03  0.28576579728E+03  0.00000000000E+00 0. -1.
        -13    1    3    3    0    0 -0.65531293408E+01  0.57311343100E+02  0.16383688476E+03  0.17369530322E+03  0.00000000000E+00 0. -1.
         13    1    3    3    0    0 -0.84435015389E+00 -0.22686762034E+02 -0.65517845454E+01  0.23628964842E+02  0.00000000000E+00 0.  1.
         21    1    1    2  502  501  0.18583721920E+02 -0.92899888292E+01  0.12557943779E+03  0.12728650285E+03  0.00000000000E+00 0. -1.
<scales pt_clust_5="13000.00000" pt_clust_6="13000.00000" pt_clust_7="13000.00000" pt_clust_8="13000.00000" pt_clust_9="20.77640"></scales>
<clustering>
<clus scale="   20.776">  1  9  2 -1</clus>
<clus scale="   80.183">  5  6 -1 -1</clus>
<clus scale="   86.478">  1  5  2 -1</clus>
<clus scale="  113.775">  7  8 -1 -1</clus>
<clus scale="   20.776">  1  5  2 -1</clus>
</clustering>
</event>
<event>
 9    2  0.3791909E-005  0.9499745E+02  0.7546771E-02  0.1295303E+00
          2   -1    0    0  502    0  0.00000000000E+00  0.00000000000E+00  0.76115206500E+03  0.76115206500E+03  0.00000000000E+00 0. -1.
         -1   -1    0    0    0  501 -0.00000000000E+00 -0.00000000000E+00 -0.32683278947E+02  0.32683278947E+02  0.00000000000E+00 0.  1.
         23    2    1    2    0    0 -0.24431383906E+02  0.71947703211E+01  0.52873345495E+02  0.10866935338E+03  0.91459173736E+02 0.  0.
         24    2    1    2    0    0  0.30996230965E+02  0.14277108667E+02  0.50480052234E+03  0.51290153430E+03  0.84141632772E+02 0.  0.
        -13    1    4    4    0    0  0.25790843856E+02  0.47030854163E+02  0.23350642934E+03  0.23958781567E+03  0.00000000000E+00 0.  1.
         14    1    4    4    0    0  0.52053871089E+01 -0.32753745496E+02  0.27129409300E+03  0.27331371864E+03  0.00000000000E+00 0. -1.
        -11    1    3    3    0    0 -0.39836533143E+02  0.34927425203E+02  0.55634958436E+02  0.76825275816E+02  0.00000000000E+00 0.  1.
         11    1    3    3    0    0  0.15405149237E+02 -0.27732654881E+02 -0.27616129408E+01  0.31844077563E+02  0.00000000000E+00 0. -1.
         21    1    1    2  502  501 -0.65648470589E+01 -0.21471878988E+02  0.17079491822E+03  0.17226445627E+03  0.00000000000E+00 0. -1.
<scales pt_clust_5="13000.00000" pt_clust_6="13000.00000" pt_clust_7="13000.00000" pt_clust_8="13000.00000" pt_clust_9="22.45304"></scales>
<clustering>
<clus scale="   22.453">  1  9  2 -1</clus>
<clus scale="   84.142">  5  6 -1 -1</clus>
<clus scale="   87.975">  1  5  2 -1</clus>
<clus scale="   91.459">  7  8 -1 -1</clus>
<clus scale="   22.453">  1  5  2 -1</clus>
</clustering>
</event>
<event>
 9    2  0.3791909E-005  0.1042230E+03  0.7546771E-02  0.1276486E+00
          2   -1    0    0  502    0  0.00000000000E+00  0.00000000000E+00  0.45524061655E+03  0.45524061655E+03  0.00000000000E+00 0. -1.
         -1   -1    0    0    0  501 -0.00000000000E+00 -0.00000000000E+00 -0.39313503415E+02  0.39313503415E+02  0.00000000000E+00 0.  1.
         23    2    1    2    0    0  0.21882050263E+02 -0.40566782199E+02  0.64547723700E+02  0.12076049579E+03  0.91061521884E+02 0.  0.
         24    2    1    2    0    0 -0.30820683729E+02  0.59272665493E+02  0.31556733026E+03  0.33241352242E+03  0.80329611881E+02 0.  0.
        -13    1    4    4    0    0  0.27375041074E+02  0.20101932880E+02  0.11637029834E+03  0.12122510844E+03  0.00000000000E+00 0.  1.
         14    1    4    4    0    0 -0.58195724803E+02  0.39170732613E+02  0.19919703192E+03  0.21118841399E+03  0.00000000000E+00 0. -1.
        -13    1    3    3    0    0  0.54193072351E+02 -0.28278231391E+02  0.19880592258E+02  0.64278965533E+02  0.00000000000E+00 0.  1.
         13    1    3    3    0    0 -0.32311022089E+02 -0.12288550809E+02  0.44667131441E+02  0.56481530261E+02  0.00000000000E+00 0. -1.
         21    1    1    2  502  501  0.89386334660E+01 -0.18705883294E+02  0.35812059184E+02  0.41380101753E+02  0.00000000000E+00 0.  1.
<scales pt_clust_5="13000.00000" pt_clust_6="13000.00000" pt_clust_7="13000.00000" pt_clust_8="13000.00000" pt_clust_9="20.73184"></scales>
<clustering>
<clus scale="   20.732">  1  9  2 -1</clus>
<clus scale="   80.330">  5  6 -1 -1</clus>
<clus scale="   91.062">  7  8 -1 -1</clus>
<clus scale="   94.990">  1  5  2 -1</clus>
<clus scale="   20.732">  1  5  2 -1</clus>
</clustering>
</event>
<event>
 9    2  0.3791909E-005  0.9562604E+02  0.7546771E-02  0.1295602E+00
          2   -1    0    0  502    0  0.00000000000E+00  0.00000000000E+00  0.45408570673E+03  0.45408570673E+03  0.00000000000E+00 0. -1.
         -1   -1    0    0    0  501 -0.00000000000E+00 -0.00000000000E+00 -0.83350893994E+02  0.83350893994E+02  0.00000000000E+00 0.  1.
         24    2    1    2    0    0  0.22003922331E+01  0.24858874518E+02 -0.47812966592E+02  0.97770711036E+02  0.81548922703E+02 0.  0.
         23    2    1    2    0    0 -0.21693643260E+02 -0.16586444668E+02  0.40061504553E+03  0.41191696407E+03  0.91855572958E+02 0.  0.
        -11    1    3    3    0    0 -0.83949726601E+01  0.48979505829E+02 -0.51031397776E+02  0.71229706697E+02  0.00000000000E+00 0.  1.
         12    1    3    3    0    0  0.10595364893E+02 -0.24120631310E+02  0.32184311846E+01  0.26541004339E+02  0.00000000000E+00 0. -1.
        -11    1    4    4    0    0  0.23297102875E+02 -0.37763091963E+02  0.22824023856E+03  0.23251325256E+03  0.00000000000E+00 0.  1.
         11    1    4    4    0    0 -0.44990746135E+02  0.21176647294E+02  0.17237480697E+03  0.17940371152E+03  0.00000000000E+00 0. -1.
         21    1    1    2  502  501  0.19493251027E+02 -0.82724298499E+01  0.17932733802E+02  0.27748925616E+02  0.00000000000E+00 0.  1.
<scales pt_clust_5="13000.00000" pt_clust_6="13000.00000" pt_clust_7="13000.00000" pt_clust_8="13000.00000" pt_clust_9="21.17593"></scales>
<clustering>
<clus scale="   21.176">  2  9  1 -1</clus>
<clus scale="   81.549">  5  6 -1 -1</clus>
<clus scale="   85.774">  2  5  1 -1</clus>
<clus scale="   91.856">  7  8 -1 -1</clus>
<clus scale="   95.626">  1  5  2 -1</clus>
</clustering>
</event>
<event>
 9    2  0.3791909E-005  0.1116634E+03  0.7546771E-02  0.1259708E+00
         -1   -1    0    0    0  501 -0.00000000000E+00  0.00000000000E+00  0.46240376104E+02  0.46240376104E+02  0.00000000000E+00 0.  1.
          2   -1    0    0  502    0  0.00000000000E+00 -0.00000000000E+00 -0.40525466742E+03  0.40525466742E+03  0.00000000000E+00 0. -1.
         24    2    1    2    0    0 -0.75328393664E+02 -0.11958592096E+02 -0.64635123267E+02  0.12864462119E+03  0.80959030279E+02 0.  0.
         23    2    1    2    0    0  0.56685831689E+02  0.86531113056E+00 -0.19320887213E+03  0.21938045193E+03  0.87086635842E+02 0.  0.
        -13    1    3    3    0    0 -0.43838891577E+02 -0.16113315218E+02  0.97934014003E+01  0.47722091876E+02  0.00000000000E+00 0.  1.
         14    1    3    3    0    0 -0.31489502087E+02  0.41547231222E+01 -0.74428524667E+02  0.80922529311E+02  0.00000000000E+00 0. -1.
        -13    1    4    4    0    0  0.53295049593E+02 -0.36615976721E+02 -0.10271973823E+03  0.12137724945E+03  0.00000000000E+00 0.  1.
         13    1    4    4    0    0  0.33907820961E+01  0.37481287852E+02 -0.90489133906E+02  0.98003202485E+02  0.00000000000E+00 0. -1.
         21    1    1    2  502  501  0.18642561975E+02  0.11093280965E+02 -0.10117029592E+03  0.10346997041E+03  0.00000000000E+00 0. -1.
<scales pt_clust_5="13000.00000" pt_clust_6="13000.00000" pt_clust_7="13000.00000" pt_clust_8="13000.00000" pt_clust_9="21.69346"></scales>
<clustering>
<clus scale="   21.693">  2  9  1 -1</clus>
<clus scale="   80.959">  5  6 -1 -1</clus>
<clus scale="   87.087">  7  8 -1 -1</clus>
<clus scale="  106.953">  1  5  2 -1</clus>
<clus scale="   21.693">  2  5  1 -1</clus>
</clustering>
</event>
<event>
 9    2  0.3791909E-005  0.1270008E+03  0.7546771E-02  0.1232665E+00
         -1   -1    0    0    0  501 -0.00000000000E+00  0.00000000000E+00  0.37680456861E+03  0.37680456861E+03  0.00000000000E+00 0.  1.
          2   -1    0    0  502    0  0.00000000000E+00 -0.00000000000E+00 -0.14789012865E+03  0.14789012865E+03  0.00000000000E+00 0. -1.
         23    2    1    2    0    0  0.42583287278E+02 -0.80448996332E+02  0.31493614694E+03  0.34036600384E+03  0.91536127066E+02 0.  0.
         24    2    1    2    0    0 -0.63012733336E+02  0.42140648649E+02 -0.47251138235E+02  0.12612174564E+03  0.89036991344E+02 0.  0.
        -11    1    4    4    0    0  0.10287513717E+02  0.28945304283E+02 -0.41208585187E+02  0.51398551260E+02  0.00000000000E+00 0.  1.
         12    1    4    4    0    0 -0.73300247053E+02  0.13195344366E+02 -0.60425530481E+01  0.74723194379E+02  0.00000000000E+00 0. -1.
        -11    1    3    3    0    0  0.30482304104E+01 -0.64038934414E+02  0.27305294343E+03  0.28047849605E+03  0.00000000000E+00 0.  1.
         11    1    3    3    0    0  0.39535056868E+02 -0.16410061918E+02  0.41883203501E+02  0.59887507789E+02  0.00000000000E+00 0. -1.
         21    1    1    2  502  501  0.20429446057E+02  0.38308347683E+02 -0.38770568743E+02  0.58206947773E+02  0.00000000000E+00 0. -1.
<scales pt_clust_5="13000.00000" pt_clust_6="13000.00000" pt_clust_7="13000.00000" pt_clust_8="13000.00000" pt_clust_9="43.41534"></scales>
<clustering>
<clus scale="   43.415">  2  9  1 -1</clus>
<clus scale="   89.037">  5  6 -1 -1</clus>
<clus scale="   91.536">  7  8 -1 -1</clus>
<clus scale="  125.212">  2  5  1 -1</clus>
<clus scale="   43.415">  2  5  1 -1</clus>
</clustering>
</event>
<event>
 9    2  0.3791909E-005  0.1101702E+03  0.7546771E-02  0.1268682E+00
         -1   -1    0    0    0  501 -0.00000000000E+00  0.00000000000E+00  0.16179883172E+03  0.16179883172E+03  0.00000000000E+00 0.  1.
          2   -1    0    0  502    0  0.00000000000E+00 -0.00000000000E+00 -0.18023863687E+03  0.18023863687E+03  0.00000000000E+00 0. -1.
         23    2    1    2    0    0  0.52345777052E+02 -0.23633876121E+02  0.98402815883E+02  0.15100429973E+03  0.99098657348E+02 0.  0.
         24    2    1    2    0    0  0.18272161275E+01  0.15307643336E+02 -0.10825344179E+03  0.13555512507E+03  0.80116924619E+02 0.  0.
        -13    1    4    4    0    0  0.38694141257E+02  0.12622024970E+02 -0.35748198069E+02  0.54170893911E+02  0.00000000000E+00 0.  1.
         14    1    4    4    0    0 -0.36866925130E+02  0.26856183662E+01 -0.72505243717E+02  0.81384231157E+02  0.00000000000E+00 0. -1.
        -11    1    3    3    0    0  0.20418614226E+02  0.30987563407E+02  0.39497897968E+01  0.37319562326E+02  0.00000000000E+00 0. -1.
         11    1    3    3    0    0  0.31927162827E+02 -0.54621439528E+02  0.94453026086E+02  0.11368473741E+03  0.00000000000E+00 0.  1.
         21    1    1    2  502  501 -0.54172993180E+02  0.83262327856E+01 -0.85891792496E+01  0.55478043789E+02  0.00000000000E+00 0. -1.
<scales pt_clust_5="13000.00000" pt_clust_6="13000.00000" pt_clust_7="13000.00000" pt_clust_8="13000.00000" pt_clust_9="54.80912"></scales>
<clustering>
<clus scale="   54.809">  2  9  1 -1</clus>
<clus scale="   80.117">  5  6 -1 -1</clus>
<clus scale="   93.465">  2  5  1 -1</clus>
<clus scale="   99.099">  7  8 -1 -1</clus>
<clus scale="   54.809">  2  5  1 -1</clus>
</clustering>
</event>
<event>
 9    2  0.3791909E-005  0.1310714E+03  0.7546771E-02  0.1228242E+00
         -1   -1    0    0    0  501 -0.00000000000E+00  0.00000000000E+00  0.15005382618E+03  0.15005382618E+03  0.00000000000E+00 0.  1.
          2   -1    0    0  502    0  0.00000000000E+00 -0.00000000000E+00 -0.49474342724E+03  0.49474342724E+03  0.00000000000E+00 0. -1.
         24    2    1    2    0    0  0.63065431693E+02 -0.93613036889E+02  0.81856208036E+02  0.16134330459E+03  0.81182349023E+02 0.  0.
         23    2    1    2    0    0 -0.72861461168E+01  0.49390960810E+02 -0.82935452922E+02  0.13254798197E+03  0.90543488097E+02 0.  0.
        -11    1    3    3    0    0  0.26370345242E+02 -0.45617214787E+02  0.85920820780E+02  0.10079044020E+03  0.00000000000E+00 0.  1.
         12    1    3    3    0    0  0.36695086451E+02 -0.47995822103E+02 -0.40646127443E+01  0.60552864389E+02  0.00000000000E+00 0. -1.
        -11    1    4    4    0    0  0.22024355369E+02 -0.17562933011E+02 -0.11749895024E+02  0.30521940935E+02  0.00000000000E+00 0.  1.
         11    1    4    4    0    0 -0.29310501486E+02  0.66953893820E+02 -0.71185557898E+02  0.10202604103E+03  0.00000000000E+00 0. -1.
         21    1    1    2  502  501 -0.55779285576E+02  0.44222076080E+02 -0.34361035617E+03  0.35090596686E+03  0.00000000000E+00 0. -1.
<scales pt_clust_5="13000.00000" pt_clust_6="13000.00000" pt_clust_7="13000.00000" pt_clust_8="13000.00000" pt_clust_9="71.18231"></scales>
<clustering>
<clus scale="   71.182">  2  9  1 -1</clus>
<clus scale="   81.182">  5  6 -1 -1</clus>
<clus scale="   90.543">  7  8 -1 -1</clus>
<clus scale="  124.788">  1  5  2 -1</clus>
<clus scale="   71.182">  2  5  1 -1</clus>
</clustering>
</event>
<event>
 9    2  0.3791909E-005  0.1210555E+03  0.7546771E-02  0.1244389E+00
         -1   -1    0    0    0  501 -0.00000000000E+00  0.00000000000E+00  0.92467594507E+02  0.92467594507E+02  0.00000000000E+00 0.  1.
          2   -1    0    0  502    0  0.00000000000E+00 -0.00000000000E+00 -0.42908993589E+03  0.42908993589E+03  0.00000000000E+00 0. -1.
         24    2    1    2    0    0 -0.14086746139E+02  0.82404928511E+02  0.35328944176E+01  0.11578259999E+03  0.80025748719E+02 0.  0.
         23    2    1    2    0    0  0.65653249180E+02 -0.59110450150E+02 -0.10549486833E+03  0.16438888064E+03  0.89945218830E+02 0.  0.
        -11    1    3    3    0    0  0.20518099736E+02  0.33125300126E+02  0.30812141439E+02  0.49675607548E+02  0.00000000000E+00 0.  1.
         12    1    3    3    0    0 -0.34604845875E+02  0.49279628385E+02 -0.27279247022E+02  0.66106992443E+02  0.00000000000E+00 0. -1.
        -13    1    4    4    0    0 -0.21417163694E+02 -0.53725035914E+01 -0.29921923711E+02  0.37187097414E+02  0.00000000000E+00 0.  1.
         13    1    4    4    0    0  0.87070412874E+02 -0.53737946559E+02 -0.75572944615E+02  0.12720178323E+03  0.00000000000E+00 0. -1.
         21    1    1    2  502  501 -0.51566503041E+02 -0.23294478361E+02 -0.23466036748E+03  0.24138604977E+03  0.00000000000E+00 0. -1.
<scales pt_clust_5="13000.00000" pt_clust_6="13000.00000" pt_clust_7="13000.00000" pt_clust_8="13000.00000" pt_clust_9="56.58389"></scales>
<clustering>
<clus scale="   56.584">  2  9  1 -1</clus>
<clus scale="   80.026">  5  6 -1 -1</clus>
<clus scale="   89.945">  7  8 -1 -1</clus>
<clus scale="  113.879">  1  5  2 -1</clus>
<clus scale="   56.584">  2  5  1 -1</clus>
</clustering>
</event>
<event>
 9    2  0.3791909E-005  0.1467285E+03  0.7546771E-02  0.1226172E+00
         -1   -1    0    0    0  501 -0.00000000000E+00  0.00000000000E+00  0.20347920808E+03  0.20347920808E+03  0.00000000000E+00 0.  1.
          2   -1    0    0  502    0  0.00000000000E+00 -0.00000000000E+00 -0.60640251778E+03  0.60640251778E+03  0.00000000000E+00 0. -1.
         23    2    1    2    0    0  0.34372044381E+02  0.10303359525E+03  0.15940804256E+03  0.21731655172E+03  0.10009096080E+03 0.  0.
         24    2    1    2    0    0 -0.12329764905E+02 -0.12733224446E+02 -0.24960130328E+03  0.26631358015E+03  0.91147980040E+02 0.  0.
        -13    1    4    4    0    0  0.23989700837E+02  0.25251866096E+02 -0.58181418623E+02  0.67810323407E+02  0.00000000000E+00 0.  1.
         14    1    4    4    0    0 -0.36319465742E+02 -0.37985090542E+02 -0.19141988465E+03  0.19850325674E+03  0.00000000000E+00 0. -1.
        -13    1    3    3    0    0  0.58588907771E+02  0.87004239372E+02  0.77513680629E+02  0.13042533675E+03  0.00000000000E+00 0.  1.
         13    1    3    3    0    0 -0.24216863390E+02  0.16029355874E+02  0.81894361927E+02  0.86891214962E+02  0.00000000000E+00 0. -1.
         21    1    1    2  502  501 -0.22042279476E+02 -0.90300370800E+02 -0.31273004898E+03  0.32625159400E+03  0.00000000000E+00 0. -1.
<scales pt_clust_5="13000.00000" pt_clust_6="13000.00000" pt_clust_7="13000.00000" pt_clust_8="13000.00000" pt_clust_9="107.28962"></scales>
<clustering>
<clus scale="   91.148">  5  6 -1 -1</clus>
<clus scale="   92.855">  2  5  1 -1</clus>
<clus scale="  100.091">  7  8 -1 -1</clus>
<clus scale="  107.290">  2  9  1 -1</clus>
<clus scale="   92.855">  2  5  1 -1</clus>
</clustering>
</event>
<event>
 9    2  0.3791909E-005  0.8654497E+02  0.7546771E-02  0.1313837E+00
         -1   -1    0    0    0  501 -0.00000000000E+00  0.00000000000E+00  0.34002576023E+03  0.34002576023E+03  0.00000000000E+00 0.  1.
          2   -1    0    0  502    0  0.00000000000E+00 -0.00000000000E+00 -0.10540101194E+03  0.10540101194E+03  0.00000000000E+00 0. -1.
         24    2    1    2    0    0  0.97774244162E+01 -0.29325069550E+02  0.29042932288E+03  0.30216388430E+03  0.77448458040E+02 0.  0.
         23    2    1    2    0    0  0.20243223938E+02  0.15040263045E+02 -0.66796489499E+02  0.10824693125E+03  0.81361105492E+02 0.  0.
        -11    1    3    3    0    0  0.14455558781E+02 -0.45377266556E+02  0.97480381737E+02  0.10849186294E+03  0.00000000000E+00 0.  1.
         12    1    3    3    0    0 -0.46781343650E+01  0.16052197006E+02  0.19294894115E+03  0.19367202137E+03  0.00000000000E+00 0. -1.
        -13    1    4    4    0    0  0.49123291677E+02  0.12254932927E+02 -0.22755240118E+02  0.55507496062E+02  0.00000000000E+00 0.  1.
         13    1    4    4    0    0 -0.28880067739E+02  0.27853301178E+01 -0.44041249381E+02  0.52739435184E+02  0.00000000000E+00 0. -1.
         21    1    1    2  502  501 -0.30020648354E+02  0.14284806505E+02  0.10991914908E+02  0.35015956617E+02  0.00000000000E+00 0. -1.
<scales pt_clust_5="13000.00000" pt_clust_6="13000.00000" pt_clust_7="13000.00000" pt_clust_8="13000.00000" pt_clust_9="33.24598"></scales>
<clustering>
<clus scale="   33.246">  2  9  1 -1</clus>
<clus scale="   77.448">  5  6 -1 -1</clus>
<clus scale="   81.361">  7  8 -1 -1</clus>
<clus scale="   82.877">  1  5  2 -1</clus>
<clus scale="   33.246">  2  5  1 -1</clus>
</clustering>
</event>
<event>
 9    2  0.3791909E-005  0.1389673E+03  0.7546771E-02  0.1218153E+00
          4   -1    0    0  502    0  0.00000000000E+00  0.00000000000E+00  0.60803427266E+02  0.60803427266E+02  0.00000000000E+00 0. -1.
         -3   -1    0    0    0  501 -0.00000000000E+00 -0.00000000000E+00 -0.69932499713E+03  0.69932499713E+03  0.00000000000E+00 0.  1.
         23    2    1    2    0    0  0.73086311531E+02  0.82466577969E+02 -0.57849002731E+03  0.59654096068E+03  0.95226365355E+02 0.  0.
         24    2    1    2    0    0 -0.53241552524E+02 -0.46021757681E+02 -0.59041245034E+02  0.12207818674E+03  0.80402425139E+02 0.  0.
        -13    1    4    4    0    0 -0.13154886757E+02  0.18466381876E+02 -0.36326685970E+02  0.42821564880E+02  0.00000000000E+00 0.  1.
         14    1    4    4    0    0 -0.40086665767E+02 -0.64488139557E+02 -0.22714559064E+02  0.79256621864E+02  0.00000000000E+00 0. -1.
        -11    1    3    3    0    0 -0.21736647287E+02  0.30331872615E+02 -0.15875065235E+03  0.16307750904E+03  0.00000000000E+00 0.  1.
         11    1    3    3    0    0  0.94822958818E+02  0.52134705354E+02 -0.41973937496E+03  0.43346345164E+03  0.00000000000E+00 0. -1.
         21    1    1    2  502  501 -0.19844759007E+02 -0.36444820289E+02 -0.99029752708E+00  0.41509276977E+02  0.00000000000E+00 0. -1.
<scales pt_clust_5="13000.00000" pt_clust_6="13000.00000" pt_clust_7="13000.00000" pt_clust_8="13000.00000" pt_clust_9="41.49746"></scales>
<clustering>
<clus scale="   41.497">  1  9  2 -1</clus>
<clus scale="   80.402">  5  6 -1 -1</clus>
<clus scale="   95.226">  7  8 -1 -1</clus>
<clus scale="  129.261">  1  5  2 -1</clus>
<clus scale="   41.497">  1  5  2 -1</clus>
</clustering>
</event>
<event>
 9    2  0.3791909E-005  0.2030974E+03  0.7546771E-02  0.1148554E+00
         -1   -1    0    0    0  501 -0.00000000000E+00  0.00000000000E+00  0.44247905824E+03  0.44247905824E+03  0.00000000000E+00 0.  1.
          2   -1    0    0  502    0  0.00000000000E+00 -0.00000000000E+00 -0.20205028179E+03  0.20205028179E+03  0.00000000000E+00 0. -1.
         23    2    1    2    0    0 -0.11835827863E+03 -0.13702863712E+03  0.33987742754E+03  0.39702966155E+03  0.96593772524E+02 0.  0.
         24    2    1    2    0    0  0.81705798455E+02  0.14855247390E+03 -0.84269725469E+02  0.20618862790E+03  0.81662039165E+02 0.  0.
        -11    1    4    4    0    0  0.26719606632E+02  0.34139135528E+01  0.46212263962E+01  0.27330347926E+02  0.00000000000E+00 0.  1.
         12    1    4    4    0    0  0.54986191823E+02  0.14513856035E+03 -0.88890951865E+02  0.17885827997E+03  0.00000000000E+00 0. -1.
        -11    1    3    3    0    0 -0.53840161068E+02 -0.87314255981E+02  0.27301780116E+03  0.29165263927E+03  0.00000000000E+00 0.  1.
         11    1    3    3    0    0 -0.64518117566E+02 -0.49714381141E+02  0.66859626380E+02  0.10537702229E+03  0.00000000000E+00 0. -1.
         21    1    1    2  502  501  0.36652480179E+02 -0.11523836780E+02 -0.15178925621E+02  0.41311050584E+02  0.00000000000E+00 0. -1.
<scales pt_clust_5="13000.00000" pt_clust_6="13000.00000" pt_clust_7="13000.00000" pt_clust_8="13000.00000" pt_clust_9="38.42139"></scales>
<clustering>
<clus scale="   38.421">  2  9  1 -1</clus>
<clus scale="   81.662">  5  6 -1 -1</clus>
<clus scale="   96.594">  7  8 -1 -1</clus>
<clus scale="  196.435">  2  5  1 -1</clus>
<clus scale="   38.421">  2  5  1 -1</clus>
</clustering>
</event>
<event>
 9    2  0.3791909E-005  0.1574805E+03  0.7546771E-02  0.1201808E+00
          2   -1    0    0  502    0  0.00000000000E+00  0.00000000000E+00  0.41778914731E+03  0.41778914731E+03  0.00000000000E+00 0. -1.
         -1   -1    0    0    0  501 -0.00000000000E+00 -0.00000000000E+00 -0.24882864594E+03  0.24882864594E+03  0.00000000000E+00 0.  1.
         23    2    1    2    0    0 -0.73135745183E+02 -0.52064160684E+02  0.18440156185E+02  0.12726859192E+03  0.88304819116E+02 0.  0.
         24    2    1    2    0    0 -0.63648196180E+02  0.79716188586E+02 -0.15552303634E+03  0.20299071304E+03  0.81314519919E+02 0.  0.
        -13    1    4    4    0    0 -0.68481195971E+02  0.23227190299E+02 -0.72017088432E+02  0.10205703110E+03  0.00000000000E+00 0.  1.
         14    1    4    4    0    0  0.48329997914E+01  0.56488998287E+02 -0.83505947908E+02  0.10093368194E+03  0.00000000000E+00 0. -1.
        -13    1    3    3    0    0 -0.75782596093E+02 -0.24301719225E+01  0.16081118794E+02  0.77508128528E+02  0.00000000000E+00 0.  1.
         13    1    3    3    0    0  0.26468509099E+01 -0.49633988761E+02  0.23590373911E+01  0.49760463397E+02  0.00000000000E+00 0. -1.
         21    1    1    2  502  501  0.13678394136E+03 -0.27652027902E+02  0.30604338153E+03  0.33635848828E+03  0.00000000000E+00 0. -1.
<scales pt_clust_5="13000.00000" pt_clust_6="13000.00000" pt_clust_7="13000.00000" pt_clust_8="13000.00000" pt_clust_9="134.86314"></scales>
<clustering>
<clus scale="   81.315">  5  6 -1 -1</clus>
<clus scale="   88.305">  7  8 -1 -1</clus>
<clus scale="  125.926">  2  7  1 -1</clus>
<clus scale="  134.863">  1  9  2 -1</clus>
<clus scale="  134.863">  1  5  2 -1</clus>
</clustering>
</event>
<event>
 9    2  0.3791909E-005  0.8971594E+02  0.7546771E-02  0.1311475E+00
          2   -1    0    0  502    0  0.00000000000E+00  0.00000000000E+00  0.22982442956E+03  0.22982442956E+03  0.00000000000E+00 0. -1.
         -1   -1    0    0    0  501 -0.00000000000E+00 -0.00000000000E+00 -0.11862928797E+03  0.11862928797E+03  0.00000000000E+00 0.  1.
         23    2    1    2    0    0 -0.28266879541E+01 -0.10450908460E+01 -0.85929456844E+02  0.12421876261E+03  0.89651252363E+02 0.  0.
         24    2    1    2    0    0 -0.12389721679E+02  0.21386812686E+02  0.15357282878E+03  0.17381589692E+03  0.77565787067E+02 0.  0.
        -11    1    4    4    0    0 -0.38308262814E+02  0.26226573683E+02  0.13141716248E+03  0.13937656461E+03  0.00000000000E+00 0.  1.
         12    1    4    4    0    0  0.25918541136E+02 -0.48397609971E+01  0.22155666293E+02  0.34439332311E+02  0.00000000000E+00 0. -1.
        -11    1    3    3    0    0 -0.39764795719E+02 -0.19595061123E+02 -0.25922775286E+02  0.51353633538E+02  0.00000000000E+00 0.  1.
         11    1    3    3    0    0  0.36938107765E+02  0.18549970277E+02 -0.60006681559E+02  0.72865129069E+02  0.00000000000E+00 0. -1.
         21    1    1    2  502  501  0.15216409633E+02 -0.20341721840E+02  0.43551769654E+02  0.50419057999E+02  0.00000000000E+00 0. -1.
<scales pt_clust_5="13000.00000" pt_clust_6="13000.00000" pt_clust_7="13000.00000" pt_clust_8="13000.00000" pt_clust_9="25.40324"></scales>
<clustering>
<clus scale="   25.403">  1  9  2 -1</clus>
<clus scale="   77.566">  5  6 -1 -1</clus>
<clus scale="   77.641">  1  5  2 -1</clus>
<clus scale="   89.651">  7  8 -1 -1</clus>
<clus scale="   25.403">  1  5  2 -1</clus>
</clustering>
</event>
<event>
 9    2  0.3791909E-005  0.9678538E+02  0.7546771E-02  0.1294351E+00
         -3   -1    0    0    0  501 -0.00000000000E+00  0.00000000000E+00  0.80683361706E+02  0.80683361706E+02  0.00000000000E+00 0.  1.
          4   -1    0    0  502    0  0.00000000000E+00 -0.00000000000E+00 -0.27817574909E+03  0.27817574909E+03  0.00000000000E+00 0. -1.
         23    2    1    2    0    0  0.12337052866E+01  0.25829687573E+02  0.30601515017E+02  0.10120072374E+03  0.92932443070E+02 0.  0.
         24    2    1    2    0    0  0.19463697766E+02 -0.20234510079E+02 -0.21794354140E+03  0.23393670219E+03  0.80241650445E+02 0.  0.
        -11    1    4    4    0    0  0.21112089170E+02  0.36483531640E+01 -0.83725957123E+01  0.23002850886E+02  0.00000000000E+00 0.  1.
         12    1    4    4    0    0 -0.16483914036E+01 -0.23882863243E+02 -0.20957094569E+03  0.21093385131E+03  0.00000000000E+00 0. -1.
        -11    1    3    3    0    0  0.46932319339E+02  0.15894090756E+02  0.12957394506E+02  0.51216782327E+02  0.00000000000E+00 0. -1.
         11    1    3    3    0    0 -0.45698614053E+02  0.99355968172E+01  0.17644120511E+02  0.49983941412E+02  0.00000000000E+00 0.  1.
         21    1    1    2  502  501 -0.20697403053E+02 -0.55951774942E+01 -0.10150361000E+02  0.23721684863E+02  0.00000000000E+00 0. -1.
<scales pt_clust_5="13000.00000" pt_clust_6="13000.00000" pt_clust_7="13000.00000" pt_clust_8="13000.00000" pt_clust_9="21.44035"></scales>
<clustering>
<clus scale="   21.440">  1  9  2 -1</clus>
<clus scale="   80.242">  5  6 -1 -1</clus>
<clus scale="   84.674">  2  5  1 -1</clus>
<clus scale="   92.932">  7  8 -1 -1</clus>
<clus scale="   84.674">  2  5  1 -1</clus>
</clustering>
</event>
<event>
 9    2  0.3791909E-005  0.9169900E+02  0.7546771E-02  0.1303899E+00
          2   -1    0    0  502    0  0.00000000000E+00  0.00000000000E+00  0.14760241003E+03  0.14760241003E+03  0.00000000000E+00 0. -1.
         -1   -1    0    0    0  501 -0.00000000000E+00 -0.00000000000E+00 -0.36505807500E+03  0.36505807500E+03  0.00000000000E+00 0.  1.
         23    2    1    2    0    0 -0.10166088049E+02 -0.17970809894E+02 -0.30426749452E+03  0.31753124848E+03  0.88436905094E+02 0.  0.
         24    2    1    2    0    0  0.44257749025E+02  0.29208592884E+02 -0.55533984435E+01  0.96034007309E+02  0.79873650715E+02 0.  0.
        -11    1    4    4    0    0 -0.20981764987E+02  0.21718125522E+02 -0.23006285222E+01  0.30285381453E+02  0.00000000000E+00 0.  1.
         12    1    4    4    0    0  0.65239514012E+02  0.74904673618E+01 -0.32527699213E+01  0.65748625856E+02  0.00000000000E+00 0. -1.
        -13    1    3    3    0    0 -0.41824146271E+02  0.15606021050E+02 -0.14579198537E+03  0.15247330947E+03  0.00000000000E+00 0.  1.
         13    1    3    3    0    0  0.31658058222E+02 -0.33576830944E+02 -0.15847550915E+03  0.16505793900E+03  0.00000000000E+00 0. -1.
         21    1    1    2  502  501 -0.34091660976E+02 -0.11237782990E+02  0.92365228003E+02  0.99095229242E+02  0.00000000000E+00 0. -1.
<scales pt_clust_5="13000.00000" pt_clust_6="13000.00000" pt_clust_7="13000.00000" pt_clust_8="13000.00000" pt_clust_9="35.89609"></scales>
<clustering>
<clus scale="   35.896">  1  9  2 -1</clus>
<clus scale="   79.874">  5  6 -1 -1</clus>
<clus scale="   83.471">  1  5  2 -1</clus>
<clus scale="   88.437">  7  8 -1 -1</clus>
<clus scale="   35.896">  1  5  2 -1</clus>
</clustering>
</event>
<event>
 9    2  0.3791909E-005  0.1009361E+03  0.7546771E-02  0.1283945E+00
          4   -1    0    0  502    0  0.00000000000E+00  0.00000000000E+00  0.82409859487E+02  0.82409859487E+02  0.00000000000E+00 0. -1.
         -3   -1    0    0    0  501 -0.00000000000E+00 -0.00000000000E+00 -0.29294663298E+03  0.29294663298E+03  0.00000000000E+00 0.  1.
         24    2    1    2    0    0  0.41697366197E+01  0.66027022586E+02 -0.67809964431E+02  0.12404847464E+03  0.80080449358E+02 0.  0.
         23    2    1    2    0    0 -0.15699420268E+02 -0.29031783310E+02  0.61816774064E+01  0.97440156736E+02  0.91471606361E+02 0.  0.
        -13    1    3    3    0    0 -0.17635614316E+02  0.61588004950E+02 -0.76832201749E+02  0.10003641573E+03  0.00000000000E+00 0.  1.
         14    1    3    3    0    0  0.21805350935E+02  0.44390176359E+01  0.90222373183E+01  0.24012058912E+02  0.00000000000E+00 0. -1.
        -11    1    4    4    0    0  0.18517641790E+02 -0.46793812543E+02  0.23058117122E+02  0.55355584316E+02  0.00000000000E+00 0. -1.
         11    1    4    4    0    0 -0.34217062058E+02  0.17762029233E+02 -0.16876439715E+02  0.42084572420E+02  0.00000000000E+00 0.  1.
         21    1    1    2  502  501  0.11529683648E+02 -0.36995239276E+02 -0.14890848647E+03  0.15386786110E+03  0.00000000000E+00 0.  1.
<scales pt_clust_5="13000.00000" pt_clust_6="13000.00000" pt_clust_7="13000.00000" pt_clust_8="13000.00000" pt_clust_9="38.75024"></scales>
<clustering>
<clus scale="   38.750">  2  9  1 -1</clus>
<clus scale="   80.080">  5  6 -1 -1</clus>
<clus scale="   90.741">  2  5  1 -1</clus>
<clus scale="   91.472">  7  8 -1 -1</clus>
<clus scale="  100.936">  1  5  2 -1</clus>
</clustering>
</event>
<event>
 9    2  0.3791909E-005  0.1288699E+03  0.7546771E-02  0.1231734E+00
          2   -1    0    0  502    0  0.00000000000E+00  0.00000000000E+00  0.11161899994E+03  0.11161899994E+03  0.00000000000E+00 0. -1.
         -1   -1    0    0    0  501 -0.00000000000E+00 -0.00000000000E+00 -0.61369047621E+03  0.61369047621E+03  0.00000000000E+00 0.  1.
         24    2    1    2    0    0 -0.11437898237E+03 -0.23499618018E+02 -0.52510873534E+03  0.54400332624E+03  0.81028707127E+02 0.  0.
         23    2    1    2    0    0  0.87922952511E+02  0.16384231988E+02  0.55326423999E+02  0.13896066130E+03  0.90830410984E+02 0.  0.
        -11    1    3    3    0    0 -0.12132557926E+03 -0.11447128258E+02 -0.50536742742E+03  0.51985302694E+03  0.00000000000E+00 0.  1.
         12    1    3    3    0    0  0.69465968898E+01 -0.12052489760E+02 -0.19741307920E+02  0.24150299298E+02  0.00000000000E+00 0. -1.
        -13    1    4    4    0    0  0.17400978971E+02  0.41736525588E+02 -0.97195943941E+00  0.45229153678E+02  0.00000000000E+00 0.  1.
         13    1    4    4    0    0  0.70521973539E+02 -0.25352293600E+02  0.56298383438E+02  0.93731507618E+02  0.00000000000E+00 0. -1.
         21    1    1    2  502  501  0.26456029859E+02  0.71153860298E+01 -0.32289164924E+02  0.42345488612E+02  0.00000000000E+00 0. -1.
<scales pt_clust_5="13000.00000" pt_clust_6="13000.00000" pt_clust_7="13000.00000" pt_clust_8="13000.00000" pt_clust_9="27.39617"></scales>
<clustering>
<clus scale="   27.396">  2  9  1 -1</clus>
<clus scale="   81.029">  5  6 -1 -1</clus>
<clus scale="   90.830">  7  8 -1 -1</clus>
<clus scale="  122.159">  2  5  1 -1</clus>
<clus scale="  128.870">  1  5  2 -1</clus>
</clustering>
</event>
<event>
 9    2  0.3791909E-005  0.1066456E+03  0.7546771E-02  0.1270882E+00
         -3   -1    0    0    0  501 -0.00000000000E+00  0.00000000000E+00  0.13275801261E+03  0.13275801261E+03  0.00000000000E+00 0.  1.
          4   -1    0    0  502    0  0.00000000000E+00 -0.00000000000E+00 -0.28284607069E+03  0.28284607069E+03  0.00000000000E+00 0. -1.
         24    2    1    2    0    0 -0.51153636353E+02  0.21648524013E+02  0.88861197774E+02  0.13181708715E+03  0.79962984511E+02 0.  0.
         23    2    1    2    0    0  0.73419245036E+02 -0.39791793511E+02 -0.20949186041E+03  0.24264488020E+03  0.89531703544E+02 0.  0.
        -11    1    3    3    0    0 -0.20360362319E+02 -0.18267455685E+02  0.74552609796E+02  0.79412441836E+02  0.00000000000E+00 0.  1.
         12    1    3    3    0    0 -0.30793274035E+02  0.39915979698E+02  0.14308587978E+02  0.52404645319E+02  0.00000000000E+00 0. -1.
        -11    1    4    4    0    0  0.39896219963E+02  0.18425858494E+02 -0.13670257076E+03  0.14359252585E+03  0.00000000000E+00 0.  1.
         11    1    4    4    0    0  0.33523025072E+02 -0.58217652005E+02 -0.72789289653E+02  0.99052354355E+02  0.00000000000E+00 0. -1.
         21    1    1    2  502  501 -0.22265608682E+02  0.18143269498E+02 -0.29457395442E+02  0.41142115943E+02  0.00000000000E+00 0. -1.
<scales pt_clust_5="13000.00000" pt_clust_6="13000.00000" pt_clust_7="13000.00000" pt_clust_8="13000.00000" pt_clust_9="28.72169"></scales>
<clustering>
<clus scale="   28.722">  2  9  1 -1</clus>
<clus scale="   79.963">  5  6 -1 -1</clus>
<clus scale="   89.532">  7  8 -1 -1</clus>
<clus scale="   98.749">  1  5  2 -1</clus>
<clus scale="   28.722">  2  5  1 -1</clus>
</clustering>
</event>
<event>
 9    2  0.3791909E-005  0.1414426E+03  0.7546771E-02  0.1216192E+00
          2   -1    0    0  502    0  0.00000000000E+00  0.00000000000E+00  0.85859456317E+03  0.85859456317E+03  0.00000000000E+00 0. -1.
         -1   -1    0    0    0  501 -0.00000000000E+00 -0.00000000000E+00 -0.85191587864E+02  0.85191587864E+02  0.00000000000E+00 0.  1.
         23    2    1    2    0    0  0.38485467711E+02  0.99980327203E+02  0.25997999478E+02  0.14238377119E+03  0.90111293792E+02 0.  0.
         24    2    1    2    0    0 -0.90978210674E+02  0.32399853389E+02  0.49873851507E+03  0.51484521455E+03  0.83658252485E+02 0.  0.
        -13    1    4    4    0    0 -0.75423396839E+02  0.35496589389E+02  0.21395201735E+03  0.22961742612E+03  0.00000000000E+00 0.  1.
         14    1    4    4    0    0 -0.15554813835E+02 -0.30967359996E+01  0.28478649773E+03  0.28522778843E+03  0.00000000000E+00 0. -1.
        -11    1    3    3    0    0  0.64110848570E+02  0.56833831875E+02  0.32806032795E+02  0.91741599821E+02  0.00000000000E+00 0.  1.
         11    1    3    3    0    0 -0.25625380859E+02  0.43146495329E+02 -0.68080333175E+01  0.50642171369E+02  0.00000000000E+00 0. -1.
         21    1    1    2  502  501  0.52492742963E+02 -0.13238018059E+03  0.24866646075E+03  0.28655716529E+03  0.00000000000E+00 0.  1.
<scales pt_clust_5="13000.00000" pt_clust_6="13000.00000" pt_clust_7="13000.00000" pt_clust_8="13000.00000" pt_clust_9="109.02271"></scales>
<clustering>
<clus scale="   83.658">  5  6 -1 -1</clus>
<clus scale="   90.111">  7  8 -1 -1</clus>
<clus scale="  127.771">  1  5  2 -1</clus>
<clus scale="  109.023">  1  9  2 -1</clus>
<clus scale="  127.771">  1  5  2 -1</clus>
</clustering>
</event>
<event>
 9    2  0.3791909E-005  0.1233507E+03  0.7546771E-02  0.1243385E+00
          2   -1    0    0  502    0  0.00000000000E+00  0.00000000000E+00  0.19254667165E+03  0.19254667165E+03  0.00000000000E+00 0. -1.
         -1   -1    0    0    0  501 -0.00000000000E+00 -0.00000000000E+00 -0.12581141863E+03  0.12581141863E+03  0.00000000000E+00 0.  1.
         23    2    1    2    0    0 -0.66011236193E+02  0.37856747391E+02 -0.58249767144E+02  0.13845886144E+03  0.99936001078E+02 0.  0.
         24    2    1    2    0    0  0.43191140852E+02 -0.43609792984E+02  0.11490146917E+03  0.15429586411E+03  0.82689644898E+02 0.  0.
        -11    1    4    4    0    0  0.22963807518E+02 -0.21788593363E+02 -0.38359336363E+01  0.31887201873E+02  0.00000000000E+00 0.  1.
         12    1    4    4    0    0  0.20227333334E+02 -0.21821199621E+02  0.11873740280E+03  0.12240866224E+03  0.00000000000E+00 0. -1.
        -11    1    3    3    0    0 -0.72404968867E+02  0.52105956214E+01 -0.14171888352E+01  0.72606048284E+02  0.00000000000E+00 0. -1.
         11    1    3    3    0    0  0.63937326739E+01  0.32646151770E+02 -0.56832578309E+02  0.65852813153E+02  0.00000000000E+00 0.  1.
         21    1    1    2  502  501  0.22820095340E+02  0.57530455928E+01  0.10083550996E+02  0.25603364733E+02  0.00000000000E+00 0.  1.
<scales pt_clust_5="13000.00000" pt_clust_6="13000.00000" pt_clust_7="13000.00000" pt_clust_8="13000.00000" pt_clust_9="23.53411"></scales>
<clustering>
<clus scale="   23.534">  1  9  2 -1</clus>
<clus scale="   82.690">  5  6 -1 -1</clus>
<clus scale="   99.936">  7  8 -1 -1</clus>
<clus scale="  109.844">  1  5  2 -1</clus>
<clus scale="   23.534">  1  5  2 -1</clus>
</clustering>
</event>
<event>
 9    2  0.3791909E-005  0.1141389E+03  0.7546771E-02  0.1256640E+00
         -3   -1    0    0    0  501 -0.00000000000E+00  0.00000000000E+00  0.87763069937E+02  0.87763069937E+02  0.00000000000E+00 0.  1.
          4   -1    0    0  502    0  0.00000000000E+00 -0.00000000000E+00 -0.28038717339E+03  0.28038717339E+03  0.00000000000E+00 0. -1.
         23    2    1    2    0    0 -0.53922231364E+02  0.38020757701E+02  0.42763122573E+01  0.11164464565E+03  0.89961408417E+02 0.  0.
         24    2    1    2    0    0  0.41283464206E+02 -0.79840944692E+02 -0.13584314940E+03  0.18142792960E+03  0.79898883172E+02 0.  0.
        -13    1    4    4    0    0  0.30691955840E+02 -0.13711023436E+01 -0.92032077785E+01  0.32071406398E+02  0.00000000000E+00 0.  1.
         14    1    4    4    0    0  0.10591508366E+02 -0.78469842348E+02 -0.12663994163E+03  0.14935652320E+03  0.00000000000E+00 0. -1.
        -13    1    3    3    0    0 -0.10100407362E+02  0.60206178517E+02 -0.63935494453E+01  0.61381427444E+02  0.00000000000E+00 0. -1.
         13    1    3    3    0    0 -0.43821824003E+02 -0.22185420817E+02  0.10669861703E+02  0.50263218207E+02  0.00000000000E+00 0.  1.
         21    1    1    2  502  501  0.12638767158E+02  0.41820186991E+02 -0.61057266305E+02  0.75077668077E+02  0.00000000000E+00 0. -1.
<scales pt_clust_5="13000.00000" pt_clust_6="13000.00000" pt_clust_7="13000.00000" pt_clust_8="13000.00000" pt_clust_9="43.68829"></scales>
<clustering>
<clus scale="   43.688">  2  9  1 -1</clus>
<clus scale="   79.899">  5  6 -1 -1</clus>
<clus scale="   89.961">  7  8 -1 -1</clus>
<clus scale="  106.388">  2  5  1 -1</clus>
<clus scale="   43.688">  2  5  1 -1</clus>
</clustering>
</event>
<event>
 9    2  0.3791909E-005  0.1431124E+03  0.7546771E-02  0.1211234E+00
          2   -1    0    0  502    0  0.00000000000E+00  0.00000000000E+00  0.10780566568E+04  0.10780566568E+04  0.00000000000E+00 0. -1.
         -1   -1    0    0    0  501 -0.00000000000E+00 -0.00000000000E+00 -0.66727897861E+02  0.66727897861E+02  0.00000000000E+00 0.  1.
         23    2    1    2    0    0  0.46890929421E+02 -0.10638165646E+03  0.28910784859E+02  0.14961042265E+03  0.89619356124E+02 0.  0.
         24    2    1    2    0    0 -0.95293133071E+01  0.78233403703E+02  0.67968122607E+03  0.68884464748E+03  0.79555678796E+02 0.  0.
        -13    1    4    4    0    0  0.33914543076E+02  0.39576629140E+02  0.26191955135E+03  0.26705497035E+03  0.00000000000E+00 0.  1.
         14    1    4    4    0    0 -0.43443856383E+02  0.38656774563E+02  0.41776167472E+03  0.42178967714E+03  0.00000000000E+00 0. -1.
        -11    1    3    3    0    0 -0.24467839264E+02 -0.31050837218E+02  0.22870504578E+02  0.45671540699E+02  0.00000000000E+00 0. -1.
         11    1    3    3    0    0  0.71358768685E+02 -0.75330819243E+02  0.60402802802E+01  0.10393888195E+03  0.00000000000E+00 0.  1.
         21    1    1    2  502  501 -0.37361616114E+02  0.28148252758E+02  0.30273674803E+03  0.30632948454E+03  0.00000000000E+00 0. -1.
<scales pt_clust_5="13000.00000" pt_clust_6="13000.00000" pt_clust_7="13000.00000" pt_clust_8="13000.00000" pt_clust_9="46.77835"></scales>
<clustering>
<clus scale="   46.778">  1  9  2 -1</clus>
<clus scale="   79.556">  5  6 -1 -1</clus>
<clus scale="   89.619">  7  8 -1 -1</clus>
<clus scale="  137.035">  1  5  2 -1</clus>
<clus scale="   46.778">  1  5  2 -1</clus>
</clustering>
</event>
<event>
 9    2  0.3791909E-005  0.1150351E+03  0.7546771E-02  0.1253097E+00
         -1   -1    0    0    0  501 -0.00000000000E+00  0.00000000000E+00  0.21822247303E+03  0.21822247303E+03  0.00000000000E+00 0.  1.
          2   -1    0    0  502    0  0.00000000000E+00 -0.00000000000E+00 -0.21373435825E+03  0.21373435825E+03  0.00000000000E+00 0. -1.
         24    2    1    2    0    0 -0.48955992091E+02 -0.58810263813E+02  0.16498035984E+03  0.20149172450E+03  0.86747101495E+02 0.  0.
         23    2    1    2    0    0  0.27662172153E+02  0.27819680791E+00 -0.12968440990E+03  0.16097732121E+03  0.91270907803E+02 0.  0.
        -13    1    3    3    0    0 -0.64740657146E+02 -0.59830515554E+02  0.94398873654E+02  0.12915955492E+03  0.00000000000E+00 0.  1.
         14    1    3    3    0    0  0.15784665055E+02  0.10202517407E+01  0.70581486184E+02  0.72332169582E+02  0.00000000000E+00 0. -1.
        -11    1    4    4    0    0 -0.24110117870E+02  0.12970692032E+02 -0.91228930915E+02  0.95248383039E+02  0.00000000000E+00 0.  1.
         11    1    4    4    0    0  0.51772290023E+02 -0.12692495224E+02 -0.38455478984E+02  0.65728938171E+02  0.00000000000E+00 0. -1.
         21    1    1    2  502  501  0.21293819939E+02  0.58532067005E+02 -0.30807835159E+02  0.69487785564E+02  0.00000000000E+00 0. -1.
<scales pt_clust_5="13000.00000" pt_clust_6="13000.00000" pt_clust_7="13000.00000" pt_clust_8="13000.00000" pt_clust_9="62.28507"></scales>
<clustering>
<clus scale="   62.285">  2  9  1 -1</clus>
<clus scale="   86.747">  5  6 -1 -1</clus>
<clus scale="   91.271">  7  8 -1 -1</clus>
<clus scale="  111.480">  1  5  2 -1</clus>
<clus scale="   62.285">  2  5  1 -1</clus>
</clustering>
</event>
<event>
 9    2  0.3791909E-005  0.1401371E+03  0.7546771E-02  0.1214845E+00
         -3   -1    0    0    0  501 -0.00000000000E+00  0.00000000000E+00  0.74268255804E+02  0.74268255804E+02  0.00000000000E+00 0.  1.
          4   -1    0    0  502    0  0.00000000000E+00 -0.00000000000E+00 -0.34658317579E+03  0.34658317579E+03  0.00000000000E+00 0. -1.
         24    2    1    2    0    0 -0.36038148988E+02 -0.10700592300E+03 -0.51242519686E+02  0.14836558613E+03  0.81471072068E+02 0.  0.
         23    2    1    2    0    0  0.12103367961E+02  0.97699621883E+02 -0.19339873638E+03  0.23473253226E+03  0.89468334265E+02 0.  0.
        -11    1    3    3    0    0 -0.56441525300E+02 -0.83337730173E+02 -0.17121892881E+02  0.10209790529E+03  0.00000000000E+00 0.  1.
         12    1    3    3    0    0  0.20403376313E+02 -0.23668192824E+02 -0.34120626805E+02  0.46267680837E+02  0.00000000000E+00 0. -1.
        -11    1    4    4    0    0  0.31764148162E+02  0.41482436539E+02 -0.15573726367E+03  0.16426761381E+03  0.00000000000E+00 0.  1.
         11    1    4    4    0    0 -0.19660780201E+02  0.56217185344E+02 -0.37661472704E+02  0.70464918451E+02  0.00000000000E+00 0. -1.
         21    1    1    2  502  501  0.23934781027E+02  0.93063011140E+01 -0.27673663920E+02  0.37753313205E+02  0.00000000000E+00 0.  1.
<scales pt_clust_5="13000.00000" pt_clust_6="13000.00000" pt_clust_7="13000.00000" pt_clust_8="13000.00000" pt_clust_9="25.68036"></scales>
<clustering>
<clus scale="   25.680">  2  9  1 -1</clus>
<clus scale="   81.471">  5  6 -1 -1</clus>
<clus scale="   89.468">  7  8 -1 -1</clus>
<clus scale="  135.172">  1  5  2 -1</clus>
<clus scale="   25.680">  2  5  1 -1</clus>
</clustering>
</event>
<event>
 9    2  0.3791909E-005  0.1878728E+03  0.7546771E-02  0.1161396E+00
         -1   -1    0    0    0  501 -0.00000000000E+00  0.00000000000E+00  0.15658075817E+03  0.15658075817E+03  0.00000000000E+00 0.  1.
          2   -1    0    0  502    0  0.00000000000E+00 -0.00000000000E+00 -0.59686788052E+03  0.59686788052E+03  0.00000000000E+00 0. -1.
         24    2    1    2    0    0  0.16526623739E+03 -0.22138319040E+02  0.75059756496E+02  0.20020539900E+03  0.81518098316E+02 0.  0.
         23    2    1    2    0    0 -0.14607735180E+03  0.93121294613E+01 -0.48768142647E+03  0.51721406091E+03  0.90839983531E+02 0.  0.
        -11    1    3    3    0    0  0.72236677677E+02 -0.49015110269E+02  0.23050811235E+02  0.90288197097E+02  0.00000000000E+00 0.  1.
         12    1    3    3    0    0  0.93029559715E+02  0.26876791229E+02  0.52008945261E+02  0.10991720191E+03  0.00000000000E+00 0. -1.
        -13    1    4    4    0    0 -0.54229234279E+02  0.47699067289E+02 -0.22474744672E+03  0.23606657044E+03  0.00000000000E+00 0.  1.
         13    1    4    4    0    0 -0.91848117526E+02 -0.38386937828E+02 -0.26293397975E+03  0.28114749047E+03  0.00000000000E+00 0. -1.
         21    1    1    2  502  501 -0.19188885588E+02  0.12826189579E+02 -0.27665452375E+02  0.36029178791E+02  0.00000000000E+00 0. -1.
<scales pt_clust_5="13000.00000" pt_clust_6="13000.00000" pt_clust_7="13000.00000" pt_clust_8="13000.00000" pt_clust_9="23.08082"></scales>
<clustering>
<clus scale="   23.081">  2  9  1 -1</clus>
<clus scale="   81.518">  5  6 -1 -1</clus>
<clus scale="   90.840">  7  8 -1 -1</clus>
<clus scale="  183.547">  1  5  2 -1</clus>
<clus scale="   23.081">  2  5  1 -1</clus>
</clustering>
</event>
<event>
 9    2  0.3791909E-005  0.9575094E+02  0.7546771E-02  0.1292031E+00
          2   -1    0    0  502    0  0.00000000000E+00  0.00000000000E+00  0.16302644891E+03  0.16302644891E+03  0.00000000000E+00 0. -1.
         -1   -1    0    0    0  501 -0.00000000000E+00 -0.00000000000E+00 -0.83217776192E+02  0.83217776192E+02  0.00000000000E+00 0.  1.
         23    2    1    2    0    0  0.13352918035E+02 -0.58344228242E+02  0.82110325352E+01  0.10456541664E+03  0.85347266584E+02 0.  0.
         24    2    1    2    0    0 -0.21714103587E+02  0.30267470951E+02  0.69015925024E+02  0.11226998364E+03  0.80335105820E+02 0.  0.
        -13    1    4    4    0    0 -0.41848325683E+02  0.53354991318E+01  0.74177914169E+01  0.42834256653E+02  0.00000000000E+00 0.  1.
         14    1    4    4    0    0  0.20134222097E+02  0.24931971819E+02  0.61598133607E+02  0.69435726987E+02  0.00000000000E+00 0. -1.
        -13    1    3    3    0    0 -0.29960361657E+02 -0.13843362638E+00 -0.61986609749E+01  0.30595192962E+02  0.00000000000E+00 0.  1.
         13    1    3    3    0    0  0.43313279692E+02 -0.58205794616E+02  0.14409693510E+02  0.73970223682E+02  0.00000000000E+00 0. -1.
         21    1    1    2  502  501  0.83611855515E+01  0.28076757291E+02  0.25817151542E+01  0.29408824814E+02  0.00000000000E+00 0. -1.
<scales pt_clust_5="13000.00000" pt_clust_6="13000.00000" pt_clust_7="13000.00000" pt_clust_8="13000.00000" pt_clust_9="29.29529"></scales>
<clustering>
<clus scale="   29.295">  2  9  1 -1</clus>
<clus scale="   80.335">  5  6 -1 -1</clus>
<clus scale="   85.347">  7  8 -1 -1</clus>
<clus scale="   91.312">  1  5  2 -1</clus>
<clus scale="   91.312">  1  5  2 -1</clus>
</clustering>
</event>
<event>
 9    2  0.3791909E-005  0.9963419E+02  0.7546771E-02  0.1288494E+00
         -1   -1    0    0    0  501 -0.00000000000E+00  0.00000000000E+00  0.56454625109E+02  0.56454625109E+02  0.00000000000E+00 0.  1.
          2   -1    0    0  502    0  0.00000000000E+00 -0.00000000000E+00 -0.38138305555E+03  0.38138305555E+03  0.00000000000E+00 0. -1.
         23    2    1    2    0    0 -0.32864686031E+02  0.22207522879E+02 -0.69460619723E+01  0.10150320388E+03  0.93173982211E+02 0.  0.
         24    2    1    2    0    0  0.76637235174E+01 -0.12631938396E+02 -0.26417028967E+03  0.27614710141E+03  0.79075793659E+02 0.  0.
        -11    1    4    4    0    0  0.10464767087E+01  0.33644503210E+02 -0.10651380720E+03  0.11170603759E+03  0.00000000000E+00 0.  1.
         12    1    4    4    0    0  0.66172468087E+01 -0.46276441606E+02 -0.15765648247E+03  0.16444106382E+03  0.00000000000E+00 0. -1.
        -13    1    3    3    0    0 -0.30764483492E+02  0.56731035050E+02  0.54407913701E+01  0.64764697121E+02  0.00000000000E+00 0.  1.
         13    1    3    3    0    0 -0.21002025389E+01 -0.34523512171E+02 -0.12386853342E+02  0.36738506761E+02  0.00000000000E+00 0. -1.
         21    1    1    2  502  501  0.25200962514E+02 -0.95755844831E+01 -0.53812078791E+02  0.60187375368E+02  0.00000000000E+00 0.  1.
<scales pt_clust_5="13000.00000" pt_clust_6="13000.00000" pt_clust_7="13000.00000" pt_clust_8="13000.00000" pt_clust_9="26.95886"></scales>
<clustering>
<clus scale="   26.959">  2  9  1 -1</clus>
<clus scale="   79.076">  5  6 -1 -1</clus>
<clus scale="   86.594">  2  5  1 -1</clus>
<clus scale="   93.174">  7  8 -1 -1</clus>
<clus scale="   26.959">  2  5  1 -1</clus>
</clustering>
</event>
<event>
 9    2  0.3791909E-005  0.1146728E+03  0.7546771E-02  0.1255408E+00
          2   -1    0    0  502    0  0.00000000000E+00  0.00000000000E+00  0.76130670988E+03  0.76130670988E+03  0.00000000000E+00 0. -1.
         -1   -1    0    0    0  501 -0.00000000000E+00 -0.00000000000E+00 -0.89809729988E+02  0.89809729988E+02  0.00000000000E+00 0.  1.
         23    2    1    2    0    0 -0.44141279131E+02  0.67619666471E+02 -0.35271695123E+02  0.12671178849E+03  0.91054451004E+02 0.  0.
         24    2    1    2    0    0  0.51284491926E+02 -0.46556197139E+02  0.68480360677E+03  0.69314510160E+03  0.81832593914E+02 0.  0.
        -13    1    4    4    0    0  0.30067031236E+02 -0.38701066551E+02  0.14877185313E+03  0.15663608525E+03  0.00000000000E+00 0.  1.
         14    1    4    4    0    0  0.21217460690E+02 -0.78551305875E+01  0.53603175364E+03  0.53650901635E+03  0.00000000000E+00 0. -1.
        -11    1    3    3    0    0 -0.14710754419E+02  0.53326885784E+02  0.22979137824E+02  0.59901617826E+02  0.00000000000E+00 0. -1.
         11    1    3    3    0    0 -0.29430524712E+02  0.14292780686E+02 -0.58250832948E+02  0.66810170661E+02  0.00000000000E+00 0.  1.
         21    1    1    2  502  501 -0.71432127944E+01 -0.21063469332E+02  0.21965068243E+02  0.31259549777E+02  0.00000000000E+00 0.  1.
<scales pt_clust_5="13000.00000" pt_clust_6="13000.00000" pt_clust_7="13000.00000" pt_clust_8="13000.00000" pt_clust_9="22.24175"></scales>
<clustering>
<clus scale="   22.242">  2  9  1 -1</clus>
<clus scale="   81.833">  5  6 -1 -1</clus>
<clus scale="   91.054">  7  8 -1 -1</clus>
<clus scale="  107.497">  1  5  2 -1</clus>
<clus scale="  107.497">  1  5  2 -1</clus>
</clustering>
</event>
<event>
 9    2  0.3791909E-005  0.1592091E+03  0.7546771E-02  0.1192229E+00
         -1   -1    0    0    0  501 -0.00000000000E+00  0.00000000000E+00  0.12232003075E+03  0.12232003075E+03  0.00000000000E+00 0.  1.
          2   -1    0    0  502    0  0.00000000000E+00 -0.00000000000E+00 -0.49447939300E+03  0.49447939300E+03  0.00000000000E+00 0. -1.
         23    2    1    2    0    0  0.33929998310E+02  0.12059703677E+03  0.23620178450E+02  0.15982392490E+03  0.96389232164E+02 0.  0.
         24    2    1    2    0    0 -0.68635835491E+02 -0.11573497245E+03 -0.18174715923E+03  0.24009305345E+03  0.80667110175E+02 0.  0.
        -13    1    4    4    0    0 -0.50863841486E+02 -0.40192862106E+02 -0.33994296973E+02  0.73199786623E+02  0.00000000000E+00 0.  1.
         14    1    4    4    0    0 -0.17771994005E+02 -0.75542110346E+02 -0.14775286226E+03  0.16689326683E+03  0.00000000000E+00 0. -1.
        -13    1    3    3    0    0  0.45901890835E+02  0.11272744597E+02 -0.33662849336E+00  0.47267025205E+02  0.00000000000E+00 0. -1.
         13    1    3    3    0    0 -0.11971892525E+02  0.10932429217E+03  0.23956806943E+02  0.11255689969E+03  0.00000000000E+00 0.  1.
         21    1    1    2  502  501  0.34705837181E+02 -0.48620643183E+01 -0.21403238147E+03  0.21688244540E+03  0.00000000000E+00 0. -1.
<scales pt_clust_5="13000.00000" pt_clust_6="13000.00000" pt_clust_7="13000.00000" pt_clust_8="13000.00000" pt_clust_9="35.04475"></scales>
<clustering>
<clus scale="   35.045">  2  9  1 -1</clus>
<clus scale="   80.667">  5  6 -1 -1</clus>
<clus scale="   96.389">  7  8 -1 -1</clus>
<clus scale="  150.213">  2  5  1 -1</clus>
<clus scale="   35.045">  2  5  1 -1</clus>
</clustering>
</event>
<event>
 9    2  0.3791909E-005  0.1254961E+03  0.7546771E-02  0.1239670E+00
          4   -1    0    0  502    0  0.00000000000E+00  0.00000000000E+00  0.74501967051E+03  0.74501967051E+03  0.00000000000E+00 0. -1.
         -3   -1    0    0    0  501 -0.00000000000E+00 -0.00000000000E+00 -0.54021697518E+02  0.54021697518E+02  0.00000000000E+00 0.  1.
         23    2    1    2    0    0  0.58160061775E+02 -0.57557316986E+02  0.42034832062E+02  0.13419094634E+03  0.97697724893E+02 0.  0.
         24    2    1    2    0    0 -0.20483412398E+02  0.65929244205E+02  0.47846051718E+03  0.49003405008E+03  0.80266233988E+02 0.  0.
        -13    1    4    4    0    0  0.26830604884E+02  0.72822588414E+01  0.85257145879E+02  0.89675490385E+02  0.00000000000E+00 0.  1.
         14    1    4    4    0    0 -0.47314017282E+02  0.58646985364E+02  0.39320337130E+03  0.40035855970E+03  0.00000000000E+00 0. -1.
        -11    1    3    3    0    0 -0.15992192861E+02  0.12749711894E+02  0.22041957613E+02  0.30069141679E+02  0.00000000000E+00 0. -1.
         11    1    3    3    0    0  0.74152254636E+02 -0.70307028881E+02  0.19992874449E+02  0.10412180466E+03  0.00000000000E+00 0.  1.
         21    1    1    2  502  501 -0.37676649377E+02 -0.83719272189E+01  0.17050262375E+03  0.17481637160E+03  0.00000000000E+00 0.  1.
<scales pt_clust_5="13000.00000" pt_clust_6="13000.00000" pt_clust_7="13000.00000" pt_clust_8="13000.00000" pt_clust_9="38.59558"></scales>
<clustering>
<clus scale="   38.596">  1  9  2 -1</clus>
<clus scale="   80.266">  5  6 -1 -1</clus>
<clus scale="   97.698">  7  8 -1 -1</clus>
<clus scale="  112.459">  1  5  2 -1</clus>
<clus scale="   38.596">  1  5  2 -1</clus>
</clustering>
</event>
<event>
 9    2  0.3791909E-005  0.9585823E+02  0.7546771E-02  0.1294151E+00
          2   -1    0    0  502    0  0.00000000000E+00  0.00000000000E+00  0.11048138143E+03  0.11048138143E+03  0.00000000000E+00 0. -1.
         -1   -1    0    0    0  501 -0.00000000000E+00 -0.00000000000E+00 -0.30267230794E+03  0.30267230794E+03  0.00000000000E+00 0.  1.
         23    2    1    2    0    0  0.20060500448E+02 -0.27791167788E+02 -0.14514608739E+03  0.17517571974E+03  0.91893271894E+02 0.  0.
         24    2    1    2    0    0  0.18529738401E+02  0.26790815419E+02 -0.12346655608E+03  0.15235971188E+03  0.83116739214E+02 0.  0.
        -11    1    4    4    0    0 -0.30769541927E+02  0.88617403936E+01 -0.24385810712E+02  0.40248762928E+02  0.00000000000E+00 0.  1.
         12    1    4    4    0    0  0.49299280327E+02  0.17929075025E+02 -0.99080745363E+02  0.11211094895E+03  0.00000000000E+00 0. -1.
        -13    1    3    3    0    0  0.46985118059E+02  0.10482104917E+02 -0.95526776368E+02  0.10697121503E+03  0.00000000000E+00 0.  1.
         13    1    3    3    0    0 -0.26924617611E+02 -0.38273272705E+02 -0.49619311017E+02  0.68204504711E+02  0.00000000000E+00 0. -1.
         21    1    1    2  502  501 -0.38590238849E+02  0.10003523690E+01  0.76421716953E+02  0.85618257757E+02  0.00000000000E+00 0. -1.
<scales pt_clust_5="13000.00000" pt_clust_6="13000.00000" pt_clust_7="13000.00000" pt_clust_8="13000.00000" pt_clust_9="38.60320"></scales>
<clustering>
<clus scale="   38.603">  1  9  2 -1</clus>
<clus scale="   83.117">  5  6 -1 -1</clus>
<clus scale="   87.480">  1  5  2 -1</clus>
<clus scale="   91.893">  7  8 -1 -1</clus>
<clus scale="   38.603">  1  5  2 -1</clus>
</clustering>
</event>
<event>
 9    2  0.3791909E-005  0.9013882E+02  0.7546771E-02  0.1308427E+00
         -1   -1    0    0    0  501 -0.00000000000E+00  0.00000000000E+00  0.44548016561E+02  0.44548016561E+02  0.00000000000E+00 0.  1.
          2   -1    0    0  502    0  0.00000000000E+00 -0.00000000000E+00 -0.97339772579E+03  0.97339772579E+03  0.00000000000E+00 0. -1.
         23    2    1    2    0    0 -0.19657140578E+02  0.79499401413E+01 -0.13033883240E+02  0.93222688688E+02  0.89838648977E+02 0.  0.
         24    2    1    2    0    0 -0.10037631855E+01 -0.73217324079E+01 -0.87719424021E+03  0.88091786587E+03  0.80572551447E+02 0.  0.
        -13    1    4    4    0    0 -0.84776982251E+00 -0.34870284073E+02 -0.19022756110E+03  0.19339901869E+03  0.00000000000E+00 0.  1.
         14    1    4    4    0    0 -0.15599336298E+00  0.27548551665E+02 -0.68696667911E+03  0.68751884719E+03  0.00000000000E+00 0. -1.
        -13    1    3    3    0    0  0.27992187966E+02 -0.20156285750E+02  0.53937733790E+01  0.34913195695E+02  0.00000000000E+00 0. -1.
         13    1    3    3    0    0 -0.47649328544E+02  0.28106225892E+02 -0.18427656619E+02  0.58309492993E+02  0.00000000000E+00 0.  1.
         21    1    1    2  502  501  0.20660903764E+02 -0.62820773348E+00 -0.38621585771E+02  0.43805187784E+02  0.00000000000E+00 0.  1.
<scales pt_clust_5="13000.00000" pt_clust_6="13000.00000" pt_clust_7="13000.00000" pt_clust_8="13000.00000" pt_clust_9="20.67045"></scales>
<clustering>
<clus scale="   20.670">  1  9  2 -1</clus>
<clus scale="   80.573">  5  6 -1 -1</clus>
<clus scale="   80.907">  2  5  1 -1</clus>
<clus scale="   89.839">  7  8 -1 -1</clus>
<clus scale="   80.907">  2  5  1 -1</clus>
</clustering>
</event>
<event>
 9    2  0.3791909E-005  0.9774759E+02  0.7546771E-02  0.1289884E+00
         -1   -1    0    0    0  501 -0.00000000000E+00  0.00000000000E+00  0.19852574400E+02  0.19852574400E+02  0.00000000000E+00 0.  1.
          2   -1    0    0  502    0  0.00000000000E+00 -0.00000000000E+00 -0.13049201617E+04  0.13049201617E+04  0.00000000000E+00 0. -1.
         23    2    1    2    0    0  0.33252456083E+02 -0.17298618836E+02 -0.16927967854E+03  0.19552608862E+03  0.90387353733E+02 0.  0.
         24    2    1    2    0    0  0.78919501895E+01  0.68859926435E+02 -0.74915101852E+03  0.75672276919E+03  0.81228865074E+02 0.  0.
        -11    1    4    4    0    0 -0.25237206166E+02  0.21475210998E+02 -0.10798388874E+03  0.11295406805E+03  0.00000000000E+00 0.  1.
         12    1    4    4    0    0  0.33129156356E+02  0.47384715437E+02 -0.64116712978E+03  0.64376870114E+03  0.00000000000E+00 0. -1.
        -13    1    3    3    0    0  0.47705306340E+02  0.21859917654E+02 -0.11982092320E+03  0.13080789690E+03  0.00000000000E+00 0. -1.
         13    1    3    3    0    0 -0.14452850257E+02 -0.39158536490E+02 -0.49458755337E+02  0.64718191724E+02  0.00000000000E+00 0.  1.
         21    1    1    2  502  501 -0.41144406272E+02 -0.51561307599E+02 -0.36663689019E+03  0.37252387824E+03  0.00000000000E+00 0.  1.
<scales pt_clust_5="13000.00000" pt_clust_6="13000.00000" pt_clust_7="13000.00000" pt_clust_8="13000.00000" pt_clust_9="65.96537"></scales>
<clustering>
<clus scale="   65.965">  2  9  1 -1</clus>
<clus scale="   81.229">  5  6 -1 -1</clus>
<clus scale="   89.347">  2  5  1 -1</clus>
<clus scale="   90.387">  7  8 -1 -1</clus>
<clus scale="   65.965">  2  5  1 -1</clus>
</clustering>
</event>
<event>
 9    2  0.3791909E-005  0.1032774E+03  0.7546771E-02  0.1280503E+00
         -1   -1    0    0    0  501 -0.00000000000E+00  0.00000000000E+00  0.78021354136E+02  0.78021354136E+02  0.00000000000E+00 0.  1.
          2   -1    0    0  502    0  0.00000000000E+00 -0.00000000000E+00 -0.21553866549E+03  0.21553866549E+03  0.00000000000E+00 0. -1.
         24    2    1    2    0    0 -0.27150922952E+02 -0.34934122058E+02  0.11772109408E+02  0.88857455058E+02  0.76154443458E+02 0.  0.
         23    2    1    2    0    0  0.45025648293E+02  0.43933702316E+02 -0.91657758236E+02  0.14369513243E+03  0.91047609718E+02 0.  0.
        -13    1    3    3    0    0 -0.10828425769E+02  0.23779778104E+02 -0.25601097703E+01  0.26254272287E+02  0.00000000000E+00 0.  1.
         14    1    3    3    0    0 -0.16322497183E+02 -0.58713900162E+02  0.14332219178E+02  0.62603182771E+02  0.00000000000E+00 0. -1.
        -11    1    4    4    0    0 -0.26638225944E+02  0.80911049533E+01 -0.38604782466E+02  0.47596116333E+02  0.00000000000E+00 0. -1.
         11    1    4    4    0    0  0.71663874237E+02  0.35842597363E+02 -0.53052975771E+02  0.96099016095E+02  0.00000000000E+00 0.  1.
         21    1    1    2  502  501 -0.17874725342E+02 -0.89995802582E+01 -0.57631662522E+02  0.61007432136E+02  0.00000000000E+00 0.  1.
<scales pt_clust_5="13000.00000" pt_clust_6="13000.00000" pt_clust_7="13000.00000" pt_clust_8="13000.00000" pt_clust_9="20.01245"></scales>
<clustering>
<clus scale="   20.012">  2  9  1 -1</clus>
<clus scale="   76.154">  5  6 -1 -1</clus>
<clus scale="   90.422">  1  5  2 -1</clus>
<clus scale="   91.048">  7  8 -1 -1</clus>
<clus scale="   20.012">  2  5  1 -1</clus>
</clustering>
</event>
<event>
 9    2  0.3791909E-005  0.1064181E+03  0.7546771E-02  0.1272475E+00
          2   -1    0    0  502    0  0.00000000000E+00  0.00000000000E+00  0.83707947668E+02  0.83707947668E+02  0.00000000000E+00 0. -1.
         -1   -1    0    0    0  501 -0.00000000000E+00 -0.00000000000E+00 -0.45314430599E+03  0.45314430599E+03  0.00000000000E+00 0.  1.
         23    2    1    2    0    0  0.55693856461E+02  0.30370551356E+02 -0.31616832189E+03  0.33543555920E+03  0.92360330086E+02 0.  0.
         24    2    1    2    0    0 -0.48415897424E+02  0.25003677585E+02  0.29423389877E+02  0.10163119499E+03  0.80584619544E+02 0.  0.
        -13    1    4    4    0    0 -0.50357963637E+02 -0.86685608866E+01 -0.74726298075E+01  0.51642120849E+02  0.00000000000E+00 0.  1.
         14    1    4    4    0    0  0.19420662135E+01  0.33672238472E+02  0.36896019684E+02  0.49989074140E+02  0.00000000000E+00 0. -1.
        -13    1    3    3    0    0 -0.14255113401E+02 -0.19971914897E+02 -0.93647575206E+02  0.96808852822E+02  0.00000000000E+00 0. -1.
         13    1    3    3    0    0  0.69948969863E+02  0.50342466252E+02 -0.22252074669E+03  0.23862670638E+03  0.00000000000E+00 0.  1.
         21    1    1    2  502  501 -0.72779590374E+01 -0.55374228941E+02 -0.82691426303E+02  0.99785499460E+02  0.00000000000E+00 0.  1.
<scales pt_clust_5="13000.00000" pt_clust_6="13000.00000" pt_clust_7="13000.00000" pt_clust_8="13000.00000" pt_clust_9="55.85046"></scales>
<clustering>
<clus scale="   55.850">  2  9  1 -1</clus>
<clus scale="   80.585">  5  6 -1 -1</clus>
<clus scale="   92.360">  7  8 -1 -1</clus>
<clus scale="   96.376">  1  5  2 -1</clus>
<clus scale="   96.376">  1  5  2 -1</clus>
</clustering>
</event>
<event>
 9    2  0.3791909E-005  0.2125890E+03  0.7546771E-02  0.1161272E+00
          2   -1    0    0  502    0  0.00000000000E+00  0.00000000000E+00  0.23436409878E+03  0.23436409878E+03  0.00000000000E+00 0. -1.
         -1   -1    0    0    0  501 -0.00000000000E+00 -0.00000000000E+00 -0.34240217834E+03  0.34240217834E+03  0.00000000000E+00 0.  1.
         24    2    1    2    0    0 -0.19712116273E+03 -0.30300562743E+02 -0.13297745092E+03  0.25321571159E+03  0.81610766738E+02 0.  0.
         23    2    1    2    0    0  0.40232106816E+01  0.34004389749E+02  0.29237521952E+02  0.13036927369E+03  0.12234717032E+03 0.  0.
        -11    1    3    3    0    0 -0.37260530493E+02  0.25231567188E+02 -0.39539111237E+02  0.59902591203E+02  0.00000000000E+00 0.  1.
         12    1    3    3    0    0 -0.15986063223E+03 -0.55532129931E+02 -0.93438339686E+02  0.19331312039E+03  0.00000000000E+00 0. -1.
        -13    1    4    4    0    0  0.43634226644E+02 -0.11497780144E+02 -0.22928487197E+02  0.50614822021E+02  0.00000000000E+00 0.  1.
         13    1    4    4    0    0 -0.39611015962E+02  0.45502169893E+02  0.52166009149E+02  0.79754451669E+02  0.00000000000E+00 0. -1.
         21    1    1    2  502  501  0.19309795204E+03 -0.37038270062E+01 -0.42981505923E+01  0.19318129184E+03  0.00000000000E+00 0.  1.
<scales pt_clust_5="13000.00000" pt_clust_6="13000.00000" pt_clust_7="13000.00000" pt_clust_8="13000.00000" pt_clust_9="196.30021"></scales>
<clustering>
<clus scale="   81.611">  5  6 -1 -1</clus>
<clus scale="  122.347">  7  8 -1 -1</clus>
<clus scale="  127.048">  1  7  2 -1</clus>
<clus scale="  196.300">  1  9  2 -1</clus>
<clus scale="  127.048">  1  5  2 -1</clus>
</clustering>
</event>
<event>
 9    2  0.3791909E-005  0.9346588E+02  0.7546771E-02  0.1301628E+00
         -1   -1    0    0    0  501 -0.00000000000E+00  0.00000000000E+00  0.15582171128E+03  0.15582171128E+03  0.00000000000E+00 0.  1.
          2   -1    0    0  502    0  0.00000000000E+00 -0.00000000000E+00 -0.92652618357E+02  0.92652618357E+02  0.00000000000E+00 0. -1.
         23    2    1    2    0    0  0.13497513805E+02 -0.13041667530E+02  0.90373294714E+02  0.12930537280E+03  0.90555392258E+02 0.  0.
         24    2    1    2    0    0 -0.38766713107E+02  0.47765425779E+01 -0.12782375841E+02  0.88922737439E+02  0.78855505181E+02 0.  0.
        -13    1    4    4    0    0 -0.40265584441E+00 -0.23126958830E+02  0.20553301968E+02  0.30942795256E+02  0.00000000000E+00 0.  1.
         14    1    4    4    0    0 -0.38364057263E+02  0.27903501408E+02 -0.33335677809E+02  0.57979942182E+02  0.00000000000E+00 0. -1.
        -13    1    3    3    0    0  0.11201230320E+02 -0.44759534652E+02  0.16712792275E+02  0.49073423852E+02  0.00000000000E+00 0.  1.
         13    1    3    3    0    0  0.22962834851E+01  0.31717867122E+02  0.73660502439E+02  0.80231948949E+02  0.00000000000E+00 0. -1.
         21    1    1    2  502  501  0.25269199302E+02  0.82651249521E+01 -0.14421825952E+02  0.30246219394E+02  0.00000000000E+00 0. -1.
<scales pt_clust_5="13000.00000" pt_clust_6="13000.00000" pt_clust_7="13000.00000" pt_clust_8="13000.00000" pt_clust_9="26.58655"></scales>
<clustering>
<clus scale="   26.587">  2  9  1 -1</clus>
<clus scale="   78.856">  5  6 -1 -1</clus>
<clus scale="   82.181">  2  5  1 -1</clus>
<clus scale="   90.555">  7  8 -1 -1</clus>
<clus scale="   26.587">  2  5  1 -1</clus>
</clustering>
</event>
<event>
 9    2  0.3791909E-005  0.2201923E+03  0.7546771E-02  0.1134701E+00
         -1   -1    0    0    0  501 -0.00000000000E+00  0.00000000000E+00  0.33826087143E+03  0.33826087143E+03  0.00000000000E+00 0.  1.
          2   -1    0    0  502    0  0.00000000000E+00 -0.00000000000E+00 -0.30166877199E+03  0.30166877199E+03  0.00000000000E+00 0. -1.
         24    2    1    2    0    0 -0.47087309581E+02  0.18954449406E+03  0.20621069377E+03  0.29468080978E+03  0.78546797988E+02 0.  0.
         23    2    1    2    0    0  0.46510873017E+02 -0.21342271236E+03 -0.76181643914E+02  0.24880732136E+03  0.91591073993E+02 0.  0.
        -11    1    3    3    0    0 -0.26539945018E+02  0.14907399674E+03  0.19683055350E+03  0.24833383172E+03  0.00000000000E+00 0.  1.
         12    1    3    3    0    0 -0.20547364563E+02  0.40470497320E+02  0.93801402728E+01  0.46346978060E+02  0.00000000000E+00 0. -1.
        -13    1    4    4    0    0  0.16714937652E+02 -0.31249766885E+02  0.19964201256E+02  0.40675624185E+02  0.00000000000E+00 0.  1.
         13    1    4    4    0    0  0.29795935364E+02 -0.18217294548E+03 -0.96145845169E+02  0.20813169718E+03  0.00000000000E+00 0. -1.
         21    1    1    2  502  501  0.57643656449E+00  0.23878218296E+02 -0.93436950415E+02  0.96441512280E+02  0.00000000000E+00 0.  1.
<scales pt_clust_5="13000.00000" pt_clust_6="13000.00000" pt_clust_7="13000.00000" pt_clust_8="13000.00000" pt_clust_9="23.88518"></scales>
<clustering>
<clus scale="   23.885">  2  9  1 -1</clus>
<clus scale="   78.547">  5  6 -1 -1</clus>
<clus scale="   91.591">  7  8 -1 -1</clus>
<clus scale="  215.094">  1  5  2 -1</clus>
<clus scale="   23.885">  2  5  1 -1</clus>
</clustering>
</event>
<event>
 9    2  0.3791909E-005  0.9806094E+02  0.7546771E-02  0.1288987E+00
          2   -1    0    0  502    0  0.00000000000E+00  0.00000000000E+00  0.17052253751E+03  0.17052253751E+03  0.00000000000E+00 0. -1.
         -1   -1    0    0    0  501 -0.00000000000E+00 -0.00000000000E+00 -0.13883620449E+03  0.13883620449E+03  0.00000000000E+00 0.  1.
         24    2    1    2    0    0  0.30079611726E+02  0.66457271807E+01 -0.71069255699E+02  0.11434676460E+03  0.84115365639E+02 0.  0.
         23    2    1    2    0    0  0.10126047898E+02 -0.37394605001E+02  0.10370293829E+03  0.14438702285E+03  0.92695305317E+02 0.  0.
        -11    1    3    3    0    0 -0.88000141627E+01  0.38346924373E+02 -0.29012054901E+02  0.48883802918E+02  0.00000000000E+00 0.  1.
         12    1    3    3    0    0  0.38879625889E+02 -0.31701197193E+02 -0.42057200798E+02  0.65462961678E+02  0.00000000000E+00 0. -1.
        -11    1    4    4    0    0 -0.25830109493E+02  0.19336367246E+02  0.43710961567E+02  0.54329897991E+02  0.00000000000E+00 0.  1.
         11    1    4    4    0    0  0.35956157391E+02 -0.56730972246E+02  0.59991976723E+02  0.90057124857E+02  0.00000000000E+00 0. -1.
         21    1    1    2  502  501 -0.40205659624E+02  0.30748877820E+02 -0.94734957583E+00  0.50624954560E+02  0.00000000000E+00 0. -1.
<scales pt_clust_5="13000.00000" pt_clust_6="13000.00000" pt_clust_7="13000.00000" pt_clust_8="13000.00000" pt_clust_9="50.61609"></scales>
<clustering>
<clus scale="   50.616">  2  9  1 -1</clus>
<clus scale="   84.115">  5  6 -1 -1</clus>
<clus scale="   89.994">  2  5  1 -1</clus>
<clus scale="   92.695">  7  8 -1 -1</clus>
<clus scale="   98.061">  1  5  2 -1</clus>
</clustering>
</event>
<event>
 9    2  0.4938926E-005  0.9096707E+02  0.7546771E-02  0.1307792E+00
          2   -1    0    0  502    0  0.00000000000E+00  0.00000000000E+00  0.68506662720E+03  0.68506662720E+03  0.00000000000E+00 0. -1.
         -1   -1    0    0    0  501 -0.00000000000E+00 -0.00000000000E+00 -0.11854894230E+03  0.11854894230E+03  0.00000000000E+00 0.  1.
         23    2    1    2    0    0  0.91112004972E+01 -0.95863089414E-01 -0.95567927225E+02  0.13197747267E+03  0.90563797482E+02 0.  0.
         24    2    1    2    0    0  0.90859636152E+01  0.22169949592E+02  0.53619719455E+03  0.54254008849E+03  0.79172310626E+02 0.  0.
        -11    1    4    4    0    0  0.41718844466E+02 -0.21210774404E+01  0.24995585587E+03  0.25342235662E+03  0.00000000000E+00 0.  1.
         12    1    4    4    0    0 -0.32632880851E+02  0.24291027033E+02  0.28624133868E+03  0.28911773187E+03  0.00000000000E+00 0. -1.
        -13    1    3    3    0    0  0.39453273752E+02  0.18193311195E+01 -0.93506333288E+02  0.10150519760E+03  0.00000000000E+00 0.  1.
         13    1    3    3    0    0 -0.30342073255E+02 -0.19151942089E+01 -0.20615939367E+01  0.30472275068E+02  0.00000000000E+00 0. -1.
         21    1    1    2  502  501 -0.18197164112E+02 -0.22074086503E+02  0.12588841758E+03  0.12909800834E+03  0.00000000000E+00 0.  1.
<scales pt_clust_5="13000.00000" pt_clust_6="13000.00000" pt_clust_7="13000.00000" pt_clust_8="13000.00000" pt_clust_9="28.60773"></scales>
<clustering>
<clus scale="   28.608">  1  9  2 -1</clus>
<clus scale="   79.172">  5  6 -1 -1</clus>
<clus scale="   79.633">  1  5  2 -1</clus>
<clus scale="   90.564">  7  8 -1 -1</clus>
<clus scale="   28.608">  1  5  2 -1</clus>
</clustering>
</event>
<event>
 9    2  0.3791909E-005  0.9483813E+02  0.7546771E-02  0.1297864E+00
         -1   -1    0    0    0  501 -0.00000000000E+00  0.00000000000E+00  0.41921003341E+02  0.41921003341E+02  0.00000000000E+00 0.  1.
          2   -1    0    0  502    0  0.00000000000E+00 -0.00000000000E+00 -0.41712512933E+03  0.41712512933E+03  0.00000000000E+00 0. -1.
         24    2    1    2    0    0 -0.44393035237E+01  0.21884580973E+02 -0.27193930126E+02  0.87532052900E+02  0.80148038959E+02 0.  0.
         23    2    1    2    0    0  0.18214627185E+02 -0.38801946825E+02 -0.22406114299E+03  0.24565970155E+03  0.91147843896E+02 0.  0.
        -11    1    3    3    0    0 -0.27141769408E+02  0.32381849367E+02  0.93248014006E+01  0.43269062114E+02  0.00000000000E+00 0.  1.
         12    1    3    3    0    0  0.22702465884E+02 -0.10497268395E+02 -0.36518731527E+02  0.44262990786E+02  0.00000000000E+00 0. -1.
        -11    1    4    4    0    0 -0.63831025905E+01  0.24605399555E+02 -0.26505291236E+02  0.36724653156E+02  0.00000000000E+00 0.  1.
         11    1    4    4    0    0  0.24597729775E+02 -0.63407346381E+02 -0.19755585175E+03  0.20893504839E+03  0.00000000000E+00 0. -1.
         21    1    1    2  502  501 -0.13775323661E+02  0.16917365853E+02 -0.12394905288E+03  0.12585437822E+03  0.00000000000E+00 0. -1.
<scales pt_clust_5="13000.00000" pt_clust_6="13000.00000" pt_clust_7="13000.00000" pt_clust_8="13000.00000" pt_clust_9="21.81643"></scales>
<clustering>
<clus scale="   21.816">  2  9  1 -1</clus>
<clus scale="   80.148">  5  6 -1 -1</clus>
<clus scale="   84.321">  1  5  2 -1</clus>
<clus scale="   91.148">  7  8 -1 -1</clus>
<clus scale="   21.816">  2  5  1 -1</clus>
</clustering>
</event>
<event>
 9    2  0.3791909E-005  0.1058928E+03  0.7546771E-02  0.1273708E+00
          2   -1    0    0  502    0  0.00000000000E+00  0.00000000000E+00  0.10542011964E+04  0.10542011964E+04  0.00000000000E+00 0. -1.
         -1   -1    0    0    0  501 -0.00000000000E+00 -0.00000000000E+00 -0.19171969265E+02  0.19171969265E+02  0.00000000000E+00 0.  1.
         23    2    1    2    0    0 -0.54007616472E+02 -0.15110845935E+02  0.25234217809E+03  0.27426855228E+03  0.91659716490E+02 0.  0.
         24    2    1    2    0    0  0.23700577995E+02  0.58687045195E+02  0.39735076541E+03  0.41012973861E+03  0.79453666011E+02 0.  0.
        -11    1    4    4    0    0 -0.23525206640E+02  0.45944809690E+02  0.23329504309E+03  0.23893710054E+03  0.00000000000E+00 0.  1.
         12    1    4    4    0    0  0.47225784635E+02  0.12742235505E+02  0.16405572232E+03  0.17119263806E+03  0.00000000000E+00 0. -1.
        -13    1    3    3    0    0  0.22581221806E+02  0.83652111868E+01  0.91031186106E+02  0.94162440390E+02  0.00000000000E+00 0. -1.
         13    1    3    3    0    0 -0.76588838277E+02 -0.23476057122E+02  0.16131099198E+03  0.18010611189E+03  0.00000000000E+00 0.  1.
         21    1    1    2  502  501  0.30307038476E+02 -0.43576199260E+02  0.38533628360E+03  0.38897487474E+03  0.00000000000E+00 0. -1.
<scales pt_clust_5="13000.00000" pt_clust_6="13000.00000" pt_clust_7="13000.00000" pt_clust_8="13000.00000" pt_clust_9="53.07920"></scales>
<clustering>
<clus scale="   53.079">  1  9  2 -1</clus>
<clus scale="   79.454">  5  6 -1 -1</clus>
<clus scale="   91.660">  7  8 -1 -1</clus>
<clus scale="   95.523">  1  5  2 -1</clus>
<clus scale="   53.079">  1  5  2 -1</clus>
</clustering>
</event>
<event>
 9    2  0.3791909E-005  0.9960481E+02  0.7546771E-02  0.1286486E+00
         -1   -1    0    0    0  501 -0.00000000000E+00  0.00000000000E+00  0.24327197322E+02  0.24327197322E+02  0.00000000000E+00 0.  1.
          2   -1    0    0  502    0  0.00000000000E+00 -0.00000000000E+00 -0.81272887630E+03  0.81272887630E+03  0.00000000000E+00 0. -1.
         23    2    1    2    0    0  0.38271092473E+02 -0.40836003729E+02 -0.14028027227E+03  0.17697333696E+03  0.92242893968E+02 0.  0.
         24    2    1    2    0    0 -0.32454826133E+02  0.12850406292E+02 -0.57003565472E+03  0.57692982161E+03  0.81785834526E+02 0.  0.
        -11    1    4    4    0    0  0.20019653896E+02 -0.90264672975E+00 -0.47073190316E+02  0.51161377618E+02  0.00000000000E+00 0.  1.
         12    1    4    4    0    0 -0.52474480029E+02  0.13753053022E+02 -0.52296246440E+03  0.52576844399E+03  0.00000000000E+00 0. -1.
        -11    1    3    3    0    0 -0.16234867212E+02 -0.49874975677E+02 -0.73603121577E+02  0.90379774386E+02  0.00000000000E+00 0. -1.
         11    1    3    3    0    0  0.54505959684E+02  0.90389719483E+01 -0.66677150694E+02  0.86593562577E+02  0.00000000000E+00 0.  1.
         21    1    1    2  502  501 -0.58162663398E+01  0.27985597437E+02 -0.78085751988E+02  0.83152915052E+02  0.00000000000E+00 0.  1.
<scales pt_clust_5="13000.00000" pt_clust_6="13000.00000" pt_clust_7="13000.00000" pt_clust_8="13000.00000" pt_clust_9="28.58361"></scales>
<clustering>
<clus scale="   28.584">  1  9  2 -1</clus>
<clus scale="   81.786">  5  6 -1 -1</clus>
<clus scale="   90.007">  2  5  1 -1</clus>
<clus scale="   92.243">  7  8 -1 -1</clus>
<clus scale="   90.007">  2  5  1 -1</clus>
</clustering>
</event>
<event>
 9    2  0.3791909E-005  0.1076373E+03  0.7546771E-02  0.1270434E+00
         -1   -1    0    0    0  501 -0.00000000000E+00  0.00000000000E+00  0.41734381043E+02  0.41734381043E+02  0.00000000000E+00 0.  1.
          2   -1    0    0  502    0  0.00000000000E+00 -0.00000000000E+00 -0.41025344794E+03  0.41025344794E+03  0.00000000000E+00 0. -1.
         24    2    1    2    0    0  0.54443468906E+02  0.31253145372E+02 -0.65557218658E+02  0.12111030268E+03  0.80181706734E+02 0.  0.
         23    2    1    2    0    0 -0.33450999164E+02 -0.14572824185E+02 -0.18820463611E+03  0.21302959618E+03  0.92893956973E+02 0.  0.
        -13    1    3    3    0    0  0.23891778908E+02  0.42776225638E+02 -0.12776563328E+01  0.49012804295E+02  0.00000000000E+00 0.  1.
         14    1    3    3    0    0  0.30551689998E+02 -0.11523080266E+02 -0.64279562325E+02  0.72097498384E+02  0.00000000000E+00 0. -1.
        -11    1    4    4    0    0 -0.33029290375E+02  0.35867433017E+02 -0.10420682618E+03  0.11504985614E+03  0.00000000000E+00 0.  1.
         11    1    4    4    0    0 -0.42170878923E+00 -0.50440257202E+02 -0.83997809933E+02  0.97979740041E+02  0.00000000000E+00 0. -1.
         21    1    1    2  502  501 -0.20992469743E+02 -0.16680321187E+02 -0.11475721213E+03  0.11784793013E+03  0.00000000000E+00 0. -1.
<scales pt_clust_5="13000.00000" pt_clust_6="13000.00000" pt_clust_7="13000.00000" pt_clust_8="13000.00000" pt_clust_9="26.81263"></scales>
<clustering>
<clus scale="   26.813">  2  9  1 -1</clus>
<clus scale="   80.182">  5  6 -1 -1</clus>
<clus scale="   92.894">  7  8 -1 -1</clus>
<clus scale="   96.879">  1  5  2 -1</clus>
<clus scale="   26.813">  2  5  1 -1</clus>
</clustering>
</event>
<event>
 9    2  0.3791909E-005  0.1122799E+03  0.7546771E-02  0.1260146E+00
          2   -1    0    0  502    0  0.00000000000E+00  0.00000000000E+00  0.65657204091E+03  0.65657204091E+03  0.00000000000E+00 0. -1.
         -1   -1    0    0    0  501 -0.00000000000E+00 -0.00000000000E+00 -0.37265484753E+02  0.37265484753E+02  0.00000000000E+00 0.  1.
         23    2    1    2    0    0  0.84274604057E+02  0.14233907303E+02  0.12527090306E+03  0.17672162340E+03  0.90735439706E+02 0.  0.
         24    2    1    2    0    0 -0.21402640573E+02 -0.20346277679E+01  0.34402867532E+03  0.35400918997E+03  0.80650879752E+02 0.  0.
        -13    1    4    4    0    0  0.28437853925E+02 -0.12410283630E+02  0.99024817117E+02  0.10377206310E+03  0.00000000000E+00 0.  1.
         14    1    4    4    0    0 -0.49840494499E+02  0.10375655862E+02  0.24500385821E+03  0.25023712687E+03  0.00000000000E+00 0. -1.
        -11    1    3    3    0    0  0.31960300423E+02  0.14918843669E+02  0.11889430664E+03  0.12401567986E+03  0.00000000000E+00 0. -1.
         11    1    3    3    0    0  0.52314303634E+02 -0.68493636571E+00  0.63765964154E+01  0.52705943540E+02  0.00000000000E+00 0.  1.
         21    1    1    2  502  501 -0.62871963484E+02 -0.12199279535E+02  0.15000697777E+03  0.16310671229E+03  0.00000000000E+00 0. -1.
<scales pt_clust_5="13000.00000" pt_clust_6="13000.00000" pt_clust_7="13000.00000" pt_clust_8="13000.00000" pt_clust_9="64.04456"></scales>
<clustering>
<clus scale="   64.045">  1  9  2 -1</clus>
<clus scale="   80.651">  5  6 -1 -1</clus>
<clus scale="   90.735">  7  8 -1 -1</clus>
<clus scale="  104.300">  1  5  2 -1</clus>
<clus scale="   64.045">  1  5  2 -1</clus>
</clustering>
</event>
<event>
 9    2  0.3791909E-005  0.1740919E+03  0.7546771E-02  0.1182256E+00
          2   -1    0    0  502    0  0.00000000000E+00  0.00000000000E+00  0.24803605012E+04  0.24803605012E+04  0.00000000000E+00 0. -1.
         -1   -1    0    0    0  501 -0.00000000000E+00 -0.00000000000E+00 -0.33863226078E+02  0.33863226078E+02  0.00000000000E+00 0.  1.
         23    2    1    2    0    0  0.51408038377E+01 -0.11046252242E+03  0.25933569674E+03  0.29632241229E+03  0.91233610586E+02 0.  0.
         24    2    1    2    0    0 -0.13550768820E+03 -0.20967450306E+02  0.13636918154E+04  0.13738800991E+04  0.95337253218E+02 0.  0.
        -13    1    4    4    0    0 -0.46931340539E+02  0.33467153536E+02  0.33238030096E+03  0.33734146730E+03  0.00000000000E+00 0.  1.
         14    1    4    4    0    0 -0.88576347656E+02 -0.54434603842E+02  0.10313115145E+04  0.10365386319E+04  0.00000000000E+00 0. -1.
        -13    1    3    3    0    0  0.31744656303E+02 -0.94925457774E+02  0.13400137946E+03  0.16725709382E+03  0.00000000000E+00 0. -1.
         13    1    3    3    0    0 -0.26603852466E+02 -0.15537064651E+02  0.12533431728E+03  0.12906531847E+03  0.00000000000E+00 0.  1.
         21    1    1    2  502  501  0.13036688436E+03  0.13142997273E+03  0.82346976292E+03  0.84402121580E+03  0.00000000000E+00 0.  1.
<scales pt_clust_5="13000.00000" pt_clust_6="13000.00000" pt_clust_7="13000.00000" pt_clust_8="13000.00000" pt_clust_9="145.66669"></scales>
<clustering>
<clus scale="   91.234">  7  8 -1 -1</clus>
<clus scale="   95.337">  5  6 -1 -1</clus>
<clus scale="  143.360">  2  7  1 -1</clus>
<clus scale="  145.667">  2  9  1 -1</clus>
<clus scale="  174.092">  1  5  2 -1</clus>
</clustering>
</event>
<event>
 9    2  0.3791909E-005  0.1434140E+03  0.7546771E-02  0.1211545E+00
         -1   -1    0    0    0  501 -0.00000000000E+00  0.00000000000E+00  0.74667848882E+02  0.74667848882E+02  0.00000000000E+00 0.  1.
          2   -1    0    0  502    0  0.00000000000E+00 -0.00000000000E+00 -0.35767810970E+03  0.35767810970E+03  0.00000000000E+00 0. -1.
         23    2    1    2    0    0 -0.63322654421E+02 -0.73605230706E+02 -0.86859916433E+02  0.15867810579E+03  0.90590328542E+02 0.  0.
         24    2    1    2    0    0  0.88285330579E+02  0.95393529590E+02 -0.12856406930E+03  0.19839654517E+03  0.77060003504E+02 0.  0.
        -11    1    4    4    0    0  0.17282938372E+01  0.32344316483E+02 -0.17788410989E+01  0.32439267624E+02  0.00000000000E+00 0.  1.
         12    1    4    4    0    0  0.86557036742E+02  0.63049213108E+02 -0.12678522820E+03  0.16595727755E+03  0.00000000000E+00 0. -1.
        -11    1    3    3    0    0 -0.86578809937E+02 -0.63710561459E+02 -0.69081356429E+02  0.12777777497E+03  0.00000000000E+00 0.  1.
         11    1    3    3    0    0  0.23256155516E+02 -0.98946692473E+01 -0.17778560004E+02  0.30900330819E+02  0.00000000000E+00 0. -1.
         21    1    1    2  502  501 -0.24962676158E+02 -0.21788298884E+02 -0.67586275087E+02  0.75271307610E+02  0.00000000000E+00 0.  1.
<scales pt_clust_5="13000.00000" pt_clust_6="13000.00000" pt_clust_7="13000.00000" pt_clust_8="13000.00000" pt_clust_9="33.13405"></scales>
<clustering>
<clus scale="   33.134">  2  9  1 -1</clus>
<clus scale="   77.060">  5  6 -1 -1</clus>
<clus scale="   90.590">  7  8 -1 -1</clus>
<clus scale="  135.275">  2  5  1 -1</clus>
<clus scale="   33.134">  2  5  1 -1</clus>
</clustering>
</event>
<event>
 9    2  0.3791909E-005  0.1117165E+03  0.7546771E-02  0.1263054E+00
          2   -1    0    0  502    0  0.00000000000E+00  0.00000000000E+00  0.12925529452E+03  0.12925529452E+03  0.00000000000E+00 0. -1.
         -1   -1    0    0    0  501 -0.00000000000E+00 -0.00000000000E+00 -0.12435641250E+03  0.12435641250E+03  0.00000000000E+00 0.  1.
         23    2    1    2    0    0 -0.70618032020E+01 -0.39988453666E+02 -0.21616457661E+02  0.11003439835E+03  0.99956751090E+02 0.  0.
         24    2    1    2    0    0  0.73920880155E+01  0.60012710415E+02 -0.54787035927E+01  0.10583212684E+03  0.86684799712E+02 0.  0.
        -13    1    4    4    0    0  0.32477173911E+02  0.16325844871E+01 -0.23105682144E+02  0.39891160733E+02  0.00000000000E+00 0.  1.
         14    1    4    4    0    0 -0.25085085895E+02  0.58380125928E+02  0.17626978551E+02  0.65940966103E+02  0.00000000000E+00 0. -1.
        -11    1    3    3    0    0 -0.16265434791E+02 -0.17806705552E+02 -0.60051515386E+02  0.64713426982E+02  0.00000000000E+00 0.  1.
         11    1    3    3    0    0  0.92036315891E+01 -0.22181748114E+02  0.38435057725E+02  0.45320971373E+02  0.00000000000E+00 0. -1.
         21    1    1    2  502  501 -0.33028481347E+00 -0.20024256749E+02  0.31994043269E+02  0.37745181826E+02  0.00000000000E+00 0.  1.
<scales pt_clust_5="13000.00000" pt_clust_6="13000.00000" pt_clust_7="13000.00000" pt_clust_8="13000.00000" pt_clust_9="20.02698"></scales>
<clustering>
<clus scale="   20.027">  1  9  2 -1</clus>
<clus scale="   86.685">  5  6 -1 -1</clus>
<clus scale="   99.957">  7  8 -1 -1</clus>
<clus scale="  100.017">  1  5  2 -1</clus>
<clus scale="   20.027">  1  5  2 -1</clus>
</clustering>
</event>
<event>
 9    2  0.3791909E-005  0.2913389E+03  0.7546771E-02  0.1089913E+00
          2   -1    0    0  502    0  0.00000000000E+00  0.00000000000E+00  0.41376117000E+03  0.41376117000E+03  0.00000000000E+00 0. -1.
         -1   -1    0    0    0  501 -0.00000000000E+00 -0.00000000000E+00 -0.26296816873E+03  0.26296816873E+03  0.00000000000E+00 0.  1.
         24    2    1    2    0    0 -0.22412457109E+03  0.16562655891E+03 -0.43062588348E+02  0.29435357512E+03  0.84413626209E+02 0.  0.
         23    2    1    2    0    0  0.20803557338E+03 -0.17790421299E+03  0.13190435948E+03  0.31720252099E+03  0.91049275022E+02 0.  0.
        -13    1    3    3    0    0 -0.19537519731E+02  0.31379292994E+02  0.19485470598E+02  0.41785862088E+02  0.00000000000E+00 0.  1.
         14    1    3    3    0    0 -0.20458705135E+03  0.13424726591E+03 -0.62548058946E+02  0.25256771303E+03  0.00000000000E+00 0. -1.
        -13    1    4    4    0    0  0.15252767178E+03 -0.11934426080E+03  0.45420911060E+02  0.19892411217E+03  0.00000000000E+00 0.  1.
         13    1    4    4    0    0  0.55507901599E+02 -0.58559952197E+02  0.86483448422E+02  0.11827840882E+03  0.00000000000E+00 0. -1.
         21    1    1    2  502  501  0.16088997710E+02  0.12277654086E+02  0.61951230138E+02  0.65173242613E+02  0.00000000000E+00 0. -1.
<scales pt_clust_5="13000.00000" pt_clust_6="13000.00000" pt_clust_7="13000.00000" pt_clust_8="13000.00000" pt_clust_9="20.23849"></scales>
<clustering>
<clus scale="   20.238">  1  9  2 -1</clus>
<clus scale="   84.414">  5  6 -1 -1</clus>
<clus scale="   91.049">  7  8 -1 -1</clus>
<clus scale="  289.334">  2  5  1 -1</clus>
<clus scale="   20.238">  1  5  2 -1</clus>
</clustering>
</event>
<event>
 9    2  0.3791909E-005  0.1149337E+03  0.7546771E-02  0.1255300E+00
         -1   -1    0    0    0  501 -0.00000000000E+00  0.00000000000E+00  0.29532520814E+03  0.29532520814E+03  0.00000000000E+00 0.  1.
          2   -1    0    0  502    0  0.00000000000E+00 -0.00000000000E+00 -0.82035666912E+02  0.82035666912E+02  0.00000000000E+00 0. -1.
         23    2    1    2    0    0 -0.59607905127E+02 -0.63889526312E+02  0.16536945890E+03  0.20787451511E+03  0.90718146863E+02 0.  0.
         24    2    1    2    0    0  0.56946386088E+02  0.21799575834E+01  0.42955467449E+02  0.10752022437E+03  0.80422530186E+02 0.  0.
        -13    1    4    4    0    0  0.49670851572E+02 -0.25828049218E+02  0.52798646327E+02  0.76954393483E+02  0.00000000000E+00 0.  1.
         14    1    4    4    0    0  0.72755345161E+01  0.28008006801E+02 -0.98431788786E+01  0.30565830889E+02  0.00000000000E+00 0. -1.
        -13    1    3    3    0    0 -0.72188380153E+02 -0.15498256739E+02  0.79410826124E+02  0.10843171813E+03  0.00000000000E+00 0. -1.
         13    1    3    3    0    0  0.12580475026E+02 -0.48391269573E+02  0.85958632779E+02  0.99442796984E+02  0.00000000000E+00 0.  1.
         21    1    1    2  502  501  0.26615190390E+01  0.61709568729E+02  0.49646148774E+01  0.61966135567E+02  0.00000000000E+00 0. -1.
<scales pt_clust_5="13000.00000" pt_clust_6="13000.00000" pt_clust_7="13000.00000" pt_clust_8="13000.00000" pt_clust_9="61.76694"></scales>
<clustering>
<clus scale="   61.767">  2  9  1 -1</clus>
<clus scale="   80.423">  5  6 -1 -1</clus>
<clus scale="   90.718">  7  8 -1 -1</clus>
<clus scale="  106.994">  2  5  1 -1</clus>
<clus scale="   61.767">  2  5  1 -1</clus>
</clustering>
</event>
<event>
 9    2  0.3791909E-005  0.9229975E+02  0.7546771E-02  0.1303488E+00
         -1   -1    0    0    0  501 -0.00000000000E+00  0.00000000000E+00  0.16732664130E+03  0.16732664130E+03  0.00000000000E+00 0.  1.
          2   -1    0    0  502    0  0.00000000000E+00 -0.00000000000E+00 -0.30272445013E+03  0.30272445013E+03  0.00000000000E+00 0. -1.
         24    2    1    2    0    0 -0.18830263987E+02 -0.19743333790E+02  0.12715644958E+03  0.15250689299E+03  0.79656836917E+02 0.  0.
         23    2    1    2    0    0 -0.32750655970E+01 -0.36885329132E+02 -0.82278231761E+02  0.12729463381E+03  0.89794002116E+02 0.  0.
        -11    1    3    3    0    0 -0.17377096748E+02 -0.48563256428E+02  0.10167769762E+03  0.11401187464E+03  0.00000000000E+00 0.  1.
         12    1    3    3    0    0 -0.14531672385E+01  0.28819922638E+02  0.25478751964E+02  0.38495018347E+02  0.00000000000E+00 0. -1.
        -11    1    4    4    0    0  0.16735240757E+02 -0.19136607473E+02  0.12844686127E+02  0.28482696334E+02  0.00000000000E+00 0.  1.
         11    1    4    4    0    0 -0.20010306354E+02 -0.17748721659E+02 -0.95122917887E+02  0.98811937479E+02  0.00000000000E+00 0. -1.
         21    1    1    2  502  501  0.22105329584E+02  0.56628662922E+02 -0.18027602665E+03  0.19024956464E+03  0.00000000000E+00 0. -1.
<scales pt_clust_5="13000.00000" pt_clust_6="13000.00000" pt_clust_7="13000.00000" pt_clust_8="13000.00000" pt_clust_9="60.79022"></scales>
<clustering>
<clus scale="   60.790">  2  9  1 -1</clus>
<clus scale="   79.657">  5  6 -1 -1</clus>
<clus scale="   82.471">  1  5  2 -1</clus>
<clus scale="   89.794">  7  8 -1 -1</clus>
<clus scale="   60.790">  2  5  1 -1</clus>
</clustering>
</event>
<event>
 9    2  0.3791909E-005  0.1421380E+03  0.7546771E-02  0.1213026E+00
          2   -1    0    0  502    0  0.00000000000E+00  0.00000000000E+00  0.40467649342E+02  0.40467649342E+02  0.00000000000E+00 0. -1.
         -1   -1    0    0    0  501 -0.00000000000E+00 -0.00000000000E+00 -0.71521408790E+03  0.71521408790E+03  0.00000000000E+00 0.  1.
         23    2    1    2    0    0 -0.23973717065E+02 -0.10920664224E+03 -0.49075881230E+03  0.51170101713E+03  0.92156873142E+02 0.  0.
         24    2    1    2    0    0  0.41752429324E+02  0.93447785150E+02 -0.17625527693E+03  0.21899645681E+03  0.80110995159E+02 0.  0.
        -13    1    4    4    0    0  0.45514913633E+02  0.28877712697E+02 -0.36785334457E+02  0.65258642989E+02  0.00000000000E+00 0.  1.
         14    1    4    4    0    0 -0.37624843090E+01  0.64570072452E+02 -0.13946994247E+03  0.15373781382E+03  0.00000000000E+00 0. -1.
        -11    1    3    3    0    0 -0.26402257193E+02 -0.20839941340E+02 -0.39572200389E+02  0.51935935378E+02  0.00000000000E+00 0. -1.
         11    1    3    3    0    0  0.24285401285E+01 -0.88366700900E+02 -0.45118661191E+03  0.45976508176E+03  0.00000000000E+00 0.  1.
         21    1    1    2  502  501 -0.17778712259E+02  0.15758857091E+02 -0.77323493279E+01  0.24984263298E+02  0.00000000000E+00 0. -1.
<scales pt_clust_5="13000.00000" pt_clust_6="13000.00000" pt_clust_7="13000.00000" pt_clust_8="13000.00000" pt_clust_9="23.75761"></scales>
<clustering>
<clus scale="   23.758">  1  9  2 -1</clus>
<clus scale="   80.111">  5  6 -1 -1</clus>
<clus scale="   92.157">  7  8 -1 -1</clus>
<clus scale="  134.641">  1  5  2 -1</clus>
<clus scale="   23.758">  1  5  2 -1</clus>
</clustering>
</event>
<event>
 9    2  0.3791909E-005  0.1089882E+03  0.7546771E-02  0.1267832E+00
          2   -1    0    0  502    0  0.00000000000E+00  0.00000000000E+00  0.46010146777E+03  0.46010146777E+03  0.00000000000E+00 0. -1.
         -1   -1    0    0    0  501 -0.00000000000E+00 -0.00000000000E+00 -0.26997961224E+03  0.26997961224E+03  0.00000000000E+00 0.  1.
         23    2    1    2    0    0  0.73930115280E+01  0.57531768736E+02 -0.23680476195E+03  0.26034575884E+03  0.91317346835E+02 0.  0.
         24    2    1    2    0    0 -0.80611743555E+01 -0.10788831717E+03  0.37208576095E+03  0.39527897182E+03  0.78056265290E+02 0.  0.
        -13    1    4    4    0    0 -0.12176140363E+02 -0.55933987581E+02  0.78794863138E+02  0.97393530677E+02  0.00000000000E+00 0.  1.
         14    1    4    4    0    0  0.41149660077E+01 -0.51954329593E+02  0.29329089781E+03  0.29788544114E+03  0.00000000000E+00 0. -1.
        -13    1    3    3    0    0  0.37777307865E+02 -0.38121441012E+01 -0.10799365723E+03  0.11447395964E+03  0.00000000000E+00 0.  1.
         13    1    3    3    0    0 -0.30384296337E+02  0.61343912837E+02 -0.12881110472E+03  0.14587179921E+03  0.00000000000E+00 0. -1.
         21    1    1    2  502  501  0.66816282747E+00  0.50356548438E+02  0.54840856537E+02  0.74456349345E+02  0.00000000000E+00 0. -1.
<scales pt_clust_5="13000.00000" pt_clust_6="13000.00000" pt_clust_7="13000.00000" pt_clust_8="13000.00000" pt_clust_9="50.36098"></scales>
<clustering>
<clus scale="   50.361">  1  9  2 -1</clus>
<clus scale="   78.056">  5  6 -1 -1</clus>
<clus scale="   91.317">  7  8 -1 -1</clus>
<clus scale="   98.145">  1  5  2 -1</clus>
<clus scale="   50.361">  1  5  2 -1</clus>
</clustering>
</event>
<event>
 9    2  0.3791909E-005  0.9632477E+02  0.7546771E-02  0.1289686E+00
         -1   -1    0    0    0  501 -0.00000000000E+00  0.00000000000E+00  0.28164436231E+02  0.28164436231E+02  0.00000000000E+00 0.  1.
          2   -1    0    0  502    0  0.00000000000E+00 -0.00000000000E+00 -0.70248753784E+03  0.70248753784E+03  0.00000000000E+00 0. -1.
         24    2    1    2    0    0  0.99960342019E+01 -0.98437315847E+01 -0.11601206264E+03  0.14537023740E+03  0.86468997289E+02 0.  0.
         23    2    1    2    0    0  0.41553425687E+02  0.28523180766E+02 -0.47214167256E+03  0.48314737250E+03  0.89293703941E+02 0.  0.
        -11    1    3    3    0    0  0.93192085711E+00 -0.25722542098E+02  0.21247198570E+01  0.25826964261E+02  0.00000000000E+00 0.  1.
         12    1    3    3    0    0  0.90641133448E+01  0.15878810513E+02 -0.11813678249E+03  0.11954327313E+03  0.00000000000E+00 0. -1.
        -11    1    4    4    0    0 -0.27653286799E+02  0.42312311100E+00 -0.11506478385E+03  0.11834182602E+03  0.00000000000E+00 0.  1.
         11    1    4    4    0    0  0.69206712487E+02  0.28100057655E+02 -0.35707688871E+03  0.36480554648E+03  0.00000000000E+00 0. -1.
         21    1    1    2  502  501 -0.51549459889E+02 -0.18679449182E+02 -0.86169366413E+02  0.10213436417E+03  0.00000000000E+00 0.  1.
<scales pt_clust_5="13000.00000" pt_clust_6="13000.00000" pt_clust_7="13000.00000" pt_clust_8="13000.00000" pt_clust_9="54.82945"></scales>
<clustering>
<clus scale="   54.829">  1  9  2 -1</clus>
<clus scale="   86.469">  5  6 -1 -1</clus>
<clus scale="   89.294">  7  8 -1 -1</clus>
<clus scale="   93.712">  1  5  2 -1</clus>
<clus scale="   96.325">  2  5  1 -1</clus>
</clustering>
</event>
<event>
 9    2  0.3791909E-005  0.6016862E+03  0.7546771E-02  0.9902690E-01
          2   -1    0    0  502    0  0.00000000000E+00  0.00000000000E+00  0.20367843800E+04  0.20367843800E+04  0.00000000000E+00 0. -1.
         -1   -1    0    0    0  501 -0.00000000000E+00 -0.00000000000E+00 -0.25953640949E+03  0.25953640949E+03  0.00000000000E+00 0.  1.
         23    2    1    2    0    0  0.16223847839E+03  0.55644405652E+03  0.43794466489E+03  0.73208613169E+03  0.90571865369E+02 0.  0.
         24    2    1    2    0    0 -0.32961993042E+03 -0.51437444717E+03  0.11708070040E+04  0.13230347279E+04  0.80009251072E+02 0.  0.
        -13    1    4    4    0    0 -0.64697404625E+02 -0.53130292842E+02  0.14139240231E+03  0.16431796498E+03  0.00000000000E+00 0.  1.
         14    1    4    4    0    0 -0.26492252580E+03 -0.46124415433E+03  0.10294146017E+04  0.11587167629E+04  0.00000000000E+00 0. -1.
        -11    1    3    3    0    0  0.17331260089E+03  0.53687871508E+03  0.42175849666E+03  0.70438358998E+03  0.00000000000E+00 0.  1.
         11    1    3    3    0    0 -0.11074122502E+02  0.19565341440E+02  0.16186168229E+02  0.27702541703E+02  0.00000000000E+00 0. -1.
         21    1    1    2  502  501  0.16738145203E+03 -0.42069609344E+02  0.16849630163E+03  0.24119992989E+03  0.00000000000E+00 0. -1.
<scales pt_clust_5="13000.00000" pt_clust_6="13000.00000" pt_clust_7="13000.00000" pt_clust_8="13000.00000" pt_clust_9="172.58738"></scales>
<clustering>
<clus scale="   80.009">  5  6 -1 -1</clus>
<clus scale="   90.572">  7  8 -1 -1</clus>
<clus scale="  172.587">  2  9  1 -1</clus>
<clus scale="  600.187">  1  5  2 -1</clus>
<clus scale="  600.187">  1  5  2 -1</clus>
</clustering>
</event>
<event>
 9    2  0.3791909E-005  0.2131788E+03  0.7546771E-02  0.1139931E+00
         -1   -1    0    0    0  501 -0.00000000000E+00  0.00000000000E+00  0.21878009617E+03  0.21878009617E+03  0.00000000000E+00 0.  1.
          2   -1    0    0  502    0  0.00000000000E+00 -0.00000000000E+00 -0.45036339920E+03  0.45036339920E+03  0.00000000000E+00 0. -1.
         23    2    1    2    0    0  0.92095826713E+02  0.17236733278E+03  0.12669727890E+03  0.25017981155E+03  0.91354249599E+02 0.  0.
         24    2    1    2    0    0 -0.72193993299E+02 -0.16161025474E+03 -0.32368791393E+03  0.37763027867E+03  0.80628249599E+02 0.  0.
        -11    1    4    4    0    0 -0.12286466073E+02 -0.18439019648E+02 -0.43564655204E+01  0.22581706888E+02  0.00000000000E+00 0.  1.
         12    1    4    4    0    0 -0.59907527225E+02 -0.14317123509E+03 -0.31933144841E+03  0.35504857178E+03  0.00000000000E+00 0. -1.
        -13    1    3    3    0    0  0.62341404711E+02  0.28140897884E+02  0.37363907999E+02  0.77938581563E+02  0.00000000000E+00 0.  1.
         13    1    3    3    0    0  0.29754422002E+02  0.14422643490E+03  0.89333370904E+02  0.17224122999E+03  0.00000000000E+00 0. -1.
         21    1    1    2  502  501 -0.19901833414E+02 -0.10757078043E+02 -0.34592668003E+02  0.41333405145E+02  0.00000000000E+00 0.  1.
<scales pt_clust_5="13000.00000" pt_clust_6="13000.00000" pt_clust_7="13000.00000" pt_clust_8="13000.00000" pt_clust_9="22.62295"></scales>
<clustering>
<clus scale="   22.623">  2  9  1 -1</clus>
<clus scale="   80.628">  5  6 -1 -1</clus>
<clus scale="   91.354">  7  8 -1 -1</clus>
<clus scale="  208.807">  2  5  1 -1</clus>
<clus scale="   22.623">  2  5  1 -1</clus>
</clustering>
</event>
<event>
 9    2  0.3791909E-005  0.9250632E+02  0.7546771E-02  0.1304249E+00
         -1   -1    0    0    0  501 -0.00000000000E+00  0.00000000000E+00  0.21862987438E+03  0.21862987438E+03  0.00000000000E+00 0.  1.
          2   -1    0    0  502    0  0.00000000000E+00 -0.00000000000E+00 -0.13962093971E+03  0.13962093971E+03  0.00000000000E+00 0. -1.
         23    2    1    2    0    0  0.98156581257E+01 -0.17018030423E+02  0.17393129882E+03  0.19752315079E+03  0.91527798425E+02 0.  0.
         24    2    1    2    0    0  0.15437376002E+02 -0.16001918963E+02 -0.40068767278E+02  0.91902160179E+02  0.79662581845E+02 0.  0.
        -11    1    4    4    0    0 -0.18052678578E+02 -0.36560100050E+02 -0.88731299559E+01  0.41728558024E+02  0.00000000000E+00 0.  1.
         12    1    4    4    0    0  0.33490054580E+02  0.20558181087E+02 -0.31195637322E+02  0.50173602156E+02  0.00000000000E+00 0. -1.
        -11    1    3    3    0    0  0.15845633501E+02 -0.37013149978E+02  0.17188614795E+03  0.17653867913E+03  0.00000000000E+00 0.  1.
         11    1    3    3    0    0 -0.60299753755E+01  0.19995119554E+02  0.20451508797E+01  0.20984471667E+02  0.00000000000E+00 0. -1.
         21    1    1    2  502  501 -0.25253034127E+02  0.33019949387E+02 -0.54853596874E+02  0.68825503123E+02  0.00000000000E+00 0. -1.
<scales pt_clust_5="13000.00000" pt_clust_6="13000.00000" pt_clust_7="13000.00000" pt_clust_8="13000.00000" pt_clust_9="41.56961"></scales>
<clustering>
<clus scale="   41.570">  2  9  1 -1</clus>
<clus scale="   79.663">  5  6 -1 -1</clus>
<clus scale="   80.785">  2  5  1 -1</clus>
<clus scale="   91.528">  7  8 -1 -1</clus>
<clus scale="   41.570">  2  5  1 -1</clus>
</clustering>
</event>
<event>
 9    2  0.3791909E-005  0.1025299E+03  0.7546771E-02  0.1281511E+00
         -3   -1    0    0    0  501 -0.00000000000E+00  0.00000000000E+00  0.34294214607E+02  0.34294214607E+02  0.00000000000E+00 0.  1.
          4   -1    0    0  502    0  0.00000000000E+00 -0.00000000000E+00 -0.41360319573E+03  0.41360319573E+03  0.00000000000E+00 0. -1.
         24    2    1    2    0    0 -0.31506845343E+02  0.39106780828E+02 -0.75245735922E+02  0.12021622123E+03  0.79170685629E+02 0.  0.
         23    2    1    2    0    0  0.25147286307E+02 -0.18040184496E+02 -0.21777494967E+03  0.23863111657E+03  0.92525925166E+02 0.  0.
        -11    1    3    3    0    0 -0.15467482337E+02  0.19219634214E+02  0.13321527104E+02  0.28037482654E+02  0.00000000000E+00 0.  1.
         12    1    3    3    0    0 -0.16039363006E+02  0.19887146614E+02 -0.88567263027E+02  0.92178738580E+02  0.00000000000E+00 0. -1.
        -13    1    4    4    0    0  0.19354591992E+02  0.37048297248E+02 -0.10410094755E+03  0.11217924871E+03  0.00000000000E+00 0.  1.
         13    1    4    4    0    0  0.57926943151E+01 -0.55088481743E+02 -0.11367400212E+03  0.12645186787E+03  0.00000000000E+00 0. -1.
         21    1    1    2  502  501  0.63595590356E+01 -0.21066596332E+02 -0.86288295526E+02  0.89050072526E+02  0.00000000000E+00 0. -1.
<scales pt_clust_5="13000.00000" pt_clust_6="13000.00000" pt_clust_7="13000.00000" pt_clust_8="13000.00000" pt_clust_9="22.00558"></scales>
<clustering>
<clus scale="   22.006">  2  9  1 -1</clus>
<clus scale="   79.171">  5  6 -1 -1</clus>
<clus scale="   90.661">  1  5  2 -1</clus>
<clus scale="   92.526">  7  8 -1 -1</clus>
<clus scale="   22.006">  2  5  1 -1</clus>
</clustering>
</event>
<event>
 9    2  0.3791909E-005  0.1092359E+03  0.7546771E-02  0.1266144E+00
          2   -1    0    0  502    0  0.00000000000E+00  0.00000000000E+00  0.25972169183E+03  0.25972169183E+03  0.00000000000E+00 0. -1.
         -1   -1    0    0    0  501 -0.00000000000E+00 -0.00000000000E+00 -0.19347786021E+03  0.19347786021E+03  0.00000000000E+00 0.  1.
         24    2    1    2    0    0  0.27504734459E+02  0.49407178717E+02 -0.13071099608E+03  0.16310091772E+03  0.79491918702E+02 0.  0.
         23    2    1    2    0    0 -0.70448613152E+02 -0.70786082780E+02  0.64309408177E+02  0.14904530550E+03  0.90028476050E+02 0.  0.
        -13    1    3    3    0    0  0.18025137897E+02  0.71019172983E+02 -0.10668651953E+03  0.12942427121E+03  0.00000000000E+00 0.  1.
         14    1    3    3    0    0  0.94795965620E+01 -0.21611994265E+02 -0.24024476545E+02  0.33676646513E+02  0.00000000000E+00 0. -1.
        -13    1    4    4    0    0 -0.81382393266E+02 -0.40013937295E+02  0.18124214931E+02  0.92480788699E+02  0.00000000000E+00 0.  1.
         13    1    4    4    0    0  0.10933780114E+02 -0.30772145485E+02  0.46185193246E+02  0.56564516797E+02  0.00000000000E+00 0. -1.
         21    1    1    2  502  501  0.42943878693E+02  0.21378904062E+02  0.13264541951E+03  0.14105332883E+03  0.00000000000E+00 0. -1.
<scales pt_clust_5="13000.00000" pt_clust_6="13000.00000" pt_clust_7="13000.00000" pt_clust_8="13000.00000" pt_clust_9="47.97118"></scales>
<clustering>
<clus scale="   47.971">  1  9  2 -1</clus>
<clus scale="   79.492">  5  6 -1 -1</clus>
<clus scale="   90.028">  7  8 -1 -1</clus>
<clus scale="  100.729">  2  5  1 -1</clus>
<clus scale="   47.971">  1  5  2 -1</clus>
</clustering>
</event>
<event>
 9    2  0.3791909E-005  0.2070275E+03  0.7546771E-02  0.1144812E+00
          2   -1    0    0  502    0  0.00000000000E+00  0.00000000000E+00  0.46961329884E+03  0.46961329884E+03  0.00000000000E+00 0. -1.
         -1   -1    0    0    0  501 -0.00000000000E+00 -0.00000000000E+00 -0.45525789545E+03  0.45525789545E+03  0.00000000000E+00 0.  1.
         23    2    1    2    0    0 -0.73272555143E+02 -0.17692875109E+03 -0.35131273769E+03  0.41069749887E+03  0.92623677411E+02 0.  0.
         24    2    1    2    0    0  0.16339079291E+03  0.86538874001E+02  0.11504075222E+03  0.23291631383E+03  0.82644459314E+02 0.  0.
        -11    1    4    4    0    0  0.28213192723E+02  0.55867766775E+02  0.23754404314E+02  0.66943732585E+02  0.00000000000E+00 0.  1.
         12    1    4    4    0    0  0.13517760019E+03  0.30671107226E+02  0.91286347910E+02  0.16597258125E+03  0.00000000000E+00 0. -1.
        -11    1    3    3    0    0 -0.37515857135E+02 -0.20516890378E+02 -0.32228491915E+02  0.53544915897E+02  0.00000000000E+00 0. -1.
         11    1    3    3    0    0 -0.35756698008E+02 -0.15641186071E+03 -0.31908424577E+03  0.35715258297E+03  0.00000000000E+00 0.  1.
         21    1    1    2  502  501 -0.90118237769E+02  0.90389877085E+02  0.25062738885E+03  0.28125738159E+03  0.00000000000E+00 0. -1.
<scales pt_clust_5="13000.00000" pt_clust_6="13000.00000" pt_clust_7="13000.00000" pt_clust_8="13000.00000" pt_clust_9="127.63866"></scales>
<clustering>
<clus scale="   82.644">  5  6 -1 -1</clus>
<clus scale="   92.624">  7  8 -1 -1</clus>
<clus scale="  127.639">  1  9  2 -1</clus>
<clus scale="  202.759">  1  5  2 -1</clus>
<clus scale="  127.639">  1  5  2 -1</clus>
</clustering>
</event>
<event>
 9    2  0.3791909E-005  0.1756281E+03  0.7546771E-02  0.1174098E+00
         -1   -1    0    0    0  501 -0.00000000000E+00  0.00000000000E+00  0.10247188318E+03  0.10247188318E+03  0.00000000000E+00 0.  1.
          2   -1    0    0  502    0  0.00000000000E+00 -0.00000000000E+00 -0.73521312704E+03  0.73521312704E+03  0.00000000000E+00 0. -1.
         23    2    1    2    0    0 -0.96063296640E+02  0.11792377902E+03 -0.20371031747E+02  0.17969808177E+03  0.93499984150E+02 0.  0.
         24    2    1    2    0    0  0.34813179481E+02 -0.13715561226E+03 -0.52683727154E+03  0.55104150226E+03  0.77882007453E+02 0.  0.
        -11    1    4    4    0    0  0.37224480243E+02 -0.40864709068E+02 -0.29255667667E+03  0.29773309430E+03  0.00000000000E+00 0.  1.
         12    1    4    4    0    0 -0.24113007614E+01 -0.96290903196E+02 -0.23428059487E+03  0.25330840796E+03  0.00000000000E+00 0. -1.
        -11    1    3    3    0    0  0.14550427091E+02  0.40477927800E+02 -0.10682652901E+02  0.44320386286E+02  0.00000000000E+00 0. -1.
         11    1    3    3    0    0 -0.11061372373E+03  0.77445851223E+02 -0.96883788458E+01  0.13537769548E+03  0.00000000000E+00 0.  1.
         21    1    1    2  502  501  0.61250117158E+02  0.19231833241E+02 -0.85532940565E+02  0.10694542619E+03  0.00000000000E+00 0.  1.
<scales pt_clust_5="13000.00000" pt_clust_6="13000.00000" pt_clust_7="13000.00000" pt_clust_8="13000.00000" pt_clust_9="64.19844"></scales>
<clustering>
<clus scale="   64.198">  2  9  1 -1</clus>
<clus scale="   77.882">  5  6 -1 -1</clus>
<clus scale="   93.500">  7  8 -1 -1</clus>
<clus scale="  167.835">  2  5  1 -1</clus>
<clus scale="   64.198">  2  5  1 -1</clus>
</clustering>
</event>
<event>
 9    2  0.3791909E-005  0.1924631E+03  0.7546771E-02  0.1179520E+00
         -1   -1    0    0    0  501 -0.00000000000E+00  0.00000000000E+00  0.10423127944E+03  0.10423127944E+03  0.00000000000E+00 0.  1.
          2   -1    0    0  502    0  0.00000000000E+00 -0.00000000000E+00 -0.10957582543E+04  0.10957582543E+04  0.00000000000E+00 0. -1.
         24    2    1    2    0    0  0.43958395787E+02  0.64963896280E+02 -0.94604816252E+01  0.11321858076E+03  0.81094376724E+02 0.  0.
         23    2    1    2    0    0 -0.83042990410E+02  0.10918044300E+03 -0.11353305414E+03  0.20008939161E+03  0.91266110158E+02 0.  0.
        -11    1    3    3    0    0 -0.14780435170E+02  0.32696749877E+02  0.18772649825E+02  0.40496309681E+02  0.00000000000E+00 0.  1.
         12    1    3    3    0    0  0.58738830956E+02  0.32267146403E+02 -0.28233131450E+02  0.72722271077E+02  0.00000000000E+00 0. -1.
        -13    1    4    4    0    0 -0.57061154800E+02  0.86113112239E+02 -0.26898070875E+02  0.10674712972E+03  0.00000000000E+00 0.  1.
         13    1    4    4    0    0 -0.25981835609E+02  0.23067330762E+02 -0.86634983262E+02  0.93342261891E+02  0.00000000000E+00 0. -1.
         21    1    1    2  502  501  0.39084594623E+02 -0.17414433928E+03 -0.86853343910E+03  0.88668156137E+03  0.00000000000E+00 0. -1.
<scales pt_clust_5="13000.00000" pt_clust_6="13000.00000" pt_clust_7="13000.00000" pt_clust_8="13000.00000" pt_clust_9="169.44778"></scales>
<clustering>
<clus scale="   81.094">  5  6 -1 -1</clus>
<clus scale="   91.266">  7  8 -1 -1</clus>
<clus scale="  112.823">  1  5  2 -1</clus>
<clus scale="  169.448">  2  9  1 -1</clus>
<clus scale="  169.448">  2  5  1 -1</clus>
</clustering>
</event>
<event>
 9    2  0.3791909E-005  0.9583314E+02  0.7546771E-02  0.1295608E+00
         -1   -1    0    0    0  501 -0.00000000000E+00  0.00000000000E+00  0.35128082345E+03  0.35128082345E+03  0.00000000000E+00 0.  1.
          2   -1    0    0  502    0  0.00000000000E+00 -0.00000000000E+00 -0.14548112982E+03  0.14548112982E+03  0.00000000000E+00 0. -1.
         24    2    1    2    0    0  0.25605316500E+02 -0.73383655965E+01  0.28531765851E+03  0.29775744328E+03  0.80894035161E+02 0.  0.
         23    2    1    2    0    0 -0.10162294163E+02  0.50570800121E+02  0.19344246981E+01  0.10550572871E+03  0.92016513431E+02 0.  0.
        -13    1    3    3    0    0  0.19327054755E+02  0.36123120343E+02  0.12557290854E+03  0.13208697979E+03  0.00000000000E+00 0.  1.
         14    1    3    3    0    0  0.62782617451E+01 -0.43461485939E+02  0.15974474997E+03  0.16567046349E+03  0.00000000000E+00 0. -1.
        -11    1    4    4    0    0 -0.16552371305E+02  0.21963914765E+02 -0.43483141714E+02  0.51450735281E+02  0.00000000000E+00 0. -1.
         11    1    4    4    0    0  0.63900771411E+01  0.28606885356E+02  0.45417566413E+02  0.54054993428E+02  0.00000000000E+00 0.  1.
         21    1    1    2  502  501 -0.15443022336E+02 -0.43232434524E+02 -0.81452389581E+02  0.93498781287E+02  0.00000000000E+00 0. -1.
<scales pt_clust_5="13000.00000" pt_clust_6="13000.00000" pt_clust_7="13000.00000" pt_clust_8="13000.00000" pt_clust_9="45.90785"></scales>
<clustering>
<clus scale="   45.908">  2  9  1 -1</clus>
<clus scale="   80.894">  5  6 -1 -1</clus>
<clus scale="   85.210">  1  5  2 -1</clus>
<clus scale="   92.017">  7  8 -1 -1</clus>
<clus scale="   45.908">  2  5  1 -1</clus>
</clustering>
</event>
<event>
 9    2  0.3791909E-005  0.2093577E+03  0.7546771E-02  0.1171329E+00
         -1   -1    0    0    0  501 -0.00000000000E+00  0.00000000000E+00  0.28748208426E+03  0.28748208426E+03  0.00000000000E+00 0.  1.
          2   -1    0    0  502    0  0.00000000000E+00 -0.00000000000E+00 -0.18747341413E+04  0.18747341413E+04  0.00000000000E+00 0. -1.
         23    2    1    2    0    0  0.78082015810E+02  0.16934155821E+03  0.23124101792E+03  0.31102332554E+03  0.92139764123E+02 0.  0.
         24    2    1    2    0    0  0.62877025523E+02  0.25982889564E+02 -0.55116101683E+03  0.56117288591E+03  0.80671621492E+02 0.  0.
        -11    1    4    4    0    0  0.80870304086E+02  0.29527312917E+02 -0.41971038142E+03  0.42844914817E+03  0.00000000000E+00 0.  1.
         12    1    4    4    0    0 -0.17993278563E+02 -0.35444233536E+01 -0.13145063541E+03  0.13272373774E+03  0.00000000000E+00 0. -1.
        -11    1    3    3    0    0  0.52749827706E+02  0.75427873907E+02  0.17737414024E+03  0.19983366611E+03  0.00000000000E+00 0.  1.
         11    1    3    3    0    0  0.25332188104E+02  0.93913684302E+02  0.53866877679E+02  0.11118965943E+03  0.00000000000E+00 0. -1.
         21    1    1    2  502  501 -0.14095904133E+03 -0.19532444777E+03 -0.12673320581E+04  0.12900200141E+04  0.00000000000E+00 0. -1.
<scales pt_clust_5="13000.00000" pt_clust_6="13000.00000" pt_clust_7="13000.00000" pt_clust_8="13000.00000" pt_clust_9="187.99173"></scales>
<clustering>
<clus scale="   80.672">  5  6 -1 -1</clus>
<clus scale="   92.140">  7  8 -1 -1</clus>
<clus scale="  105.530">  2  5  1 -1</clus>
<clus scale="  187.992">  2  9  1 -1</clus>
<clus scale="  105.530">  2  5  1 -1</clus>
</clustering>
</event>
<event>
 9    2  0.3791909E-005  0.2527327E+03  0.7546771E-02  0.1112334E+00
         -1   -1    0    0    0  501 -0.00000000000E+00  0.00000000000E+00  0.77285779922E+02  0.77285779922E+02  0.00000000000E+00 0.  1.
          2   -1    0    0  502    0  0.00000000000E+00 -0.00000000000E+00 -0.11691824129E+04  0.11691824129E+04  0.00000000000E+00 0. -1.
         23    2    1    2    0    0  0.23560811455E+03 -0.31668828837E+02 -0.24906716954E+03  0.35683867086E+03  0.93729844321E+02 0.  0.
         24    2    1    2    0    0 -0.22950822467E+03 -0.59201272694E+00 -0.64883381362E+03  0.69287515047E+03  0.80101690128E+02 0.  0.
        -11    1    4    4    0    0 -0.72657565609E+02 -0.36527209855E+02 -0.19123706704E+03  0.20780994854E+03  0.00000000000E+00 0.  1.
         12    1    4    4    0    0 -0.15685065906E+03  0.35935197128E+02 -0.45759674658E+03  0.48506520193E+03  0.00000000000E+00 0. -1.
        -11    1    3    3    0    0  0.18542738515E+03 -0.63130497599E+02 -0.18227406622E+03  0.26756795418E+03  0.00000000000E+00 0.  1.
         11    1    3    3    0    0  0.50180729406E+02  0.31461668762E+02 -0.66793103326E+02  0.89270716682E+02  0.00000000000E+00 0. -1.
         21    1    1    2  502  501 -0.60998898843E+01  0.32260841564E+02 -0.19399564985E+03  0.19675437153E+03  0.00000000000E+00 0. -1.
<scales pt_clust_5="13000.00000" pt_clust_6="13000.00000" pt_clust_7="13000.00000" pt_clust_8="13000.00000" pt_clust_9="32.83246"></scales>
<clustering>
<clus scale="   32.832">  2  9  1 -1</clus>
<clus scale="   80.102">  5  6 -1 -1</clus>
<clus scale="   93.730">  7  8 -1 -1</clus>
<clus scale="  248.002">  2  5  1 -1</clus>
<clus scale="   32.832">  2  5  1 -1</clus>
</clustering>
</event>
<event>
 9    2  0.3791909E-005  0.8634012E+02  0.7546771E-02  0.1322501E+00
          2   -1    0    0  502    0  0.00000000000E+00  0.00000000000E+00  0.31740705679E+03  0.31740705679E+03  0.00000000000E+00 0. -1.
         -1   -1    0    0    0  501 -0.00000000000E+00 -0.00000000000E+00 -0.58392335648E+02  0.58392335648E+02  0.00000000000E+00 0.  1.
         23    2    1    2    0    0  0.37013679739E+02  0.17918518043E+02 -0.77265532833E+01  0.75474461343E+02  0.62814082120E+02 0.  0.
         24    2    1    2    0    0  0.48772752173E+01 -0.24789404279E+02  0.11010051768E+03  0.13803387201E+03  0.79327948739E+02 0.  0.
        -11    1    4    4    0    0 -0.30931912225E+02  0.10766434532E+02  0.45405518001E+02  0.55985358544E+02  0.00000000000E+00 0.  1.
         12    1    4    4    0    0  0.35809187442E+02 -0.35555838811E+02  0.64694999681E+02  0.82048513470E+02  0.00000000000E+00 0. -1.
        -13    1    3    3    0    0  0.78817534106E+01  0.19407698713E+02 -0.31510155539E+02  0.37837424704E+02  0.00000000000E+00 0.  1.
         13    1    3    3    0    0  0.29131926329E+02 -0.14891806697E+01  0.23783602255E+02  0.37637036639E+02  0.00000000000E+00 0. -1.
         21    1    1    2  502  501 -0.41890954957E+02  0.68708862353E+01  0.15664075675E+03  0.16229105909E+03  0.00000000000E+00 0. -1.
<scales pt_clust_5="13000.00000" pt_clust_6="13000.00000" pt_clust_7="13000.00000" pt_clust_8="13000.00000" pt_clust_9="42.45069"></scales>
<clustering>
<clus scale="   42.451">  1  9  2 -1</clus>
<clus scale="   62.814">  7  8 -1 -1</clus>
<clus scale="   71.465">  2  7  1 -1</clus>
<clus scale="   79.328">  5  6 -1 -1</clus>
<clus scale="   42.451">  1  5  2 -1</clus>
</clustering>
</event>
<event>
 9    2  0.3791909E-005  0.3869214E+03  0.7546771E-02  0.1048670E+00
         -1   -1    0    0    0  501 -0.00000000000E+00  0.00000000000E+00  0.41772592255E+03  0.41772592255E+03  0.00000000000E+00 0.  1.
          2   -1    0    0  502    0  0.00000000000E+00 -0.00000000000E+00 -0.81610136024E+03  0.81610136024E+03  0.00000000000E+00 0. -1.
         23    2    1    2    0    0 -0.21811373626E+03  0.20416352430E+03 -0.91980495503E+02  0.32621446771E+03  0.93269077361E+02 0.  0.
         24    2    1    2    0    0  0.47589710272E+03 -0.12484184079E+03  0.12194720630E+01  0.49850302376E+03  0.80251105923E+02 0.  0.
        -11    1    4    4    0    0  0.19688869584E+03 -0.77015863399E+02  0.31738839317E+02  0.21378483502E+03  0.00000000000E+00 0.  1.
         12    1    4    4    0    0  0.27900840688E+03 -0.47825977395E+02 -0.30519367254E+02  0.28471818874E+03  0.00000000000E+00 0. -1.
        -11    1    3    3    0    0 -0.80915813908E+02  0.13397496537E+03 -0.26370566773E+02  0.15872009034E+03  0.00000000000E+00 0. -1.
         11    1    3    3    0    0 -0.13719792235E+03  0.70188558929E+02 -0.65609928729E+02  0.16749437737E+03  0.00000000000E+00 0.  1.
         21    1    1    2  502  501 -0.25778336646E+03 -0.79321683507E+02 -0.30761441425E+03  0.40910979131E+03  0.00000000000E+00 0.  1.
<scales pt_clust_5="13000.00000" pt_clust_6="13000.00000" pt_clust_7="13000.00000" pt_clust_8="13000.00000" pt_clust_9="269.71132"></scales>
<clustering>
<clus scale="   80.251">  5  6 -1 -1</clus>
<clus scale="   93.269">  7  8 -1 -1</clus>
<clus scale="  269.711">  2  9  1 -1</clus>
<clus scale="  383.991">  2  5  1 -1</clus>
<clus scale="  269.711">  2  5  1 -1</clus>
</clustering>
</event>
<event>
 9    2  0.3791909E-005  0.9793418E+02  0.7546771E-02  0.1292783E+00
          2   -1    0    0  502    0  0.00000000000E+00  0.00000000000E+00  0.25719947079E+03  0.25719947079E+03  0.00000000000E+00 0. -1.
         -1   -1    0    0    0  501 -0.00000000000E+00 -0.00000000000E+00 -0.32120218805E+03  0.32120218805E+03  0.00000000000E+00 0.  1.
         23    2    1    2    0    0  0.27619391476E+02  0.21289653162E+02 -0.26128776214E+03  0.27974547421E+03  0.93649108810E+02 0.  0.
         24    2    1    2    0    0 -0.19995063898E+02  0.58865509716E+02  0.18138129168E+02  0.10224692336E+03  0.79123263287E+02 0.  0.
        -11    1    4    4    0    0 -0.74827837090E+01  0.71462305914E+02 -0.62009477502E+01  0.72120073292E+02  0.00000000000E+00 0.  1.
         12    1    4    4    0    0 -0.12512280189E+02 -0.12596796199E+02  0.24339076918E+02  0.30126850071E+02  0.00000000000E+00 0. -1.
        -11    1    3    3    0    0  0.60122656090E+02  0.66874250275E+01 -0.19893579334E+03  0.20793004906E+03  0.00000000000E+00 0.  1.
         11    1    3    3    0    0 -0.32503264614E+02  0.14602228134E+02 -0.62351968796E+02  0.71815425153E+02  0.00000000000E+00 0. -1.
         21    1    1    2  502  501 -0.76243275776E+01 -0.80155162878E+02  0.17914691570E+03  0.19640926127E+03  0.00000000000E+00 0. -1.
<scales pt_clust_5="13000.00000" pt_clust_6="13000.00000" pt_clust_7="13000.00000" pt_clust_8="13000.00000" pt_clust_9="80.51696"></scales>
<clustering>
<clus scale="   79.123">  5  6 -1 -1</clus>
<clus scale="   80.517">  1  9  2 -1</clus>
<clus scale="   84.151">  1  5  2 -1</clus>
<clus scale="   93.649">  7  8 -1 -1</clus>
<clus scale="   80.517">  1  5  2 -1</clus>
</clustering>
</event>
<event>
 9    2  0.3791909E-005  0.1011094E+03  0.7546771E-02  0.1283143E+00
         -1   -1    0    0    0  501 -0.00000000000E+00  0.00000000000E+00  0.78257897549E+02  0.78257897549E+02  0.00000000000E+00 0.  1.
          2   -1    0    0  502    0  0.00000000000E+00 -0.00000000000E+00 -0.80513050966E+03  0.80513050966E+03  0.00000000000E+00 0. -1.
         23    2    1    2    0    0  0.47181593312E+02  0.17126062283E+02  0.30847915772E+02  0.10788683824E+03  0.90380148269E+02 0.  0.
         24    2    1    2    0    0  0.11453003400E+02  0.27365750425E+02 -0.51147422203E+03  0.51849032315E+03  0.79663541352E+02 0.  0.
        -11    1    4    4    0    0  0.20381901766E+02  0.50045391864E+02 -0.24420873845E+03  0.25011571543E+03  0.00000000000E+00 0.  1.
         12    1    4    4    0    0 -0.89288983661E+01 -0.22679641439E+02 -0.26726548357E+03  0.26837460772E+03  0.00000000000E+00 0. -1.
        -13    1    3    3    0    0  0.14539953258E+02 -0.24569015434E+02 -0.19696072565E+02  0.34684031407E+02  0.00000000000E+00 0. -1.
         13    1    3    3    0    0  0.32641640054E+02  0.41695077717E+02  0.50543988337E+02  0.73202806833E+02  0.00000000000E+00 0.  1.
         21    1    1    2  502  501 -0.58634596712E+02 -0.44491812707E+02 -0.24624630585E+03  0.25701124581E+03  0.00000000000E+00 0. -1.
<scales pt_clust_5="13000.00000" pt_clust_6="13000.00000" pt_clust_7="13000.00000" pt_clust_8="13000.00000" pt_clust_9="73.60392"></scales>
<clustering>
<clus scale="   73.604">  2  9  1 -1</clus>
<clus scale="   79.664">  5  6 -1 -1</clus>
<clus scale="   90.380">  7  8 -1 -1</clus>
<clus scale="   91.656">  2  5  1 -1</clus>
<clus scale="   73.604">  2  5  1 -1</clus>
</clustering>
</event>
<event>
 9    2  0.3791909E-005  0.1359419E+03  0.7546771E-02  0.1221164E+00
          2   -1    0    0  502    0  0.00000000000E+00  0.00000000000E+00  0.25578740771E+03  0.25578740771E+03  0.00000000000E+00 0. -1.
         -1   -1    0    0    0  501 -0.00000000000E+00 -0.00000000000E+00 -0.30027809916E+03  0.30027809916E+03  0.00000000000E+00 0.  1.
         24    2    1    2    0    0  0.90540890132E+02 -0.60240271851E+02 -0.23419208497E+03  0.27049958127E+03  0.80607367343E+02 0.  0.
         23    2    1    2    0    0 -0.33565956602E+02 -0.23220404354E+01  0.17478363443E+03  0.19964313755E+03  0.90421226451E+02 0.  0.
        -11    1    3    3    0    0  0.99203446700E+02 -0.33366046034E+02 -0.16079245742E+03  0.19185627753E+03  0.00000000000E+00 0.  1.
         12    1    3    3    0    0 -0.86625565680E+01 -0.26874225817E+02 -0.73399627547E+02  0.78643303743E+02  0.00000000000E+00 0. -1.
        -11    1    4    4    0    0 -0.28617005764E+02  0.41438589873E+02  0.72425910333E+02  0.88213390350E+02  0.00000000000E+00 0. -1.
         11    1    4    4    0    0 -0.49489508378E+01 -0.43760630308E+02  0.10235772409E+03  0.11142974720E+03  0.00000000000E+00 0.  1.
         21    1    1    2  502  501 -0.56974933530E+02  0.62562312286E+02  0.14917759095E+02  0.85922788047E+02  0.00000000000E+00 0. -1.
<scales pt_clust_5="13000.00000" pt_clust_6="13000.00000" pt_clust_7="13000.00000" pt_clust_8="13000.00000" pt_clust_9="84.61788"></scales>
<clustering>
<clus scale="   80.607">  5  6 -1 -1</clus>
<clus scale="   84.618">  1  9  2 -1</clus>
<clus scale="   90.421">  7  8 -1 -1</clus>
<clus scale="  129.622">  2  5  1 -1</clus>
<clus scale="   84.618">  1  5  2 -1</clus>
</clustering>
</event>
<event>
 9    2  0.3791909E-005  0.1984193E+03  0.7546771E-02  0.1152315E+00
          2   -1    0    0  502    0  0.00000000000E+00  0.00000000000E+00  0.54271101308E+03  0.54271101308E+03  0.00000000000E+00 0. -1.
         -1   -1    0    0    0  501 -0.00000000000E+00 -0.00000000000E+00 -0.13468874783E+03  0.13468874783E+03  0.00000000000E+00 0.  1.
         23    2    1    2    0    0  0.21762369102E+02  0.19578848574E+03  0.97061192158E+01  0.21755385396E+03  0.91808162855E+02 0.  0.
         24    2    1    2    0    0  0.13055079448E+02 -0.12139917785E+03  0.28503633130E+03  0.31992328448E+03  0.78721041107E+02 0.  0.
        -11    1    4    4    0    0  0.41860629804E+02 -0.43435123611E+02  0.95394741238E+02  0.11286752831E+03  0.00000000000E+00 0.  1.
         12    1    4    4    0    0 -0.28805550356E+02 -0.77964054236E+02  0.18964159006E+03  0.20705575617E+03  0.00000000000E+00 0. -1.
        -13    1    3    3    0    0  0.53050997455E+02  0.15929821635E+03 -0.26599234537E+01  0.16792083032E+03  0.00000000000E+00 0.  1.
         13    1    3    3    0    0 -0.31288628353E+02  0.36490269384E+02  0.12366042670E+02  0.49633023636E+02  0.00000000000E+00 0. -1.
         21    1    1    2  502  501 -0.34817448550E+02 -0.74389307889E+02  0.11327981474E+03  0.13992262247E+03  0.00000000000E+00 0. -1.
<scales pt_clust_5="13000.00000" pt_clust_6="13000.00000" pt_clust_7="13000.00000" pt_clust_8="13000.00000" pt_clust_9="82.13418"></scales>
<clustering>
<clus scale="   78.721">  5  6 -1 -1</clus>
<clus scale="   82.134">  1  9  2 -1</clus>
<clus scale="   91.808">  7  8 -1 -1</clus>
<clus scale="  192.713">  1  5  2 -1</clus>
<clus scale="   82.134">  1  5  2 -1</clus>
</clustering>
</event>
<event>
 9    2  0.3791909E-005  0.2343551E+03  0.7546771E-02  0.1124355E+00
          2   -1    0    0  502    0  0.00000000000E+00  0.00000000000E+00  0.59158478391E+03  0.59158478391E+03  0.00000000000E+00 0. -1.
         -1   -1    0    0    0  501 -0.00000000000E+00 -0.00000000000E+00 -0.11983339295E+03  0.11983339295E+03  0.00000000000E+00 0.  1.
         23    2    1    2    0    0  0.18370446417E+03 -0.12424803036E+03  0.11729456902E+03  0.26704974267E+03  0.91502163563E+02 0.  0.
         24    2    1    2    0    0 -0.18786819713E+03  0.89189544892E+02  0.25382845849E+03  0.33772650244E+03  0.79881597989E+02 0.  0.
        -11    1    4    4    0    0 -0.18093116482E+02  0.22886270874E+02  0.54978073794E+01  0.29687845064E+02  0.00000000000E+00 0.  1.
         12    1    4    4    0    0 -0.16977508065E+03  0.66303274018E+02  0.24833065111E+03  0.30803865737E+03  0.00000000000E+00 0. -1.
        -11    1    3    3    0    0  0.13642296414E+03 -0.12565754514E+03  0.64998851923E+02  0.19653471588E+03  0.00000000000E+00 0.  1.
         11    1    3    3    0    0  0.47281500030E+02  0.14095147785E+01  0.52295717097E+02  0.70515026794E+02  0.00000000000E+00 0. -1.
         21    1    1    2  502  501  0.41637329677E+01  0.35058485471E+02  0.10062836345E+03  0.10664193175E+03  0.00000000000E+00 0. -1.
<scales pt_clust_5="13000.00000" pt_clust_6="13000.00000" pt_clust_7="13000.00000" pt_clust_8="13000.00000" pt_clust_9="35.30487"></scales>
<clustering>
<clus scale="   35.305">  1  9  2 -1</clus>
<clus scale="   79.882">  5  6 -1 -1</clus>
<clus scale="   91.502">  7  8 -1 -1</clus>
<clus scale="  230.067">  1  5  2 -1</clus>
<clus scale="   35.305">  1  5  2 -1</clus>
</clustering>
</event>
<event>
 9    2  0.3791909E-005  0.1303172E+03  0.7546771E-02  0.1229043E+00
          2   -1    0    0  502    0  0.00000000000E+00  0.00000000000E+00  0.40434598516E+03  0.40434598516E+03  0.00000000000E+00 0. -1.
         -1   -1    0    0    0  501 -0.00000000000E+00 -0.00000000000E+00 -0.22528659171E+03  0.22528659171E+03  0.00000000000E+00 0.  1.
         23    2    1    2    0    0 -0.62479343415E+02 -0.56237924959E+02 -0.17977149829E+03  0.22100926434E+03  0.97267316041E+02 0.  0.
         24    2    1    2    0    0  0.96145944140E+02  0.71023781639E+02  0.22752992306E+03  0.27227080636E+03  0.89850464531E+02 0.  0.
        -11    1    4    4    0    0  0.46102120147E+02  0.17376687958E+00  0.26146587618E+02  0.53000752080E+02  0.00000000000E+00 0.  1.
         12    1    4    4    0    0  0.50043823993E+02  0.70850014760E+02  0.20138333544E+03  0.21927005428E+03  0.00000000000E+00 0. -1.
        -11    1    3    3    0    0 -0.31550557949E+02 -0.58631763011E+02 -0.39646868571E+02  0.77491906211E+02  0.00000000000E+00 0.  1.
         11    1    3    3    0    0 -0.30928785466E+02  0.23938380518E+01 -0.14012462971E+03  0.14351735813E+03  0.00000000000E+00 0. -1.
         21    1    1    2  502  501 -0.33666600725E+02 -0.14785856680E+02  0.13130096868E+03  0.13635250617E+03  0.00000000000E+00 0. -1.
<scales pt_clust_5="13000.00000" pt_clust_6="13000.00000" pt_clust_7="13000.00000" pt_clust_8="13000.00000" pt_clust_9="36.77039"></scales>
<clustering>
<clus scale="   36.770">  1  9  2 -1</clus>
<clus scale="   89.850">  5  6 -1 -1</clus>
<clus scale="   97.267">  7  8 -1 -1</clus>
<clus scale="  124.879">  1  5  2 -1</clus>
<clus scale="   36.770">  1  5  2 -1</clus>
</clustering>
</event>
<event>
 9    2  0.3791909E-005  0.9541256E+02  0.7546771E-02  0.1293030E+00
         -1   -1    0    0    0  501 -0.00000000000E+00  0.00000000000E+00  0.40010563028E+03  0.40010563028E+03  0.00000000000E+00 0.  1.
          2   -1    0    0  502    0  0.00000000000E+00 -0.00000000000E+00 -0.37608830093E+03  0.37608830093E+03  0.00000000000E+00 0. -1.
         24    2    1    2    0    0 -0.44683441377E+02 -0.76162932316E+01  0.36666850483E+03  0.37774389901E+03  0.78676825983E+02 0.  0.
         23    2    1    2    0    0  0.29262007347E+02  0.45309454589E+02 -0.68290184255E+02  0.12108285940E+03  0.84192029470E+02 0.  0.
        -11    1    3    3    0    0 -0.66148302123E+02  0.42197575315E+01  0.26950990450E+03  0.27754097509E+03  0.00000000000E+00 0.  1.
         12    1    3    3    0    0  0.21464860746E+02 -0.11836050763E+02  0.97158600328E+02  0.10020292392E+03  0.00000000000E+00 0. -1.
        -13    1    4    4    0    0  0.44151218823E+02  0.62917705680E+02 -0.54343308628E+02  0.94133750611E+02  0.00000000000E+00 0.  1.
         13    1    4    4    0    0 -0.14889211476E+02 -0.17608251091E+02 -0.13946875628E+02  0.26949108791E+02  0.00000000000E+00 0. -1.
         21    1    1    2  502  501  0.15421434030E+02 -0.37693161357E+02 -0.27436099123E+03  0.27736717280E+03  0.00000000000E+00 0. -1.
<scales pt_clust_5="13000.00000" pt_clust_6="13000.00000" pt_clust_7="13000.00000" pt_clust_8="13000.00000" pt_clust_9="40.72585"></scales>
<clustering>
<clus scale="   40.726">  2  9  1 -1</clus>
<clus scale="   78.677">  5  6 -1 -1</clus>
<clus scale="   84.192">  7  8 -1 -1</clus>
<clus scale="   90.583">  1  5  2 -1</clus>
<clus scale="   40.726">  2  5  1 -1</clus>
</clustering>
</event>
<event>
 9    2  0.3791909E-005  0.2182546E+03  0.7546771E-02  0.1136219E+00
          2   -1    0    0  502    0  0.00000000000E+00  0.00000000000E+00  0.21875243997E+03  0.21875243997E+03  0.00000000000E+00 0. -1.
         -1   -1    0    0    0  501 -0.00000000000E+00 -0.00000000000E+00 -0.25707432490E+03  0.25707432490E+03  0.00000000000E+00 0.  1.
         24    2    1    2    0    0  0.83448460958E+02  0.19224347926E+03 -0.60663931529E+02  0.23260717860E+03  0.80652253494E+02 0.  0.
         23    2    1    2    0    0 -0.73565201516E+02 -0.16679953342E+03 -0.42205479798E+01  0.20513225730E+03  0.93954812207E+02 0.  0.
        -13    1    3    3    0    0  0.10371661483E+02  0.68796550009E+02  0.13872953109E+02  0.70943607768E+02  0.00000000000E+00 0.  1.
         14    1    3    3    0    0  0.73076799475E+02  0.12344692925E+03 -0.74536884638E+02  0.16166357084E+03  0.00000000000E+00 0. -1.
        -13    1    4    4    0    0 -0.31148136477E+02 -0.11875527991E+02 -0.27001643170E+02  0.42898989556E+02  0.00000000000E+00 0.  1.
         13    1    4    4    0    0 -0.42417065039E+02 -0.15492400543E+03  0.22781095191E+02  0.16223326775E+03  0.00000000000E+00 0. -1.
         21    1    1    2  502  501 -0.98832594425E+01 -0.25443945842E+02  0.26562594576E+02  0.38087328967E+02  0.00000000000E+00 0. -1.
<scales pt_clust_5="13000.00000" pt_clust_6="13000.00000" pt_clust_7="13000.00000" pt_clust_8="13000.00000" pt_clust_9="27.29603"></scales>
<clustering>
<clus scale="   27.296">  1  9  2 -1</clus>
<clus scale="   80.652">  5  6 -1 -1</clus>
<clus scale="   93.955">  7  8 -1 -1</clus>
<clus scale="  212.867">  2  5  1 -1</clus>
<clus scale="   27.296">  1  5  2 -1</clus>
</clustering>
</event>
<event>
 9    2  0.3791909E-005  0.2103446E+03  0.7546771E-02  0.1142090E+00
         -1   -1    0    0    0  501 -0.00000000000E+00  0.00000000000E+00  0.54291519779E+03  0.54291519779E+03  0.00000000000E+00 0.  1.
          2   -1    0    0  502    0  0.00000000000E+00 -0.00000000000E+00 -0.14287422295E+03  0.14287422295E+03  0.00000000000E+00 0. -1.
         23    2    1    2    0    0 -0.15794253855E+03  0.78175231841E+02  0.30439321389E+03  0.36309171831E+03  0.90128546453E+02 0.  0.
         24    2    1    2    0    0  0.21232704791E+03 -0.79964380960E+02  0.11255440204E+03  0.26571778996E+03  0.80376445470E+02 0.  0.
        -11    1    4    4    0    0  0.11628687790E+02 -0.32288064416E+02  0.13405046807E+02  0.36843462966E+02  0.00000000000E+00 0.  1.
         12    1    4    4    0    0  0.20069836012E+03 -0.47676316544E+02  0.99149355233E+02  0.22887432699E+03  0.00000000000E+00 0. -1.
        -13    1    3    3    0    0 -0.37300786714E+02 -0.19742604069E+02  0.74300231851E+02  0.85449655108E+02  0.00000000000E+00 0. -1.
         13    1    3    3    0    0 -0.12064175184E+03  0.97917835910E+02  0.23009298204E+03  0.27764206320E+03  0.00000000000E+00 0.  1.
         21    1    1    2  502  501 -0.54384509356E+02  0.17891491189E+01 -0.16906641091E+02  0.56979912473E+02  0.00000000000E+00 0.  1.
<scales pt_clust_5="13000.00000" pt_clust_6="13000.00000" pt_clust_7="13000.00000" pt_clust_8="13000.00000" pt_clust_9="54.41393"></scales>
<clustering>
<clus scale="   54.414">  2  9  1 -1</clus>
<clus scale="   80.376">  5  6 -1 -1</clus>
<clus scale="   90.129">  7  8 -1 -1</clus>
<clus scale="  206.354">  2  5  1 -1</clus>
<clus scale="   54.414">  2  5  1 -1</clus>
</clustering>
</event>
<event>
 9    2  0.3791909E-005  0.1056614E+03  0.7546771E-02  0.1273150E+00
          2   -1    0    0  502    0  0.00000000000E+00  0.00000000000E+00  0.14123221664E+03  0.14123221664E+03  0.00000000000E+00 0. -1.
         -1   -1    0    0    0  501 -0.00000000000E+00 -0.00000000000E+00 -0.18958797820E+03  0.18958797820E+03  0.00000000000E+00 0.  1.
         23    2    1    2    0    0  0.29740892309E+02 -0.41317907771E+02 -0.11633284892E+03  0.15631254471E+03  0.91151465793E+02 0.  0.
         24    2    1    2    0    0 -0.16115961944E+02  0.60630727848E+02  0.61314716848E-01  0.10259676137E+03  0.81180553683E+02 0.  0.
        -13    1    4    4    0    0 -0.39918936588E+02  0.16746792092E+02 -0.21358684063E+02  0.48271833698E+02  0.00000000000E+00 0.  1.
         14    1    4    4    0    0  0.23802974644E+02  0.43883935757E+02  0.21419998780E+02  0.54324927677E+02  0.00000000000E+00 0. -1.
        -13    1    3    3    0    0  0.18833508889E+02  0.15193207396E+02 -0.89678834283E+02  0.92886101901E+02  0.00000000000E+00 0. -1.
         13    1    3    3    0    0  0.10907383419E+02 -0.56511115167E+02 -0.26654014640E+02  0.63426442806E+02  0.00000000000E+00 0.  1.
         21    1    1    2  502  501 -0.13624930365E+02 -0.19312820077E+02  0.67915772654E+02  0.71910888758E+02  0.00000000000E+00 0. -1.
<scales pt_clust_5="13000.00000" pt_clust_6="13000.00000" pt_clust_7="13000.00000" pt_clust_8="13000.00000" pt_clust_9="23.63522"></scales>
<clustering>
<clus scale="   23.635">  1  9  2 -1</clus>
<clus scale="   81.181">  5  6 -1 -1</clus>
<clus scale="   91.151">  7  8 -1 -1</clus>
<clus scale="   97.191">  1  5  2 -1</clus>
<clus scale="   23.635">  1  5  2 -1</clus>
</clustering>
</event>
<event>
 9    2  0.3791909E-005  0.1232562E+03  0.7546771E-02  0.1252577E+00
         -1   -1    0    0    0  501 -0.00000000000E+00  0.00000000000E+00  0.21509785623E+03  0.21509785623E+03  0.00000000000E+00 0.  1.
          2   -1    0    0  502    0  0.00000000000E+00 -0.00000000000E+00 -0.46612724383E+03  0.46612724383E+03  0.00000000000E+00 0. -1.
         24    2    1    2    0    0 -0.23812136775E+02 -0.96275172666E+02  0.15058637692E+03  0.19445994631E+03  0.72818178188E+02 0.  0.
         23    2    1    2    0    0 -0.56123750024E+01  0.28364990010E+00 -0.37050839101E+03  0.38165643374E+03  0.91397956193E+02 0.  0.
        -11    1    3    3    0    0  0.87518837881E+01 -0.45138596698E+02  0.11572962895E+03  0.12452885368E+03  0.00000000000E+00 0.  1.
         12    1    3    3    0    0 -0.32564020563E+02 -0.51136575968E+02  0.34856747964E+02  0.69931092624E+02  0.00000000000E+00 0. -1.
        -11    1    4    4    0    0 -0.18627464413E+02 -0.42696905696E+02 -0.18070261019E+03  0.18661040034E+03  0.00000000000E+00 0.  1.
         11    1    4    4    0    0  0.13015089411E+02  0.42980555596E+02 -0.18980578082E+03  0.19504603339E+03  0.00000000000E+00 0. -1.
         21    1    1    2  502  501  0.29424511777E+02  0.95991522766E+02 -0.31107373507E+02  0.10510872001E+03  0.00000000000E+00 0. -1.
<scales pt_clust_5="13000.00000" pt_clust_6="13000.00000" pt_clust_7="13000.00000" pt_clust_8="13000.00000" pt_clust_9="99.44653"></scales>
<clustering>
<clus scale="   72.818">  5  6 -1 -1</clus>
<clus scale="   91.398">  7  8 -1 -1</clus>
<clus scale="   91.571">  2  7  1 -1</clus>
<clus scale="   99.447">  2  9  1 -1</clus>
<clus scale="   91.571">  2  5  1 -1</clus>
</clustering>
</event>
<event>
 9    2  0.3791909E-005  0.1279482E+03  0.7546771E-02  0.1233760E+00
          2   -1    0    0  502    0  0.00000000000E+00  0.00000000000E+00  0.29471694109E+03  0.29471694109E+03  0.00000000000E+00 0. -1.
         -1   -1    0    0    0  501 -0.00000000000E+00 -0.00000000000E+00 -0.79351918709E+02  0.79351918709E+02  0.00000000000E+00 0.  1.
         23    2    1    2    0    0 -0.23363057554E+01 -0.76383287856E+02  0.40296597176E+02  0.12655293819E+03  0.92476837271E+02 0.  0.
         24    2    1    2    0    0  0.10953845638E+02  0.11189671166E+03  0.13694943209E+03  0.19470945516E+03  0.80720283455E+02 0.  0.
        -11    1    4    4    0    0 -0.26977936041E+02  0.52880843675E+02  0.29259504987E+02  0.66183920199E+02  0.00000000000E+00 0.  1.
         12    1    4    4    0    0  0.37931781678E+02  0.59015867985E+02  0.10768992711E+03  0.12852553496E+03  0.00000000000E+00 0. -1.
        -11    1    3    3    0    0  0.27955655432E+02 -0.59762046660E+02 -0.87526473832E+01  0.66555463547E+02  0.00000000000E+00 0.  1.
         11    1    3    3    0    0 -0.30291961187E+02 -0.16621241196E+02  0.49049244560E+02  0.59997474641E+02  0.00000000000E+00 0. -1.
         21    1    1    2  502  501 -0.86175398823E+01 -0.35513423804E+02  0.38118993108E+02  0.52806466455E+02  0.00000000000E+00 0.  1.
<scales pt_clust_5="13000.00000" pt_clust_6="13000.00000" pt_clust_7="13000.00000" pt_clust_8="13000.00000" pt_clust_9="36.54402"></scales>
<clustering>
<clus scale="   36.544">  1  9  2 -1</clus>
<clus scale="   80.720">  5  6 -1 -1</clus>
<clus scale="   92.477">  7  8 -1 -1</clus>
<clus scale="  119.727">  1  5  2 -1</clus>
<clus scale="   36.544">  1  5  2 -1</clus>
</clustering>
</event>
<event>
 9    2  0.3791909E-005  0.1926450E+03  0.7546771E-02  0.1157470E+00
          2   -1    0    0  502    0  0.00000000000E+00  0.00000000000E+00  0.11069508852E+04  0.11069508852E+04  0.00000000000E+00 0. -1.
         -1   -1    0    0    0  501 -0.00000000000E+00 -0.00000000000E+00 -0.17768948292E+03  0.17768948292E+03  0.00000000000E+00 0.  1.
         23    2    1    2    0    0  0.16652974499E+03 -0.64507067443E+01 -0.10553018223E+03  0.21812048577E+03  0.93092208943E+02 0.  0.
         24    2    1    2    0    0 -0.20232610541E+03 -0.79893632681E+01  0.92100687412E+03  0.94636641648E+03  0.79724834414E+02 0.  0.
        -11    1    4    4    0    0 -0.12623542437E+03 -0.21345840838E+01  0.39060387297E+03  0.41050130864E+03  0.00000000000E+00 0.  1.
         12    1    4    4    0    0 -0.76090681040E+02 -0.58547791843E+01  0.53040300114E+03  0.53586510784E+03  0.00000000000E+00 0. -1.
        -13    1    3    3    0    0  0.57728332160E+02  0.13998738442E+02 -0.87795161397E+02  0.10600243099E+03  0.00000000000E+00 0.  1.
         13    1    3    3    0    0  0.10880141283E+03 -0.20449445186E+02 -0.17735020836E+02  0.11211805478E+03  0.00000000000E+00 0. -1.
         21    1    1    2  502  501  0.35796360418E+02  0.14440070012E+02  0.11378471034E+03  0.12015346582E+03  0.00000000000E+00 0.  1.
<scales pt_clust_5="13000.00000" pt_clust_6="13000.00000" pt_clust_7="13000.00000" pt_clust_8="13000.00000" pt_clust_9="38.59916"></scales>
<clustering>
<clus scale="   38.599">  1  9  2 -1</clus>
<clus scale="   79.725">  5  6 -1 -1</clus>
<clus scale="   93.092">  7  8 -1 -1</clus>
<clus scale="  186.553">  1  5  2 -1</clus>
<clus scale="   38.599">  1  5  2 -1</clus>
</clustering>
</event>
<event>
 9    2  0.3791909E-005  0.9901298E+02  0.7546771E-02  0.1288267E+00
          2   -1    0    0  502    0  0.00000000000E+00  0.00000000000E+00  0.68415147904E+03  0.68415147904E+03  0.00000000000E+00 0. -1.
         -1   -1    0    0    0  501 -0.00000000000E+00 -0.00000000000E+00 -0.42785748458E+02  0.42785748458E+02  0.00000000000E+00 0.  1.
         23    2    1    2    0    0 -0.12280568958E+02  0.37052237463E+02  0.27951246387E+02  0.10357308727E+03  0.91773806488E+02 0.  0.
         24    2    1    2    0    0 -0.97995566810E+01 -0.26477849587E+02  0.51109495271E+03  0.51815655423E+03  0.80442875268E+02 0.  0.
        -11    1    4    4    0    0  0.16062591937E+01 -0.24407979511E+02  0.39778190568E+02  0.46697258777E+02  0.00000000000E+00 0.  1.
         12    1    4    4    0    0 -0.11405815875E+02 -0.20698700757E+01  0.47131676214E+03  0.47145929546E+03  0.00000000000E+00 0. -1.
        -11    1    3    3    0    0  0.33750912319E+02  0.28439547444E+02 -0.75898718579E+01  0.44783234541E+02  0.00000000000E+00 0.  1.
         11    1    3    3    0    0 -0.46031481276E+02  0.86126900190E+01  0.35541118245E+02  0.58789852730E+02  0.00000000000E+00 0. -1.
         21    1    1    2  502  501  0.22080125639E+02 -0.10574387876E+02  0.10231953149E+03  0.10520758600E+03  0.00000000000E+00 0.  1.
<scales pt_clust_5="13000.00000" pt_clust_6="13000.00000" pt_clust_7="13000.00000" pt_clust_8="13000.00000" pt_clust_9="24.48162"></scales>
<clustering>
<clus scale="   24.482">  1  9  2 -1</clus>
<clus scale="   80.443">  5  6 -1 -1</clus>
<clus scale="   88.613">  1  5  2 -1</clus>
<clus scale="   91.774">  7  8 -1 -1</clus>
<clus scale="   24.482">  1  5  2 -1</clus>
</clustering>
</event>
<event>
 9    2  0.3791909E-005  0.1016580E+03  0.7546771E-02  0.1281814E+00
          4   -1    0    0  502    0  0.00000000000E+00  0.00000000000E+00  0.64288745299E+02  0.64288745299E+02  0.00000000000E+00 0. -1.
         -3   -1    0    0    0  501 -0.00000000000E+00 -0.00000000000E+00 -0.20932374155E+03  0.20932374155E+03  0.00000000000E+00 0.  1.
         23    2    1    2    0    0  0.17060906290E+02 -0.28338966420E+02 -0.10299848550E+03  0.14121762359E+03  0.90772009212E+02 0.  0.
         24    2    1    2    0    0 -0.44379034844E+02  0.29613748503E+02 -0.23263767255E+02  0.99223774708E+02  0.80359702378E+02 0.  0.
        -13    1    4    4    0    0  0.18680856434E+02 -0.10692407716E+02 -0.70223463032E+01  0.22641009860E+02  0.00000000000E+00 0.  1.
         14    1    4    4    0    0 -0.63059891279E+02  0.40306156219E+02 -0.16241420952E+02  0.76582764848E+02  0.00000000000E+00 0. -1.
        -13    1    3    3    0    0  0.25681491912E+02  0.28779507637E+02 -0.36090031480E+02  0.52823190540E+02  0.00000000000E+00 0.  1.
         13    1    3    3    0    0 -0.86205856218E+01 -0.57118474057E+02 -0.66908454025E+02  0.88394433054E+02  0.00000000000E+00 0. -1.
         21    1    1    2  502  501  0.27318128554E+02 -0.12747820832E+01 -0.18772743487E+02  0.33171088542E+02  0.00000000000E+00 0.  1.
<scales pt_clust_5="13000.00000" pt_clust_6="13000.00000" pt_clust_7="13000.00000" pt_clust_8="13000.00000" pt_clust_9="27.34786"></scales>
<clustering>
<clus scale="   27.348">  2  9  1 -1</clus>
<clus scale="   80.360">  5  6 -1 -1</clus>
<clus scale="   90.772">  7  8 -1 -1</clus>
<clus scale="   92.480">  1  5  2 -1</clus>
<clus scale="   92.480">  1  5  2 -1</clus>
</clustering>
</event>
<event>
 9    2  0.3791909E-005  0.1089401E+03  0.7546771E-02  0.1266442E+00
         -1   -1    0    0    0  501 -0.00000000000E+00  0.00000000000E+00  0.68205519700E+02  0.68205519700E+02  0.00000000000E+00 0.  1.
          2   -1    0    0  502    0  0.00000000000E+00 -0.00000000000E+00 -0.89448028504E+03  0.89448028504E+03  0.00000000000E+00 0. -1.
         23    2    1    2    0    0  0.15966220640E+02 -0.59866649940E+02  0.16209524076E+02  0.10972180501E+03  0.89090907769E+02 0.  0.
         24    2    1    2    0    0  0.33851971646E+00  0.76382647197E+02 -0.70780457158E+03  0.71629926719E+03  0.79138519325E+02 0.  0.
        -13    1    4    4    0    0  0.21651069593E+02  0.42186163801E+01 -0.56350070098E+02  0.60513601270E+02  0.00000000000E+00 0.  1.
         14    1    4    4    0    0 -0.21312549877E+02  0.72164030817E+02 -0.65145450148E+03  0.65578566592E+03  0.00000000000E+00 0. -1.
        -11    1    3    3    0    0 -0.21012949716E+02 -0.60413684052E+01 -0.24445592769E+02  0.32796786333E+02  0.00000000000E+00 0. -1.
         11    1    3    3    0    0  0.36979170356E+02 -0.53825281535E+02  0.40655116845E+02  0.76925018676E+02  0.00000000000E+00 0.  1.
         21    1    1    2  502  501 -0.16304740357E+02 -0.16515997257E+02 -0.13467971783E+03  0.13666473254E+03  0.00000000000E+00 0.  1.
<scales pt_clust_5="13000.00000" pt_clust_6="13000.00000" pt_clust_7="13000.00000" pt_clust_8="13000.00000" pt_clust_9="23.20825"></scales>
<clustering>
<clus scale="   23.208">  2  9  1 -1</clus>
<clus scale="   79.139">  5  6 -1 -1</clus>
<clus scale="   89.091">  7  8 -1 -1</clus>
<clus scale="  100.964">  2  5  1 -1</clus>
<clus scale="   23.208">  2  5  1 -1</clus>
</clustering>
</event>
<event>
 9    2  0.3791909E-005  0.2718553E+03  0.7546771E-02  0.1102779E+00
          2   -1    0    0  502    0  0.00000000000E+00  0.00000000000E+00  0.12658200632E+04  0.12658200632E+04  0.00000000000E+00 0. -1.
         -1   -1    0    0    0  501 -0.00000000000E+00 -0.00000000000E+00 -0.73226614616E+02  0.73226614616E+02  0.00000000000E+00 0.  1.
         24    2    1    2    0    0  0.41651002947E+02 -0.23526013378E+03  0.27290495985E+03  0.37241703237E+03  0.84470067457E+02 0.  0.
         23    2    1    2    0    0 -0.64042794829E+02  0.23518501679E+03  0.85371654505E+03  0.89696117812E+03  0.12764773428E+03 0.  0.
        -11    1    3    3    0    0 -0.15738187886E+02 -0.85502296348E+02  0.59006896215E+02  0.10507210400E+03  0.00000000000E+00 0.  1.
         12    1    3    3    0    0  0.57389190833E+02 -0.14975783743E+03  0.21389806363E+03  0.26734492836E+03  0.00000000000E+00 0. -1.
        -11    1    4    4    0    0 -0.95301712464E+02  0.16038727359E+03  0.68221641050E+03  0.70726637463E+03  0.00000000000E+00 0. -1.
         11    1    4    4    0    0  0.31258917635E+02  0.74797743199E+02  0.17150013455E+03  0.18969480349E+03  0.00000000000E+00 0.  1.
         21    1    1    2  502  501  0.22391791882E+02  0.75116986098E-01  0.65971943654E+02  0.69668467298E+02  0.00000000000E+00 0. -1.
<scales pt_clust_5="13000.00000" pt_clust_6="13000.00000" pt_clust_7="13000.00000" pt_clust_8="13000.00000" pt_clust_9="22.39192"></scales>
<clustering>
<clus scale="   22.392">  1  9  2 -1</clus>
<clus scale="   84.470">  5  6 -1 -1</clus>
<clus scale="  127.648">  7  8 -1 -1</clus>
<clus scale="  254.453">  2  5  1 -1</clus>
<clus scale="   22.392">  1  5  2 -1</clus>
</clustering>
</event>
<event>
 9    2  0.3791909E-005  0.1101430E+03  0.7546771E-02  0.1267915E+00
          2   -1    0    0  502    0  0.00000000000E+00  0.00000000000E+00  0.44990707605E+03  0.44990707605E+03  0.00000000000E+00 0. -1.
         -1   -1    0    0    0  501 -0.00000000000E+00 -0.00000000000E+00 -0.73078544583E+02  0.73078544583E+02  0.00000000000E+00 0.  1.
         23    2    1    2    0    0  0.60529978684E+02  0.40086219745E+02  0.10174404301E+01  0.11614236579E+03  0.90648941595E+02 0.  0.
         24    2    1    2    0    0 -0.34834473501E+02  0.23577224968E+02  0.25192534914E+03  0.26520650035E+03  0.71405743515E+02 0.  0.
        -11    1    4    4    0    0  0.16337416605E+01 -0.20120977658E+02  0.11760438379E+03  0.11932440630E+03  0.00000000000E+00 0.  1.
         12    1    4    4    0    0 -0.36468215162E+02  0.43698202626E+02  0.13432096536E+03  0.14588209405E+03  0.00000000000E+00 0. -1.
        -11    1    3    3    0    0  0.75490985578E+02  0.11563741209E+02 -0.18369416562E+02  0.78549630674E+02  0.00000000000E+00 0.  1.
         11    1    3    3    0    0 -0.14961006894E+02  0.28522478536E+02  0.19386856992E+02  0.37592735111E+02  0.00000000000E+00 0. -1.
         21    1    1    2  502  501 -0.25695505182E+02 -0.63663444713E+02  0.12388574190E+03  0.14163675450E+03  0.00000000000E+00 0. -1.
<scales pt_clust_5="13000.00000" pt_clust_6="13000.00000" pt_clust_7="13000.00000" pt_clust_8="13000.00000" pt_clust_9="68.65343"></scales>
<clustering>
<clus scale="   68.653">  1  9  2 -1</clus>
<clus scale="   71.406">  5  6 -1 -1</clus>
<clus scale="   90.649">  7  8 -1 -1</clus>
<clus scale="   94.937">  1  5  2 -1</clus>
<clus scale="   68.653">  1  5  2 -1</clus>
</clustering>
</event>
<event>
 9    2  0.3791909E-005  0.1899856E+03  0.7546771E-02  0.1159333E+00
          2   -1    0    0  502    0  0.00000000000E+00  0.00000000000E+00  0.25991709752E+03  0.25991709752E+03  0.00000000000E+00 0. -1.
         -1   -1    0    0    0  501 -0.00000000000E+00 -0.00000000000E+00 -0.19426741948E+03  0.19426741948E+03  0.00000000000E+00 0.  1.
         23    2    1    2    0    0  0.44264404743E+01 -0.19167844271E+03 -0.40158715912E+02  0.21456658202E+03  0.87554993458E+02 0.  0.
         24    2    1    2    0    0  0.32826980695E+01  0.15938113590E+03  0.10456829642E+03  0.20639016517E+03  0.79052192098E+02 0.  0.
        -13    1    4    4    0    0 -0.63384675087E+01  0.15149679883E+03  0.65109731590E+02  0.16501737294E+03  0.00000000000E+00 0.  1.
         14    1    4    4    0    0  0.96211655782E+01  0.78843370684E+01  0.39458564826E+02  0.41372792222E+02  0.00000000000E+00 0. -1.
        -13    1    3    3    0    0  0.41454963071E+02 -0.11234243968E+03 -0.42272273280E+02  0.12698930193E+03  0.00000000000E+00 0.  1.
         13    1    3    3    0    0 -0.37028522597E+02 -0.79336003033E+02  0.21135573678E+01  0.87577280088E+02  0.00000000000E+00 0. -1.
         21    1    1    2  502  501 -0.77091385438E+01  0.32297306817E+02  0.12400975286E+01  0.33227769810E+02  0.00000000000E+00 0.  1.
<scales pt_clust_5="13000.00000" pt_clust_6="13000.00000" pt_clust_7="13000.00000" pt_clust_8="13000.00000" pt_clust_9="33.20462"></scales>
<clustering>
<clus scale="   33.205">  2  9  1 -1</clus>
<clus scale="   79.052">  5  6 -1 -1</clus>
<clus scale="   87.555">  7  8 -1 -1</clus>
<clus scale="  186.220">  1  5  2 -1</clus>
<clus scale="  186.220">  1  5  2 -1</clus>
</clustering>
</event>
<event>
 9    2  0.3791909E-005  0.9673454E+02  0.7546771E-02  0.1294536E+00
         -1   -1    0    0    0  501 -0.00000000000E+00  0.00000000000E+00  0.10888739674E+03  0.10888739674E+03  0.00000000000E+00 0.  1.
          2   -1    0    0  502    0  0.00000000000E+00 -0.00000000000E+00 -0.32989456089E+03  0.32989456089E+03  0.00000000000E+00 0. -1.
         23    2    1    2    0    0  0.10715369558E+02 -0.16512113044E+02  0.70487086700E+02  0.12007467012E+03  0.95194684676E+02 0.  0.
         24    2    1    2    0    0  0.24689492341E+02  0.12829319056E+02 -0.15763337559E+03  0.18019446809E+03  0.82750243324E+02 0.  0.
        -11    1    4    4    0    0 -0.20602963940E+01  0.34691733791E+02 -0.13376006763E+03  0.13820100183E+03  0.00000000000E+00 0.  1.
         12    1    4    4    0    0  0.26749788735E+02 -0.21862414734E+02 -0.23873307961E+02  0.41993466259E+02  0.00000000000E+00 0. -1.
        -13    1    3    3    0    0  0.38244846123E+02  0.16137154799E+00 -0.44645744346E+01  0.38504892165E+02  0.00000000000E+00 0. -1.
         13    1    3    3    0    0 -0.27529476565E+02 -0.16673484592E+02  0.74951661134E+02  0.81569777952E+02  0.00000000000E+00 0.  1.
         21    1    1    2  502  501 -0.35404861899E+02  0.36827939874E+01 -0.13386087527E+03  0.13851281942E+03  0.00000000000E+00 0. -1.
<scales pt_clust_5="13000.00000" pt_clust_6="13000.00000" pt_clust_7="13000.00000" pt_clust_8="13000.00000" pt_clust_9="35.59589"></scales>
<clustering>
<clus scale="   35.596">  2  9  1 -1</clus>
<clus scale="   82.750">  5  6 -1 -1</clus>
<clus scale="   84.517">  2  5  1 -1</clus>
<clus scale="   95.195">  7  8 -1 -1</clus>
<clus scale="   35.596">  2  5  1 -1</clus>
</clustering>
</event>
<event>
 9    2  0.3791909E-005  0.2370734E+03  0.7546771E-02  0.1121773E+00
          2   -1    0    0  502    0  0.00000000000E+00  0.00000000000E+00  0.24604576515E+03  0.24604576515E+03  0.00000000000E+00 0. -1.
         -1   -1    0    0    0  501 -0.00000000000E+00 -0.00000000000E+00 -0.85747961070E+03  0.85747961070E+03  0.00000000000E+00 0.  1.
         23    2    1    2    0    0 -0.23253630021E+03 -0.63635985739E+01 -0.73073323862E+03  0.77132047648E+03  0.82768261485E+02 0.  0.
         24    2    1    2    0    0  0.16660388868E+03 -0.57574274132E+02  0.18319951385E+02  0.19570588069E+03  0.83027214527E+02 0.  0.
        -11    1    4    4    0    0  0.36792447911E+02 -0.51131025877E+02 -0.67014393012E+01  0.63348049056E+02  0.00000000000E+00 0.  1.
         12    1    4    4    0    0  0.12981144077E+03 -0.64432482554E+01  0.25021390686E+02  0.13235783163E+03  0.00000000000E+00 0. -1.
        -13    1    3    3    0    0 -0.20752314196E+03 -0.21575552077E+02 -0.69199343352E+03  0.72276294241E+03  0.00000000000E+00 0.  1.
         13    1    3    3    0    0 -0.25013158255E+02  0.15211953503E+02 -0.38739805109E+02  0.48557534072E+02  0.00000000000E+00 0. -1.
         21    1    1    2  502  501  0.65932411535E+02  0.63937872706E+02  0.10097944168E+03  0.13649901868E+03  0.00000000000E+00 0. -1.
<scales pt_clust_5="13000.00000" pt_clust_6="13000.00000" pt_clust_7="13000.00000" pt_clust_8="13000.00000" pt_clust_9="91.84299"></scales>
<clustering>
<clus scale="   82.768">  7  8 -1 -1</clus>
<clus scale="   83.027">  5  6 -1 -1</clus>
<clus scale="   91.843">  1  9  2 -1</clus>
<clus scale="  236.983">  2  7  1 -1</clus>
<clus scale="   91.843">  1  5  2 -1</clus>
</clustering>
</event>
<event>
 9    2  0.3791909E-005  0.4711903E+03  0.7546771E-02  0.1021705E+00
         -1   -1    0    0    0  501 -0.00000000000E+00  0.00000000000E+00  0.27780104763E+03  0.27780104763E+03  0.00000000000E+00 0.  1.
          2   -1    0    0  502    0  0.00000000000E+00 -0.00000000000E+00 -0.99008958925E+03  0.99008958925E+03  0.00000000000E+00 0. -1.
         24    2    1    2    0    0 -0.38372249168E+03  0.23842264689E+03 -0.16974633789E+03  0.48934822174E+03  0.80991071834E+02 0.  0.
         23    2    1    2    0    0  0.37581644643E+03 -0.30433808617E+03 -0.47579051336E+03  0.68439817021E+03  0.90358013897E+02 0.  0.
        -13    1    3    3    0    0 -0.24102889483E+03  0.16570696657E+03 -0.14774020099E+03  0.32769024078E+03  0.00000000000E+00 0.  1.
         14    1    3    3    0    0 -0.14269359685E+03  0.72715680316E+02 -0.22006136910E+02  0.16165798096E+03  0.00000000000E+00 0. -1.
        -11    1    4    4    0    0  0.10278504295E+03 -0.64479360681E+02 -0.17331421270E+03  0.21156599285E+03  0.00000000000E+00 0. -1.
         11    1    4    4    0    0  0.27303140348E+03 -0.23985872549E+03 -0.30247630067E+03  0.47283217736E+03  0.00000000000E+00 0.  1.
         21    1    1    2  502  501  0.79060452504E+01  0.65915439279E+02 -0.66751690369E+02  0.94144244932E+02  0.00000000000E+00 0.  1.
<scales pt_clust_5="13000.00000" pt_clust_6="13000.00000" pt_clust_7="13000.00000" pt_clust_8="13000.00000" pt_clust_9="66.38788"></scales>
<clustering>
<clus scale="   66.388">  2  9  1 -1</clus>
<clus scale="   80.991">  5  6 -1 -1</clus>
<clus scale="   90.358">  7  8 -1 -1</clus>
<clus scale="  469.484">  1  5  2 -1</clus>
<clus scale="   66.388">  2  5  1 -1</clus>
</clustering>
</event>
<event>
 9    2  0.3791909E-005  0.1650187E+03  0.7546771E-02  0.1185104E+00
         -1   -1    0    0    0  501 -0.00000000000E+00  0.00000000000E+00  0.97974701710E+02  0.97974701710E+02  0.00000000000E+00 0.  1.
          2   -1    0    0  502    0  0.00000000000E+00 -0.00000000000E+00 -0.37871031285E+03  0.37871031285E+03  0.00000000000E+00 0. -1.
         23    2    1    2    0    0 -0.10807794357E+03 -0.71563036820E+02 -0.38980461267E+02  0.16382048513E+03  0.92279818275E+02 0.  0.
         24    2    1    2    0    0  0.13031386817E+03  0.79801240494E+02 -0.19217714955E+03  0.25790743291E+03  0.78957234733E+02 0.  0.
        -13    1    4    4    0    0  0.10546413641E+03  0.78263157929E+02 -0.10772014446E+03  0.16985710312E+03  0.00000000000E+00 0.  1.
         14    1    4    4    0    0  0.24849731760E+02  0.15380825657E+01 -0.84457005091E+02  0.88050329786E+02  0.00000000000E+00 0. -1.
        -11    1    3    3    0    0 -0.93557941448E+02 -0.35267285562E+02  0.10754278887E+02  0.10056104789E+03  0.00000000000E+00 0.  1.
         11    1    3    3    0    0 -0.14520002126E+02 -0.36295751259E+02 -0.49734740154E+02  0.63259437235E+02  0.00000000000E+00 0. -1.
         21    1    1    2  502  501 -0.22235924598E+02 -0.82382036738E+01 -0.49578000323E+02  0.54957096526E+02  0.00000000000E+00 0.  1.
<scales pt_clust_5="13000.00000" pt_clust_6="13000.00000" pt_clust_7="13000.00000" pt_clust_8="13000.00000" pt_clust_9="23.71296"></scales>
<clustering>
<clus scale="   23.713">  2  9  1 -1</clus>
<clus scale="   78.957">  5  6 -1 -1</clus>
<clus scale="   92.280">  7  8 -1 -1</clus>
<clus scale="  157.955">  2  5  1 -1</clus>
<clus scale="   23.713">  2  5  1 -1</clus>
</clustering>
</event>
<event>
 9    2  0.3791909E-005  0.9267552E+02  0.7546771E-02  0.1312960E+00
          2   -1    0    0  502    0  0.00000000000E+00  0.00000000000E+00  0.87173399659E+03  0.87173399659E+03  0.00000000000E+00 0. -1.
         -1   -1    0    0    0  501 -0.00000000000E+00 -0.00000000000E+00 -0.14009259731E+02  0.14009259731E+02  0.00000000000E+00 0.  1.
         23    2    1    2    0    0  0.56957966910E+01 -0.15813149495E+01  0.21589678662E+03  0.23446716461E+03  0.91260539951E+02 0.  0.
         24    2    1    2    0    0 -0.20626738921E+02  0.31741990419E+02  0.42604830443E+03  0.43288777946E+03  0.66645746925E+02 0.  0.
        -13    1    4    4    0    0 -0.40399129743E+02  0.14807798372E+01  0.23426841550E+03  0.23773088334E+03  0.00000000000E+00 0.  1.
         14    1    4    4    0    0  0.19772390822E+02  0.30261210582E+02  0.19177988893E+03  0.19515689612E+03  0.00000000000E+00 0. -1.
        -13    1    3    3    0    0 -0.18792685203E+02 -0.31273351327E+02  0.38894887532E+02  0.53329164596E+02  0.00000000000E+00 0.  1.
         13    1    3    3    0    0  0.24488481894E+02  0.29692036378E+02  0.17700189908E+03  0.18113800001E+03  0.00000000000E+00 0. -1.
         21    1    1    2  502  501  0.14930942230E+02 -0.30160675470E+02  0.21577964581E+03  0.21838831225E+03  0.00000000000E+00 0.  1.
<scales pt_clust_5="13000.00000" pt_clust_6="13000.00000" pt_clust_7="13000.00000" pt_clust_8="13000.00000" pt_clust_9="33.65411"></scales>
<clustering>
<clus scale="   33.654">  1  9  2 -1</clus>
<clus scale="   66.646">  5  6 -1 -1</clus>
<clus scale="   68.571">  1  5  2 -1</clus>
<clus scale="   91.261">  7  8 -1 -1</clus>
<clus scale="   33.654">  1  5  2 -1</clus>
</clustering>
</event>
<event>
 9    2  0.3791909E-005  0.2283357E+03  0.7546771E-02  0.1128928E+00
          2   -1    0    0  502    0  0.00000000000E+00  0.00000000000E+00  0.27187217028E+03  0.27187217028E+03  0.00000000000E+00 0. -1.
         -1   -1    0    0    0  501 -0.00000000000E+00 -0.00000000000E+00 -0.21854993723E+03  0.21854993723E+03  0.00000000000E+00 0.  1.
         23    2    1    2    0    0  0.12102883533E+03  0.15447686712E+03 -0.27060012895E+02  0.21857710011E+03  0.92372197851E+02 0.  0.
         24    2    1    2    0    0 -0.14417615030E+03 -0.16226728013E+03  0.88089200935E+02  0.24623473837E+03  0.75857804755E+02 0.  0.
        -11    1    4    4    0    0 -0.90735714843E+02 -0.55507497553E+02  0.18256202763E+02  0.10792284824E+03  0.00000000000E+00 0.  1.
         12    1    4    4    0    0 -0.53440435456E+02 -0.10675978258E+03  0.69832998172E+02  0.13831189013E+03  0.00000000000E+00 0. -1.
        -11    1    3    3    0    0  0.26201750725E+02  0.54735686337E+02  0.32244846794E+02  0.68718681918E+02  0.00000000000E+00 0. -1.
         11    1    3    3    0    0  0.94827084605E+02  0.99741180785E+02 -0.59304859688E+02  0.14985841819E+03  0.00000000000E+00 0.  1.
         21    1    1    2  502  501  0.23147314969E+02  0.77904130081E+01 -0.77069549894E+01  0.25610269041E+02  0.00000000000E+00 0.  1.
<scales pt_clust_5="13000.00000" pt_clust_6="13000.00000" pt_clust_7="13000.00000" pt_clust_8="13000.00000" pt_clust_9="24.42312"></scales>
<clustering>
<clus scale="   24.423">  2  9  1 -1</clus>
<clus scale="   75.858">  5  6 -1 -1</clus>
<clus scale="   92.372">  7  8 -1 -1</clus>
<clus scale="  222.169">  1  5  2 -1</clus>
<clus scale="  222.169">  1  5  2 -1</clus>
</clustering>
</event>
<event>
 9    2  0.3791909E-005  0.9933787E+02  0.7546771E-02  0.1287751E+00
          2   -1    0    0  502    0  0.00000000000E+00  0.00000000000E+00  0.75972846617E+03  0.75972846617E+03  0.00000000000E+00 0. -1.
         -1   -1    0    0    0  501 -0.00000000000E+00 -0.00000000000E+00 -0.40005586551E+02  0.40005586551E+02  0.00000000000E+00 0.  1.
         23    2    1    2    0    0  0.35703245439E+02  0.13120774533E+01  0.35093821140E+02  0.10507081587E+03  0.92368050667E+02 0.  0.
         24    2    1    2    0    0 -0.42905202380E+02  0.21278963542E+02  0.53566826911E+03  0.54382710031E+03  0.80707929083E+02 0.  0.
        -13    1    4    4    0    0  0.17491800543E+02  0.26909226448E+02  0.14782626428E+03  0.15127020185E+03  0.00000000000E+00 0.  1.
         14    1    4    4    0    0 -0.60397002923E+02 -0.56302629063E+01  0.38784200482E+03  0.39255689846E+03  0.00000000000E+00 0. -1.
        -13    1    3    3    0    0  0.14320810877E+01 -0.26058765530E+02  0.51907261812E+02  0.58098829128E+02  0.00000000000E+00 0. -1.
         13    1    3    3    0    0  0.34271164351E+02  0.27370842983E+02 -0.16813440672E+02  0.46971986746E+02  0.00000000000E+00 0.  1.
         21    1    1    2  502  501  0.72019569415E+01 -0.22591040995E+02  0.14896078937E+03  0.15083613654E+03  0.00000000000E+00 0. -1.
<scales pt_clust_5="13000.00000" pt_clust_6="13000.00000" pt_clust_7="13000.00000" pt_clust_8="13000.00000" pt_clust_9="23.71125"></scales>
<clustering>
<clus scale="   23.711">  1  9  2 -1</clus>
<clus scale="   80.708">  5  6 -1 -1</clus>
<clus scale="   88.600">  1  5  2 -1</clus>
<clus scale="   92.368">  7  8 -1 -1</clus>
<clus scale="   23.711">  1  5  2 -1</clus>
</clustering>
</event>
<event>
 9    2  0.3791909E-005  0.1142260E+03  0.7546771E-02  0.1255200E+00
         -1   -1    0    0    0  501 -0.00000000000E+00  0.00000000000E+00  0.28683803845E+02  0.28683803845E+02  0.00000000000E+00 0.  1.
          2   -1    0    0  502    0  0.00000000000E+00 -0.00000000000E+00 -0.63698342660E+03  0.63698342660E+03  0.00000000000E+00 0. -1.
         24    2    1    2    0    0  0.51555156716E+02 -0.49437201976E+02 -0.15827188153E+03  0.19149591944E+03  0.80738637314E+02 0.  0.
         23    2    1    2    0    0 -0.71196883433E+02  0.35548668817E+02 -0.30392711636E+03  0.32610348409E+03  0.87401866179E+02 0.  0.
        -13    1    3    3    0    0  0.93944792123E+01 -0.39524585821E+02 -0.13766280764E+03  0.14353221844E+03  0.00000000000E+00 0.  1.
         14    1    3    3    0    0  0.42160677504E+02 -0.99126161551E+01 -0.20609073891E+02  0.47963700996E+02  0.00000000000E+00 0. -1.
        -11    1    4    4    0    0  0.10294287502E+02  0.28689212142E+02 -0.43336548704E+02  0.52982069628E+02  0.00000000000E+00 0. -1.
         11    1    4    4    0    0 -0.81491170936E+02  0.68594566747E+01 -0.26059056766E+03  0.27312141446E+03  0.00000000000E+00 0.  1.
         21    1    1    2  502  501  0.19641726718E+02  0.13888533159E+02 -0.14610062486E+03  0.14806782691E+03  0.00000000000E+00 0. -1.
<scales pt_clust_5="13000.00000" pt_clust_6="13000.00000" pt_clust_7="13000.00000" pt_clust_8="13000.00000" pt_clust_9="24.05595"></scales>
<clustering>
<clus scale="   24.056">  2  9  1 -1</clus>
<clus scale="   80.739">  5  6 -1 -1</clus>
<clus scale="   87.402">  7  8 -1 -1</clus>
<clus scale="  109.212">  1  5  2 -1</clus>
<clus scale="   24.056">  2  5  1 -1</clus>
</clustering>
</event>
<event>
 9    2  0.3791909E-005  0.9112293E+02  0.7546771E-02  0.1302403E+00
          2   -1    0    0  502    0  0.00000000000E+00  0.00000000000E+00  0.31828634793E+03  0.31828634793E+03  0.00000000000E+00 0. -1.
         -1   -1    0    0    0  501 -0.00000000000E+00 -0.00000000000E+00 -0.63668928432E+02  0.63668928432E+02  0.00000000000E+00 0.  1.
         23    2    1    2    0    0  0.18043601537E+02  0.12587676298E+01  0.27557135152E+01  0.89979382080E+02  0.88099598127E+02 0.  0.
         24    2    1    2    0    0 -0.41697182222E+02 -0.35615145782E+02  0.21026520148E+03  0.23306815467E+03  0.84274647169E+02 0.  0.
        -11    1    4    4    0    0 -0.53075619383E+02 -0.45329062696E+02  0.10092655078E+03  0.12271069208E+03  0.00000000000E+00 0.  1.
         12    1    4    4    0    0  0.11378437161E+02  0.97139169138E+01  0.10933865069E+03  0.11035746259E+03  0.00000000000E+00 0. -1.
        -11    1    3    3    0    0  0.18426702378E+02 -0.40243952866E+02  0.14953410207E+02  0.46719627349E+02  0.00000000000E+00 0.  1.
         11    1    3    3    0    0 -0.38310084152E+00  0.41502720495E+02 -0.12197696692E+02  0.43259754731E+02  0.00000000000E+00 0. -1.
         21    1    1    2  502  501  0.23653580685E+02  0.34356378152E+02  0.41596504508E+02  0.58907739613E+02  0.00000000000E+00 0. -1.
<scales pt_clust_5="13000.00000" pt_clust_6="13000.00000" pt_clust_7="13000.00000" pt_clust_8="13000.00000" pt_clust_9="41.71154"></scales>
<clustering>
<clus scale="   41.712">  1  9  2 -1</clus>
<clus scale="   84.275">  5  6 -1 -1</clus>
<clus scale="   87.430">  1  5  2 -1</clus>
<clus scale="   88.100">  7  8 -1 -1</clus>
<clus scale="   41.712">  1  5  2 -1</clus>
</clustering>
</event>
<event>
 9    2  0.3791909E-005  0.1889884E+03  0.7546771E-02  0.1160408E+00
          2   -1    0    0  502    0  0.00000000000E+00  0.00000000000E+00  0.36463961127E+03  0.36463961127E+03  0.00000000000E+00 0. -1.
         -1   -1    0    0    0  501 -0.00000000000E+00 -0.00000000000E+00 -0.42906725965E+03  0.42906725965E+03  0.00000000000E+00 0.  1.
         24    2    1    2    0    0 -0.17164950991E+03 -0.19178515996E+02 -0.33510319485E+03  0.38544584501E+03  0.80268166235E+02 0.  0.
         23    2    1    2    0    0  0.84272885152E+02  0.94172963820E+02  0.24542147538E+03  0.29037714293E+03  0.90092831419E+02 0.  0.
        -13    1    3    3    0    0 -0.14716307433E+03 -0.66517398421E+01 -0.20484030669E+03  0.25231085457E+03  0.00000000000E+00 0.  1.
         14    1    3    3    0    0 -0.24486435579E+02 -0.12526776154E+02 -0.13026288816E+03  0.13313499044E+03  0.00000000000E+00 0. -1.
        -13    1    4    4    0    0 -0.52480922219E+01  0.49141786640E+02  0.12042270880E+03  0.13016945287E+03  0.00000000000E+00 0.  1.
         13    1    4    4    0    0  0.89520977374E+02  0.45031177180E+02  0.12499876659E+03  0.16020769007E+03  0.00000000000E+00 0. -1.
         21    1    1    2  502  501  0.87376624759E+02 -0.74994447824E+02  0.25254071082E+02  0.11788388297E+03  0.00000000000E+00 0. -1.
<scales pt_clust_5="13000.00000" pt_clust_6="13000.00000" pt_clust_7="13000.00000" pt_clust_8="13000.00000" pt_clust_9="115.14704"></scales>
<clustering>
<clus scale="   80.268">  5  6 -1 -1</clus>
<clus scale="   90.093">  7  8 -1 -1</clus>
<clus scale="  115.147">  1  9  2 -1</clus>
<clus scale="  184.507">  2  5  1 -1</clus>
<clus scale="  115.147">  1  5  2 -1</clus>
</clustering>
</event>
<event>
 9    2  0.3791909E-005  0.1131959E+03  0.7546771E-02  0.1259737E+00
         -1   -1    0    0    0  501 -0.00000000000E+00  0.00000000000E+00  0.98319155582E+02  0.98319155582E+02  0.00000000000E+00 0.  1.
          2   -1    0    0  502    0  0.00000000000E+00 -0.00000000000E+00 -0.41030366483E+03  0.41030366483E+03  0.00000000000E+00 0. -1.
         23    2    1    2    0    0  0.54300933392E+02 -0.34673593513E+02  0.48484492279E+02  0.12183738930E+03  0.91338677381E+02 0.  0.
         24    2    1    2    0    0 -0.73627841024E+02  0.43301391222E+02 -0.26673816848E+03  0.29069465467E+03  0.77833554965E+02 0.  0.
        -11    1    4    4    0    0 -0.24470688312E+02 -0.11177431756E+02 -0.20692097131E+02  0.33939835751E+02  0.00000000000E+00 0.  1.
         12    1    4    4    0    0 -0.49157152712E+02  0.54478822978E+02 -0.24604607135E+03  0.25675481892E+03  0.00000000000E+00 0. -1.
        -11    1    3    3    0    0 -0.41471960781E+01  0.23822507433E+02 -0.30942020022E+01  0.24377965086E+02  0.00000000000E+00 0. -1.
         11    1    3    3    0    0  0.58448129470E+02 -0.58496100947E+02  0.51578694281E+02  0.97459424215E+02  0.00000000000E+00 0.  1.
         21    1    1    2  502  501  0.19326907632E+02 -0.86277977080E+01 -0.93730833052E+02  0.96090776438E+02  0.00000000000E+00 0. -1.
<scales pt_clust_5="13000.00000" pt_clust_6="13000.00000" pt_clust_7="13000.00000" pt_clust_8="13000.00000" pt_clust_9="21.16526"></scales>
<clustering>
<clus scale="   21.165">  2  9  1 -1</clus>
<clus scale="   77.834">  5  6 -1 -1</clus>
<clus scale="   91.339">  7  8 -1 -1</clus>
<clus scale="  102.609">  2  5  1 -1</clus>
<clus scale="   21.165">  2  5  1 -1</clus>
</clustering>
</event>
<event>
 9    2  0.3791909E-005  0.1059689E+03  0.7546771E-02  0.1272617E+00
          2   -1    0    0  502    0  0.00000000000E+00  0.00000000000E+00  0.60615723220E+03  0.60615723220E+03  0.00000000000E+00 0. -1.
         -1   -1    0    0    0  501 -0.00000000000E+00 -0.00000000000E+00 -0.14675299410E+03  0.14675299410E+03  0.00000000000E+00 0.  1.
         23    2    1    2    0    0  0.66278572921E+01  0.55264829511E+02 -0.11975955079E+03  0.15999200519E+03  0.90315900291E+02 0.  0.
         24    2    1    2    0    0  0.20671425144E+02 -0.52347547849E+02  0.48804606445E+03  0.49775414668E+03  0.80016597831E+02 0.  0.
        -11    1    4    4    0    0  0.18803657585E+02 -0.27958164561E+02  0.58477108645E+02  0.67489323153E+02  0.00000000000E+00 0.  1.
         12    1    4    4    0    0  0.18677675590E+01 -0.24389383287E+02  0.42956895580E+03  0.43026482352E+03  0.00000000000E+00 0. -1.
        -11    1    3    3    0    0  0.16987265407E+02  0.78648473901E+02 -0.88694451443E+02  0.11975331039E+03  0.00000000000E+00 0.  1.
         11    1    3    3    0    0 -0.10359408115E+02 -0.23383644390E+02 -0.31065099350E+02  0.40238694799E+02  0.00000000000E+00 0. -1.
         21    1    1    2  502  501 -0.27299282436E+02 -0.29172816621E+01  0.91117724448E+02  0.95164074432E+02  0.00000000000E+00 0. -1.
<scales pt_clust_5="13000.00000" pt_clust_6="13000.00000" pt_clust_7="13000.00000" pt_clust_8="13000.00000" pt_clust_9="27.45471"></scales>
<clustering>
<clus scale="   27.455">  1  9  2 -1</clus>
<clus scale="   80.017">  5  6 -1 -1</clus>
<clus scale="   90.316">  7  8 -1 -1</clus>
<clus scale="   97.340">  1  5  2 -1</clus>
<clus scale="   27.455">  1  5  2 -1</clus>
</clustering>
</event>
<event>
 9    2  0.3791909E-005  0.1557840E+03  0.7546771E-02  0.1193874E+00
          2   -1    0    0  502    0  0.00000000000E+00  0.00000000000E+00  0.49166628444E+03  0.49166628444E+03  0.00000000000E+00 0. -1.
         -1   -1    0    0    0  501 -0.00000000000E+00 -0.00000000000E+00 -0.10735081662E+03  0.10735081662E+03  0.00000000000E+00 0.  1.
         23    2    1    2    0    0  0.10277420222E+03  0.70201850199E+02 -0.13794043298E+02  0.15481478959E+03  0.91030253398E+02 0.  0.
         24    2    1    2    0    0 -0.90236326503E+02 -0.92703355790E+02  0.26967125567E+03  0.31320650412E+03  0.92947411424E+02 0.  0.
        -11    1    4    4    0    0 -0.45627530017E+02 -0.92575579733E+02  0.12658353689E+03  0.16332636429E+03  0.00000000000E+00 0.  1.
         12    1    4    4    0    0 -0.44608796486E+02 -0.12777605693E+00  0.14308771878E+03  0.14988013983E+03  0.00000000000E+00 0. -1.
        -13    1    3    3    0    0  0.40052606236E+02 -0.87850539731E+01 -0.32389616777E+02  0.52253954057E+02  0.00000000000E+00 0.  1.
         13    1    3    3    0    0  0.62721595981E+02  0.78986904172E+02  0.18595573479E+02  0.10256083554E+03  0.00000000000E+00 0. -1.
         21    1    1    2  502  501 -0.12537875714E+02  0.22501505592E+02  0.12843825544E+03  0.13099580734E+03  0.00000000000E+00 0.  1.
<scales pt_clust_5="13000.00000" pt_clust_6="13000.00000" pt_clust_7="13000.00000" pt_clust_8="13000.00000" pt_clust_9="25.75881"></scales>
<clustering>
<clus scale="   25.759">  1  9  2 -1</clus>
<clus scale="   91.030">  7  8 -1 -1</clus>
<clus scale="   92.947">  5  6 -1 -1</clus>
<clus scale="  154.648">  2  7  1 -1</clus>
<clus scale="   25.759">  1  5  2 -1</clus>
</clustering>
</event>
<event>
 9    2  0.3791909E-005  0.1088554E+03  0.7546771E-02  0.1267363E+00
         -1   -1    0    0    0  501 -0.00000000000E+00  0.00000000000E+00  0.24109039486E+03  0.24109039486E+03  0.00000000000E+00 0.  1.
          2   -1    0    0  502    0  0.00000000000E+00 -0.00000000000E+00 -0.44845937365E+03  0.44845937365E+03  0.00000000000E+00 0. -1.
         23    2    1    2    0    0 -0.16726925397E+02 -0.59915202846E+02  0.21186249264E+03  0.23792729091E+03  0.88623125695E+02 0.  0.
         24    2    1    2    0    0  0.24849803258E+02  0.90606329632E+02 -0.39014197522E+03  0.40856292351E+03  0.76719501751E+02 0.  0.
        -11    1    4    4    0    0  0.22429173778E+02  0.35329325787E+02 -0.56204276751E+02  0.70072461224E+02  0.00000000000E+00 0.  1.
         12    1    4    4    0    0  0.24206294798E+01  0.55277003846E+02 -0.33393769847E+03  0.33849046229E+03  0.00000000000E+00 0. -1.
        -11    1    3    3    0    0 -0.47309836335E+02 -0.11067842243E+02  0.74251402174E+02  0.88735497242E+02  0.00000000000E+00 0. -1.
         11    1    3    3    0    0  0.30582910938E+02 -0.48847360604E+02  0.13761109047E+03  0.14919179367E+03  0.00000000000E+00 0.  1.
         21    1    1    2  502  501 -0.81228778610E+01 -0.30691126786E+02 -0.29089496218E+02  0.43059554089E+02  0.00000000000E+00 0.  1.
<scales pt_clust_5="13000.00000" pt_clust_6="13000.00000" pt_clust_7="13000.00000" pt_clust_8="13000.00000" pt_clust_9="31.74786"></scales>
<clustering>
<clus scale="   31.748">  2  9  1 -1</clus>
<clus scale="   76.720">  5  6 -1 -1</clus>
<clus scale="   88.623">  7  8 -1 -1</clus>
<clus scale="   99.405">  2  5  1 -1</clus>
<clus scale="   31.748">  2  5  1 -1</clus>
</clustering>
</event>
<event>
 9    2  0.3791909E-005  0.2029298E+03  0.7546771E-02  0.1148068E+00
         -3   -1    0    0    0  501 -0.00000000000E+00  0.00000000000E+00  0.14730013889E+03  0.14730013889E+03  0.00000000000E+00 0.  1.
          4   -1    0    0  502    0  0.00000000000E+00 -0.00000000000E+00 -0.41557466505E+03  0.41557466505E+03  0.00000000000E+00 0. -1.
         24    2    1    2    0    0  0.65556764514E+02  0.17204414727E+03  0.13052267647E+01  0.20102679252E+03  0.80704335132E+02 0.  0.
         23    2    1    2    0    0 -0.97929091773E+02 -0.15059091828E+03 -0.24105761325E+03  0.31366377065E+03  0.89489979495E+02 0.  0.
        -11    1    3    3    0    0  0.30464913426E+02  0.11873089742E+03  0.36817084789E+02  0.12798685356E+03  0.00000000000E+00 0.  1.
         12    1    3    3    0    0  0.35091851088E+02  0.53313249858E+02 -0.35511858024E+02  0.73039938962E+02  0.00000000000E+00 0. -1.
        -13    1    4    4    0    0 -0.68083475234E+02 -0.45479664101E+02 -0.15220924633E+03  0.17283348667E+03  0.00000000000E+00 0. -1.
         13    1    4    4    0    0 -0.29845616539E+02 -0.10511125418E+03 -0.88848366919E+02  0.14083028398E+03  0.00000000000E+00 0.  1.
         21    1    1    2  502  501  0.32372327259E+02 -0.21453228995E+02 -0.28522139681E+02  0.48184240769E+02  0.00000000000E+00 0. -1.
<scales pt_clust_5="13000.00000" pt_clust_6="13000.00000" pt_clust_7="13000.00000" pt_clust_8="13000.00000" pt_clust_9="38.83566"></scales>
<clustering>
<clus scale="   38.836">  2  9  1 -1</clus>
<clus scale="   80.704">  5  6 -1 -1</clus>
<clus scale="   89.490">  7  8 -1 -1</clus>
<clus scale="  199.211">  1  5  2 -1</clus>
<clus scale="   38.836">  2  5  1 -1</clus>
</clustering>
</event>
<event>
 9    2  0.3791909E-005  0.9723463E+02  0.7546771E-02  0.1308538E+00
         -1   -1    0    0    0  501 -0.00000000000E+00  0.00000000000E+00  0.34200226421E+02  0.34200226421E+02  0.00000000000E+00 0.  1.
          2   -1    0    0  502    0  0.00000000000E+00 -0.00000000000E+00 -0.51197077422E+03  0.51197077422E+03  0.00000000000E+00 0. -1.
         24    2    1    2    0    0 -0.38945866776E+02  0.31269509484E+02 -0.29660678596E+02  0.79934166209E+02  0.54910402570E+02 0.  0.
         23    2    1    2    0    0  0.20415468873E+02 -0.22068801922E+02 -0.42261226830E+03  0.43340154369E+03  0.91279490422E+02 0.  0.
        -11    1    3    3    0    0 -0.37680122257E+02  0.13011810595E+01 -0.32537682147E+02  0.49801460270E+02  0.00000000000E+00 0.  1.
         12    1    3    3    0    0 -0.12657445185E+01  0.29968328425E+02  0.28770035509E+01  0.30132705939E+02  0.00000000000E+00 0. -1.
        -13    1    4    4    0    0  0.12971458534E+02  0.34751123124E+02 -0.20737375367E+03  0.21066507305E+03  0.00000000000E+00 0.  1.
         13    1    4    4    0    0  0.74440103396E+01 -0.56819925045E+02 -0.21523851463E+03  0.22273647064E+03  0.00000000000E+00 0. -1.
         21    1    1    2  502  501  0.18530397903E+02 -0.92007075629E+01 -0.25497600902E+02  0.32835290738E+02  0.00000000000E+00 0.  1.
<scales pt_clust_5="13000.00000" pt_clust_6="13000.00000" pt_clust_7="13000.00000" pt_clust_8="13000.00000" pt_clust_9="20.68885"></scales>
<clustering>
<clus scale="   20.689">  1  9  2 -1</clus>
<clus scale="   54.910">  5  6 -1 -1</clus>
<clus scale="   64.326">  1  5  2 -1</clus>
<clus scale="   91.279">  7  8 -1 -1</clus>
<clus scale="   97.235">  2  5  1 -1</clus>
</clustering>
</event>
<event>
 9    2  0.3791909E-005  0.2283888E+03  0.7546771E-02  0.1172703E+00
         -1   -1    0    0    0  501 -0.00000000000E+00  0.00000000000E+00  0.10968643131E+03  0.10968643131E+03  0.00000000000E+00 0.  1.
          2   -1    0    0  502    0  0.00000000000E+00 -0.00000000000E+00 -0.90192874408E+03  0.90192874408E+03  0.00000000000E+00 0. -1.
         23    2    1    2    0    0  0.10771756929E+03  0.17840002060E+03 -0.77636728822E+02  0.24124959480E+03  0.93510765389E+02 0.  0.
         24    2    1    2    0    0  0.46223933102E+01 -0.29587283684E+01 -0.21988383277E+03  0.23356997210E+03  0.78586966851E+02 0.  0.
        -11    1    4    4    0    0  0.32197032043E+01 -0.34056556761E+02 -0.17870048189E+03  0.18194526038E+03  0.00000000000E+00 0.  1.
         12    1    4    4    0    0  0.14026901059E+01  0.31097828393E+02 -0.41183350880E+02  0.51624711718E+02  0.00000000000E+00 0. -1.
        -11    1    3    3    0    0  0.54795245646E+02  0.77568975095E+02  0.12802330660E+02  0.95829872759E+02  0.00000000000E+00 0. -1.
         11    1    3    3    0    0  0.52922323646E+02  0.10083104550E+03 -0.90439059482E+02  0.14541972204E+03  0.00000000000E+00 0.  1.
         21    1    1    2  502  501 -0.11233996260E+03 -0.17544129223E+03 -0.49472175118E+03  0.53679560850E+03  0.00000000000E+00 0. -1.
<scales pt_clust_5="13000.00000" pt_clust_6="13000.00000" pt_clust_7="13000.00000" pt_clust_8="13000.00000" pt_clust_9="208.36792"></scales>
<clustering>
<clus scale="   78.587">  5  6 -1 -1</clus>
<clus scale="   78.778">  2  5  1 -1</clus>
<clus scale="   93.511">  7  8 -1 -1</clus>
<clus scale="  208.368">  2  9  1 -1</clus>
<clus scale="   78.778">  2  5  1 -1</clus>
</clustering>
</event>
<event>
 9    2  0.3791909E-005  0.9831058E+02  0.7546771E-02  0.1292758E+00
          2   -1    0    0  502    0  0.00000000000E+00  0.00000000000E+00  0.13173643476E+03  0.13173643476E+03  0.00000000000E+00 0. -1.
         -1   -1    0    0    0  501 -0.00000000000E+00 -0.00000000000E+00 -0.23552777439E+03  0.23552777439E+03  0.00000000000E+00 0.  1.
         23    2    1    2    0    0  0.27199719132E+02  0.22312714747E+02 -0.18447391084E+03  0.20930634157E+03  0.92416659101E+02 0.  0.
         24    2    1    2    0    0 -0.74014105772E+01 -0.32062174678E+02  0.96035058711E+01  0.83531672465E+02  0.76174464593E+02 0.  0.
        -13    1    4    4    0    0 -0.22171636645E+02 -0.40838103979E+01 -0.26983940999E+02  0.35162366967E+02  0.00000000000E+00 0.  1.
         14    1    4    4    0    0  0.14770226068E+02 -0.27978364280E+02  0.36587446870E+02  0.48369305498E+02  0.00000000000E+00 0. -1.
        -13    1    3    3    0    0  0.53400956390E+02  0.53875870978E+01 -0.57918358706E+02  0.78963437826E+02  0.00000000000E+00 0. -1.
         13    1    3    3    0    0 -0.26201237257E+02  0.16925127649E+02 -0.12655555214E+03  0.13034290374E+03  0.00000000000E+00 0.  1.
         21    1    1    2  502  501 -0.19798308555E+02  0.97494599311E+01  0.71079065341E+02  0.74426195122E+02  0.00000000000E+00 0. -1.
<scales pt_clust_5="13000.00000" pt_clust_6="13000.00000" pt_clust_7="13000.00000" pt_clust_8="13000.00000" pt_clust_9="22.06864"></scales>
<clustering>
<clus scale="   22.069">  1  9  2 -1</clus>
<clus scale="   76.174">  5  6 -1 -1</clus>
<clus scale="   83.227">  1  5  2 -1</clus>
<clus scale="   92.417">  7  8 -1 -1</clus>
<clus scale="   22.069">  1  5  2 -1</clus>
</clustering>
</event>
<event>
 9    2  0.3791909E-005  0.9590079E+02  0.7546771E-02  0.1295035E+00
         -3   -1    0    0    0  501 -0.00000000000E+00  0.00000000000E+00  0.48992105958E+02  0.48992105958E+02  0.00000000000E+00 0.  1.
          4   -1    0    0  502    0  0.00000000000E+00 -0.00000000000E+00 -0.34935347179E+03  0.34935347179E+03  0.00000000000E+00 0. -1.
         24    2    1    2    0    0 -0.29953075825E+02 -0.26989514646E+01 -0.19494346550E+02  0.88267440716E+02  0.80663749310E+02 0.  0.
         23    2    1    2    0    0  0.27339080609E+02 -0.28498628993E+02 -0.19922256927E+03  0.22263708137E+03  0.91203293316E+02 0.  0.
        -13    1    3    3    0    0 -0.27374679550E+02 -0.40085778715E+02 -0.12776673583E+02  0.50194482999E+02  0.00000000000E+00 0.  1.
         14    1    3    3    0    0 -0.25783962750E+01  0.37386827251E+02 -0.67176729662E+01  0.38072957717E+02  0.00000000000E+00 0. -1.
        -11    1    4    4    0    0 -0.11133373063E+02 -0.37485108342E+02 -0.31180336931E+02  0.50012985857E+02  0.00000000000E+00 0.  1.
         11    1    4    4    0    0  0.38472453672E+02  0.89864793486E+01 -0.16804223234E+03  0.17262409551E+03  0.00000000000E+00 0. -1.
         21    1    1    2  502  501  0.26139952162E+01  0.31197580458E+02 -0.81644450012E+02  0.87441055661E+02  0.00000000000E+00 0.  1.
<scales pt_clust_5="13000.00000" pt_clust_6="13000.00000" pt_clust_7="13000.00000" pt_clust_8="13000.00000" pt_clust_9="31.30690"></scales>
<clustering>
<clus scale="   31.307">  2  9  1 -1</clus>
<clus scale="   80.664">  5  6 -1 -1</clus>
<clus scale="   85.939">  1  5  2 -1</clus>
<clus scale="   91.203">  7  8 -1 -1</clus>
<clus scale="   31.307">  2  5  1 -1</clus>
</clustering>
</event>
<event>
 9    2  0.3791909E-005  0.2004046E+03  0.7546771E-02  0.1152110E+00
          2   -1    0    0  502    0  0.00000000000E+00  0.00000000000E+00  0.13610234128E+04  0.13610234128E+04  0.00000000000E+00 0. -1.
         -1   -1    0    0    0  501 -0.00000000000E+00 -0.00000000000E+00 -0.36508529942E+02  0.36508529942E+02  0.00000000000E+00 0.  1.
         23    2    1    2    0    0 -0.24338764923E+02 -0.17416253828E+03  0.37650583015E+03  0.42880363934E+03  0.10578731380E+03 0.  0.
         24    2    1    2    0    0  0.31819313952E+02  0.15474202903E+03  0.87968601875E+03  0.89730595562E+03  0.79705220081E+02 0.  0.
        -11    1    4    4    0    0  0.14207206087E+02  0.94678341161E+02  0.31679340484E+03  0.33094394440E+03  0.00000000000E+00 0.  1.
         12    1    4    4    0    0  0.17612107865E+02  0.60063687870E+02  0.56289261391E+03  0.56636201121E+03  0.00000000000E+00 0. -1.
        -11    1    3    3    0    0 -0.38522107851E+02 -0.92511580548E+02  0.29895589436E+03  0.31530457038E+03  0.00000000000E+00 0. -1.
         11    1    3    3    0    0  0.14183342928E+02 -0.81650957734E+02  0.77549935788E+02  0.11349906897E+03  0.00000000000E+00 0.  1.
         21    1    1    2  502  501 -0.74805490287E+01  0.19420509251E+02  0.68323033941E+02  0.71422347764E+02  0.00000000000E+00 0. -1.
<scales pt_clust_5="13000.00000" pt_clust_6="13000.00000" pt_clust_7="13000.00000" pt_clust_8="13000.00000" pt_clust_9="20.81141"></scales>
<clustering>
<clus scale="   20.811">  1  9  2 -1</clus>
<clus scale="   79.705">  5  6 -1 -1</clus>
<clus scale="  105.787">  7  8 -1 -1</clus>
<clus scale="  187.947">  1  5  2 -1</clus>
<clus scale="   20.811">  1  5  2 -1</clus>
</clustering>
</event>
<event>
 9    2  0.3791909E-005  0.1113592E+03  0.7546771E-02  0.1262567E+00
         -1   -1    0    0    0  501 -0.00000000000E+00  0.00000000000E+00  0.20217252719E+03  0.20217252719E+03  0.00000000000E+00 0.  1.
          2   -1    0    0  502    0  0.00000000000E+00 -0.00000000000E+00 -0.13669192856E+03  0.13669192856E+03  0.00000000000E+00 0. -1.
         24    2    1    2    0    0  0.24734767466E+02 -0.36256409565E+02  0.14391943757E+03  0.17105498932E+03  0.81367492927E+02 0.  0.
         23    2    1    2    0    0 -0.41973858076E+02  0.49005741347E+02 -0.88991558001E+02  0.14391194385E+03  0.92885858661E+02 0.  0.
        -13    1    3    3    0    0 -0.20180423657E+02 -0.30941573385E+02  0.10526549222E+03  0.11155919646E+03  0.00000000000E+00 0.  1.
         14    1    3    3    0    0  0.44915191122E+02 -0.53148361802E+01  0.38653945352E+02  0.59495792863E+02  0.00000000000E+00 0. -1.
        -13    1    4    4    0    0 -0.44994023945E+02  0.16389434936E+02 -0.98737634030E+02  0.10973694064E+03  0.00000000000E+00 0.  1.
         13    1    4    4    0    0  0.30201658687E+01  0.32616306411E+02  0.97460760291E+01  0.34175003201E+02  0.00000000000E+00 0. -1.
         21    1    1    2  502  501  0.17239090610E+02 -0.12749331782E+02  0.10552719057E+02  0.23897522579E+02  0.00000000000E+00 0. -1.
<scales pt_clust_5="13000.00000" pt_clust_6="13000.00000" pt_clust_7="13000.00000" pt_clust_8="13000.00000" pt_clust_9="21.44136"></scales>
<clustering>
<clus scale="   21.441">  1  9  2 -1</clus>
<clus scale="   81.367">  5  6 -1 -1</clus>
<clus scale="   92.886">  7  8 -1 -1</clus>
<clus scale="  101.950">  1  5  2 -1</clus>
<clus scale="  111.359">  2  5  1 -1</clus>
</clustering>
</event>
<event>
 9    2  0.3791909E-005  0.1256235E+03  0.7546771E-02  0.1237716E+00
          2   -1    0    0  502    0  0.00000000000E+00  0.00000000000E+00  0.36164997819E+03  0.36164997819E+03  0.00000000000E+00 0. -1.
         -1   -1    0    0    0  501 -0.00000000000E+00 -0.00000000000E+00 -0.66900358288E+02  0.66900358288E+02  0.00000000000E+00 0.  1.
         23    2    1    2    0    0  0.40758187454E+02 -0.67321307567E+02  0.37633463163E+02  0.12689200284E+03  0.92151584565E+02 0.  0.
         24    2    1    2    0    0 -0.61510060422E+02  0.83085645432E+02  0.19849076376E+03  0.23750156251E+03  0.79509099387E+02 0.  0.
        -13    1    4    4    0    0 -0.44166263355E+02 -0.98783535053E+00  0.58880313178E+02  0.73610637257E+02  0.00000000000E+00 0.  1.
         14    1    4    4    0    0 -0.17343797067E+02  0.84073480783E+02  0.13961045058E+03  0.16389092525E+03  0.00000000000E+00 0. -1.
        -11    1    3    3    0    0  0.42037738789E+02 -0.28407541193E+02  0.62646584074E+02  0.80614852076E+02  0.00000000000E+00 0. -1.
         11    1    3    3    0    0 -0.12795513352E+01 -0.38913766374E+02 -0.25013120911E+02  0.46277150763E+02  0.00000000000E+00 0.  1.
         21    1    1    2  502  501  0.20751872968E+02 -0.15764337865E+02  0.58625392978E+02  0.64156771131E+02  0.00000000000E+00 0.  1.
<scales pt_clust_5="13000.00000" pt_clust_6="13000.00000" pt_clust_7="13000.00000" pt_clust_8="13000.00000" pt_clust_9="26.06059"></scales>
<clustering>
<clus scale="   26.061">  1  9  2 -1</clus>
<clus scale="   79.509">  5  6 -1 -1</clus>
<clus scale="   92.152">  7  8 -1 -1</clus>
<clus scale="  116.666">  1  5  2 -1</clus>
<clus scale="   26.061">  1  5  2 -1</clus>
</clustering>
</event>
<event>
 9    2  0.3791909E-005  0.1004274E+03  0.7546771E-02  0.1285184E+00
         -1   -1    0    0    0  501 -0.00000000000E+00  0.00000000000E+00  0.46105013970E+02  0.46105013970E+02  0.00000000000E+00 0.  1.
          2   -1    0    0  502    0  0.00000000000E+00 -0.00000000000E+00 -0.47706786543E+03  0.47706786543E+03  0.00000000000E+00 0. -1.
         23    2    1    2    0    0 -0.21580021158E+02 -0.47649443834E+02 -0.82915747941E+02  0.13436354292E+03  0.91882390029E+02 0.  0.
         24    2    1    2    0    0  0.51872176767E+02 -0.15025007539E+02 -0.14666504123E+03  0.17573555452E+03  0.80348473736E+02 0.  0.
        -13    1    4    4    0    0  0.34198893020E+02  0.64772709736E+00 -0.80728776449E+01  0.35144774685E+02  0.00000000000E+00 0.  1.
         14    1    4    4    0    0  0.17673283747E+02 -0.15672734636E+02 -0.13859216358E+03  0.14059077984E+03  0.00000000000E+00 0. -1.
        -11    1    3    3    0    0  0.26082370337E+02 -0.28668717310E+02 -0.23232952229E+01  0.38827607386E+02  0.00000000000E+00 0. -1.
         11    1    3    3    0    0 -0.47662391496E+02 -0.18980726524E+02 -0.80592452718E+02  0.95535935530E+02  0.00000000000E+00 0.  1.
         21    1    1    2  502  501 -0.30292155609E+02  0.62674451372E+02 -0.20138206229E+03  0.21307378196E+03  0.00000000000E+00 0. -1.
<scales pt_clust_5="13000.00000" pt_clust_6="13000.00000" pt_clust_7="13000.00000" pt_clust_8="13000.00000" pt_clust_9="69.61107"></scales>
<clustering>
<clus scale="   69.611">  2  9  1 -1</clus>
<clus scale="   80.348">  5  6 -1 -1</clus>
<clus scale="   89.995">  2  5  1 -1</clus>
<clus scale="   91.882">  7  8 -1 -1</clus>
<clus scale="   69.611">  2  5  1 -1</clus>
</clustering>
</event>
<event>
 9    2  0.3791909E-005  0.1048088E+03  0.7546771E-02  0.1277573E+00
          2   -1    0    0  502    0  0.00000000000E+00  0.00000000000E+00  0.10319266723E+04  0.10319266723E+04  0.00000000000E+00 0. -1.
         -1   -1    0    0    0  501 -0.00000000000E+00 -0.00000000000E+00 -0.17238084961E+02  0.17238084961E+02  0.00000000000E+00 0.  1.
         23    2    1    2    0    0  0.49481595747E+02 -0.40875598771E+02  0.29124936421E+03  0.31199561286E+03  0.91628747665E+02 0.  0.
         24    2    1    2    0    0  0.31291406150E+01  0.41312246473E+02  0.51281805005E+03  0.52007617171E+03  0.76028801759E+02 0.  0.
        -13    1    4    4    0    0 -0.33431523865E+02  0.29049040959E+01  0.19963292896E+03  0.20243372145E+03  0.00000000000E+00 0.  1.
         14    1    4    4    0    0  0.36560664480E+02  0.38407342377E+02  0.31318512109E+03  0.31764245026E+03  0.00000000000E+00 0. -1.
        -11    1    3    3    0    0 -0.36249785341E+01 -0.54930955565E+02  0.11725394472E+03  0.12953392567E+03  0.00000000000E+00 0.  1.
         11    1    3    3    0    0  0.53106574281E+02  0.14055356794E+02  0.17399541949E+03  0.18246168718E+03  0.00000000000E+00 0. -1.
         21    1    1    2  502  501 -0.52610736362E+02 -0.43664770193E+00  0.21062117312E+03  0.21709297273E+03  0.00000000000E+00 0.  1.
<scales pt_clust_5="13000.00000" pt_clust_6="13000.00000" pt_clust_7="13000.00000" pt_clust_8="13000.00000" pt_clust_9="52.61255"></scales>
<clustering>
<clus scale="   52.613">  1  9  2 -1</clus>
<clus scale="   76.029">  5  6 -1 -1</clus>
<clus scale="   91.485">  1  5  2 -1</clus>
<clus scale="   91.629">  7  8 -1 -1</clus>
<clus scale="   52.613">  1  5  2 -1</clus>
</clustering>
</event>
<event>
 9    2  0.3791909E-005  0.1002174E+03  0.7546771E-02  0.1285764E+00
          2   -1    0    0  502    0  0.00000000000E+00  0.00000000000E+00  0.46064817510E+03  0.46064817510E+03  0.00000000000E+00 0. -1.
         -1   -1    0    0    0  501 -0.00000000000E+00 -0.00000000000E+00 -0.87289506221E+02  0.87289506221E+02  0.00000000000E+00 0.  1.
         23    2    1    2    0    0 -0.42832533081E+01 -0.34485138039E+02 -0.35988377233E+02  0.10432451597E+03  0.91547093516E+02 0.  0.
         24    2    1    2    0    0  0.21259131485E+02  0.79826706823E+02  0.21988047579E+03  0.24805851937E+03  0.79758081730E+02 0.  0.
        -13    1    4    4    0    0 -0.20409005345E+02  0.29564652472E+02  0.28526338676E+02  0.45873174877E+02  0.00000000000E+00 0.  1.
         14    1    4    4    0    0  0.41668136830E+02  0.50262054351E+02  0.19135413712E+03  0.20218534449E+03  0.00000000000E+00 0. -1.
        -11    1    3    3    0    0 -0.26508416213E+02  0.18919252517E+02  0.56478363893E+01  0.33053476395E+02  0.00000000000E+00 0. -1.
         11    1    3    3    0    0  0.22225162905E+02 -0.53404390556E+02 -0.41636213622E+02  0.71271039571E+02  0.00000000000E+00 0.  1.
         21    1    1    2  502  501 -0.16975878177E+02 -0.45341568784E+02  0.18946657032E+03  0.19555464599E+03  0.00000000000E+00 0.  1.
<scales pt_clust_5="13000.00000" pt_clust_6="13000.00000" pt_clust_7="13000.00000" pt_clust_8="13000.00000" pt_clust_9="48.41527"></scales>
<clustering>
<clus scale="   48.415">  1  9  2 -1</clus>
<clus scale="   79.758">  5  6 -1 -1</clus>
<clus scale="   89.577">  1  5  2 -1</clus>
<clus scale="   91.547">  7  8 -1 -1</clus>
<clus scale="   48.415">  1  5  2 -1</clus>
</clustering>
</event>
<event>
 9    2  0.3791909E-005  0.9974073E+02  0.7546771E-02  0.1286576E+00
          2   -1    0    0  502    0  0.00000000000E+00  0.00000000000E+00  0.15328050944E+03  0.15328050944E+03  0.00000000000E+00 0. -1.
         -1   -1    0    0    0  501 -0.00000000000E+00 -0.00000000000E+00 -0.10850213709E+03  0.10850213709E+03  0.00000000000E+00 0.  1.
         24    2    1    2    0    0  0.37286576703E+02  0.19290539603E+02 -0.50138858048E+02  0.10307063902E+03  0.79669553918E+02 0.  0.
         23    2    1    2    0    0 -0.41829805603E+02  0.61687321622E+01  0.82956332306E+02  0.13021852527E+03  0.91034748088E+02 0.  0.
        -13    1    3    3    0    0  0.50780599400E+02 -0.12601272357E+02 -0.42976670983E+02  0.67708607940E+02  0.00000000000E+00 0.  1.
         14    1    3    3    0    0 -0.13494022697E+02  0.31891811959E+02 -0.71621870649E+01  0.35362031081E+02  0.00000000000E+00 0. -1.
        -11    1    4    4    0    0  0.72218309180E+01  0.26101912125E+02  0.70927595393E+02  0.75922252645E+02  0.00000000000E+00 0. -1.
         11    1    4    4    0    0 -0.49051636521E+02 -0.19933179962E+02  0.12028736913E+02  0.54296272621E+02  0.00000000000E+00 0.  1.
         21    1    1    2  502  501  0.45432289006E+01 -0.25459271765E+02  0.11960898092E+02  0.28493482251E+02  0.00000000000E+00 0. -1.
<scales pt_clust_5="13000.00000" pt_clust_6="13000.00000" pt_clust_7="13000.00000" pt_clust_8="13000.00000" pt_clust_9="25.86147"></scales>
<clustering>
<clus scale="   25.861">  1  9  2 -1</clus>
<clus scale="   79.670">  5  6 -1 -1</clus>
<clus scale="   89.488">  2  5  1 -1</clus>
<clus scale="   91.035">  7  8 -1 -1</clus>
<clus scale="   25.861">  1  5  2 -1</clus>
</clustering>
</event>
<event>
 9    2  0.3791909E-005  0.1011668E+03  0.7546771E-02  0.1283447E+00
          2   -1    0    0  502    0  0.00000000000E+00  0.00000000000E+00  0.21161794761E+03  0.21161794761E+03  0.00000000000E+00 0. -1.
         -1   -1    0    0    0  501 -0.00000000000E+00 -0.00000000000E+00 -0.26286607173E+03  0.26286607173E+03  0.00000000000E+00 0.  1.
         24    2    1    2    0    0  0.30630089817E+02  0.29815868710E+02 -0.23018197966E+03  0.24776781873E+03  0.81104622618E+02 0.  0.
         23    2    1    2    0    0  0.92658799690E+01 -0.28221886696E+02  0.14407296711E+03  0.17371138267E+03  0.92392062419E+02 0.  0.
        -13    1    3    3    0    0  0.18489134532E+02  0.53340471380E+02 -0.19905612654E+03  0.20690673139E+03  0.00000000000E+00 0.  1.
         14    1    3    3    0    0  0.12140955285E+02 -0.23524602670E+02 -0.31125853115E+02  0.40861087334E+02  0.00000000000E+00 0. -1.
        -13    1    4    4    0    0  0.38766292275E+02 -0.44849803857E+02  0.11367995113E+03  0.12820866434E+03  0.00000000000E+00 0. -1.
         13    1    4    4    0    0 -0.29500412306E+02  0.16627917161E+02  0.30393015976E+02  0.45502718331E+02  0.00000000000E+00 0.  1.
         21    1    1    2  502  501 -0.39895969786E+02 -0.15939820135E+01  0.34860888424E+02  0.53004817947E+02  0.00000000000E+00 0. -1.
<scales pt_clust_5="13000.00000" pt_clust_6="13000.00000" pt_clust_7="13000.00000" pt_clust_8="13000.00000" pt_clust_9="39.92780"></scales>
<clustering>
<clus scale="   39.928">  1  9  2 -1</clus>
<clus scale="   81.105">  5  6 -1 -1</clus>
<clus scale="   90.975">  2  5  1 -1</clus>
<clus scale="   92.392">  7  8 -1 -1</clus>
<clus scale="   39.928">  1  5  2 -1</clus>
</clustering>
</event>
<event>
 9    2  0.3791909E-005  0.8952767E+02  0.7546771E-02  0.1304854E+00
         -1   -1    0    0    0  501 -0.00000000000E+00  0.00000000000E+00  0.10058623058E+03  0.10058623058E+03  0.00000000000E+00 0.  1.
          2   -1    0    0  502    0  0.00000000000E+00 -0.00000000000E+00 -0.56486943178E+03  0.56486943178E+03  0.00000000000E+00 0. -1.
         23    2    1    2    0    0 -0.22887307387E+02  0.72704498457E+01  0.36538498796E+02  0.92735572474E+02  0.81781026084E+02 0.  0.
         24    2    1    2    0    0  0.93470387496E+02  0.18600574409E+02 -0.86607780806E+02  0.15173974362E+03  0.80258005152E+02 0.  0.
        -11    1    4    4    0    0  0.98195906635E+02 -0.24650191413E+01 -0.52508379575E+02  0.11138061916E+03  0.00000000000E+00 0.  1.
         12    1    4    4    0    0 -0.47255191392E+01  0.21065593551E+02 -0.34099401232E+02  0.40359124459E+02  0.00000000000E+00 0. -1.
        -13    1    3    3    0    0 -0.49685800683E+02 -0.13182931833E+02  0.19680851005E+02  0.55043658831E+02  0.00000000000E+00 0. -1.
         13    1    3    3    0    0  0.26798493296E+02  0.20453381678E+02  0.16857647791E+02  0.37691913643E+02  0.00000000000E+00 0.  1.
         21    1    1    2  502  501 -0.70583080108E+02 -0.25871024255E+02 -0.41421391919E+03  0.42098034627E+03  0.00000000000E+00 0. -1.
<scales pt_clust_5="13000.00000" pt_clust_6="13000.00000" pt_clust_7="13000.00000" pt_clust_8="13000.00000" pt_clust_9="75.17500"></scales>
<clustering>
<clus scale="   75.175">  2  9  1 -1</clus>
<clus scale="   80.258">  5  6 -1 -1</clus>
<clus scale="   81.781">  7  8 -1 -1</clus>
<clus scale="   88.139">  2  5  1 -1</clus>
<clus scale="   75.175">  2  5  1 -1</clus>
</clustering>
</event>
<event>
 9    2  0.3791909E-005  0.1101407E+03  0.7546771E-02  0.1263501E+00
          2   -1    0    0  502    0  0.00000000000E+00  0.00000000000E+00  0.63251846666E+03  0.63251846666E+03  0.00000000000E+00 0. -1.
         -1   -1    0    0    0  501 -0.00000000000E+00 -0.00000000000E+00 -0.56284956824E+02  0.56284956824E+02  0.00000000000E+00 0.  1.
         23    2    1    2    0    0  0.15217243422E+02  0.67969935137E+02  0.19165971063E+02  0.11419278331E+03  0.88437439655E+02 0.  0.
         24    2    1    2    0    0  0.23815120696E+02 -0.48908483580E+02  0.35596924684E+03  0.36887443188E+03  0.79969006890E+02 0.  0.
        -13    1    4    4    0    0  0.41254613854E+02 -0.48603684561E+02  0.16154493963E+03  0.17366930885E+03  0.00000000000E+00 0.  1.
         14    1    4    4    0    0 -0.17439493158E+02 -0.30479901899E+00  0.19442430721E+03  0.19520512304E+03  0.00000000000E+00 0. -1.
        -11    1    3    3    0    0  0.22890023329E+02  0.21789941668E+02  0.49270835932E+02  0.58535203077E+02  0.00000000000E+00 0. -1.
         11    1    3    3    0    0 -0.76727799067E+01  0.46179993469E+02 -0.30104864869E+02  0.55657580230E+02  0.00000000000E+00 0.  1.
         21    1    1    2  502  501 -0.39032364118E+02 -0.19061451557E+02  0.20109829193E+03  0.20573620829E+03  0.00000000000E+00 0. -1.
<scales pt_clust_5="13000.00000" pt_clust_6="13000.00000" pt_clust_7="13000.00000" pt_clust_8="13000.00000" pt_clust_9="43.43805"></scales>
<clustering>
<clus scale="   43.438">  1  9  2 -1</clus>
<clus scale="   79.969">  5  6 -1 -1</clus>
<clus scale="   88.437">  7  8 -1 -1</clus>
<clus scale="  103.464">  1  5  2 -1</clus>
<clus scale="   43.438">  1  5  2 -1</clus>
</clustering>
</event>
<event>
 9    2  0.3791909E-005  0.9837774E+02  0.7546771E-02  0.1285127E+00
          2   -1    0    0  502    0  0.00000000000E+00  0.00000000000E+00  0.34592817019E+03  0.34592817019E+03  0.00000000000E+00 0. -1.
         -1   -1    0    0    0  501 -0.00000000000E+00 -0.00000000000E+00 -0.60597110124E+02  0.60597110124E+02  0.00000000000E+00 0.  1.
         23    2    1    2    0    0  0.11141210735E+02 -0.31608434970E+01  0.33056859613E+02  0.98890535905E+02  0.92479536200E+02 0.  0.
         24    2    1    2    0    0  0.49257782514E+02 -0.87833724785E+01  0.20732954856E+03  0.23140663664E+03  0.89777575175E+02 0.  0.
        -11    1    4    4    0    0  0.56815696393E+02 -0.16145847501E+02  0.61768903798E+02  0.85464081488E+02  0.00000000000E+00 0.  1.
         12    1    4    4    0    0 -0.75579138792E+01  0.73624750226E+01  0.14556064476E+03  0.14594255515E+03  0.00000000000E+00 0. -1.
        -11    1    3    3    0    0  0.28888792804E+02  0.32523709847E+02  0.39209691080E+02  0.58564101005E+02  0.00000000000E+00 0.  1.
         11    1    3    3    0    0 -0.17747582069E+02 -0.35684553345E+02 -0.61528314669E+01  0.40326434900E+02  0.00000000000E+00 0. -1.
         21    1    1    2  502  501 -0.60398993249E+02  0.11944215976E+02  0.44944651900E+02  0.76228107777E+02  0.00000000000E+00 0. -1.
<scales pt_clust_5="13000.00000" pt_clust_6="13000.00000" pt_clust_7="13000.00000" pt_clust_8="13000.00000" pt_clust_9="61.56868"></scales>
<clustering>
<clus scale="   61.569">  2  9  1 -1</clus>
<clus scale="   89.778">  5  6 -1 -1</clus>
<clus scale="   92.480">  7  8 -1 -1</clus>
<clus scale="   95.842">  1  5  2 -1</clus>
<clus scale="   95.842">  1  5  2 -1</clus>
</clustering>
</event>
<event>
 9    2  0.3791909E-005  0.1530728E+03  0.7546771E-02  0.1198521E+00
         -1   -1    0    0    0  501 -0.00000000000E+00  0.00000000000E+00  0.73036199710E+02  0.73036199710E+02  0.00000000000E+00 0.  1.
          2   -1    0    0  502    0  0.00000000000E+00 -0.00000000000E+00 -0.10234181151E+04  0.10234181151E+04  0.00000000000E+00 0. -1.
         23    2    1    2    0    0 -0.84818061413E+02  0.90180997683E+02 -0.23574243759E+02  0.15565673847E+03  0.91359506219E+02 0.  0.
         24    2    1    2    0    0  0.64798057577E+02 -0.95002894005E+02 -0.82473529682E+03  0.83666870936E+03  0.81251961688E+02 0.  0.
        -11    1    4    4    0    0  0.81523902706E+02 -0.90397862603E+02 -0.67044864380E+03  0.68140979172E+03  0.00000000000E+00 0.  1.
         12    1    4    4    0    0 -0.16725845130E+02 -0.46050314022E+01 -0.15428665302E+03  0.15525891765E+03  0.00000000000E+00 0. -1.
        -11    1    3    3    0    0 -0.77214165687E+02  0.15537825420E+02 -0.97303845691E+01  0.79360769813E+02  0.00000000000E+00 0.  1.
         11    1    3    3    0    0 -0.76038957264E+01  0.74643172263E+02 -0.13843859189E+02  0.76295968654E+02  0.00000000000E+00 0. -1.
         21    1    1    2  502  501  0.20020003836E+02  0.48218963223E+01 -0.10207237480E+03  0.10412886697E+03  0.00000000000E+00 0. -1.
<scales pt_clust_5="13000.00000" pt_clust_6="13000.00000" pt_clust_7="13000.00000" pt_clust_8="13000.00000" pt_clust_9="20.59250"></scales>
<clustering>
<clus scale="   20.593">  2  9  1 -1</clus>
<clus scale="   81.252">  5  6 -1 -1</clus>
<clus scale="   91.360">  7  8 -1 -1</clus>
<clus scale="  147.264">  2  5  1 -1</clus>
<clus scale="   20.593">  2  5  1 -1</clus>
</clustering>
</event>
<event>
 9    2  0.9488035E-005  0.2860758E+03  0.7546771E-02  0.1092894E+00
          2   -1    0    0  502    0  0.00000000000E+00  0.00000000000E+00  0.15470290363E+04  0.15470290363E+04  0.00000000000E+00 0. -1.
         -1   -1    0    0    0  501 -0.00000000000E+00 -0.00000000000E+00 -0.17923247476E+03  0.17923247476E+03  0.00000000000E+00 0.  1.
         24    2    1    2    0    0 -0.72957109365E+02  0.27885180563E+03 -0.21692893718E+02  0.29898944242E+03  0.76439752301E+02 0.  0.
         23    2    1    2    0    0  0.83045088006E+02 -0.25744182184E+03  0.13599086149E+04  0.13893882880E+04  0.88744552914E+02 0.  0.
        -13    1    3    3    0    0 -0.74285568645E+02  0.28118281037E+03 -0.27961188847E+02  0.29217109138E+03  0.00000000000E+00 0.  1.
         14    1    3    3    0    0  0.13284592798E+01 -0.23310047373E+01  0.62682951287E+01  0.68183510444E+01  0.00000000000E+00 0. -1.
        -13    1    4    4    0    0  0.94996497979E+02 -0.15743549952E+03  0.86121819351E+03  0.88062877989E+03  0.00000000000E+00 0.  1.
         13    1    4    4    0    0 -0.11951409973E+02 -0.10000632232E+03  0.49869042136E+03  0.50875950808E+03  0.00000000000E+00 0. -1.
         21    1    1    2  502  501 -0.10087978641E+02 -0.21409983794E+02  0.29580840389E+02  0.37883780663E+02  0.00000000000E+00 0. -1.
<scales pt_clust_5="13000.00000" pt_clust_6="13000.00000" pt_clust_7="13000.00000" pt_clust_8="13000.00000" pt_clust_9="23.66759"></scales>
<clustering>
<clus scale="   23.668">  2  9  1 -1</clus>
<clus scale="   76.440">  5  6 -1 -1</clus>
<clus scale="   88.745">  7  8 -1 -1</clus>
<clus scale="  282.501">  2  5  1 -1</clus>
<clus scale="  286.076">  1  5  2 -1</clus>
</clustering>
</event>
<event>
 9    2  0.3791909E-005  0.1548355E+03  0.7546771E-02  0.1196837E+00
         -1   -1    0    0    0  501 -0.00000000000E+00  0.00000000000E+00  0.41616516764E+02  0.41616516764E+02  0.00000000000E+00 0.  1.
          2   -1    0    0  502    0  0.00000000000E+00 -0.00000000000E+00 -0.69361849005E+03  0.69361849005E+03  0.00000000000E+00 0. -1.
         24    2    1    2    0    0 -0.10650807774E+03  0.38152945763E+02 -0.22157843812E+03  0.26153205039E+03  0.80637406019E+02 0.  0.
         23    2    1    2    0    0  0.13153266644E+03 -0.44462212808E+02 -0.32916011600E+03  0.36920263608E+03  0.93201254367E+02 0.  0.
        -11    1    3    3    0    0 -0.43952092285E+02  0.45561324225E+02 -0.56533796287E+02  0.84874559227E+02  0.00000000000E+00 0.  1.
         12    1    3    3    0    0 -0.62555985452E+02 -0.74083784619E+01 -0.16504464183E+03  0.17665749116E+03  0.00000000000E+00 0. -1.
        -11    1    4    4    0    0  0.10065464888E+03 -0.69524132856E+02 -0.28278491918E+03  0.30811081432E+03  0.00000000000E+00 0. -1.
         11    1    4    4    0    0  0.30878017558E+02  0.25061920049E+02 -0.46375196819E+02  0.61091821751E+02  0.00000000000E+00 0.  1.
         21    1    1    2  502  501 -0.25024588699E+02  0.63092670446E+01 -0.10126341918E+03  0.10450032035E+03  0.00000000000E+00 0.  1.
<scales pt_clust_5="13000.00000" pt_clust_6="13000.00000" pt_clust_7="13000.00000" pt_clust_8="13000.00000" pt_clust_9="25.80769"></scales>
<clustering>
<clus scale="   25.808">  2  9  1 -1</clus>
<clus scale="   80.637">  5  6 -1 -1</clus>
<clus scale="   93.201">  7  8 -1 -1</clus>
<clus scale="  147.614">  1  5  2 -1</clus>
<clus scale="   25.808">  2  5  1 -1</clus>
</clustering>
</event>
<event>
 9    2  0.3791909E-005  0.1099725E+03  0.7546771E-02  0.1265151E+00
          2   -1    0    0  502    0  0.00000000000E+00  0.00000000000E+00  0.41635339438E+03  0.41635339438E+03  0.00000000000E+00 0. -1.
         -1   -1    0    0    0  501 -0.00000000000E+00 -0.00000000000E+00 -0.43656493846E+02  0.43656493846E+02  0.00000000000E+00 0.  1.
         24    2    1    2    0    0  0.57686456921E+01  0.59467867132E+02  0.78487868178E+02  0.12721676010E+03  0.80337127809E+02 0.  0.
         23    2    1    2    0    0  0.29087134725E+02 -0.61909172371E+02  0.17948380449E+03  0.21286496918E+03  0.91751032686E+02 0.  0.
        -13    1    3    3    0    0 -0.37325178786E+02  0.27930603201E+02  0.33765075416E+02  0.57561861371E+02  0.00000000000E+00 0.  1.
         14    1    3    3    0    0  0.43093824479E+02  0.31537263930E+02  0.44722792763E+02  0.69654898728E+02  0.00000000000E+00 0. -1.
        -13    1    4    4    0    0  0.25134964774E+02 -0.80040767948E+01  0.10226361988E+01  0.26398437157E+02  0.00000000000E+00 0.  1.
         13    1    4    4    0    0  0.39521699513E+01 -0.53905095576E+02  0.17846116829E+03  0.18646653202E+03  0.00000000000E+00 0. -1.
         21    1    1    2  502  501 -0.34855780417E+02  0.24413052395E+01  0.11472522787E+03  0.11992815895E+03  0.00000000000E+00 0.  1.
<scales pt_clust_5="13000.00000" pt_clust_6="13000.00000" pt_clust_7="13000.00000" pt_clust_8="13000.00000" pt_clust_9="34.94117"></scales>
<clustering>
<clus scale="   34.941">  1  9  2 -1</clus>
<clus scale="   80.337">  5  6 -1 -1</clus>
<clus scale="   91.751">  7  8 -1 -1</clus>
<clus scale="  100.647">  2  5  1 -1</clus>
<clus scale="   34.941">  1  5  2 -1</clus>
</clustering>
</event>
<event>
 9    2  0.3791909E-005  0.1625353E+03  0.7546771E-02  0.1186926E+00
          2   -1    0    0  502    0  0.00000000000E+00  0.00000000000E+00  0.48966353801E+03  0.48966353801E+03  0.00000000000E+00 0. -1.
         -1   -1    0    0    0  501 -0.00000000000E+00 -0.00000000000E+00 -0.79121728001E+02  0.79121728001E+02  0.00000000000E+00 0.  1.
         23    2    1    2    0    0 -0.14553875145E+03  0.66353626588E+01  0.64138909681E+02  0.18156838320E+03  0.87336829767E+02 0.  0.
         24    2    1    2    0    0  0.11606846855E+03  0.54733517801E+01  0.28676509827E+03  0.31960189946E+03  0.80058138733E+02 0.  0.
        -13    1    4    4    0    0  0.23536286672E+02 -0.25910287436E+02  0.13209182653E+03  0.13665119985E+03  0.00000000000E+00 0.  1.
         14    1    4    4    0    0  0.92532181880E+02  0.31383639216E+02  0.15467327174E+03  0.18295069961E+03  0.00000000000E+00 0. -1.
        -13    1    3    3    0    0 -0.99256820442E+02  0.42684844921E+02  0.24564310671E+02  0.11080305839E+03  0.00000000000E+00 0.  1.
         13    1    3    3    0    0 -0.46281931006E+02 -0.36049482263E+02  0.39574599011E+02  0.70765324813E+02  0.00000000000E+00 0. -1.
         21    1    1    2  502  501  0.29470282897E+02 -0.12108714439E+02  0.59637802059E+02  0.67614983353E+02  0.00000000000E+00 0.  1.
<scales pt_clust_5="13000.00000" pt_clust_6="13000.00000" pt_clust_7="13000.00000" pt_clust_8="13000.00000" pt_clust_9="31.86092"></scales>
<clustering>
<clus scale="   31.861">  1  9  2 -1</clus>
<clus scale="   80.058">  5  6 -1 -1</clus>
<clus scale="   87.337">  7  8 -1 -1</clus>
<clus scale="  158.743">  1  5  2 -1</clus>
<clus scale="   31.861">  1  5  2 -1</clus>
</clustering>
</event>
<event>
 9    2  0.3791909E-005  0.1036460E+03  0.7546771E-02  0.1275237E+00
          2   -1    0    0  502    0  0.00000000000E+00  0.00000000000E+00  0.59941759268E+03  0.59941759268E+03  0.00000000000E+00 0. -1.
         -1   -1    0    0    0  501 -0.00000000000E+00 -0.00000000000E+00 -0.39755724153E+02  0.39755724153E+02  0.00000000000E+00 0.  1.
         23    2    1    2    0    0  0.34458595512E+02  0.39330580777E+02  0.64331980450E+02  0.11901421247E+03  0.85390220009E+02 0.  0.
         24    2    1    2    0    0 -0.65588010026E+02 -0.46104209549E+02  0.27138707123E+03  0.29396160722E+03  0.79593334468E+02 0.  0.
        -11    1    4    4    0    0 -0.50786898333E+02  0.12483611664E+02  0.11631981092E+03  0.12753606555E+03  0.00000000000E+00 0.  1.
         12    1    4    4    0    0 -0.14801111693E+02 -0.58587821213E+02  0.15506726030E+03  0.16642554167E+03  0.00000000000E+00 0. -1.
        -11    1    3    3    0    0 -0.17760362329E+02  0.44189321908E+02  0.28570759720E+02  0.55537509412E+02  0.00000000000E+00 0.  1.
         11    1    3    3    0    0  0.52218957841E+02 -0.48587411311E+01  0.35761220730E+02  0.63476703061E+02  0.00000000000E+00 0. -1.
         21    1    1    2  502  501  0.31129414514E+02  0.67736287725E+01  0.22394281685E+03  0.22619749714E+03  0.00000000000E+00 0. -1.
<scales pt_clust_5="13000.00000" pt_clust_6="13000.00000" pt_clust_7="13000.00000" pt_clust_8="13000.00000" pt_clust_9="31.85785"></scales>
<clustering>
<clus scale="   31.858">  1  9  2 -1</clus>
<clus scale="   79.593">  5  6 -1 -1</clus>
<clus scale="   85.390">  7  8 -1 -1</clus>
<clus scale="   98.925">  1  5  2 -1</clus>
<clus scale="   31.858">  1  5  2 -1</clus>
</clustering>
</event>
<event>
 9    2  0.3791909E-005  0.1112413E+03  0.7546771E-02  0.1260479E+00
          2   -1    0    0  502    0  0.00000000000E+00  0.00000000000E+00  0.72322956020E+03  0.72322956020E+03  0.00000000000E+00 0. -1.
         -1   -1    0    0    0  501 -0.00000000000E+00 -0.00000000000E+00 -0.32434549939E+02  0.32434549939E+02  0.00000000000E+00 0.  1.
         23    2    1    2    0    0  0.64240587717E+02  0.26643577345E+02  0.17018096216E+03  0.20455400984E+03  0.89688626569E+02 0.  0.
         24    2    1    2    0    0 -0.67522169477E+02  0.24828347131E+02  0.22068386053E+03  0.24677764195E+03  0.83798258195E+02 0.  0.
        -13    1    4    4    0    0  0.19773065517E+02  0.44849863188E+01  0.31949452318E+02  0.37839882739E+02  0.00000000000E+00 0.  1.
         14    1    4    4    0    0 -0.87295234994E+02  0.20343360813E+02  0.18873440822E+03  0.20893775922E+03  0.00000000000E+00 0. -1.
        -13    1    3    3    0    0  0.80404689047E+01  0.20058062877E+02 -0.34970421710E+01  0.21890736181E+02  0.00000000000E+00 0.  1.
         13    1    3    3    0    0  0.56200118812E+02  0.65855144678E+01  0.17367800433E+03  0.18266327366E+03  0.00000000000E+00 0. -1.
         21    1    1    2  502  501  0.32815817602E+01 -0.51471924476E+02  0.29993018756E+03  0.30433245834E+03  0.00000000000E+00 0. -1.
<scales pt_clust_5="13000.00000" pt_clust_6="13000.00000" pt_clust_7="13000.00000" pt_clust_8="13000.00000" pt_clust_9="51.57643"></scales>
<clustering>
<clus scale="   51.576">  1  9  2 -1</clus>
<clus scale="   83.798">  5  6 -1 -1</clus>
<clus scale="   89.689">  7  8 -1 -1</clus>
<clus scale="  106.549">  1  5  2 -1</clus>
<clus scale="   51.576">  1  5  2 -1</clus>
</clustering>
</event>
<event>
 9    2  0.3791909E-005  0.9496752E+02  0.7546771E-02  0.1295399E+00
         -1   -1    0    0    0  501 -0.00000000000E+00  0.00000000000E+00  0.21834240934E+03  0.21834240934E+03  0.00000000000E+00 0.  1.
          2   -1    0    0  502    0  0.00000000000E+00 -0.00000000000E+00 -0.17191213961E+03  0.17191213961E+03  0.00000000000E+00 0. -1.
         23    2    1    2    0    0 -0.22184693127E+01  0.34066685647E+02  0.18245467107E+03  0.20597378318E+03  0.89275033936E+02 0.  0.
         24    2    1    2    0    0  0.17836985948E+02 -0.18614060922E+02 -0.58627913540E+02  0.10382619476E+03  0.81719062286E+02 0.  0.
        -11    1    4    4    0    0  0.21634086848E+02  0.15023517903E+02  0.92985649491E+01  0.27932116175E+02  0.00000000000E+00 0.  1.
         12    1    4    4    0    0 -0.37971009003E+01 -0.33637578825E+02 -0.67926478489E+02  0.75894078586E+02  0.00000000000E+00 0. -1.
        -13    1    3    3    0    0 -0.18143674974E+01 -0.30692306929E+02  0.62563901140E+02  0.69710482424E+02  0.00000000000E+00 0. -1.
         13    1    3    3    0    0 -0.40410181523E+00  0.64758992576E+02  0.11989076993E+03  0.13626330075E+03  0.00000000000E+00 0.  1.
         21    1    1    2  502  501 -0.15618516635E+02 -0.15452624725E+02 -0.77396487797E+02  0.80454571008E+02  0.00000000000E+00 0. -1.
<scales pt_clust_5="13000.00000" pt_clust_6="13000.00000" pt_clust_7="13000.00000" pt_clust_8="13000.00000" pt_clust_9="21.97093"></scales>
<clustering>
<clus scale="   21.971">  2  9  1 -1</clus>
<clus scale="   81.719">  5  6 -1 -1</clus>
<clus scale="   87.902">  2  5  1 -1</clus>
<clus scale="   89.275">  7  8 -1 -1</clus>
<clus scale="   21.971">  2  5  1 -1</clus>
</clustering>
</event>
<event>
 9    2  0.3791909E-005  0.1093119E+03  0.7546771E-02  0.1269767E+00
          2   -1    0    0  502    0  0.00000000000E+00  0.00000000000E+00  0.69718231043E+03  0.69718231043E+03  0.00000000000E+00 0. -1.
         -1   -1    0    0    0  501 -0.00000000000E+00 -0.00000000000E+00 -0.43677586108E+02  0.43677586108E+02  0.00000000000E+00 0.  1.
         23    2    1    2    0    0 -0.18124178882E+02 -0.46369362253E+02  0.42175777634E+02  0.11866663596E+03  0.99117963330E+02 0.  0.
         24    2    1    2    0    0 -0.49822839353E+01  0.28557552437E+02  0.45223401184E+03  0.46044540901E+03  0.81572153703E+02 0.  0.
        -13    1    4    4    0    0 -0.28875226710E+02  0.47421910667E+02  0.31719823355E+03  0.32202070693E+03  0.00000000000E+00 0.  1.
         14    1    4    4    0    0  0.23892942775E+02 -0.18864358230E+02  0.13503577829E+03  0.13842470208E+03  0.00000000000E+00 0. -1.
        -13    1    3    3    0    0 -0.42465026906E+01  0.20672620366E+02 -0.17830619570E+02  0.27628264733E+02  0.00000000000E+00 0.  1.
         13    1    3    3    0    0 -0.13877676192E+02 -0.67041982619E+02  0.60006397203E+02  0.91038371225E+02  0.00000000000E+00 0. -1.
         21    1    1    2  502  501  0.23106462818E+02  0.17811809816E+02  0.15909493485E+03  0.16174785157E+03  0.00000000000E+00 0.  1.
<scales pt_clust_5="13000.00000" pt_clust_6="13000.00000" pt_clust_7="13000.00000" pt_clust_8="13000.00000" pt_clust_9="29.17480"></scales>
<clustering>
<clus scale="   29.175">  1  9  2 -1</clus>
<clus scale="   81.572">  5  6 -1 -1</clus>
<clus scale="   93.695">  1  5  2 -1</clus>
<clus scale="   99.118">  7  8 -1 -1</clus>
<clus scale="   29.175">  1  5  2 -1</clus>
</clustering>
</event>
<event>
 9    2  0.3791909E-005  0.1066787E+03  0.7546771E-02  0.1272842E+00
          2   -1    0    0  502    0  0.00000000000E+00  0.00000000000E+00  0.52203738598E+02  0.52203738598E+02  0.00000000000E+00 0. -1.
         -1   -1    0    0    0  501 -0.00000000000E+00 -0.00000000000E+00 -0.58199434534E+03  0.58199434534E+03  0.00000000000E+00 0.  1.
         23    2    1    2    0    0  0.64685737698E+01  0.51851259420E+02 -0.42402948669E+03  0.43744516056E+03  0.93951409581E+02 0.  0.
         24    2    1    2    0    0  0.49422316539E+02 -0.44325452089E+02 -0.91100845125E+02  0.13848326527E+03  0.80442151282E+02 0.  0.
        -13    1    4    4    0    0  0.54863929894E+02 -0.22296676988E+01 -0.25967268625E+02  0.60739783185E+02  0.00000000000E+00 0.  1.
         14    1    4    4    0    0 -0.54416133551E+01 -0.42095784390E+02 -0.65133576500E+02  0.77743482087E+02  0.00000000000E+00 0. -1.
        -11    1    3    3    0    0  0.33310879110E+02 -0.14141654160E+02 -0.13529807861E+03  0.14005417211E+03  0.00000000000E+00 0.  1.
         11    1    3    3    0    0 -0.26842305340E+02  0.65992913580E+02 -0.28873140808E+03  0.29739098845E+03  0.00000000000E+00 0. -1.
         21    1    1    2  502  501 -0.55890890309E+02 -0.75258073315E+01 -0.14660274929E+02  0.58269658112E+02  0.00000000000E+00 0. -1.
<scales pt_clust_5="13000.00000" pt_clust_6="13000.00000" pt_clust_7="13000.00000" pt_clust_8="13000.00000" pt_clust_9="56.39530"></scales>
<clustering>
<clus scale="   56.395">  1  9  2 -1</clus>
<clus scale="   80.442">  5  6 -1 -1</clus>
<clus scale="   93.951">  7  8 -1 -1</clus>
<clus scale="   94.997">  1  5  2 -1</clus>
<clus scale="   56.395">  1  5  2 -1</clus>
</clustering>
</event>
<event>
 9    2  0.3791909E-005  0.9395683E+02  0.7546771E-02  0.1304344E+00
         -1   -1    0    0    0  501 -0.00000000000E+00  0.00000000000E+00  0.10154180785E+03  0.10154180785E+03  0.00000000000E+00 0.  1.
          2   -1    0    0  502    0  0.00000000000E+00 -0.00000000000E+00 -0.16176514372E+03  0.16176514372E+03  0.00000000000E+00 0. -1.
         23    2    1    2    0    0  0.17677034618E+02 -0.62024597595E+01  0.49680525968E+02  0.10607733713E+03  0.91832993700E+02 0.  0.
         24    2    1    2    0    0 -0.11696008337E+02  0.31017195334E+02 -0.10200199982E+03  0.13050915036E+03  0.74359715868E+02 0.  0.
        -11    1    4    4    0    0  0.17175582814E+02  0.45845398129E+02 -0.61329708655E+02  0.78473781216E+02  0.00000000000E+00 0.  1.
         12    1    4    4    0    0 -0.28871591151E+02 -0.14828202796E+02 -0.40672291163E+02  0.52035369146E+02  0.00000000000E+00 0. -1.
        -11    1    3    3    0    0  0.43925987595E+02  0.24483431099E+02  0.40736047944E+02  0.64717512210E+02  0.00000000000E+00 0.  1.
         11    1    3    3    0    0 -0.26248952976E+02 -0.30685890859E+02  0.89444780238E+01  0.41359824918E+02  0.00000000000E+00 0. -1.
         21    1    1    2  502  501 -0.59810262814E+01 -0.24814735574E+02 -0.79018620164E+01  0.26720464074E+02  0.00000000000E+00 0. -1.
<scales pt_clust_5="13000.00000" pt_clust_6="13000.00000" pt_clust_7="13000.00000" pt_clust_8="13000.00000" pt_clust_9="25.52536"></scales>
<clustering>
<clus scale="   25.525">  2  9  1 -1</clus>
<clus scale="   74.360">  5  6 -1 -1</clus>
<clus scale="   76.967">  2  5  1 -1</clus>
<clus scale="   91.833">  7  8 -1 -1</clus>
<clus scale="   25.525">  2  5  1 -1</clus>
</clustering>
</event>
<event>
 9    2  0.3791909E-005  0.1060218E+03  0.7546771E-02  0.1270583E+00
         -1   -1    0    0    0  501 -0.00000000000E+00  0.00000000000E+00  0.24015950571E+03  0.24015950571E+03  0.00000000000E+00 0.  1.
          2   -1    0    0  502    0  0.00000000000E+00 -0.00000000000E+00 -0.99927124470E+02  0.99927124470E+02  0.00000000000E+00 0. -1.
         23    2    1    2    0    0  0.58087015371E+02 -0.96747291843E+01  0.17378654286E+03  0.20387743255E+03  0.88862496506E+02 0.  0.
         24    2    1    2    0    0 -0.46291268798E+02  0.36646844804E+02 -0.32137420654E+02  0.10673646763E+03  0.82909510406E+02 0.  0.
        -13    1    4    4    0    0  0.22141951055E+02  0.13423566169E+02  0.35554587126E+01  0.26136170566E+02  0.00000000000E+00 0.  1.
         14    1    4    4    0    0 -0.68433219853E+02  0.23223278635E+02 -0.35692879367E+02  0.80600297068E+02  0.00000000000E+00 0. -1.
        -13    1    3    3    0    0  0.27862794157E+02 -0.28119617639E+02  0.16895916845E+02  0.43040913100E+02  0.00000000000E+00 0. -1.
         13    1    3    3    0    0  0.30224221214E+02  0.18444888455E+02  0.15689062602E+03  0.16083651945E+03  0.00000000000E+00 0.  1.
         21    1    1    2  502  501 -0.11795746574E+02 -0.26972115619E+02 -0.14167409669E+01  0.29472729992E+02  0.00000000000E+00 0. -1.
<scales pt_clust_5="13000.00000" pt_clust_6="13000.00000" pt_clust_7="13000.00000" pt_clust_8="13000.00000" pt_clust_9="29.43866"></scales>
<clustering>
<clus scale="   29.439">  2  9  1 -1</clus>
<clus scale="   82.910">  5  6 -1 -1</clus>
<clus scale="   88.862">  7  8 -1 -1</clus>
<clus scale="  101.084">  2  5  1 -1</clus>
<clus scale="   29.439">  2  5  1 -1</clus>
</clustering>
</event>
<event>
 9    2  0.3791909E-005  0.1589731E+03  0.7546771E-02  0.1192628E+00
         -1   -1    0    0    0  501 -0.00000000000E+00  0.00000000000E+00  0.47099840600E+03  0.47099840600E+03  0.00000000000E+00 0.  1.
          2   -1    0    0  502    0  0.00000000000E+00 -0.00000000000E+00 -0.75900104526E+02  0.75900104526E+02  0.00000000000E+00 0. -1.
         23    2    1    2    0    0 -0.11923486349E+03 -0.76632362802E+02  0.30691926847E+03  0.34975120300E+03  0.89649288587E+02 0.  0.
         24    2    1    2    0    0  0.77458312851E+02  0.82738777595E+02  0.65786386250E+02  0.14935610422E+03  0.71651250533E+02 0.  0.
        -11    1    4    4    0    0  0.15219805697E+01  0.44499005160E+02  0.41665656388E+02  0.60979544171E+02  0.00000000000E+00 0.  1.
         12    1    4    4    0    0  0.75936332282E+02  0.38239772436E+02  0.24120729862E+02  0.88376560045E+02  0.00000000000E+00 0. -1.
        -11    1    3    3    0    0 -0.76108443383E+02 -0.86210380383E+01  0.21120281852E+03  0.22466296535E+03  0.00000000000E+00 0.  1.
         11    1    3    3    0    0 -0.43126420105E+02 -0.68011324764E+02  0.95716449955E+02  0.12508823765E+03  0.00000000000E+00 0. -1.
         21    1    1    2  502  501  0.41776550637E+02 -0.61064147934E+01  0.22392646753E+02  0.47791203306E+02  0.00000000000E+00 0. -1.
<scales pt_clust_5="13000.00000" pt_clust_6="13000.00000" pt_clust_7="13000.00000" pt_clust_8="13000.00000" pt_clust_9="42.22047"></scales>
<clustering>
<clus scale="   42.220">  2  9  1 -1</clus>
<clus scale="   71.651">  5  6 -1 -1</clus>
<clus scale="   89.649">  7  8 -1 -1</clus>
<clus scale="  149.564">  2  5  1 -1</clus>
<clus scale="   42.220">  2  5  1 -1</clus>
</clustering>
</event>
<event>
 9    2  0.3791909E-005  0.1008098E+03  0.7546771E-02  0.1284742E+00
         -3   -1    0    0    0  501 -0.00000000000E+00  0.00000000000E+00  0.93781574069E+02  0.93781574069E+02  0.00000000000E+00 0.  1.
          4   -1    0    0  502    0  0.00000000000E+00 -0.00000000000E+00 -0.19167910165E+03  0.19167910165E+03  0.00000000000E+00 0. -1.
         24    2    1    2    0    0  0.29448387197E+02 -0.36061258930E+01 -0.13874138321E+02  0.86835229429E+02  0.80421724076E+02 0.  0.
         23    2    1    2    0    0 -0.31248128502E+02  0.37714565443E+02 -0.11280355466E+03  0.15396088945E+03  0.92630877969E+02 0.  0.
        -11    1    3    3    0    0  0.27078791745E+02 -0.34783972007E+02  0.12619645009E+02  0.45852383920E+02  0.00000000000E+00 0.  1.
         12    1    3    3    0    0  0.23695954515E+01  0.31177846114E+02 -0.26493783330E+02  0.40982845509E+02  0.00000000000E+00 0. -1.
        -11    1    4    4    0    0  0.16608221037E+02  0.51833853854E+02 -0.66005802053E+02  0.85553184137E+02  0.00000000000E+00 0.  1.
         11    1    4    4    0    0 -0.47856349539E+02 -0.14119288410E+02 -0.46797752610E+02  0.68407705310E+02  0.00000000000E+00 0. -1.
         21    1    1    2  502  501  0.17997413054E+01 -0.34108439550E+02  0.28780165404E+02  0.44664556843E+02  0.00000000000E+00 0. -1.
<scales pt_clust_5="13000.00000" pt_clust_6="13000.00000" pt_clust_7="13000.00000" pt_clust_8="13000.00000" pt_clust_9="34.15589"></scales>
<clustering>
<clus scale="   34.156">  1  9  2 -1</clus>
<clus scale="   80.422">  5  6 -1 -1</clus>
<clus scale="   89.721">  1  5  2 -1</clus>
<clus scale="   92.631">  7  8 -1 -1</clus>
<clus scale="  100.810">  2  5  1 -1</clus>
</clustering>
</event>
<event>
 9    2  0.3791909E-005  0.1153634E+03  0.7546771E-02  0.1253722E+00
         -1   -1    0    0    0  501 -0.00000000000E+00  0.00000000000E+00  0.59104852837E+02  0.59104852837E+02  0.00000000000E+00 0.  1.
          2   -1    0    0  502    0  0.00000000000E+00 -0.00000000000E+00 -0.56720299290E+03  0.56720299290E+03  0.00000000000E+00 0. -1.
         24    2    1    2    0    0 -0.11324585913E+02  0.78397186951E+02 -0.26654325558E+02  0.11527038695E+03  0.79387932770E+02 0.  0.
         23    2    1    2    0    0 -0.19177353306E+02 -0.63768537186E+02 -0.20658508785E+03  0.23410482201E+03  0.87712438991E+02 0.  0.
        -13    1    3    3    0    0 -0.17191757470E+01  0.88902981878E+02 -0.46221754294E+01  0.89039655534E+02  0.00000000000E+00 0.  1.
         14    1    3    3    0    0 -0.96054101662E+01 -0.10505794926E+02 -0.22032150129E+02  0.26230731419E+02  0.00000000000E+00 0. -1.
        -11    1    4    4    0    0 -0.43931301064E+02 -0.34663625031E+01 -0.69208842404E+02  0.82047783328E+02  0.00000000000E+00 0.  1.
         11    1    4    4    0    0  0.24753947758E+02 -0.60302174683E+02 -0.13737624545E+03  0.15205703869E+03  0.00000000000E+00 0. -1.
         21    1    1    2  502  501  0.30501939219E+02 -0.14628649765E+02 -0.27485872665E+03  0.27693263677E+03  0.00000000000E+00 0. -1.
<scales pt_clust_5="13000.00000" pt_clust_6="13000.00000" pt_clust_7="13000.00000" pt_clust_8="13000.00000" pt_clust_9="33.82847"></scales>
<clustering>
<clus scale="   33.828">  2  9  1 -1</clus>
<clus scale="   79.388">  5  6 -1 -1</clus>
<clus scale="   87.712">  7  8 -1 -1</clus>
<clus scale="  109.168">  1  5  2 -1</clus>
<clus scale="   33.828">  2  5  1 -1</clus>
</clustering>
</event>
<event>
 9    2  0.3791909E-005  0.1096237E+03  0.7546771E-02  0.1266100E+00
          2   -1    0    0  502    0  0.00000000000E+00  0.00000000000E+00  0.66404534838E+03  0.66404534838E+03  0.00000000000E+00 0. -1.
         -1   -1    0    0    0  501 -0.00000000000E+00 -0.00000000000E+00 -0.28545657088E+02  0.28545657088E+02  0.00000000000E+00 0.  1.
         23    2    1    2    0    0 -0.68144717894E+02 -0.27866644792E+02  0.14673400259E+03  0.18747439649E+03  0.90529163005E+02 0.  0.
         24    2    1    2    0    0  0.28474390873E+02  0.24455734587E+02  0.36090581606E+03  0.37120053008E+03  0.78281233888E+02 0.  0.
        -11    1    4    4    0    0 -0.42719528083E+01 -0.20798300540E+02  0.38275063326E+02  0.43769845313E+02  0.00000000000E+00 0.  1.
         12    1    4    4    0    0  0.32746343682E+02  0.45254035126E+02  0.32263075273E+03  0.32743068477E+03  0.00000000000E+00 0. -1.
        -11    1    3    3    0    0 -0.33362923277E+01 -0.36144809582E+02  0.10206926370E+03  0.10833149449E+03  0.00000000000E+00 0. -1.
         11    1    3    3    0    0 -0.64808425566E+02  0.82781647897E+01  0.44664738886E+02  0.79142901996E+02  0.00000000000E+00 0.  1.
         21    1    1    2  502  501  0.39670327020E+02  0.34109102056E+01  0.12785987264E+03  0.13391607889E+03  0.00000000000E+00 0. -1.
<scales pt_clust_5="13000.00000" pt_clust_6="13000.00000" pt_clust_7="13000.00000" pt_clust_8="13000.00000" pt_clust_9="39.81669"></scales>
<clustering>
<clus scale="   39.817">  1  9  2 -1</clus>
<clus scale="   78.281">  5  6 -1 -1</clus>
<clus scale="   90.529">  7  8 -1 -1</clus>
<clus scale="   99.749">  1  5  2 -1</clus>
<clus scale="   39.817">  1  5  2 -1</clus>
</clustering>
</event>
<event>
 9    2  0.3791909E-005  0.1256623E+03  0.7546771E-02  0.1242055E+00
         -3   -1    0    0    0  501 -0.00000000000E+00  0.00000000000E+00  0.45760737123E+02  0.45760737123E+02  0.00000000000E+00 0.  1.
          4   -1    0    0  502    0  0.00000000000E+00 -0.00000000000E+00 -0.61513491523E+03  0.61513491523E+03  0.00000000000E+00 0. -1.
         23    2    1    2    0    0 -0.55692657684E+02  0.68898524172E+02 -0.73890743274E+02  0.14761184392E+03  0.92090910356E+02 0.  0.
         24    2    1    2    0    0  0.28064690809E+02 -0.70400765434E+02 -0.44301639205E+03  0.45396811185E+03  0.63871968117E+02 0.  0.
        -13    1    4    4    0    0  0.48427156396E+02 -0.54174778123E+02 -0.30702307461E+03  0.31550477715E+03  0.00000000000E+00 0.  1.
         14    1    4    4    0    0 -0.20362465587E+02 -0.16225987310E+02 -0.13599331744E+03  0.13846333470E+03  0.00000000000E+00 0. -1.
        -13    1    3    3    0    0 -0.54599485129E+02  0.90738625858E+02 -0.62223634784E+02  0.12282663687E+03  0.00000000000E+00 0.  1.
         13    1    3    3    0    0 -0.10931725555E+01 -0.21840101686E+02 -0.11667108490E+02  0.24785207048E+02  0.00000000000E+00 0. -1.
         21    1    1    2  502  501  0.27627966875E+02  0.15022412621E+01 -0.52467042782E+02  0.59315696580E+02  0.00000000000E+00 0.  1.
<scales pt_clust_5="13000.00000" pt_clust_6="13000.00000" pt_clust_7="13000.00000" pt_clust_8="13000.00000" pt_clust_9="27.66878"></scales>
<clustering>
<clus scale="   27.669">  2  9  1 -1</clus>
<clus scale="   63.872">  5  6 -1 -1</clus>
<clus scale="   92.091">  7  8 -1 -1</clus>
<clus scale="  106.723">  2  5  1 -1</clus>
<clus scale="   27.669">  2  5  1 -1</clus>
</clustering>
</event>
<event>
 9    2  0.3791909E-005  0.1770772E+03  0.7546771E-02  0.1170899E+00
          2   -1    0    0  502    0  0.00000000000E+00  0.00000000000E+00  0.19117178977E+03  0.19117178977E+03  0.00000000000E+00 0. -1.
         -1   -1    0    0    0  501 -0.00000000000E+00 -0.00000000000E+00 -0.19864205310E+03  0.19864205310E+03  0.00000000000E+00 0.  1.
         23    2    1    2    0    0  0.13473646338E+03 -0.54126831735E+02 -0.56288578915E+02  0.18471348796E+03  0.99332975591E+02 0.  0.
         24    2    1    2    0    0 -0.14260425249E+03  0.34786255171E+02  0.41337929412E+02  0.18292117132E+03  0.10102115687E+03 0.  0.
        -11    1    4    4    0    0 -0.12206822139E+03  0.62115998098E+02  0.52912998427E+02  0.14682926580E+03  0.00000000000E+00 0.  1.
         12    1    4    4    0    0 -0.20536031096E+02 -0.27329742927E+02 -0.11575069015E+02  0.36091905523E+02  0.00000000000E+00 0. -1.
        -13    1    3    3    0    0  0.57374526014E+02 -0.60600078741E+02 -0.66106885392E+02  0.10646279197E+03  0.00000000000E+00 0.  1.
         13    1    3    3    0    0  0.77361937370E+02  0.64732470055E+01  0.98183064770E+01  0.78250695987E+02  0.00000000000E+00 0. -1.
         21    1    1    2  502  501  0.78677891025E+01  0.19340576564E+02  0.74803861712E+01  0.22179183585E+02  0.00000000000E+00 0. -1.
<scales pt_clust_5="13000.00000" pt_clust_6="13000.00000" pt_clust_7="13000.00000" pt_clust_8="13000.00000" pt_clust_9="20.87966"></scales>
<clustering>
<clus scale="   20.880">  1  9  2 -1</clus>
<clus scale="   99.333">  7  8 -1 -1</clus>
<clus scale="  101.021">  5  6 -1 -1</clus>
<clus scale="  176.120">  2  7  1 -1</clus>
<clus scale="   20.880">  1  5  2 -1</clus>
</clustering>
</event>
<event>
 9    2  0.3791909E-005  0.1351297E+03  0.7546771E-02  0.1233420E+00
          2   -1    0    0  502    0  0.00000000000E+00  0.00000000000E+00  0.75482468596E+03  0.75482468596E+03  0.00000000000E+00 0. -1.
         -1   -1    0    0    0  501 -0.00000000000E+00 -0.00000000000E+00 -0.56106713487E+02  0.56106713487E+02  0.00000000000E+00 0.  1.
         23    2    1    2    0    0  0.32061001638E+01  0.49777190820E+02  0.16163312100E+03  0.19131123233E+03  0.89368193473E+02 0.  0.
         24    2    1    2    0    0 -0.10521122206E+03 -0.11970534512E+02  0.95675599211E+02  0.16500327771E+03  0.82822499528E+02 0.  0.
        -13    1    4    4    0    0 -0.73990368905E+02 -0.29645388569E+02  0.21422205002E+02  0.82536868254E+02  0.00000000000E+00 0.  1.
         14    1    4    4    0    0 -0.31220853157E+02  0.17674854056E+02  0.74253394209E+02  0.82466409461E+02  0.00000000000E+00 0. -1.
        -11    1    3    3    0    0  0.46052173573E+02  0.31277002582E+02  0.89071152403E+02  0.10503677343E+03  0.00000000000E+00 0. -1.
         11    1    3    3    0    0 -0.42846073409E+02  0.18500188238E+02  0.72561968601E+02  0.86274458901E+02  0.00000000000E+00 0.  1.
         21    1    1    2  502  501  0.10200512190E+03 -0.37806656308E+02  0.44140925226E+03  0.45461688941E+03  0.00000000000E+00 0. -1.
<scales pt_clust_5="13000.00000" pt_clust_6="13000.00000" pt_clust_7="13000.00000" pt_clust_8="13000.00000" pt_clust_9="106.77297"></scales>
<clustering>
<clus scale="   82.822">  5  6 -1 -1</clus>
<clus scale="   89.368">  7  8 -1 -1</clus>
<clus scale="  102.346">  2  7  1 -1</clus>
<clus scale="  106.773">  1  9  2 -1</clus>
<clus scale="  106.773">  1  5  2 -1</clus>
</clustering>
</event>
<event>
 9    2  0.3791909E-005  0.1139716E+03  0.7546771E-02  0.1256798E+00
          2   -1    0    0  502    0  0.00000000000E+00  0.00000000000E+00  0.58580683550E+03  0.58580683550E+03  0.00000000000E+00 0. -1.
         -1   -1    0    0    0  501 -0.00000000000E+00 -0.00000000000E+00 -0.10210850818E+03  0.10210850818E+03  0.00000000000E+00 0.  1.
         23    2    1    2    0    0 -0.70550804050E+02  0.13607450311E+02 -0.39885887879E+02  0.12138948988E+03  0.89341734625E+02 0.  0.
         24    2    1    2    0    0  0.71666053060E+02  0.72504529095E+02  0.28882598669E+03  0.31646997479E+03  0.79623265790E+02 0.  0.
        -13    1    4    4    0    0  0.23700896935E+02  0.97098968470E+01  0.11445030365E+02  0.28053579671E+02  0.00000000000E+00 0.  1.
         14    1    4    4    0    0  0.47965156125E+02  0.62794632248E+02  0.27738095632E+03  0.28841639512E+03  0.00000000000E+00 0. -1.
        -13    1    3    3    0    0 -0.29252150927E+02 -0.23887695424E+02 -0.52040332057E+02  0.64300128204E+02  0.00000000000E+00 0.  1.
         13    1    3    3    0    0 -0.41298653124E+02  0.37495145735E+02  0.12154444178E+02  0.57089361678E+02  0.00000000000E+00 0. -1.
         21    1    1    2  502  501 -0.11152490092E+01 -0.86111979406E+02  0.23475822851E+03  0.25005587902E+03  0.00000000000E+00 0. -1.
<scales pt_clust_5="13000.00000" pt_clust_6="13000.00000" pt_clust_7="13000.00000" pt_clust_8="13000.00000" pt_clust_9="86.11920"></scales>
<clustering>
<clus scale="   79.623">  5  6 -1 -1</clus>
<clus scale="   86.119">  1  9  2 -1</clus>
<clus scale="   89.342">  7  8 -1 -1</clus>
<clus scale="  106.524">  1  5  2 -1</clus>
<clus scale="   86.119">  1  5  2 -1</clus>
</clustering>
</event>
<event>
 9    2  0.3791909E-005  0.1109047E+03  0.7546771E-02  0.1266325E+00
         -1   -1    0    0    0  501 -0.00000000000E+00  0.00000000000E+00  0.25487730901E+03  0.25487730901E+03  0.00000000000E+00 0.  1.
          2   -1    0    0  502    0  0.00000000000E+00 -0.00000000000E+00 -0.56874069340E+02  0.56874069340E+02  0.00000000000E+00 0. -1.
         23    2    1    2    0    0  0.23286406949E+02 -0.31169135941E+02  0.13899633584E+03  0.17403311342E+03  0.97230506559E+02 0.  0.
         24    2    1    2    0    0 -0.41047461505E+02  0.43746230493E+02  0.36014159705E+02  0.10605906961E+03  0.79704954476E+02 0.  0.
        -11    1    4    4    0    0  0.17405374085E+02  0.13058897895E+02  0.33557501489E+02  0.39994846761E+02  0.00000000000E+00 0.  1.
         12    1    4    4    0    0 -0.58452835590E+02  0.30687332598E+02  0.24566582168E+01  0.66064222845E+02  0.00000000000E+00 0. -1.
        -11    1    3    3    0    0  0.19091324200E+01 -0.62569111213E+02  0.61634607689E+02  0.87848524914E+02  0.00000000000E+00 0. -1.
         11    1    3    3    0    0  0.21377274528E+02  0.31399975272E+02  0.77361728152E+02  0.86184588506E+02  0.00000000000E+00 0.  1.
         21    1    1    2  502  501  0.17761054556E+02 -0.12577094552E+02  0.22992744127E+02  0.31659195328E+02  0.00000000000E+00 0. -1.
<scales pt_clust_5="13000.00000" pt_clust_6="13000.00000" pt_clust_7="13000.00000" pt_clust_8="13000.00000" pt_clust_9="21.76323"></scales>
<clustering>
<clus scale="   21.763">  1  9  2 -1</clus>
<clus scale="   79.705">  5  6 -1 -1</clus>
<clus scale="   95.911">  2  5  1 -1</clus>
<clus scale="   97.231">  7  8 -1 -1</clus>
<clus scale="   95.911">  2  5  1 -1</clus>
</clustering>
</event>
<event>
 9    2  0.3791909E-005  0.1076554E+03  0.7546771E-02  0.1269115E+00
         -1   -1    0    0    0  501 -0.00000000000E+00  0.00000000000E+00  0.38763064826E+02  0.38763064826E+02  0.00000000000E+00 0.  1.
          2   -1    0    0  502    0  0.00000000000E+00 -0.00000000000E+00 -0.55775446632E+03  0.55775446632E+03  0.00000000000E+00 0. -1.
         23    2    1    2    0    0  0.50597297650E+02  0.30066678463E+02 -0.68884921593E+02  0.12776900953E+03  0.90087156083E+02 0.  0.
         24    2    1    2    0    0 -0.62766690718E+02 -0.77411044838E+01 -0.30937145722E+03  0.32573498382E+03  0.79956231672E+02 0.  0.
        -11    1    4    4    0    0 -0.63511536181E+01 -0.30084090071E+02 -0.45080152145E+02  0.54567478823E+02  0.00000000000E+00 0.  1.
         12    1    4    4    0    0 -0.56415537100E+02  0.22342985587E+02 -0.26429130507E+03  0.27116750500E+03  0.00000000000E+00 0. -1.
        -11    1    3    3    0    0 -0.16658001573E+02  0.35236186689E+02 -0.16327507494E+02  0.42257133951E+02  0.00000000000E+00 0.  1.
         11    1    3    3    0    0  0.67255299223E+02 -0.51695082264E+01 -0.52557414099E+02  0.85511875583E+02  0.00000000000E+00 0. -1.
         21    1    1    2  502  501  0.12169393068E+02 -0.22325573979E+02 -0.14073502268E+03  0.14301353779E+03  0.00000000000E+00 0. -1.
<scales pt_clust_5="13000.00000" pt_clust_6="13000.00000" pt_clust_7="13000.00000" pt_clust_8="13000.00000" pt_clust_9="25.42686"></scales>
<clustering>
<clus scale="   25.427">  2  9  1 -1</clus>
<clus scale="   79.956">  5  6 -1 -1</clus>
<clus scale="   90.087">  7  8 -1 -1</clus>
<clus scale="   99.333">  2  5  1 -1</clus>
<clus scale="   25.427">  2  5  1 -1</clus>
</clustering>
</event>
<event>
 9    2  0.3791909E-005  0.1171802E+03  0.7546771E-02  0.1251489E+00
         -1   -1    0    0    0  501 -0.00000000000E+00  0.00000000000E+00  0.47969975032E+02  0.47969975032E+02  0.00000000000E+00 0.  1.
          2   -1    0    0  502    0  0.00000000000E+00 -0.00000000000E+00 -0.10793976336E+04  0.10793976336E+04  0.00000000000E+00 0. -1.
         23    2    1    2    0    0  0.73270375436E+02 -0.27597327977E+02 -0.47575028431E+02  0.12953044597E+03  0.91567421465E+02 0.  0.
         24    2    1    2    0    0 -0.15434654861E+02  0.58456408328E+02 -0.61159681109E+03  0.61985350134E+03  0.80698968666E+02 0.  0.
        -13    1    4    4    0    0 -0.58198592236E+01  0.76101493820E+02 -0.39354638740E+03  0.40087911789E+03  0.00000000000E+00 0.  1.
         14    1    4    4    0    0 -0.96147956376E+01 -0.17645085492E+02 -0.21805042369E+03  0.21897438346E+03  0.00000000000E+00 0. -1.
        -11    1    3    3    0    0  0.22761732549E+02 -0.18390556206E+02  0.26449208115E+02  0.39444513384E+02  0.00000000000E+00 0.  1.
         11    1    3    3    0    0  0.50508642887E+02 -0.92067717708E+01 -0.74024236546E+02  0.90085932581E+02  0.00000000000E+00 0. -1.
         21    1    1    2  502  501 -0.57835720575E+02 -0.30859080351E+02 -0.37225581902E+03  0.37798366130E+03  0.00000000000E+00 0. -1.
<scales pt_clust_5="13000.00000" pt_clust_6="13000.00000" pt_clust_7="13000.00000" pt_clust_8="13000.00000" pt_clust_9="65.55344"></scales>
<clustering>
<clus scale="   65.553">  2  9  1 -1</clus>
<clus scale="   80.699">  5  6 -1 -1</clus>
<clus scale="   91.567">  7  8 -1 -1</clus>
<clus scale="  108.899">  2  5  1 -1</clus>
<clus scale="   65.553">  2  5  1 -1</clus>
</clustering>
</event>
<event>
 9    2  0.3791909E-005  0.1350954E+03  0.7546771E-02  0.1221588E+00
         -1   -1    0    0    0  501 -0.00000000000E+00  0.00000000000E+00  0.22134116405E+02  0.22134116405E+02  0.00000000000E+00 0.  1.
          2   -1    0    0  502    0  0.00000000000E+00 -0.00000000000E+00 -0.15643102682E+04  0.15643102682E+04  0.00000000000E+00 0. -1.
         23    2    1    2    0    0 -0.71970832575E+02 -0.74865989763E+02 -0.24743856340E+03  0.28228612488E+03  0.87606486500E+02 0.  0.
         24    2    1    2    0    0  0.49541419449E+02  0.88241905608E+02 -0.11210306226E+04  0.11284992045E+04  0.80992664672E+02 0.  0.
        -11    1    4    4    0    0  0.27487186225E+02  0.13100992404E+00 -0.10944343129E+03  0.11284248855E+03  0.00000000000E+00 0.  1.
         12    1    4    4    0    0  0.22054233224E+02  0.88110895684E+02 -0.10115871913E+04  0.10156567160E+04  0.00000000000E+00 0. -1.
        -13    1    3    3    0    0 -0.58037507589E+02 -0.93845669022E+02 -0.18313834482E+03  0.21381069951E+03  0.00000000000E+00 0.  1.
         13    1    3    3    0    0 -0.13933324986E+02  0.18979679259E+02 -0.64300218589E+02  0.68475425377E+02  0.00000000000E+00 0. -1.
         21    1    1    2  502  501  0.22429413126E+02 -0.13375915845E+02 -0.17370696583E+03  0.17565905520E+03  0.00000000000E+00 0.  1.
<scales pt_clust_5="13000.00000" pt_clust_6="13000.00000" pt_clust_7="13000.00000" pt_clust_8="13000.00000" pt_clust_9="26.11501"></scales>
<clustering>
<clus scale="   26.115">  2  9  1 -1</clus>
<clus scale="   80.993">  5  6 -1 -1</clus>
<clus scale="   87.606">  7  8 -1 -1</clus>
<clus scale="  130.903">  2  5  1 -1</clus>
<clus scale="   26.115">  2  5  1 -1</clus>
</clustering>
</event>
<event>
 9    2  0.3791909E-005  0.1240980E+03  0.7546771E-02  0.1243119E+00
         -1   -1    0    0    0  501 -0.00000000000E+00  0.00000000000E+00  0.10679360085E+03  0.10679360085E+03  0.00000000000E+00 0.  1.
          2   -1    0    0  502    0  0.00000000000E+00 -0.00000000000E+00 -0.68268218349E+03  0.68268218349E+03  0.00000000000E+00 0. -1.
         23    2    1    2    0    0  0.40422209790E+02 -0.12857922105E+02 -0.33147378134E+02  0.11448603016E+03  0.10103970121E+03 0.  0.
         24    2    1    2    0    0 -0.99989209142E+02 -0.50173847946E+02 -0.13634992683E+02  0.13882316175E+03  0.81059855965E+02 0.  0.
        -11    1    4    4    0    0 -0.64854682958E+02 -0.15170319009E+02  0.29733409006E+02  0.72940688861E+02  0.00000000000E+00 0.  1.
         12    1    4    4    0    0 -0.35134526184E+02 -0.35003528938E+02 -0.43368401690E+02  0.65882472885E+02  0.00000000000E+00 0. -1.
        -13    1    3    3    0    0 -0.21349812788E+01  0.34114977625E+02 -0.37760941754E+02  0.50934060957E+02  0.00000000000E+00 0.  1.
         13    1    3    3    0    0  0.42557191069E+02 -0.46972899730E+02  0.46135636200E+01  0.63551969206E+02  0.00000000000E+00 0. -1.
         21    1    1    2  502  501  0.59566999352E+02  0.63031770052E+02 -0.52910621183E+03  0.53616659243E+03  0.00000000000E+00 0. -1.
<scales pt_clust_5="13000.00000" pt_clust_6="13000.00000" pt_clust_7="13000.00000" pt_clust_8="13000.00000" pt_clust_9="86.72503"></scales>
<clustering>
<clus scale="   81.060">  5  6 -1 -1</clus>
<clus scale="   86.725">  2  9  1 -1</clus>
<clus scale="  101.040">  7  8 -1 -1</clus>
<clus scale="  108.453">  2  5  1 -1</clus>
<clus scale="   86.725">  2  5  1 -1</clus>
</clustering>
</event>
<event>
 9    2  0.3791909E-005  0.1326236E+03  0.7546771E-02  0.1225771E+00
         -1   -1    0    0    0  501 -0.00000000000E+00  0.00000000000E+00  0.15435549294E+03  0.15435549294E+03  0.00000000000E+00 0.  1.
          2   -1    0    0  502    0  0.00000000000E+00 -0.00000000000E+00 -0.16502363602E+03  0.16502363602E+03  0.00000000000E+00 0. -1.
         23    2    1    2    0    0  0.92766984952E+02 -0.18622780827E+02  0.55105092657E+02  0.14233628534E+03  0.90942429181E+02 0.  0.
         24    2    1    2    0    0 -0.10318371263E+03 -0.10785428324E+02 -0.46146336362E+02  0.14018411114E+03  0.82212509035E+02 0.  0.
        -13    1    4    4    0    0 -0.96583644550E+02  0.21241736380E+02 -0.27967388204E+02  0.10277055299E+03  0.00000000000E+00 0.  1.
         14    1    4    4    0    0 -0.66000680779E+01 -0.32027164704E+02 -0.18178948158E+02  0.37413558154E+02  0.00000000000E+00 0. -1.
        -11    1    3    3    0    0  0.51473251904E+02  0.15536108134E+02  0.68515043923E+02  0.87092924863E+02  0.00000000000E+00 0.  1.
         11    1    3    3    0    0  0.41293733048E+02 -0.34158888960E+02 -0.13409951265E+02  0.55243360478E+02  0.00000000000E+00 0. -1.
         21    1    1    2  502  501  0.10416727676E+02  0.29408209150E+02 -0.19626899377E+02  0.36858732480E+02  0.00000000000E+00 0. -1.
<scales pt_clust_5="13000.00000" pt_clust_6="13000.00000" pt_clust_7="13000.00000" pt_clust_8="13000.00000" pt_clust_9="31.19857"></scales>
<clustering>
<clus scale="   31.199">  2  9  1 -1</clus>
<clus scale="   82.213">  5  6 -1 -1</clus>
<clus scale="   90.942">  7  8 -1 -1</clus>
<clus scale="  126.797">  2  5  1 -1</clus>
<clus scale="   31.199">  2  5  1 -1</clus>
</clustering>
</event>
<event>
 9    2  0.3791909E-005  0.1569239E+03  0.7546771E-02  0.1217913E+00
          2   -1    0    0  502    0  0.00000000000E+00  0.00000000000E+00  0.12799571418E+04  0.12799571418E+04  0.00000000000E+00 0. -1.
         -1   -1    0    0    0  501 -0.00000000000E+00 -0.00000000000E+00 -0.66951024513E+02  0.66951024513E+02  0.00000000000E+00 0.  1.
         23    2    1    2    0    0 -0.89797539972E+02  0.78713264933E+02  0.54275926374E+02  0.16298923907E+03  0.96748331285E+02 0.  0.
         24    2    1    2    0    0 -0.35368164698E+01  0.40221454451E+02  0.49858280346E+03  0.50668090208E+03  0.80687360591E+02 0.  0.
        -11    1    4    4    0    0 -0.29320847778E+02  0.15713565981E+02  0.80711872597E+02  0.87298537493E+02  0.00000000000E+00 0.  1.
         12    1    4    4    0    0  0.25784031308E+02  0.24507888470E+02  0.41787093086E+03  0.41938236459E+03  0.00000000000E+00 0. -1.
        -13    1    3    3    0    0 -0.13964755538E+01  0.41313348569E+02 -0.15684263880E+02  0.44212430915E+02  0.00000000000E+00 0.  1.
         13    1    3    3    0    0 -0.88401064418E+02  0.37399916364E+02  0.69960190254E+02  0.11877680815E+03  0.00000000000E+00 0. -1.
         21    1    1    2  502  501  0.93334356442E+02 -0.11893471938E+03  0.66014738747E+03  0.67723802518E+03  0.00000000000E+00 0. -1.
<scales pt_clust_5="13000.00000" pt_clust_6="13000.00000" pt_clust_7="13000.00000" pt_clust_8="13000.00000" pt_clust_9="123.55114"></scales>
<clustering>
<clus scale="   80.687">  5  6 -1 -1</clus>
<clus scale="   90.226">  1  5  2 -1</clus>
<clus scale="   96.748">  7  8 -1 -1</clus>
<clus scale="  123.551">  1  9  2 -1</clus>
<clus scale="   90.226">  1  5  2 -1</clus>
</clustering>
</event>
<event>
 9    2  0.3791909E-005  0.1844607E+03  0.7546771E-02  0.1164615E+00
         -1   -1    0    0    0  501 -0.00000000000E+00  0.00000000000E+00  0.26449500363E+03  0.26449500363E+03  0.00000000000E+00 0.  1.
          2   -1    0    0  502    0  0.00000000000E+00 -0.00000000000E+00 -0.28232684228E+03  0.28232684228E+03  0.00000000000E+00 0. -1.
         23    2    1    2    0    0 -0.24680330594E+02 -0.16230284546E+03  0.18990589108E+03  0.26654131672E+03  0.89602978117E+02 0.  0.
         24    2    1    2    0    0  0.12510773701E+02  0.14504886482E+03 -0.17472478147E+03  0.24109312413E+03  0.80009078246E+02 0.  0.
        -11    1    4    4    0    0 -0.32454738521E+02  0.39361216761E+02 -0.59975808136E+02  0.78738256261E+02  0.00000000000E+00 0.  1.
         12    1    4    4    0    0  0.44965512223E+02  0.10568764806E+03 -0.11474897333E+03  0.16235486787E+03  0.00000000000E+00 0. -1.
        -13    1    3    3    0    0  0.14624679599E+02 -0.80703465288E+02  0.14223900547E+03  0.16419155045E+03  0.00000000000E+00 0.  1.
         13    1    3    3    0    0 -0.39305010194E+02 -0.81599380172E+02  0.47666885613E+02  0.10234976627E+03  0.00000000000E+00 0. -1.
         21    1    1    2  502  501  0.12169556893E+02  0.17253980644E+02 -0.33012948252E+02  0.39187405060E+02  0.00000000000E+00 0. -1.
<scales pt_clust_5="13000.00000" pt_clust_6="13000.00000" pt_clust_7="13000.00000" pt_clust_8="13000.00000" pt_clust_9="21.11393"></scales>
<clustering>
<clus scale="   21.114">  2  9  1 -1</clus>
<clus scale="   80.009">  5  6 -1 -1</clus>
<clus scale="   89.603">  7  8 -1 -1</clus>
<clus scale="  179.996">  2  5  1 -1</clus>
<clus scale="   21.114">  2  5  1 -1</clus>
</clustering>
</event>
<event>
 9    2  0.3791909E-005  0.1285294E+03  0.7546771E-02  0.1234686E+00
         -1   -1    0    0    0  501 -0.00000000000E+00  0.00000000000E+00  0.18452632449E+03  0.18452632449E+03  0.00000000000E+00 0.  1.
          2   -1    0    0  502    0  0.00000000000E+00 -0.00000000000E+00 -0.20990257681E+03  0.20990257681E+03  0.00000000000E+00 0. -1.
         24    2    1    2    0    0  0.98656684086E+02 -0.26517396833E+02  0.94787202967E+02  0.15981884130E+03  0.78237679792E+02 0.  0.
         23    2    1    2    0    0 -0.14322079639E+02  0.17032684620E+02 -0.11228630562E+03  0.14937899313E+03  0.95972052426E+02 0.  0.
        -13    1    3    3    0    0  0.77824244065E+02 -0.51798351618E+02  0.55708584101E+02  0.10882613903E+03  0.00000000000E+00 0.  1.
         14    1    3    3    0    0  0.20832440021E+02  0.25280954785E+02  0.39078618866E+02  0.50992702268E+02  0.00000000000E+00 0. -1.
        -11    1    4    4    0    0 -0.13818499013E+02  0.54861688110E+02 -0.45418372904E+02  0.72550563985E+02  0.00000000000E+00 0.  1.
         11    1    4    4    0    0 -0.50358062593E+00 -0.37829003490E+02 -0.66867932720E+02  0.76828429144E+02  0.00000000000E+00 0. -1.
         21    1    1    2  502  501 -0.84334604447E+02  0.94847122127E+01 -0.78771496624E+01  0.85231066870E+02  0.00000000000E+00 0.  1.
<scales pt_clust_5="13000.00000" pt_clust_6="13000.00000" pt_clust_7="13000.00000" pt_clust_8="13000.00000" pt_clust_9="84.86628"></scales>
<clustering>
<clus scale="   78.238">  5  6 -1 -1</clus>
<clus scale="   84.866">  2  9  1 -1</clus>
<clus scale="   95.972">  7  8 -1 -1</clus>
<clus scale="  115.889">  1  5  2 -1</clus>
<clus scale="   84.866">  2  5  1 -1</clus>
</clustering>
</event>
<event>
 9    2  0.3791909E-005  0.2367181E+03  0.7546771E-02  0.1122492E+00
         -1   -1    0    0    0  501 -0.00000000000E+00  0.00000000000E+00  0.12268103399E+03  0.12268103399E+03  0.00000000000E+00 0.  1.
          2   -1    0    0  502    0  0.00000000000E+00 -0.00000000000E+00 -0.12428325606E+04  0.12428325606E+04  0.00000000000E+00 0. -1.
         23    2    1    2    0    0 -0.23666942328E+02 -0.21914365943E+03 -0.34346364398E+02  0.23964744345E+03  0.87562302254E+02 0.  0.
         24    2    1    2    0    0 -0.27069603365E+02  0.22048241929E+03 -0.74938962681E+03  0.78564357428E+03  0.79408767829E+02 0.  0.
        -11    1    4    4    0    0 -0.34251069589E+02  0.37533397973E+02 -0.20866671988E+03  0.21476427011E+03  0.00000000000E+00 0.  1.
         12    1    4    4    0    0  0.71814662235E+01  0.18294902132E+03 -0.54072290693E+03  0.57087930417E+03  0.00000000000E+00 0. -1.
        -13    1    3    3    0    0 -0.52768289620E+02 -0.14337631013E+03 -0.34968952586E+01  0.15281847720E+03  0.00000000000E+00 0.  1.
         13    1    3    3    0    0  0.29101347292E+02 -0.75767349296E+02 -0.30849469139E+02  0.86828966248E+02  0.00000000000E+00 0. -1.
         21    1    1    2  502  501  0.50736545693E+02 -0.13387598629E+01 -0.33641553543E+03  0.34022257689E+03  0.00000000000E+00 0. -1.
<scales pt_clust_5="13000.00000" pt_clust_6="13000.00000" pt_clust_7="13000.00000" pt_clust_8="13000.00000" pt_clust_9="50.75421"></scales>
<clustering>
<clus scale="   50.754">  2  9  1 -1</clus>
<clus scale="   79.409">  5  6 -1 -1</clus>
<clus scale="   87.562">  7  8 -1 -1</clus>
<clus scale="  233.825">  2  5  1 -1</clus>
<clus scale="   50.754">  2  5  1 -1</clus>
</clustering>
</event>
<event>
 9    2  0.3791909E-005  0.1299298E+03  0.7546771E-02  0.1230782E+00
         -1   -1    0    0    0  501 -0.00000000000E+00  0.00000000000E+00  0.20071262484E+03  0.20071262484E+03  0.00000000000E+00 0.  1.
          2   -1    0    0  502    0  0.00000000000E+00 -0.00000000000E+00 -0.14371539012E+03  0.14371539012E+03  0.00000000000E+00 0. -1.
         23    2    1    2    0    0 -0.92970500687E+02  0.96656621320E+01  0.72621570042E+02  0.15007850225E+03  0.92264431821E+02 0.  0.
         24    2    1    2    0    0  0.89464260519E+02  0.22357912662E+02  0.41331356341E+02  0.12891440076E+03  0.80043185461E+02 0.  0.
        -11    1    4    4    0    0  0.60836379571E+02  0.33315226283E+02  0.61103974037E+02  0.92437357300E+02  0.00000000000E+00 0.  1.
         12    1    4    4    0    0  0.28627880947E+02 -0.10957313621E+02 -0.19772617696E+02  0.36477043464E+02  0.00000000000E+00 0. -1.
        -13    1    3    3    0    0 -0.48230917848E+02  0.50056931699E+02  0.27365016665E+02  0.74704497754E+02  0.00000000000E+00 0. -1.
         13    1    3    3    0    0 -0.44739582838E+02 -0.40391269567E+02  0.45256553378E+02  0.75374004494E+02  0.00000000000E+00 0.  1.
         21    1    1    2  502  501  0.35062401678E+01 -0.32023574794E+02 -0.56955691661E+02  0.65435111945E+02  0.00000000000E+00 0.  1.
<scales pt_clust_5="13000.00000" pt_clust_6="13000.00000" pt_clust_7="13000.00000" pt_clust_8="13000.00000" pt_clust_9="32.21495"></scales>
<clustering>
<clus scale="   32.215">  2  9  1 -1</clus>
<clus scale="   80.043">  5  6 -1 -1</clus>
<clus scale="   92.264">  7  8 -1 -1</clus>
<clus scale="  121.556">  2  5  1 -1</clus>
<clus scale="   32.215">  2  5  1 -1</clus>
</clustering>
</event>
<event>
 9    2  0.3791909E-005  0.2008866E+03  0.7546771E-02  0.1189453E+00
          4   -1    0    0  502    0  0.00000000000E+00  0.00000000000E+00  0.74851451698E+02  0.74851451698E+02  0.00000000000E+00 0. -1.
         -3   -1    0    0    0  501 -0.00000000000E+00 -0.00000000000E+00 -0.76019450651E+03  0.76019450651E+03  0.00000000000E+00 0.  1.
         24    2    1    2    0    0  0.29574565790E+01  0.23875525207E+01 -0.14489648978E+03  0.16527233942E+03  0.79407219256E+02 0.  0.
         23    2    1    2    0    0  0.73622103423E+02  0.16197913233E+03 -0.19234095222E+03  0.27727093884E+03  0.90701037481E+02 0.  0.
        -11    1    3    3    0    0  0.16600452036E+02  0.31278405074E+02 -0.11896468521E+03  0.12412296306E+03  0.00000000000E+00 0.  1.
         12    1    3    3    0    0 -0.13642995457E+02 -0.28890852554E+02 -0.25931804565E+02  0.41149376354E+02  0.00000000000E+00 0. -1.
        -11    1    4    4    0    0 -0.87755105920E+01  0.80655194107E+02 -0.10253852573E+03  0.13075327599E+03  0.00000000000E+00 0. -1.
         11    1    4    4    0    0  0.82397614015E+02  0.81323938223E+02 -0.89802426488E+02  0.14651766285E+03  0.00000000000E+00 0.  1.
         21    1    1    2  502  501 -0.76579560002E+02 -0.16436668485E+03 -0.34810561281E+03  0.39250267995E+03  0.00000000000E+00 0. -1.
<scales pt_clust_5="13000.00000" pt_clust_6="13000.00000" pt_clust_7="13000.00000" pt_clust_8="13000.00000" pt_clust_9="179.24492"></scales>
<clustering>
<clus scale="   79.407">  5  6 -1 -1</clus>
<clus scale="   79.498">  2  5  1 -1</clus>
<clus scale="   90.701">  7  8 -1 -1</clus>
<clus scale="  179.245">  2  9  1 -1</clus>
<clus scale="  200.887">  1  5  2 -1</clus>
</clustering>
</event>
<event>
 9    2  0.3791909E-005  0.1000181E+03  0.7546771E-02  0.1286007E+00
          2   -1    0    0  502    0  0.00000000000E+00  0.00000000000E+00  0.13863474929E+03  0.13863474929E+03  0.00000000000E+00 0. -1.
         -1   -1    0    0    0  501 -0.00000000000E+00 -0.00000000000E+00 -0.35757321767E+03  0.35757321767E+03  0.00000000000E+00 0.  1.
         23    2    1    2    0    0  0.28969945953E+02  0.33620834237E+02 -0.31309990481E+03  0.32911336325E+03  0.91183535882E+02 0.  0.
         24    2    1    2    0    0 -0.16205714203E+02  0.13929150823E+02  0.82063390842E+02  0.11639658206E+03  0.79731535682E+02 0.  0.
        -11    1    4    4    0    0  0.10409431395E+02 -0.26505051898E+02  0.11247338220E+02  0.30616607505E+02  0.00000000000E+00 0.  1.
         12    1    4    4    0    0 -0.26615145598E+02  0.40434202721E+02  0.70816052622E+02  0.85779974550E+02  0.00000000000E+00 0. -1.
        -11    1    3    3    0    0  0.43293799757E+02  0.57558083884E+02 -0.24898893930E+03  0.25919640817E+03  0.00000000000E+00 0.  1.
         11    1    3    3    0    0 -0.14323853805E+02 -0.23937249647E+02 -0.64110965516E+02  0.69916955082E+02  0.00000000000E+00 0. -1.
         21    1    1    2  502  501 -0.12764231750E+02 -0.47549985060E+02  0.12098045593E+02  0.50698021643E+02  0.00000000000E+00 0.  1.
<scales pt_clust_5="13000.00000" pt_clust_6="13000.00000" pt_clust_7="13000.00000" pt_clust_8="13000.00000" pt_clust_9="49.23339"></scales>
<clustering>
<clus scale="   49.233">  1  9  2 -1</clus>
<clus scale="   79.732">  5  6 -1 -1</clus>
<clus scale="   89.701">  1  5  2 -1</clus>
<clus scale="   91.184">  7  8 -1 -1</clus>
<clus scale="   49.233">  1  5  2 -1</clus>
</clustering>
</event>
<event>
 9    2  0.3791909E-005  0.2444931E+03  0.7546771E-02  0.1123195E+00
          2   -1    0    0  502    0  0.00000000000E+00  0.00000000000E+00  0.10137075712E+04  0.10137075712E+04  0.00000000000E+00 0. -1.
         -1   -1    0    0    0  501 -0.00000000000E+00 -0.00000000000E+00 -0.77891686203E+03  0.77891686203E+03  0.00000000000E+00 0.  1.
         24    2    1    2    0    0 -0.12378483497E+03 -0.14611323085E+03 -0.69251498805E+03  0.72323314666E+03  0.82567633860E+02 0.  0.
         23    2    1    2    0    0  0.27420589430E+03 -0.83037150171E+01  0.70746689181E+03  0.76149489390E+03  0.64087801327E+02 0.  0.
        -13    1    3    3    0    0 -0.97113917218E+02 -0.10165299470E+03 -0.60833148081E+03  0.62436498524E+03  0.00000000000E+00 0.  1.
         14    1    3    3    0    0 -0.26670917754E+02 -0.44460236147E+02 -0.84183507239E+02  0.98868161423E+02  0.00000000000E+00 0. -1.
        -11    1    4    4    0    0  0.18027868595E+03 -0.98630170460E+01  0.54124335878E+03  0.57056293004E+03  0.00000000000E+00 0. -1.
         11    1    4    4    0    0  0.93927208342E+02  0.15593020288E+01  0.16622353303E+03  0.19093196386E+03  0.00000000000E+00 0.  1.
         21    1    1    2  502  501 -0.15042105932E+03  0.15441694587E+03  0.21983880545E+03  0.30789639270E+03  0.00000000000E+00 0.  1.
<scales pt_clust_5="13000.00000" pt_clust_6="13000.00000" pt_clust_7="13000.00000" pt_clust_8="13000.00000" pt_clust_9="235.94409"></scales>
<clustering>
<clus scale="   64.088">  7  8 -1 -1</clus>
<clus scale="   82.568">  5  6 -1 -1</clus>
<clus scale="  208.541">  2  5  1 -1</clus>
<clus scale="  235.944">  2  9  1 -1</clus>
<clus scale="  244.493">  1  5  2 -1</clus>
</clustering>
</event>
<event>
 9    2  0.3791909E-005  0.5203257E+03  0.7546771E-02  0.1046359E+00
          2   -1    0    0  502    0  0.00000000000E+00  0.00000000000E+00  0.16050692833E+04  0.16050692833E+04  0.00000000000E+00 0. -1.
         -1   -1    0    0    0  501 -0.00000000000E+00 -0.00000000000E+00 -0.35118682747E+03  0.35118682747E+03  0.00000000000E+00 0.  1.
         23    2    1    2    0    0 -0.11595982741E+03  0.82392562475E+02 -0.12701177822E+03  0.21117611176E+03  0.90709108949E+02 0.  0.
         24    2    1    2    0    0 -0.34797012233E+03  0.24896147812E+03  0.31841224223E+03  0.53930453010E+03  0.79987477488E+02 0.  0.
        -13    1    4    4    0    0 -0.27743484598E+03  0.16489151470E+03  0.26322209957E+03  0.41646750064E+03  0.00000000000E+00 0.  1.
         14    1    4    4    0    0 -0.70535276354E+02  0.84069963418E+02  0.55190142659E+02  0.12283702946E+03  0.00000000000E+00 0. -1.
        -11    1    3    3    0    0 -0.34073724599E+02 -0.11410490077E+02 -0.40193978360E+01  0.36157620923E+02  0.00000000000E+00 0. -1.
         11    1    3    3    0    0 -0.81886102813E+02  0.93803052551E+02 -0.12299238039E+03  0.17501849084E+03  0.00000000000E+00 0.  1.
         21    1    1    2  502  501  0.46392994974E+03 -0.33135404060E+03  0.10624819919E+04  0.12057754690E+04  0.00000000000E+00 0.  1.
<scales pt_clust_5="13000.00000" pt_clust_6="13000.00000" pt_clust_7="13000.00000" pt_clust_8="13000.00000" pt_clust_9="514.14087"></scales>
<clustering>
<clus scale="   79.987">  5  6 -1 -1</clus>
<clus scale="   90.709">  7  8 -1 -1</clus>
<clus scale="  168.711">  2  7  1 -1</clus>
<clus scale="  514.141">  1  9  2 -1</clus>
<clus scale="  514.141">  1  5  2 -1</clus>
</clustering>
</event>
<event>
 9    2  0.3791909E-005  0.9144068E+02  0.7546771E-02  0.1304948E+00
          2   -1    0    0  502    0  0.00000000000E+00  0.00000000000E+00  0.24381702041E+03  0.24381702041E+03  0.00000000000E+00 0. -1.
         -1   -1    0    0    0  501 -0.00000000000E+00 -0.00000000000E+00 -0.12557248304E+03  0.12557248304E+03  0.00000000000E+00 0.  1.
         23    2    1    2    0    0  0.11242709920E+02 -0.39721134231E+01 -0.91633431117E+02  0.12970937814E+03  0.91025605561E+02 0.  0.
         24    2    1    2    0    0  0.17270392229E+02 -0.90329555570E+01  0.15442045178E+03  0.17598032175E+03  0.82119041528E+02 0.  0.
        -13    1    4    4    0    0  0.46828040076E+02 -0.29445193780E+00  0.12453404298E+03  0.13304766026E+03  0.00000000000E+00 0.  1.
         14    1    4    4    0    0 -0.29557647848E+02 -0.87385036192E+01  0.29886408802E+02  0.42932661493E+02  0.00000000000E+00 0. -1.
        -11    1    3    3    0    0  0.99240190194E+01 -0.42471934799E+02 -0.77012219045E+02  0.88505555088E+02  0.00000000000E+00 0.  1.
         11    1    3    3    0    0  0.13186909004E+01  0.38499821376E+02 -0.14621212072E+02  0.41203823052E+02  0.00000000000E+00 0. -1.
         21    1    1    2  502  501 -0.28513102148E+02  0.13005068980E+02  0.55457516707E+02  0.63699803553E+02  0.00000000000E+00 0. -1.
<scales pt_clust_5="13000.00000" pt_clust_6="13000.00000" pt_clust_7="13000.00000" pt_clust_8="13000.00000" pt_clust_9="31.33893"></scales>
<clustering>
<clus scale="   31.339">  1  9  2 -1</clus>
<clus scale="   82.119">  5  6 -1 -1</clus>
<clus scale="   82.579">  1  5  2 -1</clus>
<clus scale="   91.026">  7  8 -1 -1</clus>
<clus scale="   31.339">  1  5  2 -1</clus>
</clustering>
</event>
<event>
 9    2  0.3791909E-005  0.1749076E+03  0.7546771E-02  0.1197339E+00
          2   -1    0    0  502    0  0.00000000000E+00  0.00000000000E+00  0.79840401624E+03  0.79840401624E+03  0.00000000000E+00 0. -1.
         -1   -1    0    0    0  501 -0.00000000000E+00 -0.00000000000E+00 -0.14231420366E+03  0.14231420366E+03  0.00000000000E+00 0.  1.
         23    2    1    2    0    0 -0.11256176349E+03  0.10915152129E+03 -0.63075816713E+02  0.19157592550E+03  0.90214030925E+02 0.  0.
         24    2    1    2    0    0  0.21271614579E+02 -0.56062788819E+02  0.29017010605E+03  0.30733977769E+03  0.81630451612E+02 0.  0.
        -13    1    4    4    0    0 -0.26198488322E+02 -0.12756968498E+02  0.42922926867E+02  0.51879463051E+02  0.00000000000E+00 0.  1.
         14    1    4    4    0    0  0.47470102901E+02 -0.43305820321E+02  0.24724717918E+03  0.25546031464E+03  0.00000000000E+00 0. -1.
        -13    1    3    3    0    0 -0.71064785525E+02  0.95453387227E+02 -0.81411956270E+02  0.14418550377E+03  0.00000000000E+00 0.  1.
         13    1    3    3    0    0 -0.41496977970E+02  0.13698134064E+02  0.18336139557E+02  0.47390421725E+02  0.00000000000E+00 0. -1.
         21    1    1    2  502  501  0.91290148915E+02 -0.53088732471E+02  0.42899552325E+03  0.44180251671E+03  0.00000000000E+00 0. -1.
<scales pt_clust_5="13000.00000" pt_clust_6="13000.00000" pt_clust_7="13000.00000" pt_clust_8="13000.00000" pt_clust_9="149.84691"></scales>
<clustering>
<clus scale="   81.630">  5  6 -1 -1</clus>
<clus scale="   90.214">  7  8 -1 -1</clus>
<clus scale="  101.287">  1  5  2 -1</clus>
<clus scale="  149.847">  1  9  2 -1</clus>
<clus scale="  101.287">  1  5  2 -1</clus>
</clustering>
</event>
<event>
 9    2  0.3791909E-005  0.1156127E+03  0.7546771E-02  0.1254258E+00
         -1   -1    0    0    0  501 -0.00000000000E+00  0.00000000000E+00  0.10421681599E+03  0.10421681599E+03  0.00000000000E+00 0.  1.
          2   -1    0    0  502    0  0.00000000000E+00 -0.00000000000E+00 -0.74954769498E+03  0.74954769498E+03  0.00000000000E+00 0. -1.
         24    2    1    2    0    0  0.43492821871E+02 -0.59258327804E+02  0.61553345811E+02  0.12660569792E+03  0.82686234635E+02 0.  0.
         23    2    1    2    0    0  0.99423031173E+01  0.31471568181E+02 -0.30083327453E+03  0.31666546254E+03  0.93204329866E+02 0.  0.
        -13    1    3    3    0    0  0.62857352352E+02 -0.18988397687E+02  0.41084225125E+02  0.77456565542E+02  0.00000000000E+00 0.  1.
         14    1    3    3    0    0 -0.19364530481E+02 -0.40269930117E+02  0.20469120686E+02  0.49149132383E+02  0.00000000000E+00 0. -1.
        -11    1    4    4    0    0 -0.27889755437E+02  0.49611289178E+02 -0.17142982454E+03  0.18063029428E+03  0.00000000000E+00 0. -1.
         11    1    4    4    0    0  0.37832058554E+02 -0.18139720996E+02 -0.12940345000E+03  0.13603516826E+03  0.00000000000E+00 0.  1.
         21    1    1    2  502  501 -0.53435124988E+02  0.27786759623E+02 -0.40605095026E+03  0.41049335050E+03  0.00000000000E+00 0. -1.
<scales pt_clust_5="13000.00000" pt_clust_6="13000.00000" pt_clust_7="13000.00000" pt_clust_8="13000.00000" pt_clust_9="60.22804"></scales>
<clustering>
<clus scale="   60.228">  2  9  1 -1</clus>
<clus scale="   82.686">  5  6 -1 -1</clus>
<clus scale="   93.204">  7  8 -1 -1</clus>
<clus scale="  107.314">  1  5  2 -1</clus>
<clus scale="   60.228">  2  5  1 -1</clus>
</clustering>
</event>
<event>
 9    2  0.3791909E-005  0.1803371E+03  0.7546771E-02  0.1168625E+00
          2   -1    0    0  502    0  0.00000000000E+00  0.00000000000E+00  0.58663625289E+03  0.58663625289E+03  0.00000000000E+00 0. -1.
         -1   -1    0    0    0  501 -0.00000000000E+00 -0.00000000000E+00 -0.63429592513E+02  0.63429592513E+02  0.00000000000E+00 0.  1.
         23    2    1    2    0    0 -0.12605766832E+03  0.89044745664E+02  0.19206421216E+03  0.26228312586E+03  0.89912591133E+02 0.  0.
         24    2    1    2    0    0  0.14207856203E+03 -0.73381018148E+02  0.28464980301E+03  0.33617276456E+03  0.80096976649E+02 0.  0.
        -13    1    4    4    0    0  0.25641390694E+02 -0.39344291502E+02  0.34868381712E+02  0.58491522751E+02  0.00000000000E+00 0.  1.
         14    1    4    4    0    0  0.11643717133E+03 -0.34036726647E+02  0.24978142130E+03  0.27768124181E+03  0.00000000000E+00 0. -1.
        -13    1    3    3    0    0 -0.23585290158E+02 -0.18306204814E+02  0.38580168020E+02  0.48783321033E+02  0.00000000000E+00 0. -1.
         13    1    3    3    0    0 -0.10247237817E+03  0.10735095048E+03  0.15348404414E+03  0.21349980483E+03  0.00000000000E+00 0.  1.
         21    1    1    2  502  501 -0.16020893704E+02 -0.15663727516E+02  0.46492645203E+02  0.51609954977E+02  0.00000000000E+00 0.  1.
<scales pt_clust_5="13000.00000" pt_clust_6="13000.00000" pt_clust_7="13000.00000" pt_clust_8="13000.00000" pt_clust_9="22.40583"></scales>
<clustering>
<clus scale="   22.406">  1  9  2 -1</clus>
<clus scale="   80.097">  5  6 -1 -1</clus>
<clus scale="   89.913">  7  8 -1 -1</clus>
<clus scale="  175.649">  1  5  2 -1</clus>
<clus scale="   22.406">  1  5  2 -1</clus>
</clustering>
</event>
<event>
 9    2  0.3791909E-005  0.1175635E+03  0.7546771E-02  0.1256646E+00
          2   -1    0    0  502    0  0.00000000000E+00  0.00000000000E+00  0.20024002565E+02  0.20024002565E+02  0.00000000000E+00 0. -1.
         -1   -1    0    0    0  501 -0.00000000000E+00 -0.00000000000E+00 -0.89188792314E+03  0.89188792314E+03  0.00000000000E+00 0.  1.
         23    2    1    2    0    0 -0.58067926417E+02  0.18188295605E+02 -0.40293521492E+03  0.42063617195E+03  0.10428472352E+03 0.  0.
         24    2    1    2    0    0  0.28773163611E+02 -0.48151046340E+02 -0.25572336057E+03  0.27399144983E+03  0.80811256816E+02 0.  0.
        -11    1    4    4    0    0  0.34592540533E+02 -0.61529802008E+02 -0.24723070130E+03  0.25711005437E+03  0.00000000000E+00 0.  1.
         12    1    4    4    0    0 -0.58193769213E+01  0.13378755668E+02 -0.84926592785E+01  0.16881395458E+02  0.00000000000E+00 0. -1.
        -11    1    3    3    0    0  0.14978301794E+02  0.34984579728E+02 -0.21434992777E+03  0.21770200247E+03  0.00000000000E+00 0. -1.
         11    1    3    3    0    0 -0.73046228211E+02 -0.16796284123E+02 -0.18858528715E+03  0.20293416949E+03  0.00000000000E+00 0.  1.
         21    1    1    2  502  501  0.29294762806E+02  0.29962750735E+02 -0.21320534508E+03  0.21728430392E+03  0.00000000000E+00 0. -1.
<scales pt_clust_5="13000.00000" pt_clust_6="13000.00000" pt_clust_7="13000.00000" pt_clust_8="13000.00000" pt_clust_9="41.90405"></scales>
<clustering>
<clus scale="   41.904">  2  9  1 -1</clus>
<clus scale="   80.811">  5  6 -1 -1</clus>
<clus scale="   97.346">  1  5  2 -1</clus>
<clus scale="  104.285">  7  8 -1 -1</clus>
<clus scale="   97.346">  1  5  2 -1</clus>
</clustering>
</event>
<event>
 9    2  0.3791909E-005  0.1500116E+03  0.7546771E-02  0.1202934E+00
         -1   -1    0    0    0  501 -0.00000000000E+00  0.00000000000E+00  0.44253654589E+03  0.44253654589E+03  0.00000000000E+00 0.  1.
          2   -1    0    0  502    0  0.00000000000E+00 -0.00000000000E+00 -0.90301207148E+02  0.90301207148E+02  0.00000000000E+00 0. -1.
         23    2    1    2    0    0 -0.11179993515E+03  0.30348208384E+02  0.32709337505E+03  0.35936916685E+03  0.93465944782E+02 0.  0.
         24    2    1    2    0    0  0.11378303534E+03 -0.51463338462E+02  0.13015455471E+02  0.14903840800E+03  0.80299381320E+02 0.  0.
        -11    1    4    4    0    0  0.17704744468E+02 -0.44156035849E+02  0.21706742631E+02  0.52291453931E+02  0.00000000000E+00 0.  1.
         12    1    4    4    0    0  0.96078290876E+02 -0.73073026125E+01 -0.86912871603E+01  0.96746954069E+02  0.00000000000E+00 0. -1.
        -13    1    3    3    0    0 -0.84238496166E+02 -0.21533168672E+02  0.23000289409E+03  0.24588845618E+03  0.00000000000E+00 0. -1.
         13    1    3    3    0    0 -0.27561438980E+02  0.51881377056E+02  0.97090480957E+02  0.11348071068E+03  0.00000000000E+00 0.  1.
         21    1    1    2  502  501 -0.19831001983E+01  0.21115130077E+02  0.12126508227E+02  0.24430178189E+02  0.00000000000E+00 0.  1.
<scales pt_clust_5="13000.00000" pt_clust_6="13000.00000" pt_clust_7="13000.00000" pt_clust_8="13000.00000" pt_clust_9="21.20805"></scales>
<clustering>
<clus scale="   21.208">  2  9  1 -1</clus>
<clus scale="   80.299">  5  6 -1 -1</clus>
<clus scale="   93.466">  7  8 -1 -1</clus>
<clus scale="  142.182">  2  5  1 -1</clus>
<clus scale="   21.208">  2  5  1 -1</clus>
</clustering>
</event>
<event>
 9    2  0.3791909E-005  0.9978124E+02  0.7546771E-02  0.1286133E+00
          2   -1    0    0  502    0  0.00000000000E+00  0.00000000000E+00  0.50533379738E+03  0.50533379738E+03  0.00000000000E+00 0. -1.
         -1   -1    0    0    0  501 -0.00000000000E+00 -0.00000000000E+00 -0.60749196962E+02  0.60749196962E+02  0.00000000000E+00 0.  1.
         23    2    1    2    0    0  0.37185361957E+02  0.19632401457E+02 -0.70535840408E+01  0.10048104949E+03  0.90986295278E+02 0.  0.
         24    2    1    2    0    0 -0.36002351831E+02  0.17037653988E+01  0.40267702599E+03  0.41218072653E+03  0.80281329725E+02 0.  0.
        -13    1    4    4    0    0 -0.35989018065E+02 -0.28683894509E+02  0.13178453280E+03  0.13958917691E+03  0.00000000000E+00 0.  1.
         14    1    4    4    0    0 -0.13333766079E-01  0.30387659908E+02  0.27089249319E+03  0.27259154961E+03  0.00000000000E+00 0. -1.
        -13    1    3    3    0    0  0.62212787548E+02  0.24001862476E+02 -0.22939068853E+02  0.70517524181E+02  0.00000000000E+00 0.  1.
         13    1    3    3    0    0 -0.25027425591E+02 -0.43694610192E+01  0.15885484812E+02  0.29963525311E+02  0.00000000000E+00 0. -1.
         21    1    1    2  502  501 -0.11830101251E+01 -0.21336166856E+02  0.48961158470E+02  0.53421218329E+02  0.00000000000E+00 0.  1.
<scales pt_clust_5="13000.00000" pt_clust_6="13000.00000" pt_clust_7="13000.00000" pt_clust_8="13000.00000" pt_clust_9="21.36894"></scales>
<clustering>
<clus scale="   21.369">  1  9  2 -1</clus>
<clus scale="   80.281">  5  6 -1 -1</clus>
<clus scale="   90.127">  1  5  2 -1</clus>
<clus scale="   90.986">  7  8 -1 -1</clus>
<clus scale="   21.369">  1  5  2 -1</clus>
</clustering>
</event>
<event>
 9    2  0.3791909E-005  0.1072950E+03  0.7546771E-02  0.1269953E+00
          2   -1    0    0  502    0  0.00000000000E+00  0.00000000000E+00  0.60169711197E+03  0.60169711197E+03  0.00000000000E+00 0. -1.
         -1   -1    0    0    0  501 -0.00000000000E+00 -0.00000000000E+00 -0.35911142714E+02  0.35911142714E+02  0.00000000000E+00 0.  1.
         23    2    1    2    0    0 -0.53451598742E+02 -0.24183913475E+02  0.77491296507E+02  0.13267060035E+03  0.90303112267E+02 0.  0.
         24    2    1    2    0    0  0.60407520842E+02 -0.29705508443E+01  0.39535871581E+03  0.40786633067E+03  0.79928322777E+02 0.  0.
        -11    1    4    4    0    0  0.51030822860E+02 -0.20591379191E+02  0.12266117100E+03  0.13443925264E+03  0.00000000000E+00 0.  1.
         12    1    4    4    0    0  0.93766979823E+01  0.17620828347E+02  0.27269754481E+03  0.27342707803E+03  0.00000000000E+00 0. -1.
        -13    1    3    3    0    0 -0.26641710967E+02  0.32735628093E+02  0.45590120716E+02  0.62127781360E+02  0.00000000000E+00 0. -1.
         13    1    3    3    0    0 -0.26809887775E+02 -0.56919541568E+02  0.31901175792E+02  0.70542818995E+02  0.00000000000E+00 0.  1.
         21    1    1    2  502  501 -0.69559221002E+01  0.27154464319E+02  0.92935956940E+02  0.97071323660E+02  0.00000000000E+00 0. -1.
<scales pt_clust_5="13000.00000" pt_clust_6="13000.00000" pt_clust_7="13000.00000" pt_clust_8="13000.00000" pt_clust_9="28.03123"></scales>
<clustering>
<clus scale="   28.031">  1  9  2 -1</clus>
<clus scale="   79.928">  5  6 -1 -1</clus>
<clus scale="   90.303">  7  8 -1 -1</clus>
<clus scale="   98.722">  1  5  2 -1</clus>
<clus scale="   28.031">  1  5  2 -1</clus>
</clustering>
</event>
<event>
 9    2  0.3791909E-005  0.1576006E+03  0.7546771E-02  0.1207790E+00
          2   -1    0    0  502    0  0.00000000000E+00  0.00000000000E+00  0.38370512456E+03  0.38370512456E+03  0.00000000000E+00 0. -1.
         -1   -1    0    0    0  501 -0.00000000000E+00 -0.00000000000E+00 -0.23356301782E+03  0.23356301782E+03  0.00000000000E+00 0.  1.
         24    2    1    2    0    0 -0.11230317215E+03  0.61181712964E+02 -0.13808005642E+03  0.20462598126E+03  0.80314916100E+02 0.  0.
         23    2    1    2    0    0 -0.58091549980E+02  0.17071457361E+01  0.13924998179E+03  0.17773349654E+03  0.93920689084E+02 0.  0.
        -13    1    3    3    0    0 -0.12027337905E+03  0.68948804202E+02 -0.13389313193E+03  0.19273555481E+03  0.00000000000E+00 0.  1.
         14    1    3    3    0    0  0.79702069038E+01 -0.77670912376E+01 -0.41869244872E+01  0.11890426445E+02  0.00000000000E+00 0. -1.
        -11    1    4    4    0    0  0.37030961195E+01  0.29825150498E+02  0.98886875693E+01  0.31639195074E+02  0.00000000000E+00 0. -1.
         11    1    4    4    0    0 -0.61794646100E+02 -0.28118004762E+02  0.12936129422E+03  0.14609430146E+03  0.00000000000E+00 0.  1.
         21    1    1    2  502  501  0.17039472213E+03 -0.62888858700E+02  0.14897218137E+03  0.23490866459E+03  0.00000000000E+00 0. -1.
<scales pt_clust_5="13000.00000" pt_clust_6="13000.00000" pt_clust_7="13000.00000" pt_clust_8="13000.00000" pt_clust_9="135.60035"></scales>
<clustering>
<clus scale="   80.315">  5  6 -1 -1</clus>
<clus scale="   93.921">  7  8 -1 -1</clus>
<clus scale="  110.447">  1  7  2 -1</clus>
<clus scale="  135.600">  1  9  2 -1</clus>
<clus scale="  110.447">  1  5  2 -1</clus>
</clustering>
</event>
<event>
 9    2  0.3791909E-005  0.2190954E+03  0.7546771E-02  0.1134765E+00
         -1   -1    0    0    0  501 -0.00000000000E+00  0.00000000000E+00  0.24887543978E+03  0.24887543978E+03  0.00000000000E+00 0.  1.
          2   -1    0    0  502    0  0.00000000000E+00 -0.00000000000E+00 -0.36528921050E+03  0.36528921050E+03  0.00000000000E+00 0. -1.
         23    2    1    2    0    0 -0.19972886464E+03 -0.50799615990E+02  0.11090906173E+03  0.25150542169E+03  0.92097431066E+02 0.  0.
         24    2    1    2    0    0  0.18171306985E+03  0.24092983119E+02 -0.92364787456E+02  0.22390950063E+03  0.89465629818E+02 0.  0.
        -13    1    4    4    0    0  0.16511564842E+02  0.12572840841E+02 -0.48261578452E+02  0.52534636718E+02  0.00000000000E+00 0.  1.
         14    1    4    4    0    0  0.16520150501E+03  0.11520142278E+02 -0.44103209003E+02  0.17137486391E+03  0.00000000000E+00 0. -1.
        -13    1    3    3    0    0 -0.16881279716E+03 -0.61678887701E+02  0.57243952474E+02  0.18862374127E+03  0.00000000000E+00 0.  1.
         13    1    3    3    0    0 -0.30916067478E+02  0.10879271711E+02  0.53665109257E+02  0.62881680423E+02  0.00000000000E+00 0. -1.
         21    1    1    2  502  501  0.18015794792E+02  0.26706632871E+02 -0.13495804500E+03  0.13874972797E+03  0.00000000000E+00 0.  1.
<scales pt_clust_5="13000.00000" pt_clust_6="13000.00000" pt_clust_7="13000.00000" pt_clust_8="13000.00000" pt_clust_9="32.21511"></scales>
<clustering>
<clus scale="   32.215">  2  9  1 -1</clus>
<clus scale="   89.466">  5  6 -1 -1</clus>
<clus scale="   92.097">  7  8 -1 -1</clus>
<clus scale="  218.002">  2  5  1 -1</clus>
<clus scale="   32.215">  2  5  1 -1</clus>
</clustering>
</event>
<event>
 9    2  0.3791909E-005  0.9336892E+02  0.7546771E-02  0.1301100E+00
          2   -1    0    0  502    0  0.00000000000E+00  0.00000000000E+00  0.35080697730E+03  0.35080697730E+03  0.00000000000E+00 0. -1.
         -1   -1    0    0    0  501 -0.00000000000E+00 -0.00000000000E+00 -0.33167104034E+02  0.33167104034E+02  0.00000000000E+00 0.  1.
         23    2    1    2    0    0 -0.35141556980E+01  0.14273460460E+02  0.90204621697E+02  0.12922991332E+03  0.91364192966E+02 0.  0.
         24    2    1    2    0    0 -0.20929406369E+02 -0.25743070428E+02  0.18043306882E+03  0.20053858839E+03  0.80986958114E+02 0.  0.
        -11    1    4    4    0    0  0.16445315948E+02  0.20197430554E+02  0.35991186570E+02  0.44426907706E+02  0.00000000000E+00 0.  1.
         12    1    4    4    0    0 -0.37374722317E+02 -0.45940500982E+02  0.14444188225E+03  0.15611168068E+03  0.00000000000E+00 0. -1.
        -13    1    3    3    0    0 -0.40733301532E+02  0.30720140805E+02  0.41513973385E+02  0.65774910802E+02  0.00000000000E+00 0.  1.
         13    1    3    3    0    0  0.37219145834E+02 -0.16446680345E+02  0.48690648312E+02  0.63455002514E+02  0.00000000000E+00 0. -1.
         21    1    1    2  502  501  0.24443562067E+02  0.11469609968E+02  0.47002182753E+02  0.54205579629E+02  0.00000000000E+00 0.  1.
<scales pt_clust_5="13000.00000" pt_clust_6="13000.00000" pt_clust_7="13000.00000" pt_clust_8="13000.00000" pt_clust_9="27.00073"></scales>
<clustering>
<clus scale="   27.001">  1  9  2 -1</clus>
<clus scale="   80.987">  5  6 -1 -1</clus>
<clus scale="   83.242">  1  5  2 -1</clus>
<clus scale="   91.364">  7  8 -1 -1</clus>
<clus scale="   27.001">  1  5  2 -1</clus>
</clustering>
</event>
<event>
 9    2  0.3791909E-005  0.1874959E+03  0.7546771E-02  0.1161895E+00
         -1   -1    0    0    0  501 -0.00000000000E+00  0.00000000000E+00  0.16170919204E+03  0.16170919204E+03  0.00000000000E+00 0.  1.
          2   -1    0    0  502    0  0.00000000000E+00 -0.00000000000E+00 -0.59945355296E+03  0.59945355296E+03  0.00000000000E+00 0. -1.
         24    2    1    2    0    0  0.14222384739E+03  0.58185653623E+02  0.42420643143E+02  0.17821498188E+03  0.79673557385E+02 0.  0.
         23    2    1    2    0    0 -0.20571768909E+03 -0.10621278603E+03 -0.39192093847E+03  0.46409874758E+03  0.90469342740E+02 0.  0.
        -11    1    3    3    0    0  0.13882610143E+03  0.34334399404E+02  0.52166417570E+02  0.15222638583E+03  0.00000000000E+00 0.  1.
         12    1    3    3    0    0  0.33977459640E+01  0.23851254219E+02 -0.97457744272E+01  0.25988596050E+02  0.00000000000E+00 0. -1.
        -13    1    4    4    0    0 -0.16046674560E+02 -0.46496421021E+02 -0.66131191723E+02  0.82418125743E+02  0.00000000000E+00 0.  1.
         13    1    4    4    0    0 -0.18967101453E+03 -0.59716365007E+02 -0.32578974674E+03  0.38168062184E+03  0.00000000000E+00 0. -1.
         21    1    1    2  502  501  0.63493841705E+02  0.48027132405E+02 -0.88244065599E+02  0.11884901554E+03  0.00000000000E+00 0.  1.
<scales pt_clust_5="13000.00000" pt_clust_6="13000.00000" pt_clust_7="13000.00000" pt_clust_8="13000.00000" pt_clust_9="79.61202"></scales>
<clustering>
<clus scale="   79.612">  2  9  1 -1</clus>
<clus scale="   79.674">  5  6 -1 -1</clus>
<clus scale="   90.469">  7  8 -1 -1</clus>
<clus scale="  182.532">  1  5  2 -1</clus>
<clus scale="   79.612">  2  5  1 -1</clus>
</clustering>
</event>
<event>
 9    2  0.3791909E-005  0.1127852E+03  0.7546771E-02  0.1259861E+00
          2   -1    0    0  502    0  0.00000000000E+00  0.00000000000E+00  0.21368503917E+03  0.21368503917E+03  0.00000000000E+00 0. -1.
         -1   -1    0    0    0  501 -0.00000000000E+00 -0.00000000000E+00 -0.12224438785E+03  0.12224438785E+03  0.00000000000E+00 0.  1.
         23    2    1    2    0    0  0.44619084821E+02  0.43847491289E+01 -0.58464036938E+02  0.11726548963E+03  0.91230820927E+02 0.  0.
         24    2    1    2    0    0 -0.68976187390E+02 -0.21573474989E+02  0.13939653051E+03  0.18705472796E+03  0.10166095260E+03 0.  0.
        -13    1    4    4    0    0 -0.19671403372E+02  0.27839086674E+02  0.10266579395E+03  0.10817691114E+03  0.00000000000E+00 0.  1.
         14    1    4    4    0    0 -0.49304784018E+02 -0.49412561663E+02  0.36730736567E+02  0.78877816817E+02  0.00000000000E+00 0. -1.
        -13    1    3    3    0    0 -0.26500893393E+02  0.79743487241E+01 -0.29330958381E+02  0.40326079746E+02  0.00000000000E+00 0.  1.
         13    1    3    3    0    0  0.71119978214E+02 -0.35895995952E+01 -0.29133078557E+02  0.76939409879E+02  0.00000000000E+00 0. -1.
         21    1    1    2  502  501  0.24357102568E+02  0.17188725860E+02  0.10508157743E+02  0.31609209439E+02  0.00000000000E+00 0. -1.
<scales pt_clust_5="13000.00000" pt_clust_6="13000.00000" pt_clust_7="13000.00000" pt_clust_8="13000.00000" pt_clust_9="29.81142"></scales>
<clustering>
<clus scale="   29.811">  1  9  2 -1</clus>
<clus scale="   91.231">  7  8 -1 -1</clus>
<clus scale="  101.661">  5  6 -1 -1</clus>
<clus scale="  103.482">  2  7  1 -1</clus>
<clus scale="   29.811">  1  5  2 -1</clus>
</clustering>
</event>
<event>
 9    2  0.3791909E-005  0.1027312E+03  0.7546771E-02  0.1280938E+00
          4   -1    0    0  502    0  0.00000000000E+00  0.00000000000E+00  0.27771050329E+03  0.27771050329E+03  0.00000000000E+00 0. -1.
         -3   -1    0    0    0  501 -0.00000000000E+00 -0.00000000000E+00 -0.27072015447E+03  0.27072015447E+03  0.00000000000E+00 0.  1.
         24    2    1    2    0    0  0.21871476435E+02  0.41431110978E+02 -0.24427144625E+03  0.26058736091E+03  0.77732456377E+02 0.  0.
         23    2    1    2    0    0 -0.24183733186E+02 -0.64103272308E+02  0.22994664480E+03  0.25663898525E+03  0.91071547844E+02 0.  0.
        -13    1    3    3    0    0  0.13557873608E+02  0.63213202151E+02 -0.14749153568E+03  0.16103874677E+03  0.00000000000E+00 0.  1.
         14    1    3    3    0    0  0.83136028276E+01 -0.21782091173E+02 -0.96779910572E+02  0.99548614145E+02  0.00000000000E+00 0. -1.
        -13    1    4    4    0    0 -0.17547160248E+02 -0.86207755358E+02  0.15508397158E+03  0.17829951811E+03  0.00000000000E+00 0. -1.
         13    1    4    4    0    0 -0.66365729384E+01  0.22104483050E+02  0.74862673218E+02  0.78339467145E+02  0.00000000000E+00 0.  1.
         21    1    1    2  502  501  0.23122567510E+01  0.22672161330E+02  0.21315150279E+02  0.31204311594E+02  0.00000000000E+00 0.  1.
<scales pt_clust_5="13000.00000" pt_clust_6="13000.00000" pt_clust_7="13000.00000" pt_clust_8="13000.00000" pt_clust_9="22.78977"></scales>
<clustering>
<clus scale="   22.790">  1  9  2 -1</clus>
<clus scale="   77.732">  5  6 -1 -1</clus>
<clus scale="   91.072">  7  8 -1 -1</clus>
<clus scale="   91.115">  2  5  1 -1</clus>
<clus scale="   22.790">  1  5  2 -1</clus>
</clustering>
</event>
<event>
 9    2  0.3791909E-005  0.1185407E+03  0.7546771E-02  0.1250557E+00
          2   -1    0    0  502    0  0.00000000000E+00  0.00000000000E+00  0.54033975157E+03  0.54033975157E+03  0.00000000000E+00 0. -1.
         -1   -1    0    0    0  501 -0.00000000000E+00 -0.00000000000E+00 -0.13208333870E+03  0.13208333870E+03  0.00000000000E+00 0.  1.
         24    2    1    2    0    0 -0.15803499267E+02  0.72280465427E+02 -0.93667657445E+02  0.14194521347E+03  0.76815345504E+02 0.  0.
         23    2    1    2    0    0 -0.16305083318E+02 -0.90193345414E+02  0.32942028217E+03  0.35409933708E+03  0.92021317731E+02 0.  0.
        -11    1    3    3    0    0  0.38750469674E+01  0.81695600833E+02 -0.58480062796E+02  0.10054404472E+03  0.00000000000E+00 0.  1.
         12    1    3    3    0    0 -0.19678546235E+02 -0.94151354064E+01 -0.35187594649E+02  0.41401168749E+02  0.00000000000E+00 0. -1.
        -11    1    4    4    0    0  0.28354730058E+02 -0.56034820647E+01  0.12655017684E+03  0.12980884788E+03  0.00000000000E+00 0.  1.
         11    1    4    4    0    0 -0.44659813376E+02 -0.84589863349E+02  0.20287010533E+03  0.22429048921E+03  0.00000000000E+00 0. -1.
         21    1    1    2  502  501  0.32108582586E+02  0.17912879987E+02  0.17250378814E+03  0.17637853971E+03  0.00000000000E+00 0.  1.
<scales pt_clust_5="13000.00000" pt_clust_6="13000.00000" pt_clust_7="13000.00000" pt_clust_8="13000.00000" pt_clust_9="36.76727"></scales>
<clustering>
<clus scale="   36.767">  1  9  2 -1</clus>
<clus scale="   76.815">  5  6 -1 -1</clus>
<clus scale="   92.021">  7  8 -1 -1</clus>
<clus scale="  107.166">  2  5  1 -1</clus>
<clus scale="   36.767">  1  5  2 -1</clus>
</clustering>
</event>
<event>
 9    2  0.3791909E-005  0.2303725E+03  0.7546771E-02  0.1163082E+00
          2   -1    0    0  502    0  0.00000000000E+00  0.00000000000E+00  0.17092437894E+04  0.17092437894E+04  0.00000000000E+00 0. -1.
         -1   -1    0    0    0  501 -0.00000000000E+00 -0.00000000000E+00 -0.76798076633E+02  0.76798076633E+02  0.00000000000E+00 0.  1.
         23    2    1    2    0    0 -0.19570622864E+02 -0.26809813053E+02  0.25695558573E+02  0.99124325847E+02  0.89797521620E+02 0.  0.
         24    2    1    2    0    0 -0.19948329810E+03  0.49564092296E+02  0.36931312976E+03  0.43003537906E+03  0.79297250667E+02 0.  0.
        -11    1    4    4    0    0 -0.15891385452E+03  0.66626319358E+02  0.25714611125E+03  0.30954289221E+03  0.00000000000E+00 0.  1.
         12    1    4    4    0    0 -0.40569443587E+02 -0.17062227062E+02  0.11216701851E+03  0.12049248685E+03  0.00000000000E+00 0. -1.
        -13    1    3    3    0    0 -0.33692839048E+02 -0.58696264358E+01  0.52268375934E+02  0.62463133450E+02  0.00000000000E+00 0. -1.
         13    1    3    3    0    0  0.14122216184E+02 -0.20940186617E+02 -0.26572817361E+02  0.36661192397E+02  0.00000000000E+00 0.  1.
         21    1    1    2  502  501  0.21905392097E+03 -0.22754279244E+02  0.12374370245E+04  0.12568821611E+04  0.00000000000E+00 0. -1.
<scales pt_clust_5="13000.00000" pt_clust_6="13000.00000" pt_clust_7="13000.00000" pt_clust_8="13000.00000" pt_clust_9="216.29481"></scales>
<clustering>
<clus scale="   79.297">  5  6 -1 -1</clus>
<clus scale="   89.798">  7  8 -1 -1</clus>
<clus scale="   95.736">  2  7  1 -1</clus>
<clus scale="  216.295">  1  9  2 -1</clus>
<clus scale="  216.295">  1  5  2 -1</clus>
</clustering>
</event>
<event>
 9    2  0.3791909E-005  0.1968420E+03  0.7546771E-02  0.1153401E+00
          2   -1    0    0  502    0  0.00000000000E+00  0.00000000000E+00  0.33416628664E+03  0.33416628664E+03  0.00000000000E+00 0. -1.
         -1   -1    0    0    0  501 -0.00000000000E+00 -0.00000000000E+00 -0.16493737582E+03  0.16493737582E+03  0.00000000000E+00 0.  1.
         23    2    1    2    0    0  0.12775422457E+03  0.10918446796E+03 -0.25077049184E+02  0.19241074211E+03  0.90280924593E+02 0.  0.
         24    2    1    2    0    0 -0.15516179556E+03 -0.11471468798E+03  0.16541099336E+03  0.26648499354E+03  0.80117492594E+02 0.  0.
        -11    1    4    4    0    0 -0.45993795772E+02 -0.81127782833E+02  0.58834153725E+02  0.11026606024E+03  0.00000000000E+00 0.  1.
         12    1    4    4    0    0 -0.10916799978E+03 -0.33586905148E+02  0.10657683964E+03  0.15621893330E+03  0.00000000000E+00 0. -1.
        -11    1    3    3    0    0  0.53142042351E+02 -0.13359261612E+01 -0.25735840301E+02  0.59060941746E+02  0.00000000000E+00 0. -1.
         11    1    3    3    0    0  0.74612182216E+02  0.11052039412E+03  0.65879111697E+00  0.13334980036E+03  0.00000000000E+00 0.  1.
         21    1    1    2  502  501  0.27407570989E+02  0.55302200237E+01  0.28894966640E+02  0.40207926807E+02  0.00000000000E+00 0.  1.
<scales pt_clust_5="13000.00000" pt_clust_6="13000.00000" pt_clust_7="13000.00000" pt_clust_8="13000.00000" pt_clust_9="27.95994"></scales>
<clustering>
<clus scale="   27.960">  1  9  2 -1</clus>
<clus scale="   80.117">  5  6 -1 -1</clus>
<clus scale="   90.281">  7  8 -1 -1</clus>
<clus scale="  192.393">  1  5  2 -1</clus>
<clus scale="   27.960">  1  5  2 -1</clus>
</clustering>
</event>
<event>
 9    2  0.3791909E-005  0.1357478E+03  0.7546771E-02  0.1223984E+00
          4   -1    0    0  502    0  0.00000000000E+00  0.00000000000E+00  0.29323303591E+03  0.29323303591E+03  0.00000000000E+00 0. -1.
         -3   -1    0    0    0  501 -0.00000000000E+00 -0.00000000000E+00 -0.17417775556E+03  0.17417775556E+03  0.00000000000E+00 0.  1.
         24    2    1    2    0    0  0.24053247461E+02  0.93263208049E+02 -0.12815764858E+03  0.17825705376E+03  0.77939782127E+02 0.  0.
         23    2    1    2    0    0 -0.34143581116E+02 -0.73963352682E+02  0.22346678831E+03  0.25693296111E+03  0.97163673025E+02 0.  0.
        -11    1    3    3    0    0  0.39606959140E+02  0.64648338051E+02 -0.12411331443E+03  0.14543807494E+03  0.00000000000E+00 0.  1.
         12    1    3    3    0    0 -0.15553711679E+02  0.28614869998E+02 -0.40443341504E+01  0.32818978819E+02  0.00000000000E+00 0. -1.
        -13    1    4    4    0    0  0.55978448821E+01 -0.20982399765E+02 -0.21251713253E+01  0.21820021091E+02  0.00000000000E+00 0.  1.
         13    1    4    4    0    0 -0.39741425998E+02 -0.52980952917E+02  0.22559195964E+03  0.23511294002E+03  0.00000000000E+00 0. -1.
         21    1    1    2  502  501  0.10090333655E+02 -0.19299855367E+02  0.23746140617E+02  0.32220776599E+02  0.00000000000E+00 0.  1.
<scales pt_clust_5="13000.00000" pt_clust_6="13000.00000" pt_clust_7="13000.00000" pt_clust_8="13000.00000" pt_clust_9="21.77841"></scales>
<clustering>
<clus scale="   21.778">  1  9  2 -1</clus>
<clus scale="   77.940">  5  6 -1 -1</clus>
<clus scale="   97.164">  7  8 -1 -1</clus>
<clus scale="  122.724">  2  5  1 -1</clus>
<clus scale="   21.778">  1  5  2 -1</clus>
</clustering>
</event>
<event>
 9    2  0.3791909E-005  0.9734845E+02  0.7546771E-02  0.1294847E+00
          2   -1    0    0  502    0  0.00000000000E+00  0.00000000000E+00  0.43406950561E+03  0.43406950561E+03  0.00000000000E+00 0. -1.
         -1   -1    0    0    0  501 -0.00000000000E+00 -0.00000000000E+00 -0.85903396406E+02  0.85903396406E+02  0.00000000000E+00 0.  1.
         23    2    1    2    0    0  0.99096498046E+01 -0.94548190835E+01 -0.23316611750E+02  0.10002234313E+03  0.96297507645E+02 0.  0.
         24    2    1    2    0    0  0.66949844610E+02  0.38463186388E+02  0.18698990684E+03  0.21799396524E+03  0.81206189557E+02 0.  0.
        -11    1    4    4    0    0  0.28523661562E+02  0.40537520549E+02  0.33676913004E+02  0.59925155908E+02  0.00000000000E+00 0.  1.
         12    1    4    4    0    0  0.38426183049E+02 -0.20743341616E+01  0.15331299383E+03  0.15806880933E+03  0.00000000000E+00 0. -1.
        -11    1    3    3    0    0 -0.34773113454E+02 -0.95146260193E+01  0.16982638467E+02  0.39851066948E+02  0.00000000000E+00 0.  1.
         11    1    3    3    0    0  0.44682763259E+02  0.59806935830E-01 -0.40299250217E+02  0.60171276182E+02  0.00000000000E+00 0. -1.
         21    1    1    2  502  501 -0.76859494415E+02 -0.29008367304E+02  0.18449281411E+03  0.20195659364E+03  0.00000000000E+00 0. -1.
<scales pt_clust_5="13000.00000" pt_clust_6="13000.00000" pt_clust_7="13000.00000" pt_clust_8="13000.00000" pt_clust_9="82.15149"></scales>
<clustering>
<clus scale="   81.206">  5  6 -1 -1</clus>
<clus scale="   82.151">  1  9  2 -1</clus>
<clus scale="   82.450">  1  5  2 -1</clus>
<clus scale="   96.298">  7  8 -1 -1</clus>
<clus scale="   82.151">  1  5  2 -1</clus>
</clustering>
</event>
<event>
 9    2  0.3791909E-005  0.1590741E+03  0.7546771E-02  0.1191373E+00
          4   -1    0    0  502    0  0.00000000000E+00  0.00000000000E+00  0.76859560062E+03  0.76859560062E+03  0.00000000000E+00 0. -1.
         -3   -1    0    0    0  501 -0.00000000000E+00 -0.00000000000E+00 -0.56176000634E+02  0.56176000634E+02  0.00000000000E+00 0.  1.
         24    2    1    2    0    0 -0.10762492348E+03 -0.81707805767E+02  0.96073488195E+02  0.18437676544E+03  0.80655978224E+02 0.  0.
         23    2    1    2    0    0  0.84993335693E+02  0.77715779715E+02  0.47331827222E+03  0.49553252902E+03  0.90877340224E+02 0.  0.
        -13    1    3    3    0    0 -0.64539969739E+02 -0.92590381748E+00  0.28353604076E+02  0.70499587629E+02  0.00000000000E+00 0.  1.
         14    1    3    3    0    0 -0.43084953744E+02 -0.80781901950E+02  0.67719884118E+02  0.11387717781E+03  0.00000000000E+00 0. -1.
        -13    1    4    4    0    0  0.41903005470E+02 -0.12643297687E+02  0.19223152399E+03  0.19715139781E+03  0.00000000000E+00 0.  1.
         13    1    4    4    0    0  0.43090330223E+02  0.90359077402E+02  0.28108674823E+03  0.29838113121E+03  0.00000000000E+00 0. -1.
         21    1    1    2  502  501  0.22631587790E+02  0.39920260527E+01  0.14302783957E+03  0.14486230679E+03  0.00000000000E+00 0.  1.
<scales pt_clust_5="13000.00000" pt_clust_6="13000.00000" pt_clust_7="13000.00000" pt_clust_8="13000.00000" pt_clust_9="22.98097"></scales>
<clustering>
<clus scale="   22.981">  1  9  2 -1</clus>
<clus scale="   80.656">  5  6 -1 -1</clus>
<clus scale="   90.877">  7  8 -1 -1</clus>
<clus scale="  153.464">  2  5  1 -1</clus>
<clus scale="   22.981">  1  5  2 -1</clus>
</clustering>
</event>
<event>
 9    2  0.3791909E-005  0.1123530E+03  0.7546771E-02  0.1264133E+00
          2   -1    0    0  502    0  0.00000000000E+00  0.00000000000E+00  0.58596535359E+03  0.58596535359E+03  0.00000000000E+00 0. -1.
         -1   -1    0    0    0  501 -0.00000000000E+00 -0.00000000000E+00 -0.10258218888E+03  0.10258218888E+03  0.00000000000E+00 0.  1.
         23    2    1    2    0    0  0.34796446435E+02 -0.50229032916E+02 -0.45848592840E+02  0.12050502066E+03  0.93196663601E+02 0.  0.
         24    2    1    2    0    0 -0.10357752695E+03  0.21015489223E+02  0.38039095247E+03  0.40149567126E+03  0.73017411912E+02 0.  0.
        -13    1    4    4    0    0 -0.10039689731E+03  0.16316040509E+02  0.23590904596E+03  0.25690237082E+03  0.00000000000E+00 0.  1.
         14    1    4    4    0    0 -0.31806296414E+01  0.46994487137E+01  0.14448190651E+03  0.14459330044E+03  0.00000000000E+00 0. -1.
        -11    1    3    3    0    0 -0.10980224707E+02 -0.52482052800E+02  0.27691801472E+01  0.53689845962E+02  0.00000000000E+00 0. -1.
         11    1    3    3    0    0  0.45776671142E+02  0.22530198845E+01 -0.48617772987E+02  0.66815174696E+02  0.00000000000E+00 0.  1.
         21    1    1    2  502  501  0.68781080514E+02  0.29213543693E+02  0.14884080507E+03  0.16654685055E+03  0.00000000000E+00 0. -1.
<scales pt_clust_5="13000.00000" pt_clust_6="13000.00000" pt_clust_7="13000.00000" pt_clust_8="13000.00000" pt_clust_9="74.72796"></scales>
<clustering>
<clus scale="   73.017">  5  6 -1 -1</clus>
<clus scale="   74.728">  1  9  2 -1</clus>
<clus scale="   93.197">  7  8 -1 -1</clus>
<clus scale="   96.276">  1  5  2 -1</clus>
<clus scale="   74.728">  1  5  2 -1</clus>
</clustering>
</event>
<event>
 9    2  0.3791909E-005  0.2100831E+03  0.7546771E-02  0.1142486E+00
         -1   -1    0    0    0  501 -0.00000000000E+00  0.00000000000E+00  0.20023553560E+03  0.20023553560E+03  0.00000000000E+00 0.  1.
          2   -1    0    0  502    0  0.00000000000E+00 -0.00000000000E+00 -0.31009024017E+03  0.31009024017E+03  0.00000000000E+00 0. -1.
         24    2    1    2    0    0  0.15468374025E+03  0.29690427851E+02 -0.39121194943E+02  0.18153311619E+03  0.81334023478E+02 0.  0.
         23    2    1    2    0    0 -0.22058153998E+03 -0.51013041402E+02 -0.25581209162E+02  0.24611313313E+03  0.93052296388E+02 0.  0.
        -13    1    3    3    0    0  0.10531515828E+03  0.32661409010E+02  0.11377884802E+02  0.11084902554E+03  0.00000000000E+00 0.  1.
         14    1    3    3    0    0  0.49368581978E+02 -0.29709811588E+01 -0.50499079745E+02  0.70684090647E+02  0.00000000000E+00 0. -1.
        -13    1    4    4    0    0 -0.16621302277E+03 -0.52044045949E+01  0.10034211883E+02  0.16659693927E+03  0.00000000000E+00 0.  1.
         13    1    4    4    0    0 -0.54368517212E+02 -0.45808636808E+02 -0.35615421045E+02  0.79516193861E+02  0.00000000000E+00 0. -1.
         21    1    1    2  502  501  0.65897799729E+02  0.21322613551E+02 -0.45152300463E+02  0.82679526455E+02  0.00000000000E+00 0. -1.
<scales pt_clust_5="13000.00000" pt_clust_6="13000.00000" pt_clust_7="13000.00000" pt_clust_8="13000.00000" pt_clust_9="69.26163"></scales>
<clustering>
<clus scale="   69.262">  2  9  1 -1</clus>
<clus scale="   81.334">  5  6 -1 -1</clus>
<clus scale="   93.052">  7  8 -1 -1</clus>
<clus scale="  205.162">  1  5  2 -1</clus>
<clus scale="   69.262">  2  5  1 -1</clus>
</clustering>
</event>
<event>
 9    2  0.3791909E-005  0.9479644E+02  0.7546771E-02  0.1291748E+00
          2   -1    0    0  502    0  0.00000000000E+00  0.00000000000E+00  0.83122732379E+02  0.83122732379E+02  0.00000000000E+00 0. -1.
         -1   -1    0    0    0  501 -0.00000000000E+00 -0.00000000000E+00 -0.41332596100E+03  0.41332596100E+03  0.00000000000E+00 0.  1.
         24    2    1    2    0    0  0.48623943642E+02 -0.40997075432E+01 -0.36810615960E+03  0.38027691386E+03  0.82020064507E+02 0.  0.
         23    2    1    2    0    0 -0.29643335907E+02  0.13274664242E+02  0.27139020069E+02  0.92501015300E+02  0.82249421559E+02 0.  0.
        -13    1    3    3    0    0  0.54159798874E+02  0.82119835220E+01 -0.12122689719E+03  0.13302887315E+03  0.00000000000E+00 0.  1.
         14    1    3    3    0    0 -0.55358552322E+01 -0.12311691065E+02 -0.24687926241E+03  0.24724804071E+03  0.00000000000E+00 0. -1.
        -13    1    4    4    0    0  0.65986251065E+01  0.40505881888E+02  0.22834738016E+02  0.46964812158E+02  0.00000000000E+00 0.  1.
         13    1    4    4    0    0 -0.36241961013E+02 -0.27231217646E+02  0.43042820529E+01  0.45536203142E+02  0.00000000000E+00 0. -1.
         21    1    1    2  502  501 -0.18980607735E+02 -0.91749566986E+01  0.10763910914E+02  0.23670764216E+02  0.00000000000E+00 0. -1.
<scales pt_clust_5="13000.00000" pt_clust_6="13000.00000" pt_clust_7="13000.00000" pt_clust_8="13000.00000" pt_clust_9="21.08182"></scales>
<clustering>
<clus scale="   21.082">  1  9  2 -1</clus>
<clus scale="   82.020">  5  6 -1 -1</clus>
<clus scale="   82.249">  7  8 -1 -1</clus>
<clus scale="   94.598">  2  5  1 -1</clus>
<clus scale="   21.082">  1  5  2 -1</clus>
</clustering>
</event>
<event>
 9    2  0.3791909E-005  0.1406931E+03  0.7546771E-02  0.1218562E+00
         -1   -1    0    0    0  501 -0.00000000000E+00  0.00000000000E+00  0.69107605262E+03  0.69107605262E+03  0.00000000000E+00 0.  1.
          2   -1    0    0  502    0  0.00000000000E+00 -0.00000000000E+00 -0.49300478947E+03  0.49300478947E+03  0.00000000000E+00 0. -1.
         23    2    1    2    0    0 -0.49790446884E+02 -0.89756436574E+02  0.66788551180E+03  0.68261815328E+03  0.96753190194E+02 0.  0.
         24    2    1    2    0    0  0.12241183489E+02  0.91868726025E+02 -0.21787738966E+03  0.24673422580E+03  0.69408298241E+02 0.  0.
        -11    1    4    4    0    0 -0.15018760710E+02  0.85226081281E+02 -0.14815057083E+03  0.17157400660E+03  0.00000000000E+00 0.  1.
         12    1    4    4    0    0  0.27259944199E+02  0.66426447444E+01 -0.69726818831E+02  0.75160219207E+02  0.00000000000E+00 0. -1.
        -13    1    3    3    0    0 -0.66281704107E+02 -0.20156814605E+02  0.34891268648E+03  0.35572408445E+03  0.00000000000E+00 0.  1.
         13    1    3    3    0    0  0.16491257223E+02 -0.69599621969E+02  0.31897282532E+03  0.32689406882E+03  0.00000000000E+00 0. -1.
         21    1    1    2  502  501  0.37549263395E+02 -0.21122894512E+01 -0.25193685899E+03  0.25472846301E+03  0.00000000000E+00 0. -1.
<scales pt_clust_5="13000.00000" pt_clust_6="13000.00000" pt_clust_7="13000.00000" pt_clust_8="13000.00000" pt_clust_9="37.60863"></scales>
<clustering>
<clus scale="   37.609">  2  9  1 -1</clus>
<clus scale="   69.408">  5  6 -1 -1</clus>
<clus scale="   96.753">  7  8 -1 -1</clus>
<clus scale="  123.494">  2  5  1 -1</clus>
<clus scale="   37.609">  2  5  1 -1</clus>
</clustering>
</event>
<event>
 9    2  0.3791909E-005  0.1566085E+03  0.7546771E-02  0.1193509E+00
          2   -1    0    0  502    0  0.00000000000E+00  0.00000000000E+00  0.22288743858E+03  0.22288743858E+03  0.00000000000E+00 0. -1.
         -1   -1    0    0    0  501 -0.00000000000E+00 -0.00000000000E+00 -0.42811091786E+03  0.42811091786E+03  0.00000000000E+00 0.  1.
         24    2    1    2    0    0 -0.11163895549E+03 -0.83588264934E+02 -0.36639694499E+03  0.40025612305E+03  0.80672103747E+02 0.  0.
         23    2    1    2    0    0  0.85896913858E+02  0.24628615418E+02  0.14220985044E+03  0.18367128824E+03  0.74341455832E+02 0.  0.
        -11    1    3    3    0    0 -0.11413040503E+03 -0.45419405727E+02 -0.28262381418E+03  0.30816374237E+03  0.00000000000E+00 0.  1.
         12    1    3    3    0    0  0.24914495372E+01 -0.38168859207E+02 -0.83773130813E+02  0.92092380685E+02  0.00000000000E+00 0. -1.
        -11    1    4    4    0    0  0.74644330289E+02  0.41555205051E+02  0.75768674273E+02  0.11419064372E+03  0.00000000000E+00 0. -1.
         11    1    4    4    0    0  0.11252583569E+02 -0.16926589634E+02  0.66441176167E+02  0.69480644528E+02  0.00000000000E+00 0.  1.
         21    1    1    2  502  501  0.25742041632E+02  0.58959649517E+02  0.18963615268E+02  0.67070945144E+02  0.00000000000E+00 0. -1.
<scales pt_clust_5="13000.00000" pt_clust_6="13000.00000" pt_clust_7="13000.00000" pt_clust_8="13000.00000" pt_clust_9="64.33423"></scales>
<clustering>
<clus scale="   64.334">  1  9  2 -1</clus>
<clus scale="   74.341">  7  8 -1 -1</clus>
<clus scale="   80.672">  5  6 -1 -1</clus>
<clus scale="  153.443">  1  7  2 -1</clus>
<clus scale="   64.334">  1  5  2 -1</clus>
</clustering>
</event>
<event>
 9    2  0.3791909E-005  0.1148440E+03  0.7546771E-02  0.1254881E+00
          2   -1    0    0  502    0  0.00000000000E+00  0.00000000000E+00  0.44742684686E+03  0.44742684686E+03  0.00000000000E+00 0. -1.
         -1   -1    0    0    0  501 -0.00000000000E+00 -0.00000000000E+00 -0.77852739672E+02  0.77852739672E+02  0.00000000000E+00 0.  1.
         23    2    1    2    0    0  0.18301136419E+02  0.59528371948E+02  0.20544308921E+02  0.11186902136E+03  0.90631399913E+02 0.  0.
         24    2    1    2    0    0 -0.87018370081E+02 -0.80246923399E+02  0.27432428371E+03  0.30981408607E+03  0.81970664564E+02 0.  0.
        -13    1    4    4    0    0 -0.31256371845E+02  0.13058035857E+02  0.48102808667E+02  0.58833266806E+02  0.00000000000E+00 0.  1.
         14    1    4    4    0    0 -0.55761998237E+02 -0.93304959256E+02  0.22622147504E+03  0.25098081927E+03  0.00000000000E+00 0. -1.
        -13    1    3    3    0    0  0.18869906203E+02  0.82887927194E+02  0.23798270680E+02  0.88277061132E+02  0.00000000000E+00 0.  1.
         13    1    3    3    0    0 -0.56876978311E+00 -0.23359555246E+02 -0.32539617592E+01  0.23591960230E+02  0.00000000000E+00 0. -1.
         21    1    1    2  502  501  0.68717233662E+02  0.20718551451E+02  0.74705514558E+02  0.10359647910E+03  0.00000000000E+00 0.  1.
<scales pt_clust_5="13000.00000" pt_clust_6="13000.00000" pt_clust_7="13000.00000" pt_clust_8="13000.00000" pt_clust_9="71.77267"></scales>
<clustering>
<clus scale="   71.773">  1  9  2 -1</clus>
<clus scale="   81.971">  5  6 -1 -1</clus>
<clus scale="   90.631">  7  8 -1 -1</clus>
<clus scale="  108.140">  1  5  2 -1</clus>
<clus scale="   71.773">  1  5  2 -1</clus>
</clustering>
</event>
<event>
 9    2  0.3791909E-005  0.1032585E+03  0.7546771E-02  0.1280402E+00
          2   -1    0    0  502    0  0.00000000000E+00  0.00000000000E+00  0.16497365577E+04  0.16497365577E+04  0.00000000000E+00 0. -1.
         -1   -1    0    0    0  501 -0.00000000000E+00 -0.00000000000E+00 -0.37967196964E+02  0.37967196964E+02  0.00000000000E+00 0.  1.
         23    2    1    2    0    0 -0.38761048557E+01  0.18214284392E+02  0.32179492764E+02  0.99540522752E+02  0.92336404361E+02 0.  0.
         24    2    1    2    0    0 -0.26815519724E+02 -0.39364155590E+02  0.14609843621E+04  0.14638388220E+04  0.77975519976E+02 0.  0.
        -13    1    4    4    0    0 -0.17558784537E+01 -0.20348023147E+02  0.82324050155E+02  0.84819658034E+02  0.00000000000E+00 0.  1.
         14    1    4    4    0    0 -0.25059641271E+02 -0.19016132443E+02  0.13786603119E+04  0.13790191640E+04  0.00000000000E+00 0. -1.
        -11    1    3    3    0    0 -0.37872882912E+02  0.37925930868E+02  0.10354919377E+02  0.54588971849E+02  0.00000000000E+00 0.  1.
         11    1    3    3    0    0  0.33996778056E+02 -0.19711646476E+02  0.21824573387E+02  0.44951550902E+02  0.00000000000E+00 0. -1.
         21    1    1    2  502  501  0.30691624580E+02  0.21149871199E+02  0.11860550585E+03  0.12432440987E+03  0.00000000000E+00 0.  1.
<scales pt_clust_5="13000.00000" pt_clust_6="13000.00000" pt_clust_7="13000.00000" pt_clust_8="13000.00000" pt_clust_9="37.27322"></scales>
<clustering>
<clus scale="   37.273">  2  9  1 -1</clus>
<clus scale="   77.976">  5  6 -1 -1</clus>
<clus scale="   90.645">  1  5  2 -1</clus>
<clus scale="   92.336">  7  8 -1 -1</clus>
<clus scale="   90.645">  1  5  2 -1</clus>
</clustering>
</event>
<event>
 9    2  0.3791909E-005  0.1109820E+03  0.7546771E-02  0.1262054E+00
         -1   -1    0    0    0  501 -0.00000000000E+00  0.00000000000E+00  0.25264337528E+03  0.25264337528E+03  0.00000000000E+00 0.  1.
          2   -1    0    0  502    0  0.00000000000E+00 -0.00000000000E+00 -0.14478645248E+03  0.14478645248E+03  0.00000000000E+00 0. -1.
         23    2    1    2    0    0  0.39722583791E+02  0.49136338136E+02  0.19503877039E+03  0.22369340155E+03  0.89478223903E+02 0.  0.
         24    2    1    2    0    0 -0.60576642960E+02 -0.61949874038E+02 -0.90508306993E+02  0.14903533679E+03  0.80699822877E+02 0.  0.
        -11    1    4    4    0    0 -0.56386200935E+02 -0.13280799535E+00 -0.45491833374E+02  0.72449487214E+02  0.00000000000E+00 0.  1.
         12    1    4    4    0    0 -0.41904420241E+01 -0.61817066042E+02 -0.45016473619E+02  0.76585849578E+02  0.00000000000E+00 0. -1.
        -13    1    3    3    0    0  0.38363761340E+02  0.96551731780E+01  0.20145756225E+02  0.44394279441E+02  0.00000000000E+00 0. -1.
         13    1    3    3    0    0  0.13588224513E+01  0.39481164958E+02  0.17489301417E+03  0.17929912211E+03  0.00000000000E+00 0.  1.
         21    1    1    2  502  501  0.20854059168E+02  0.12813535901E+02  0.33264594036E+01  0.24701089414E+02  0.00000000000E+00 0.  1.
<scales pt_clust_5="13000.00000" pt_clust_6="13000.00000" pt_clust_7="13000.00000" pt_clust_8="13000.00000" pt_clust_9="24.47608"></scales>
<clustering>
<clus scale="   24.476">  2  9  1 -1</clus>
<clus scale="   80.700">  5  6 -1 -1</clus>
<clus scale="   89.478">  7  8 -1 -1</clus>
<clus scale="  104.034">  2  5  1 -1</clus>
<clus scale="   24.476">  2  5  1 -1</clus>
</clustering>
</event>
<event>
 9    2  0.3791909E-005  0.9454355E+02  0.7546771E-02  0.1294421E+00
         -1   -1    0    0    0  501 -0.00000000000E+00  0.00000000000E+00  0.63866477554E+03  0.63866477554E+03  0.00000000000E+00 0.  1.
          2   -1    0    0  502    0  0.00000000000E+00 -0.00000000000E+00 -0.21516329901E+02  0.21516329901E+02  0.00000000000E+00 0. -1.
         23    2    1    2    0    0  0.42861623889E+01  0.73703491005E+01  0.38558931438E+03  0.39601436206E+03  0.89864132776E+02 0.  0.
         24    2    1    2    0    0 -0.24989833651E+02 -0.13911266956E+01  0.21825543793E+03  0.23884123529E+03  0.93719114732E+02 0.  0.
        -11    1    4    4    0    0 -0.56704457076E+02 -0.24301915481E+01  0.18208081647E+03  0.19072159031E+03  0.00000000000E+00 0.  1.
         12    1    4    4    0    0  0.31714623424E+02  0.10390648525E+01  0.36174621457E+02  0.48119644973E+02  0.00000000000E+00 0. -1.
        -11    1    3    3    0    0  0.27623648252E+02  0.39113651961E+02  0.26058701605E+03  0.26495006444E+03  0.00000000000E+00 0.  1.
         11    1    3    3    0    0 -0.23337485863E+02 -0.31743302861E+02  0.12500229833E+03  0.13106429762E+03  0.00000000000E+00 0. -1.
         21    1    1    2  502  501  0.20703671262E+02 -0.59792224049E+01  0.13303693331E+02  0.25325508101E+02  0.00000000000E+00 0. -1.
<scales pt_clust_5="13000.00000" pt_clust_6="13000.00000" pt_clust_7="13000.00000" pt_clust_8="13000.00000" pt_clust_9="21.54978"></scales>
<clustering>
<clus scale="   21.550">  2  9  1 -1</clus>
<clus scale="   89.864">  7  8 -1 -1</clus>
<clus scale="   90.724">  1  7  2 -1</clus>
<clus scale="   93.719">  5  6 -1 -1</clus>
<clus scale="   21.550">  2  5  1 -1</clus>
</clustering>
</event>
<event>
 9    2  0.3791909E-005  0.1027963E+03  0.7546771E-02  0.1278496E+00
          4   -1    0    0  502    0  0.00000000000E+00  0.00000000000E+00  0.35499597132E+03  0.35499597132E+03  0.00000000000E+00 0. -1.
         -3   -1    0    0    0  501 -0.00000000000E+00 -0.00000000000E+00 -0.40427130967E+02  0.40427130967E+02  0.00000000000E+00 0.  1.
         24    2    1    2    0    0  0.22445626643E+02  0.35791357689E+02  0.62679844808E+02  0.11585064622E+03  0.87793973844E+02 0.  0.
         23    2    1    2    0    0 -0.22438488966E+02 -0.14330759797E+02  0.19928367984E+03  0.22275805161E+03  0.95907810142E+02 0.  0.
        -13    1    3    3    0    0  0.51291152715E+02  0.27263984980E+02  0.63103554620E+02  0.85768093307E+02  0.00000000000E+00 0.  1.
         14    1    3    3    0    0 -0.28845526071E+02  0.85273727090E+01 -0.42370981204E+00  0.30082552911E+02  0.00000000000E+00 0. -1.
        -13    1    4    4    0    0 -0.98593611539E+01  0.19918053632E+02  0.22087639735E+01  0.22334155483E+02  0.00000000000E+00 0.  1.
         13    1    4    4    0    0 -0.12579127812E+02 -0.34248813429E+02  0.19707491586E+03  0.20042389613E+03  0.00000000000E+00 0. -1.
         21    1    1    2  502  501 -0.71376773537E-02 -0.21460597892E+02  0.52605315708E+02  0.56814404455E+02  0.00000000000E+00 0.  1.
<scales pt_clust_5="13000.00000" pt_clust_6="13000.00000" pt_clust_7="13000.00000" pt_clust_8="13000.00000" pt_clust_9="21.46060"></scales>
<clustering>
<clus scale="   21.461">  1  9  2 -1</clus>
<clus scale="   87.794">  5  6 -1 -1</clus>
<clus scale="   95.271">  2  5  1 -1</clus>
<clus scale="   95.908">  7  8 -1 -1</clus>
<clus scale="   21.461">  1  5  2 -1</clus>
</clustering>
</event>
<event>
 9    2  0.3791909E-005  0.1298354E+03  0.7546771E-02  0.1251024E+00
          2   -1    0    0  502    0  0.00000000000E+00  0.00000000000E+00  0.76861698045E+02  0.76861698045E+02  0.00000000000E+00 0. -1.
         -1   -1    0    0    0  501 -0.00000000000E+00 -0.00000000000E+00 -0.36819885212E+03  0.36819885212E+03  0.00000000000E+00 0.  1.
         23    2    1    2    0    0  0.75649448661E+02 -0.38256350599E+02 -0.14895937311E+03  0.19491096591E+03  0.92817036956E+02 0.  0.
         24    2    1    2    0    0  0.59344643715E+01 -0.97099184290E+01 -0.19743374123E+01  0.80827923532E+02  0.79998467679E+02 0.  0.
        -13    1    4    4    0    0  0.91727177942E+01  0.33680556391E+02  0.88066308988E+01  0.36001046906E+02  0.00000000000E+00 0.  1.
         14    1    4    4    0    0 -0.32382534227E+01 -0.43390474820E+02 -0.10780968311E+02  0.44826876626E+02  0.00000000000E+00 0. -1.
        -11    1    3    3    0    0  0.96980142876E+02 -0.38270246935E+02 -0.12044097319E+03  0.15929779640E+03  0.00000000000E+00 0. -1.
         11    1    3    3    0    0 -0.21330694215E+02  0.13896335862E-01 -0.28518399918E+02  0.35613169512E+02  0.00000000000E+00 0.  1.
         21    1    1    2  502  501 -0.81583913032E+02  0.47966269028E+02 -0.14040344356E+03  0.16932166073E+03  0.00000000000E+00 0.  1.
<scales pt_clust_5="13000.00000" pt_clust_6="13000.00000" pt_clust_7="13000.00000" pt_clust_8="13000.00000" pt_clust_9="90.78668"></scales>
<clustering>
<clus scale="   79.998">  5  6 -1 -1</clus>
<clus scale="   80.804">  1  5  2 -1</clus>
<clus scale="   90.787">  2  9  1 -1</clus>
<clus scale="   92.817">  7  8 -1 -1</clus>
<clus scale="   80.804">  1  5  2 -1</clus>
</clustering>
</event>
<event>
 9    2  0.3791909E-005  0.1308907E+03  0.7546771E-02  0.1229641E+00
         -1   -1    0    0    0  501 -0.00000000000E+00  0.00000000000E+00  0.58719295875E+03  0.58719295875E+03  0.00000000000E+00 0.  1.
          2   -1    0    0  502    0  0.00000000000E+00 -0.00000000000E+00 -0.73549731016E+02  0.73549731016E+02  0.00000000000E+00 0. -1.
         23    2    1    2    0    0  0.13649889251E+01  0.88888967568E+02  0.46808477261E+03  0.48537601861E+03  0.92646712516E+02 0.  0.
         24    2    1    2    0    0 -0.82792572138E+01 -0.11073268441E+03  0.59228549039E+02  0.14868659358E+03  0.79179597080E+02 0.  0.
        -11    1    4    4    0    0  0.14522302051E+02 -0.64008895304E+02  0.69604853007E+02  0.95670640727E+02  0.00000000000E+00 0.  1.
         12    1    4    4    0    0 -0.22801559265E+02 -0.46723789105E+02 -0.10376303968E+02  0.53015952857E+02  0.00000000000E+00 0. -1.
        -11    1    3    3    0    0  0.20403752052E+02  0.99913562596E+02  0.42420397221E+03  0.43628894454E+03  0.00000000000E+00 0.  1.
         11    1    3    3    0    0 -0.19038763127E+02 -0.11024595028E+02  0.43880800408E+02  0.49087074076E+02  0.00000000000E+00 0. -1.
         21    1    1    2  502  501  0.69142682886E+01  0.21843716840E+02 -0.13670093920E+02  0.26680077570E+02  0.00000000000E+00 0. -1.
<scales pt_clust_5="13000.00000" pt_clust_6="13000.00000" pt_clust_7="13000.00000" pt_clust_8="13000.00000" pt_clust_9="22.91190"></scales>
<clustering>
<clus scale="   22.912">  2  9  1 -1</clus>
<clus scale="   79.180">  5  6 -1 -1</clus>
<clus scale="   92.647">  7  8 -1 -1</clus>
<clus scale="  121.731">  2  5  1 -1</clus>
<clus scale="   22.912">  2  5  1 -1</clus>
</clustering>
</event>
<event>
 9    2  0.3791909E-005  0.1441513E+03  0.7546771E-02  0.1221528E+00
          2   -1    0    0  502    0  0.00000000000E+00  0.00000000000E+00  0.51000285397E+02  0.51000285397E+02  0.00000000000E+00 0. -1.
         -1   -1    0    0    0  501 -0.00000000000E+00 -0.00000000000E+00 -0.72762535685E+03  0.72762535685E+03  0.00000000000E+00 0.  1.
         24    2    1    2    0    0 -0.11488627428E+03 -0.76818857995E+02 -0.33493493695E+03  0.37097988271E+03  0.79653426943E+02 0.  0.
         23    2    1    2    0    0  0.54658395777E+02 -0.16215287213E+02 -0.13209564457E+03  0.17055379482E+03  0.91590730126E+02 0.  0.
        -11    1    3    3    0    0 -0.63231221348E+02 -0.12154224653E+02 -0.22079225485E+03  0.22998941787E+03  0.00000000000E+00 0.  1.
         12    1    3    3    0    0 -0.51655052929E+02 -0.64664633342E+02 -0.11414268209E+03  0.14099046483E+03  0.00000000000E+00 0. -1.
        -13    1    4    4    0    0  0.26140340516E+02  0.38227422321E+02 -0.52873905815E+02  0.70287290002E+02  0.00000000000E+00 0.  1.
         13    1    4    4    0    0  0.28518055261E+02 -0.54442709534E+02 -0.79221738758E+02  0.10026650482E+03  0.00000000000E+00 0. -1.
         21    1    1    2  502  501  0.60227878500E+02  0.93034145208E+02 -0.20959448993E+03  0.23709196471E+03  0.00000000000E+00 0.  1.
<scales pt_clust_5="13000.00000" pt_clust_6="13000.00000" pt_clust_7="13000.00000" pt_clust_8="13000.00000" pt_clust_9="120.14550"></scales>
<clustering>
<clus scale="   79.653">  5  6 -1 -1</clus>
<clus scale="   91.591">  7  8 -1 -1</clus>
<clus scale="  107.886">  1  7  2 -1</clus>
<clus scale="  120.146">  2  9  1 -1</clus>
<clus scale="  107.886">  1  5  2 -1</clus>
</clustering>
</event>
<event>
 9    2  0.3791909E-005  0.1395081E+03  0.7546771E-02  0.1216423E+00
         -1   -1    0    0    0  501 -0.00000000000E+00  0.00000000000E+00  0.10100872593E+03  0.10100872593E+03  0.00000000000E+00 0.  1.
          2   -1    0    0  502    0  0.00000000000E+00 -0.00000000000E+00 -0.27793572376E+03  0.27793572376E+03  0.00000000000E+00 0. -1.
         23    2    1    2    0    0 -0.62590056357E+02  0.10517508231E+03 -0.16506174649E+02  0.15178711793E+03  0.88247165810E+02 0.  0.
         24    2    1    2    0    0  0.41961804405E+02 -0.77797750596E+02 -0.86052038459E+02  0.14526863161E+03  0.76712052381E+02 0.  0.
        -13    1    4    4    0    0  0.29995529165E+02 -0.16482378980E+02  0.52636574920E+01  0.34628119743E+02  0.00000000000E+00 0.  1.
         14    1    4    4    0    0  0.11966275240E+02 -0.61315371616E+02 -0.91315695951E+02  0.11064051187E+03  0.00000000000E+00 0. -1.
        -11    1    3    3    0    0 -0.69152142956E+01  0.60661859233E+02  0.28611724199E+02  0.67426345860E+02  0.00000000000E+00 0. -1.
         11    1    3    3    0    0 -0.55674842061E+02  0.44513223075E+02 -0.45117898848E+02  0.84360772066E+02  0.00000000000E+00 0.  1.
         21    1    1    2  502  501  0.20628251952E+02 -0.27377331711E+02 -0.74368784724E+02  0.81888700145E+02  0.00000000000E+00 0. -1.
<scales pt_clust_5="13000.00000" pt_clust_6="13000.00000" pt_clust_7="13000.00000" pt_clust_8="13000.00000" pt_clust_9="34.27890"></scales>
<clustering>
<clus scale="   34.279">  2  9  1 -1</clus>
<clus scale="   76.712">  5  6 -1 -1</clus>
<clus scale="   88.247">  7  8 -1 -1</clus>
<clus scale="  132.513">  2  5  1 -1</clus>
<clus scale="   34.279">  2  5  1 -1</clus>
</clustering>
</event>
<event>
 9    2  0.3791909E-005  0.1558132E+03  0.7546771E-02  0.1195903E+00
         -1   -1    0    0    0  501 -0.00000000000E+00  0.00000000000E+00  0.33971748955E+02  0.33971748955E+02  0.00000000000E+00 0.  1.
          2   -1    0    0  502    0  0.00000000000E+00 -0.00000000000E+00 -0.10952761884E+04  0.10952761884E+04  0.00000000000E+00 0. -1.
         24    2    1    2    0    0  0.95370485633E+02  0.39137206274E+02 -0.34810562186E+03  0.37130485008E+03  0.77862168460E+02 0.  0.
         23    2    1    2    0    0 -0.12153438343E+03 -0.10346744242E+03 -0.46420932744E+03  0.49944996351E+03  0.92107808422E+02 0.  0.
        -13    1    3    3    0    0  0.89019454737E+02  0.16776986370E+02 -0.17907357646E+03  0.20068202804E+03  0.00000000000E+00 0.  1.
         14    1    3    3    0    0  0.63510308961E+01  0.22360219904E+02 -0.16903204540E+03  0.17062282204E+03  0.00000000000E+00 0. -1.
        -13    1    4    4    0    0  0.11193911861E+01 -0.49527891047E+02 -0.10615010219E+03  0.11714140695E+03  0.00000000000E+00 0.  1.
         13    1    4    4    0    0 -0.12265377462E+03 -0.53939551370E+02 -0.35805922525E+03  0.38230855656E+03  0.00000000000E+00 0. -1.
         21    1    1    2  502  501  0.26163897797E+02  0.64330236143E+02 -0.24898949012E+03  0.25849312374E+03  0.00000000000E+00 0. -1.
<scales pt_clust_5="13000.00000" pt_clust_6="13000.00000" pt_clust_7="13000.00000" pt_clust_8="13000.00000" pt_clust_9="69.44731"></scales>
<clustering>
<clus scale="   69.447">  2  9  1 -1</clus>
<clus scale="   77.862">  5  6 -1 -1</clus>
<clus scale="   92.108">  7  8 -1 -1</clus>
<clus scale="  147.839">  1  5  2 -1</clus>
<clus scale="   69.447">  2  5  1 -1</clus>
</clustering>
</event>
<event>
 9    2  0.3791909E-005  0.2340336E+03  0.7546771E-02  0.1124308E+00
          2   -1    0    0  502    0  0.00000000000E+00  0.00000000000E+00  0.54849580007E+03  0.54849580007E+03  0.00000000000E+00 0. -1.
         -1   -1    0    0    0  501 -0.00000000000E+00 -0.00000000000E+00 -0.20522257947E+03  0.20522257947E+03  0.00000000000E+00 0.  1.
         23    2    1    2    0    0  0.12092035477E+03  0.14775744793E+03  0.57073680743E+02  0.21811837806E+03  0.88680472471E+02 0.  0.
         24    2    1    2    0    0 -0.26500838501E+03 -0.96734124731E+02  0.14458252571E+03  0.32722505417E+03  0.81149210233E+02 0.  0.
        -13    1    4    4    0    0 -0.13523358264E+03 -0.90475723482E+02  0.93180685975E+02  0.18750098307E+03  0.00000000000E+00 0.  1.
         14    1    4    4    0    0 -0.12977480237E+03 -0.62584012488E+01  0.51401839733E+02  0.13972407109E+03  0.00000000000E+00 0. -1.
        -11    1    3    3    0    0  0.66965913619E+02  0.11218686042E+03  0.75524363286E+02  0.15091141338E+03  0.00000000000E+00 0. -1.
         11    1    3    3    0    0  0.53954441148E+02  0.35570587509E+02 -0.18450682543E+02  0.67206964681E+02  0.00000000000E+00 0.  1.
         21    1    1    2  502  501  0.14408803024E+03 -0.51023323196E+02  0.14161701415E+03  0.20837494731E+03  0.00000000000E+00 0.  1.
<scales pt_clust_5="13000.00000" pt_clust_6="13000.00000" pt_clust_7="13000.00000" pt_clust_8="13000.00000" pt_clust_9="152.85529"></scales>
<clustering>
<clus scale="   81.149">  5  6 -1 -1</clus>
<clus scale="   88.680">  7  8 -1 -1</clus>
<clus scale="  152.855">  1  9  2 -1</clus>
<clus scale="  231.285">  1  5  2 -1</clus>
<clus scale="  152.855">  1  5  2 -1</clus>
</clustering>
</event>
<event>
 9    2  0.3791909E-005  0.9944784E+02  0.7546771E-02  0.1283606E+00
          2   -1    0    0  502    0  0.00000000000E+00  0.00000000000E+00  0.14445590888E+03  0.14445590888E+03  0.00000000000E+00 0. -1.
         -1   -1    0    0    0  501 -0.00000000000E+00 -0.00000000000E+00 -0.10153866055E+03  0.10153866055E+03  0.00000000000E+00 0.  1.
         23    2    1    2    0    0 -0.88921418137E+01  0.56861276535E+02 -0.33834451069E+02  0.10859718259E+03  0.85652221414E+02 0.  0.
         24    2    1    2    0    0 -0.37167131425E+01 -0.36688180889E+02  0.52119715010E+02  0.10315309292E+03  0.81020116717E+02 0.  0.
        -13    1    4    4    0    0 -0.10751049655E+02 -0.61124602612E+02  0.27934860850E+02  0.68059963002E+02  0.00000000000E+00 0.  1.
         14    1    4    4    0    0  0.70343365128E+01  0.24436421722E+02  0.24184854160E+02  0.35093129919E+02  0.00000000000E+00 0. -1.
        -13    1    3    3    0    0  0.96238761718E+01  0.75825231328E+02 -0.28415688794E+02  0.81544687553E+02  0.00000000000E+00 0.  1.
         13    1    3    3    0    0 -0.18516017986E+02 -0.18963954792E+02 -0.54187622747E+01  0.27052495042E+02  0.00000000000E+00 0. -1.
         21    1    1    2  502  501  0.12608854956E+02 -0.20173095646E+02  0.24631984387E+02  0.34244293920E+02  0.00000000000E+00 0.  1.
<scales pt_clust_5="13000.00000" pt_clust_6="13000.00000" pt_clust_7="13000.00000" pt_clust_8="13000.00000" pt_clust_9="23.78943"></scales>
<clustering>
<clus scale="   23.789">  1  9  2 -1</clus>
<clus scale="   81.020">  5  6 -1 -1</clus>
<clus scale="   85.652">  7  8 -1 -1</clus>
<clus scale="   95.487">  1  5  2 -1</clus>
<clus scale="   23.789">  1  5  2 -1</clus>
</clustering>
</event>
<event>
 9    2  0.3791909E-005  0.9317952E+02  0.7546771E-02  0.1301805E+00
         -1   -1    0    0    0  501 -0.00000000000E+00  0.00000000000E+00  0.51070856621E+02  0.51070856621E+02  0.00000000000E+00 0.  1.
          2   -1    0    0  502    0  0.00000000000E+00 -0.00000000000E+00 -0.43883277440E+03  0.43883277440E+03  0.00000000000E+00 0. -1.
         24    2    1    2    0    0 -0.48063150031E+01 -0.19018224479E+02 -0.60005796536E+01  0.83485742573E+02  0.80926316675E+02 0.  0.
         23    2    1    2    0    0 -0.29084402656E+02  0.61930543329E+01 -0.21245790769E+03  0.23328003213E+03  0.91634897564E+02 0.  0.
        -13    1    3    3    0    0 -0.35148220337E+02 -0.54127937901E+01 -0.26563984175E+02  0.44388523119E+02  0.00000000000E+00 0.  1.
         14    1    3    3    0    0  0.30341905334E+02 -0.13605430689E+02  0.20563404521E+02  0.39097219454E+02  0.00000000000E+00 0. -1.
        -11    1    4    4    0    0  0.32870679788E+02  0.60959532804E+01 -0.59458236107E+02  0.68212345489E+02  0.00000000000E+00 0. -1.
         11    1    4    4    0    0 -0.61955082444E+02  0.97101052516E-01 -0.15299967159E+03  0.16506768664E+03  0.00000000000E+00 0.  1.
         21    1    1    2  502  501  0.33890717659E+02  0.12825170146E+02 -0.16930343043E+03  0.17313785631E+03  0.00000000000E+00 0. -1.
<scales pt_clust_5="13000.00000" pt_clust_6="13000.00000" pt_clust_7="13000.00000" pt_clust_8="13000.00000" pt_clust_9="36.23625"></scales>
<clustering>
<clus scale="   36.236">  2  9  1 -1</clus>
<clus scale="   80.926">  5  6 -1 -1</clus>
<clus scale="   82.671">  1  5  2 -1</clus>
<clus scale="   91.635">  7  8 -1 -1</clus>
<clus scale="   36.236">  2  5  1 -1</clus>
</clustering>
</event>
<event>
 9    2  0.3791909E-005  0.1550832E+03  0.7546771E-02  0.1202042E+00
         -1   -1    0    0    0  501 -0.00000000000E+00  0.00000000000E+00  0.10824653734E+03  0.10824653734E+03  0.00000000000E+00 0.  1.
          2   -1    0    0  502    0  0.00000000000E+00 -0.00000000000E+00 -0.10959799679E+04  0.10959799679E+04  0.00000000000E+00 0. -1.
         24    2    1    2    0    0 -0.48802113688E+02  0.91969696798E+02  0.39070441514E+02  0.13746932584E+03  0.80816116687E+02 0.  0.
         23    2    1    2    0    0  0.13624690093E+03 -0.28436832605E+02 -0.66064101214E+03  0.68497418392E+03  0.11563396673E+03 0.  0.
        -13    1    3    3    0    0 -0.42589383674E+02  0.44700438282E+01  0.21848176163E+02  0.48074730318E+02  0.00000000000E+00 0.  1.
         14    1    3    3    0    0 -0.62127300138E+01  0.87499652970E+02  0.17222265352E+02  0.89394595519E+02  0.00000000000E+00 0. -1.
        -11    1    4    4    0    0  0.14133444286E+02  0.37721942295E+02 -0.19232833313E+03  0.19650162061E+03  0.00000000000E+00 0.  1.
         11    1    4    4    0    0  0.12211345664E+03 -0.66158774900E+02 -0.46831267901E+03  0.48847256331E+03  0.00000000000E+00 0. -1.
         21    1    1    2  502  501 -0.87444787239E+02 -0.63532864193E+02 -0.36616285993E+03  0.38178299548E+03  0.00000000000E+00 0. -1.
<scales pt_clust_5="13000.00000" pt_clust_6="13000.00000" pt_clust_7="13000.00000" pt_clust_8="13000.00000" pt_clust_9="108.08800"></scales>
<clustering>
<clus scale="   80.816">  5  6 -1 -1</clus>
<clus scale="  108.088">  2  9  1 -1</clus>
<clus scale="  115.634">  7  8 -1 -1</clus>
<clus scale="  131.190">  1  5  2 -1</clus>
<clus scale="  108.088">  2  5  1 -1</clus>
</clustering>
</event>
<event>
 9    2  0.3791909E-005  0.1133903E+03  0.7546771E-02  0.1259366E+00
          2   -1    0    0  502    0  0.00000000000E+00  0.00000000000E+00  0.24020991217E+03  0.24020991217E+03  0.00000000000E+00 0. -1.
         -1   -1    0    0    0  501 -0.00000000000E+00 -0.00000000000E+00 -0.73175352087E+02  0.73175352087E+02  0.00000000000E+00 0.  1.
         23    2    1    2    0    0  0.67794180547E+02 -0.20918779412E+02  0.12247762554E+02  0.11769847804E+03  0.93108956592E+02 0.  0.
         24    2    1    2    0    0 -0.44633395311E+02  0.27622228345E+02  0.12441888986E+03  0.15691091721E+03  0.79911503001E+02 0.  0.
        -13    1    4    4    0    0 -0.26346911506E+02  0.30805186568E+02  0.11025087943E+02  0.42007997210E+02  0.00000000000E+00 0.  1.
         14    1    4    4    0    0 -0.18286483805E+02 -0.31829582231E+01  0.11339380191E+03  0.11490292000E+03  0.00000000000E+00 0. -1.
        -11    1    3    3    0    0  0.89829907035E+02 -0.20471023947E+02 -0.70165476539E+00  0.92135592139E+02  0.00000000000E+00 0.  1.
         11    1    3    3    0    0 -0.22035726488E+02 -0.44775546474E+00  0.12949417319E+02  0.25562885903E+02  0.00000000000E+00 0. -1.
         21    1    1    2  502  501 -0.23160785236E+02 -0.67034489336E+01  0.30367907674E+02  0.38775869002E+02  0.00000000000E+00 0. -1.
<scales pt_clust_5="13000.00000" pt_clust_6="13000.00000" pt_clust_7="13000.00000" pt_clust_8="13000.00000" pt_clust_9="24.11137"></scales>
<clustering>
<clus scale="   24.111">  1  9  2 -1</clus>
<clus scale="   79.912">  5  6 -1 -1</clus>
<clus scale="   93.109">  7  8 -1 -1</clus>
<clus scale="  102.830">  1  5  2 -1</clus>
<clus scale="   24.111">  1  5  2 -1</clus>
</clustering>
</event>
<event>
 9    2  0.3791909E-005  0.1329981E+03  0.7546771E-02  0.1240958E+00
         -1   -1    0    0    0  501 -0.00000000000E+00  0.00000000000E+00  0.15909941365E+03  0.15909941365E+03  0.00000000000E+00 0.  1.
          2   -1    0    0  502    0  0.00000000000E+00 -0.00000000000E+00 -0.40250071014E+03  0.40250071014E+03  0.00000000000E+00 0. -1.
         23    2    1    2    0    0 -0.71317082109E+01 -0.11753884319E+02  0.10145037420E+03  0.13698274324E+03  0.91011419405E+02 0.  0.
         24    2    1    2    0    0  0.10924967879E+03  0.13102988004E+02 -0.25347559147E+03  0.28757910907E+03  0.79653549178E+02 0.  0.
        -11    1    4    4    0    0  0.64107677536E+02  0.46881503970E+02 -0.15149414014E+03  0.17105012199E+03  0.00000000000E+00 0.  1.
         12    1    4    4    0    0  0.45142001250E+02 -0.33778515966E+02 -0.10198145132E+03  0.11652898709E+03  0.00000000000E+00 0. -1.
        -13    1    3    3    0    0  0.13590477698E+02 -0.19690146799E+02  0.11046900584E+03  0.11303010315E+03  0.00000000000E+00 0.  1.
         13    1    3    3    0    0 -0.20722185909E+02  0.79362624795E+01 -0.90186316409E+01  0.23952640098E+02  0.00000000000E+00 0. -1.
         21    1    1    2  502  501 -0.10211797058E+03 -0.13491036846E+01 -0.91376079218E+02  0.13703827147E+03  0.00000000000E+00 0. -1.
<scales pt_clust_5="13000.00000" pt_clust_6="13000.00000" pt_clust_7="13000.00000" pt_clust_8="13000.00000" pt_clust_9="106.50730"></scales>
<clustering>
<clus scale="   79.654">  5  6 -1 -1</clus>
<clus scale="   91.011">  7  8 -1 -1</clus>
<clus scale="   92.044">  1  7  2 -1</clus>
<clus scale="  106.507">  1  9  2 -1</clus>
<clus scale="  132.998">  2  5  1 -1</clus>
</clustering>
</event>
<event>
 9    2  0.4161083E-005  0.2638545E+03  0.7546771E-02  0.1104918E+00
          2   -1    0    0  502    0  0.00000000000E+00  0.00000000000E+00  0.44519856183E+03  0.44519856183E+03  0.00000000000E+00 0. -1.
         -1   -1    0    0    0  501 -0.00000000000E+00 -0.00000000000E+00 -0.11133284436E+04  0.11133284436E+04  0.00000000000E+00 0.  1.
         23    2    1    2    0    0 -0.41863996118E+02 -0.24230448357E+03 -0.10160507086E+04  0.10493848379E+04  0.91572041122E+02 0.  0.
         24    2    1    2    0    0  0.87684183505E+02  0.27342972972E+03  0.33848996926E+03  0.45295309751E+03  0.90214833173E+02 0.  0.
        -11    1    4    4    0    0  0.40555640721E+02  0.98256762992E+02  0.64441455502E+02  0.12430548120E+03  0.00000000000E+00 0.  1.
         12    1    4    4    0    0  0.47128542784E+02  0.17517296672E+03  0.27404851376E+03  0.32864761632E+03  0.00000000000E+00 0. -1.
        -13    1    3    3    0    0  0.28886514932E+02 -0.78743790033E+02 -0.30181383231E+03  0.31325166335E+03  0.00000000000E+00 0. -1.
         13    1    3    3    0    0 -0.70750511050E+02 -0.16356069353E+03 -0.71423687624E+03  0.73613317454E+03  0.00000000000E+00 0.  1.
         21    1    1    2  502  501 -0.45820187387E+02 -0.31125246151E+02  0.94308574854E+01  0.56189070049E+02  0.00000000000E+00 0.  1.
<scales pt_clust_5="13000.00000" pt_clust_6="13000.00000" pt_clust_7="13000.00000" pt_clust_8="13000.00000" pt_clust_9="55.39197"></scales>
<clustering>
<clus scale="   55.392">  1  9  2 -1</clus>
<clus scale="   90.215">  5  6 -1 -1</clus>
<clus scale="   91.572">  7  8 -1 -1</clus>
<clus scale="  263.387">  1  5  2 -1</clus>
<clus scale="   55.392">  1  5  2 -1</clus>
</clustering>
</event>
<event>
 9    2  0.3791909E-005  0.9265573E+02  0.7546771E-02  0.1302844E+00
          2   -1    0    0  502    0  0.00000000000E+00  0.00000000000E+00  0.27931540804E+03  0.27931540804E+03  0.00000000000E+00 0. -1.
         -1   -1    0    0    0  501 -0.00000000000E+00 -0.00000000000E+00 -0.99421488591E+02  0.99421488591E+02  0.00000000000E+00 0.  1.
         23    2    1    2    0    0 -0.12407403150E+02 -0.65774915117E+01 -0.59692280591E+02  0.10980401885E+03  0.91085383824E+02 0.  0.
         24    2    1    2    0    0  0.42741365265E+02  0.13475334946E+01  0.18167429781E+03  0.20334865606E+03  0.80724750143E+02 0.  0.
        -13    1    4    4    0    0 -0.17769803015E+02 -0.17731466810E+02  0.31201630878E+02  0.40046380409E+02  0.00000000000E+00 0.  1.
         14    1    4    4    0    0  0.60511168280E+02  0.19079000305E+02  0.15047266693E+03  0.16330227565E+03  0.00000000000E+00 0. -1.
        -13    1    3    3    0    0  0.92470082457E+01 -0.45908538711E+02 -0.25155385096E+02  0.53159143028E+02  0.00000000000E+00 0. -1.
         13    1    3    3    0    0 -0.21654411396E+02  0.39331047200E+02 -0.34536895495E+02  0.56644875825E+02  0.00000000000E+00 0.  1.
         21    1    1    2  502  501 -0.30333962115E+02  0.52299580171E+01  0.57911902225E+02  0.65584221713E+02  0.00000000000E+00 0. -1.
<scales pt_clust_5="13000.00000" pt_clust_6="13000.00000" pt_clust_7="13000.00000" pt_clust_8="13000.00000" pt_clust_9="30.78152"></scales>
<clustering>
<clus scale="   30.782">  1  9  2 -1</clus>
<clus scale="   80.725">  5  6 -1 -1</clus>
<clus scale="   82.493">  1  5  2 -1</clus>
<clus scale="   91.085">  7  8 -1 -1</clus>
<clus scale="   30.782">  1  5  2 -1</clus>
</clustering>
</event>
<event>
 9    2  0.3791909E-005  0.1171341E+03  0.7546771E-02  0.1252042E+00
          2   -1    0    0  502    0  0.00000000000E+00  0.00000000000E+00  0.21244387090E+03  0.21244387090E+03  0.00000000000E+00 0. -1.
         -1   -1    0    0    0  501 -0.00000000000E+00 -0.00000000000E+00 -0.81669668700E+02  0.81669668700E+02  0.00000000000E+00 0.  1.
         24    2    1    2    0    0  0.51335887597E+02 -0.26067268492E+02  0.49223915038E+02  0.11005205585E+03  0.79834737704E+02 0.  0.
         23    2    1    2    0    0 -0.80613195446E+02  0.39295264623E+02  0.46819409844E+02  0.13675002133E+03  0.92010358626E+02 0.  0.
        -13    1    3    3    0    0  0.24726209393E+00  0.24943342256E+02  0.51616088025E+01  0.25472998781E+02  0.00000000000E+00 0.  1.
         14    1    3    3    0    0  0.51088625503E+02 -0.51010610748E+02  0.44062306236E+02  0.84579057074E+02  0.00000000000E+00 0. -1.
        -13    1    4    4    0    0 -0.30317453751E+02 -0.15194888530E+01 -0.25514204605E+02  0.39653896214E+02  0.00000000000E+00 0.  1.
         13    1    4    4    0    0 -0.50295741694E+02  0.40814753475E+02  0.72333614448E+02  0.97096125118E+02  0.00000000000E+00 0. -1.
         21    1    1    2  502  501  0.29277307848E+02 -0.13227996131E+02  0.34730877322E+02  0.47311462417E+02  0.00000000000E+00 0.  1.
<scales pt_clust_5="13000.00000" pt_clust_6="13000.00000" pt_clust_7="13000.00000" pt_clust_8="13000.00000" pt_clust_9="32.12695"></scales>
<clustering>
<clus scale="   32.127">  1  9  2 -1</clus>
<clus scale="   79.835">  5  6 -1 -1</clus>
<clus scale="   92.010">  7  8 -1 -1</clus>
<clus scale="  107.834">  2  5  1 -1</clus>
<clus scale="   32.127">  1  5  2 -1</clus>
</clustering>
</event>
<event>
 9    2  0.3791909E-005  0.1265201E+03  0.7546771E-02  0.1235037E+00
         -1   -1    0    0    0  501 -0.00000000000E+00  0.00000000000E+00  0.42693262424E+03  0.42693262424E+03  0.00000000000E+00 0.  1.
          2   -1    0    0  502    0  0.00000000000E+00 -0.00000000000E+00 -0.82137214866E+02  0.82137214866E+02  0.00000000000E+00 0. -1.
         23    2    1    2    0    0  0.86028154406E+02 -0.22576626174E+02  0.31627721500E+03  0.34009130414E+03  0.87865072825E+02 0.  0.
         24    2    1    2    0    0 -0.79466952515E+02  0.46047356841E+02 -0.11855711357E+02  0.12181947611E+03  0.79145885892E+02 0.  0.
        -13    1    4    4    0    0 -0.58001486954E+02  0.24859125522E+01  0.22574799243E+02  0.62289435789E+02  0.00000000000E+00 0.  1.
         14    1    4    4    0    0 -0.21465465561E+02  0.43561444289E+02 -0.34430510600E+02  0.59530040320E+02  0.00000000000E+00 0. -1.
        -13    1    3    3    0    0  0.68738382434E+02  0.19284944131E+02  0.12923240059E+03  0.14764107712E+03  0.00000000000E+00 0. -1.
         13    1    3    3    0    0  0.17289771972E+02 -0.41861570305E+02  0.18704481441E+03  0.19245022703E+03  0.00000000000E+00 0.  1.
         21    1    1    2  502  501 -0.65612018909E+01 -0.23470730667E+02  0.40373905727E+02  0.47159058854E+02  0.00000000000E+00 0.  1.
<scales pt_clust_5="13000.00000" pt_clust_6="13000.00000" pt_clust_7="13000.00000" pt_clust_8="13000.00000" pt_clust_9="24.37057"></scales>
<clustering>
<clus scale="   24.371">  1  9  2 -1</clus>
<clus scale="   79.146">  5  6 -1 -1</clus>
<clus scale="   87.865">  7  8 -1 -1</clus>
<clus scale="  120.628">  2  5  1 -1</clus>
<clus scale="  120.628">  2  5  1 -1</clus>
</clustering>
</event>
<event>
 9    2  0.3791909E-005  0.9812338E+02  0.7546771E-02  0.1288580E+00
         -1   -1    0    0    0  501 -0.00000000000E+00  0.00000000000E+00  0.14174451240E+03  0.14174451240E+03  0.00000000000E+00 0.  1.
          2   -1    0    0  502    0  0.00000000000E+00 -0.00000000000E+00 -0.13755744727E+03  0.13755744727E+03  0.00000000000E+00 0. -1.
         23    2    1    2    0    0  0.85483906543E+01  0.34724377991E+02  0.84080954073E+02  0.12820192085E+03  0.89929240303E+02 0.  0.
         24    2    1    2    0    0  0.58266702085E+01 -0.52715327180E+02 -0.40309541138E+02  0.10530443621E+03  0.81555560044E+02 0.  0.
        -13    1    4    4    0    0  0.34857932511E+02  0.76667123467E+00 -0.23919467160E+02  0.42282433148E+02  0.00000000000E+00 0.  1.
         14    1    4    4    0    0 -0.29031262302E+02 -0.53481998415E+02 -0.16390073977E+02  0.63022003065E+02  0.00000000000E+00 0. -1.
        -13    1    3    3    0    0  0.47142117202E+02  0.64557065277E+01  0.31232027860E+02  0.56916561081E+02  0.00000000000E+00 0. -1.
         13    1    3    3    0    0 -0.38593726548E+02  0.28268671463E+02  0.52848926212E+02  0.71285359766E+02  0.00000000000E+00 0.  1.
         21    1    1    2  502  501 -0.14375060863E+02  0.17990949189E+02 -0.39584347807E+02  0.45795602614E+02  0.00000000000E+00 0. -1.
<scales pt_clust_5="13000.00000" pt_clust_6="13000.00000" pt_clust_7="13000.00000" pt_clust_8="13000.00000" pt_clust_9="23.02860"></scales>
<clustering>
<clus scale="   23.029">  2  9  1 -1</clus>
<clus scale="   81.556">  5  6 -1 -1</clus>
<clus scale="   89.929">  7  8 -1 -1</clus>
<clus scale="   90.511">  2  5  1 -1</clus>
<clus scale="   23.029">  2  5  1 -1</clus>
</clustering>
</event>
<event>
 9    2  0.3791909E-005  0.9210698E+02  0.7546771E-02  0.1303197E+00
          4   -1    0    0  502    0  0.00000000000E+00  0.00000000000E+00  0.67902793409E+02  0.67902793409E+02  0.00000000000E+00 0. -1.
         -3   -1    0    0    0  501 -0.00000000000E+00 -0.00000000000E+00 -0.46816192529E+03  0.46816192529E+03  0.00000000000E+00 0.  1.
         23    2    1    2    0    0 -0.65108411834E+01 -0.12686424735E+02 -0.31395133443E+03  0.32655944599E+03  0.88725954198E+02 0.  0.
         24    2    1    2    0    0  0.68744503881E+02  0.49969811986E+02 -0.67161077321E+02  0.13447410166E+03  0.79686164335E+02 0.  0.
        -13    1    4    4    0    0  0.36395212409E+02 -0.17012714967E+02 -0.35569503389E+02  0.53658489806E+02  0.00000000000E+00 0.  1.
         14    1    4    4    0    0  0.32349291472E+02  0.66982526953E+02 -0.31591573932E+02  0.80815611854E+02  0.00000000000E+00 0. -1.
        -13    1    3    3    0    0  0.92801993118E+01 -0.46240416448E+02 -0.11701248711E+03  0.12615950362E+03  0.00000000000E+00 0. -1.
         13    1    3    3    0    0 -0.15791040495E+02  0.33553991713E+02 -0.19693884732E+03  0.20039994238E+03  0.00000000000E+00 0.  1.
         21    1    1    2  502  501 -0.62233662698E+02 -0.37283387251E+02 -0.19146720129E+02  0.75031171052E+02  0.00000000000E+00 0.  1.
<scales pt_clust_5="13000.00000" pt_clust_6="13000.00000" pt_clust_7="13000.00000" pt_clust_8="13000.00000" pt_clust_9="72.54709"></scales>
<clustering>
<clus scale="   72.547">  1  9  2 -1</clus>
<clus scale="   79.686">  5  6 -1 -1</clus>
<clus scale="   83.434">  1  5  2 -1</clus>
<clus scale="   88.726">  7  8 -1 -1</clus>
<clus scale="   72.547">  1  5  2 -1</clus>
</clustering>
</event>
<event>
 9    2  0.3791909E-005  0.9667689E+02  0.7546771E-02  0.1299060E+00
          2   -1    0    0  502    0  0.00000000000E+00  0.00000000000E+00  0.42718700649E+03  0.42718700649E+03  0.00000000000E+00 0. -1.
         -1   -1    0    0    0  501 -0.00000000000E+00 -0.00000000000E+00 -0.37794626071E+02  0.37794626071E+02  0.00000000000E+00 0.  1.
         24    2    1    2    0    0  0.24587722561E+02  0.28475930646E+02  0.37458108665E+02  0.87372329519E+02  0.69392934322E+02 0.  0.
         23    2    1    2    0    0  0.90852641885E+01 -0.36526698516E+02  0.29761056920E+03  0.31319075324E+03  0.89998084887E+02 0.  0.
        -13    1    3    3    0    0  0.25393990732E+02 -0.12997025606E+02 -0.39049599081E+01  0.28792814239E+02  0.00000000000E+00 0.  1.
         14    1    3    3    0    0 -0.80626817069E+00  0.41472956252E+02  0.41363068573E+02  0.58579515280E+02  0.00000000000E+00 0. -1.
        -13    1    4    4    0    0  0.40499615923E+02 -0.12959817492E+02  0.67673995103E+02  0.79924623068E+02  0.00000000000E+00 0.  1.
         13    1    4    4    0    0 -0.31414351735E+02 -0.23566881024E+02  0.22993657410E+03  0.23326613017E+03  0.00000000000E+00 0. -1.
         21    1    1    2  502  501 -0.33672986750E+02  0.80507678704E+01  0.54323702554E+02  0.64418549806E+02  0.00000000000E+00 0.  1.
<scales pt_clust_5="13000.00000" pt_clust_6="13000.00000" pt_clust_7="13000.00000" pt_clust_8="13000.00000" pt_clust_9="34.62203"></scales>
<clustering>
<clus scale="   34.622">  1  9  2 -1</clus>
<clus scale="   69.393">  5  6 -1 -1</clus>
<clus scale="   77.860">  2  5  1 -1</clus>
<clus scale="   89.998">  7  8 -1 -1</clus>
<clus scale="   34.622">  1  5  2 -1</clus>
</clustering>
</event>
<event>
 9    2  0.3859823E-005  0.1185640E+03  0.7546771E-02  0.1248499E+00
         -1   -1    0    0    0  501 -0.00000000000E+00  0.00000000000E+00  0.26408070746E+03  0.26408070746E+03  0.00000000000E+00 0.  1.
          2   -1    0    0  502    0  0.00000000000E+00 -0.00000000000E+00 -0.39246656317E+03  0.39246656317E+03  0.00000000000E+00 0. -1.
         24    2    1    2    0    0 -0.29236557589E+02 -0.72272607903E+02  0.23162729983E+03  0.25728805496E+03  0.80422826648E+02 0.  0.
         23    2    1    2    0    0 -0.20150049524E+01  0.66544946908E+02 -0.34761138154E+03  0.36515246766E+03  0.89835192753E+02 0.  0.
        -11    1    3    3    0    0  0.15805303995E+02 -0.64343017902E+02  0.13474204705E+03  0.15015076034E+03  0.00000000000E+00 0.  1.
         12    1    3    3    0    0 -0.45041861585E+02 -0.79295900012E+01  0.96885252780E+02  0.10713729462E+03  0.00000000000E+00 0. -1.
        -11    1    4    4    0    0 -0.35017584129E+02  0.65417550904E+02 -0.18703307431E+03  0.20121396088E+03  0.00000000000E+00 0. -1.
         11    1    4    4    0    0  0.33002579176E+02  0.11273960035E+01 -0.16057830723E+03  0.16393850679E+03  0.00000000000E+00 0.  1.
         21    1    1    2  502  501  0.31251562542E+02  0.57276609952E+01 -0.12401773994E+02  0.34106748012E+02  0.00000000000E+00 0. -1.
<scales pt_clust_5="13000.00000" pt_clust_6="13000.00000" pt_clust_7="13000.00000" pt_clust_8="13000.00000" pt_clust_9="31.77210"></scales>
<clustering>
<clus scale="   31.772">  2  9  1 -1</clus>
<clus scale="   80.423">  5  6 -1 -1</clus>
<clus scale="   89.835">  7  8 -1 -1</clus>
<clus scale="  111.601">  1  5  2 -1</clus>
<clus scale="   31.772">  2  5  1 -1</clus>
</clustering>
</event>
<event>
 9    2  0.3791909E-005  0.1365175E+03  0.7546771E-02  0.1226853E+00
          2   -1    0    0  502    0  0.00000000000E+00  0.00000000000E+00  0.51634448755E+03  0.51634448755E+03  0.00000000000E+00 0. -1.
         -1   -1    0    0    0  501 -0.00000000000E+00 -0.00000000000E+00 -0.46685533240E+02  0.46685533240E+02  0.00000000000E+00 0.  1.
         23    2    1    2    0    0  0.29130663286E+02  0.58917856969E+02  0.14055323318E+03  0.19302951148E+03  0.11482713761E+03 0.  0.
         24    2    1    2    0    0 -0.19445119276E+00 -0.90240498323E+02  0.22251531486E+03  0.25519664640E+03  0.86422668524E+02 0.  0.
        -13    1    4    4    0    0  0.24127208309E+02 -0.30147907886E+02  0.21954237305E+02  0.44418544172E+02  0.00000000000E+00 0.  1.
         14    1    4    4    0    0 -0.24321659502E+02 -0.60092590437E+02  0.20056107756E+03  0.21077810222E+03  0.00000000000E+00 0. -1.
        -11    1    3    3    0    0  0.60173072834E+02  0.53953737673E+02  0.45140895741E+02  0.92571620767E+02  0.00000000000E+00 0.  1.
         11    1    3    3    0    0 -0.31042409548E+02  0.49641192962E+01  0.95412337439E+02  0.10045789071E+03  0.00000000000E+00 0. -1.
         21    1    1    2  502  501 -0.28936212094E+02  0.31322641354E+02  0.10659040627E+03  0.11480386292E+03  0.00000000000E+00 0. -1.
<scales pt_clust_5="13000.00000" pt_clust_6="13000.00000" pt_clust_7="13000.00000" pt_clust_8="13000.00000" pt_clust_9="42.64285"></scales>
<clustering>
<clus scale="   42.643">  1  9  2 -1</clus>
<clus scale="   86.423">  5  6 -1 -1</clus>
<clus scale="  113.669">  1  5  2 -1</clus>
<clus scale="  114.827">  7  8 -1 -1</clus>
<clus scale="   42.643">  1  5  2 -1</clus>
</clustering>
</event>
<event>
 9    2  0.3791909E-005  0.1235180E+03  0.7546771E-02  0.1242477E+00
          2   -1    0    0  502    0  0.00000000000E+00  0.00000000000E+00  0.21248309919E+03  0.21248309919E+03  0.00000000000E+00 0. -1.
         -1   -1    0    0    0  501 -0.00000000000E+00 -0.00000000000E+00 -0.11080904948E+03  0.11080904948E+03  0.00000000000E+00 0.  1.
         23    2    1    2    0    0  0.12223749703E+00 -0.63645040777E+02 -0.48136931109E+01  0.11577889568E+03  0.96596453801E+02 0.  0.
         24    2    1    2    0    0 -0.23654559775E+02  0.10194178214E+03  0.69111627081E+02  0.14905485224E+03  0.80555985723E+02 0.  0.
        -13    1    4    4    0    0 -0.37623220348E+02  0.11720297730E+02  0.30932633918E+02  0.50096905387E+02  0.00000000000E+00 0.  1.
         14    1    4    4    0    0  0.13968660574E+02  0.90221484407E+02  0.38178993162E+02  0.98957946855E+02  0.00000000000E+00 0. -1.
        -11    1    3    3    0    0  0.38578263047E+02 -0.10308312592E+02 -0.24858214517E+02  0.47036948426E+02  0.00000000000E+00 0.  1.
         11    1    3    3    0    0 -0.38456025550E+02 -0.53336728184E+02  0.20044521406E+02  0.68741947259E+02  0.00000000000E+00 0. -1.
         21    1    1    2  502  501  0.23532322278E+02 -0.38296741360E+02  0.37376115738E+02  0.58458400750E+02  0.00000000000E+00 0. -1.
<scales pt_clust_5="13000.00000" pt_clust_6="13000.00000" pt_clust_7="13000.00000" pt_clust_8="13000.00000" pt_clust_9="44.94898"></scales>
<clustering>
<clus scale="   44.949">  1  9  2 -1</clus>
<clus scale="   80.556">  5  6 -1 -1</clus>
<clus scale="   96.596">  7  8 -1 -1</clus>
<clus scale="  111.423">  1  5  2 -1</clus>
<clus scale="   44.949">  1  5  2 -1</clus>
</clustering>
</event>
<event>
 9    2  0.3791909E-005  0.1220651E+03  0.7546771E-02  0.1250763E+00
          4   -1    0    0  502    0  0.00000000000E+00  0.00000000000E+00  0.24937351577E+03  0.24937351577E+03  0.00000000000E+00 0. -1.
         -3   -1    0    0    0  501 -0.00000000000E+00 -0.00000000000E+00 -0.12204435752E+03  0.12204435752E+03  0.00000000000E+00 0.  1.
         23    2    1    2    0    0  0.20559016921E+02 -0.37823103834E+02 -0.28807304759E+02  0.10190286846E+03  0.87755760115E+02 0.  0.
         24    2    1    2    0    0 -0.63081778661E+01 -0.72568164169E+02  0.67793267545E+02  0.12740997800E+03  0.79570370187E+02 0.  0.
        -11    1    4    4    0    0  0.34296035595E+02 -0.49412602144E+02  0.29545282032E+02  0.67013036034E+02  0.00000000000E+00 0.  1.
         12    1    4    4    0    0 -0.40604213461E+02 -0.23155562025E+02  0.38247985513E+02  0.60396941970E+02  0.00000000000E+00 0. -1.
        -11    1    3    3    0    0  0.30737129599E+02 -0.63184507945E+02 -0.18147649213E+02  0.72569899767E+02  0.00000000000E+00 0. -1.
         11    1    3    3    0    0 -0.10178112678E+02  0.25361404111E+02 -0.10659655546E+02  0.29332968696E+02  0.00000000000E+00 0.  1.
         21    1    1    2  502  501 -0.14250839055E+02  0.11039126800E+03  0.88343195461E+02  0.14210502683E+03  0.00000000000E+00 0.  1.
<scales pt_clust_5="13000.00000" pt_clust_6="13000.00000" pt_clust_7="13000.00000" pt_clust_8="13000.00000" pt_clust_9="92.56586"></scales>
<clustering>
<clus scale="   79.570">  5  6 -1 -1</clus>
<clus scale="   87.756">  7  8 -1 -1</clus>
<clus scale="   97.746">  2  7  1 -1</clus>
<clus scale="   92.566">  2  9  1 -1</clus>
<clus scale="  122.065">  1  5  2 -1</clus>
</clustering>
</event>
<event>
 9    2  0.3791909E-005  0.8813767E+02  0.7546771E-02  0.1313411E+00
         -1   -1    0    0    0  501 -0.00000000000E+00  0.00000000000E+00  0.10765665852E+03  0.10765665852E+03  0.00000000000E+00 0.  1.
          2   -1    0    0  502    0  0.00000000000E+00 -0.00000000000E+00 -0.29824429807E+03  0.29824429807E+03  0.00000000000E+00 0. -1.
         23    2    1    2    0    0 -0.60941607523E+01 -0.33718192459E+01  0.67895421211E+02  0.11146598642E+03  0.88127010309E+02 0.  0.
         24    2    1    2    0    0 -0.27401421749E+02 -0.95767018924E+01 -0.94569889673E+02  0.12663405866E+03  0.79058014442E+02 0.  0.
        -13    1    4    4    0    0  0.19544736460E+02  0.20519183673E+02 -0.35044345490E+02  0.45068168065E+02  0.00000000000E+00 0.  1.
         14    1    4    4    0    0 -0.46946158209E+02 -0.30095885566E+02 -0.59525544182E+02  0.81565890597E+02  0.00000000000E+00 0. -1.
        -13    1    3    3    0    0  0.12965005925E+02 -0.22656896414E+02 -0.10785308959E+02  0.28244454732E+02  0.00000000000E+00 0. -1.
         13    1    3    3    0    0 -0.19059166677E+02  0.19285077168E+02  0.78680730170E+02  0.83221531685E+02  0.00000000000E+00 0.  1.
         21    1    1    2  502  501  0.33495582501E+02  0.12948521138E+02 -0.16391317110E+03  0.16780091151E+03  0.00000000000E+00 0. -1.
<scales pt_clust_5="13000.00000" pt_clust_6="13000.00000" pt_clust_7="13000.00000" pt_clust_8="13000.00000" pt_clust_9="35.91126"></scales>
<clustering>
<clus scale="   35.911">  2  9  1 -1</clus>
<clus scale="   79.058">  5  6 -1 -1</clus>
<clus scale="   79.070">  2  5  1 -1</clus>
<clus scale="   88.127">  7  8 -1 -1</clus>
<clus scale="   35.911">  2  5  1 -1</clus>
</clustering>
</event>
<event>
 9    2  0.3791909E-005  0.1257931E+03  0.7546771E-02  0.1252169E+00
          2   -1    0    0  502    0  0.00000000000E+00  0.00000000000E+00  0.67266293625E+02  0.67266293625E+02  0.00000000000E+00 0. -1.
         -1   -1    0    0    0  501 -0.00000000000E+00 -0.00000000000E+00 -0.88539209438E+03  0.88539209438E+03  0.00000000000E+00 0.  1.
         24    2    1    2    0    0  0.23564125406E+02 -0.23149376951E+02 -0.25848844895E+03  0.27268685370E+03  0.80316127171E+02 0.  0.
         23    2    1    2    0    0  0.70772720527E+02  0.51039553422E+02 -0.14620008328E+02  0.12614736804E+03  0.89919963496E+02 0.  0.
        -13    1    3    3    0    0 -0.18652117040E+02 -0.23795768273E+02 -0.39917920671E+02  0.50075747109E+02  0.00000000000E+00 0.  1.
         14    1    3    3    0    0  0.42216242446E+02  0.64639132226E+00 -0.21857052828E+03  0.22261110659E+03  0.00000000000E+00 0. -1.
        -11    1    4    4    0    0  0.39716566709E+02  0.22127842431E+02 -0.52371920005E+02  0.69353190892E+02  0.00000000000E+00 0.  1.
         11    1    4    4    0    0  0.31056153817E+02  0.28911710991E+02  0.37751911678E+02  0.56794177146E+02  0.00000000000E+00 0. -1.
         21    1    1    2  502  501 -0.94336845932E+02 -0.27890176471E+02 -0.54501734347E+03  0.55382416626E+03  0.00000000000E+00 0.  1.
<scales pt_clust_5="13000.00000" pt_clust_6="13000.00000" pt_clust_7="13000.00000" pt_clust_8="13000.00000" pt_clust_9="87.96761"></scales>
<clustering>
<clus scale="   80.316">  5  6 -1 -1</clus>
<clus scale="   86.844">  2  5  1 -1</clus>
<clus scale="   87.968">  2  9  1 -1</clus>
<clus scale="   89.920">  7  8 -1 -1</clus>
<clus scale="  125.793">  1  5  2 -1</clus>
</clustering>
</event>
<event>
 9    2  0.3791909E-005  0.9506289E+02  0.7546771E-02  0.1297653E+00
          2   -1    0    0  502    0  0.00000000000E+00  0.00000000000E+00  0.25573251518E+03  0.25573251518E+03  0.00000000000E+00 0. -1.
         -1   -1    0    0    0  501 -0.00000000000E+00 -0.00000000000E+00 -0.66131287450E+02  0.66131287450E+02  0.00000000000E+00 0.  1.
         24    2    1    2    0    0  0.17833227767E+02 -0.38558135535E-01 -0.42654659137E+01  0.82779783419E+02  0.80723434293E+02 0.  0.
         23    2    1    2    0    0 -0.45791755851E+02 -0.20460283802E+02  0.15276380598E+03  0.18531293788E+03  0.92133579169E+02 0.  0.
        -13    1    3    3    0    0  0.46173308696E+02 -0.39918992517E+01 -0.19595024191E+02  0.50317737118E+02  0.00000000000E+00 0.  1.
         14    1    3    3    0    0 -0.28340080929E+02  0.39533411161E+01  0.15329558278E+02  0.32462046301E+02  0.00000000000E+00 0. -1.
        -11    1    4    4    0    0 -0.61774887548E+02  0.13747594378E+02  0.11843153896E+03  0.13428016422E+03  0.00000000000E+00 0. -1.
         11    1    4    4    0    0  0.15983131698E+02 -0.34207878180E+02  0.34332267020E+02  0.51032773657E+02  0.00000000000E+00 0.  1.
         21    1    1    2  502  501  0.27958528084E+02  0.20498841938E+02  0.41102887672E+02  0.53771081339E+02  0.00000000000E+00 0. -1.
<scales pt_clust_5="13000.00000" pt_clust_6="13000.00000" pt_clust_7="13000.00000" pt_clust_8="13000.00000" pt_clust_9="34.66817"></scales>
<clustering>
<clus scale="   34.668">  1  9  2 -1</clus>
<clus scale="   80.723">  5  6 -1 -1</clus>
<clus scale="   84.051">  2  5  1 -1</clus>
<clus scale="   92.134">  7  8 -1 -1</clus>
<clus scale="   34.668">  1  5  2 -1</clus>
</clustering>
</event>
<event>
 9    2  0.3791909E-005  0.2527235E+03  0.7546771E-02  0.1112089E+00
          4   -1    0    0  502    0  0.00000000000E+00  0.00000000000E+00  0.77435959762E+02  0.77435959762E+02  0.00000000000E+00 0. -1.
         -3   -1    0    0    0  501 -0.00000000000E+00 -0.00000000000E+00 -0.14094170823E+04  0.14094170823E+04  0.00000000000E+00 0.  1.
         24    2    1    2    0    0  0.25499739906E+03  0.10115901755E+02 -0.10129013358E+04  0.10476212136E+04  0.80094232153E+02 0.  0.
         23    2    1    2    0    0 -0.18855333736E+03 -0.59898490979E+02 -0.25094921771E+03  0.33183120483E+03  0.89421744439E+02 0.  0.
        -11    1    3    3    0    0  0.26081183279E+03  0.70698001412E+01 -0.98800569376E+03  0.10218747698E+04  0.00000000000E+00 0.  1.
         12    1    3    3    0    0 -0.58144337319E+01  0.30461016143E+01 -0.24895642084E+02  0.25746443821E+02  0.00000000000E+00 0. -1.
        -13    1    4    4    0    0 -0.13682231482E+02 -0.30493572647E+02 -0.74595976534E+02  0.81741183905E+02  0.00000000000E+00 0.  1.
         13    1    4    4    0    0 -0.17487110588E+03 -0.29404918332E+02 -0.17635324118E+03  0.25009002092E+03  0.00000000000E+00 0. -1.
         21    1    1    2  502  501 -0.66444061696E+02  0.49782589223E+02 -0.68130568938E+02  0.10740062359E+03  0.00000000000E+00 0. -1.
<scales pt_clust_5="13000.00000" pt_clust_6="13000.00000" pt_clust_7="13000.00000" pt_clust_8="13000.00000" pt_clust_9="83.02481"></scales>
<clustering>
<clus scale="   80.094">  5  6 -1 -1</clus>
<clus scale="   83.025">  1  9  2 -1</clus>
<clus scale="   89.422">  7  8 -1 -1</clus>
<clus scale="  249.576">  2  5  1 -1</clus>
<clus scale="   83.025">  1  5  2 -1</clus>
</clustering>
</event>
<event>
 9    2  0.3791909E-005  0.1010314E+03  0.7546771E-02  0.1283500E+00
          2   -1    0    0  502    0  0.00000000000E+00  0.00000000000E+00  0.74317686995E+03  0.74317686995E+03  0.00000000000E+00 0. -1.
         -1   -1    0    0    0  501 -0.00000000000E+00 -0.00000000000E+00 -0.30871800987E+02  0.30871800987E+02  0.00000000000E+00 0.  1.
         23    2    1    2    0    0 -0.32969195294E+02 -0.32876573279E+02  0.91027306452E+02  0.13769075301E+03  0.92222210105E+02 0.  0.
         24    2    1    2    0    0  0.39373038128E+02 -0.86009258797E+01  0.33803802790E+03  0.35002569933E+03  0.81388388796E+02 0.  0.
        -13    1    4    4    0    0  0.35490281639E+02  0.29597774204E+02  0.11919292541E+03  0.12783795131E+03  0.00000000000E+00 0.  1.
         14    1    4    4    0    0  0.38827564889E+01 -0.38198700084E+02  0.21884510249E+03  0.22218774802E+03  0.00000000000E+00 0. -1.
        -11    1    3    3    0    0 -0.59095012107E+02 -0.34940273158E+02  0.37820963136E+02  0.78380280663E+02  0.00000000000E+00 0.  1.
         11    1    3    3    0    0  0.26125816813E+02  0.20636998791E+01  0.53206343316E+02  0.59310472351E+02  0.00000000000E+00 0. -1.
         21    1    1    2  502  501 -0.64038428341E+01  0.41477499159E+02  0.28323973461E+03  0.28633221859E+03  0.00000000000E+00 0.  1.
<scales pt_clust_5="13000.00000" pt_clust_6="13000.00000" pt_clust_7="13000.00000" pt_clust_8="13000.00000" pt_clust_9="41.96894"></scales>
<clustering>
<clus scale="   41.969">  1  9  2 -1</clus>
<clus scale="   81.388">  5  6 -1 -1</clus>
<clus scale="   91.250">  1  5  2 -1</clus>
<clus scale="   92.222">  7  8 -1 -1</clus>
<clus scale="   41.969">  1  5  2 -1</clus>
</clustering>
</event>
<event>
 9    2  0.3791909E-005  0.1049874E+03  0.7546771E-02  0.1276881E+00
          2   -1    0    0  502    0  0.00000000000E+00  0.00000000000E+00  0.65242827799E+03  0.65242827799E+03  0.00000000000E+00 0. -1.
         -1   -1    0    0    0  501 -0.00000000000E+00 -0.00000000000E+00 -0.48121449087E+02  0.48121449087E+02  0.00000000000E+00 0.  1.
         24    2    1    2    0    0  0.19250174108E+02  0.39039394167E+02  0.10955812704E+02  0.92207659254E+02  0.80545509453E+02 0.  0.
         23    2    1    2    0    0 -0.11927669015E+02 -0.59381425565E+02  0.50234741680E+03  0.51480559137E+03  0.94886494073E+02 0.  0.
        -11    1    3    3    0    0  0.21766721505E+02  0.37092055366E+02  0.42523364955E+02  0.60480139744E+02  0.00000000000E+00 0.  1.
         12    1    3    3    0    0 -0.25165473966E+01  0.19473388012E+01 -0.31567552251E+02  0.31727519511E+02  0.00000000000E+00 0. -1.
        -13    1    4    4    0    0 -0.50085520006E+02 -0.52032940015E+02  0.28478312783E+03  0.29379825741E+03  0.00000000000E+00 0. -1.
         13    1    4    4    0    0  0.38157850990E+02 -0.73484855498E+01  0.21756428897E+03  0.22100733397E+03  0.00000000000E+00 0.  1.
         21    1    1    2  502  501 -0.73225050929E+01  0.20342031398E+02  0.91003599400E+02  0.93536476446E+02  0.00000000000E+00 0.  1.
<scales pt_clust_5="13000.00000" pt_clust_6="13000.00000" pt_clust_7="13000.00000" pt_clust_8="13000.00000" pt_clust_9="21.61984"></scales>
<clustering>
<clus scale="   21.620">  1  9  2 -1</clus>
<clus scale="   80.546">  5  6 -1 -1</clus>
<clus scale="   92.231">  2  5  1 -1</clus>
<clus scale="   94.886">  7  8 -1 -1</clus>
<clus scale="   21.620">  1  5  2 -1</clus>
</clustering>
</event>
<event>
 9    2  0.3791909E-005  0.1300020E+03  0.7546771E-02  0.1243170E+00
         -1   -1    0    0    0  501 -0.00000000000E+00  0.00000000000E+00  0.38041476936E+02  0.38041476936E+02  0.00000000000E+00 0.  1.
          2   -1    0    0  502    0  0.00000000000E+00 -0.00000000000E+00 -0.13486701603E+04  0.13486701603E+04  0.00000000000E+00 0. -1.
         23    2    1    2    0    0  0.28767562280E+02  0.26781950057E+02 -0.90775777547E+02  0.15841333183E+03  0.12373235803E+03 0.  0.
         24    2    1    2    0    0 -0.73253460972E+01 -0.55287903033E+02 -0.10367008303E+04  0.10417050559E+04  0.85383833728E+02 0.  0.
        -13    1    4    4    0    0  0.29367467942E+02 -0.34133111718E+02 -0.26152675954E+03  0.26537476038E+03  0.00000000000E+00 0.  1.
         14    1    4    4    0    0 -0.36692814039E+02 -0.21154791315E+02 -0.77517407072E+03  0.77633029550E+03  0.00000000000E+00 0. -1.
        -13    1    3    3    0    0  0.31370432504E+02 -0.22047410576E+02 -0.10137075774E+03  0.10837999296E+03  0.00000000000E+00 0.  1.
         13    1    3    3    0    0 -0.26028702246E+01  0.48829360634E+02  0.10594980192E+02  0.50033338871E+02  0.00000000000E+00 0. -1.
         21    1    1    2  502  501 -0.21442216182E+02  0.28505952976E+02 -0.18315207555E+03  0.18659324952E+03  0.00000000000E+00 0. -1.
<scales pt_clust_5="13000.00000" pt_clust_6="13000.00000" pt_clust_7="13000.00000" pt_clust_8="13000.00000" pt_clust_9="35.67013"></scales>
<clustering>
<clus scale="   35.670">  2  9  1 -1</clus>
<clus scale="   85.384">  5  6 -1 -1</clus>
<clus scale="   94.240">  2  5  1 -1</clus>
<clus scale="  123.732">  7  8 -1 -1</clus>
<clus scale="   35.670">  2  5  1 -1</clus>
</clustering>
</event>
<event>
 9    2  0.3791909E-005  0.1713280E+03  0.7546771E-02  0.1198774E+00
         -1   -1    0    0    0  501 -0.00000000000E+00  0.00000000000E+00  0.78635285950E+03  0.78635285950E+03  0.00000000000E+00 0.  1.
          2   -1    0    0  502    0  0.00000000000E+00 -0.00000000000E+00 -0.20077262724E+03  0.20077262724E+03  0.00000000000E+00 0. -1.
         23    2    1    2    0    0 -0.14293996215E+03 -0.40784789608E+02  0.70458949771E+03  0.72571075472E+03  0.90080560582E+02 0.  0.
         24    2    1    2    0    0  0.17645290171E+02  0.64786660906E+02 -0.43320992395E+02  0.11307876427E+03  0.80008942319E+02 0.  0.
        -13    1    4    4    0    0 -0.34004252496E+01  0.29237835112E+02  0.21333574254E+02  0.36352926765E+02  0.00000000000E+00 0.  1.
         14    1    4    4    0    0  0.21045715420E+02  0.35548825794E+02 -0.64654566649E+02  0.76725837509E+02  0.00000000000E+00 0. -1.
        -13    1    3    3    0    0 -0.14689551633E+03 -0.19901147860E+02  0.65816128243E+03  0.67464851744E+03  0.00000000000E+00 0.  1.
         13    1    3    3    0    0  0.39555541801E+01 -0.20883641748E+02  0.46428215280E+02  0.51062237276E+02  0.00000000000E+00 0. -1.
         21    1    1    2  502  501  0.12529467198E+03 -0.24001871297E+02 -0.75688273046E+02  0.14833596775E+03  0.00000000000E+00 0. -1.
<scales pt_clust_5="13000.00000" pt_clust_6="13000.00000" pt_clust_7="13000.00000" pt_clust_8="13000.00000" pt_clust_9="145.73527"></scales>
<clustering>
<clus scale="   80.009">  5  6 -1 -1</clus>
<clus scale="   90.081">  7  8 -1 -1</clus>
<clus scale="  104.451">  2  5  1 -1</clus>
<clus scale="  145.735">  2  9  1 -1</clus>
<clus scale="  104.451">  2  5  1 -1</clus>
</clustering>
</event>
<event>
 9    2  0.3791909E-005  0.1626522E+03  0.7546771E-02  0.1186221E+00
          2   -1    0    0  502    0  0.00000000000E+00  0.00000000000E+00  0.89382789049E+03  0.89382789049E+03  0.00000000000E+00 0. -1.
         -1   -1    0    0    0  501 -0.00000000000E+00 -0.00000000000E+00 -0.10984098190E+03  0.10984098190E+03  0.00000000000E+00 0.  1.
         23    2    1    2    0    0 -0.75126389157E+02 -0.12838490088E+03 -0.23687458047E+02  0.17227031152E+03  0.83602077959E+02 0.  0.
         24    2    1    2    0    0  0.62954547856E+02  0.46987382138E+02  0.53163288615E+03  0.54334889721E+03  0.80146174559E+02 0.  0.
        -11    1    4    4    0    0  0.51938892104E+02  0.69105509786E+02  0.44188257349E+03  0.45025929058E+03  0.00000000000E+00 0.  1.
         12    1    4    4    0    0  0.11015655752E+02 -0.22118127648E+02  0.89750312652E+02  0.93089606635E+02  0.00000000000E+00 0. -1.
        -13    1    3    3    0    0 -0.27174829845E+02  0.60839694855E+01 -0.49278420999E+01  0.28280199603E+02  0.00000000000E+00 0. -1.
         13    1    3    3    0    0 -0.47951559312E+02 -0.13446887037E+03 -0.18759615947E+02  0.14399011191E+03  0.00000000000E+00 0.  1.
         21    1    1    2  502  501  0.12171841302E+02  0.81397518745E+02  0.27604148050E+03  0.28804966366E+03  0.00000000000E+00 0. -1.
<scales pt_clust_5="13000.00000" pt_clust_6="13000.00000" pt_clust_7="13000.00000" pt_clust_8="13000.00000" pt_clust_9="82.30255"></scales>
<clustering>
<clus scale="   80.146">  5  6 -1 -1</clus>
<clus scale="   82.303">  1  9  2 -1</clus>
<clus scale="   83.602">  7  8 -1 -1</clus>
<clus scale="  160.903">  1  5  2 -1</clus>
<clus scale="   82.303">  1  5  2 -1</clus>
</clustering>
</event>
<event>
 9    2  0.3791909E-005  0.1181171E+03  0.7546771E-02  0.1250137E+00
          2   -1    0    0  502    0  0.00000000000E+00  0.00000000000E+00  0.53023628618E+03  0.53023628618E+03  0.00000000000E+00 0. -1.
         -1   -1    0    0    0  501 -0.00000000000E+00 -0.00000000000E+00 -0.55974298868E+02  0.55974298868E+02  0.00000000000E+00 0.  1.
         23    2    1    2    0    0 -0.51446065124E+02  0.54318349647E+02  0.27358324669E+02  0.12316754774E+03  0.93939268481E+02 0.  0.
         24    2    1    2    0    0  0.35435413472E+02 -0.41437766135E+02  0.39573122378E+03  0.40789896331E+03  0.82496095686E+02 0.  0.
        -11    1    4    4    0    0  0.54458471387E+02 -0.51433098435E+02  0.26379468682E+03  0.27422386022E+03  0.00000000000E+00 0.  1.
         12    1    4    4    0    0 -0.19023057915E+02  0.99953322992E+01  0.13193653697E+03  0.13367510309E+03  0.00000000000E+00 0. -1.
        -11    1    3    3    0    0 -0.17536530890E+02  0.71828405522E+02  0.38566717976E+02  0.83392094895E+02  0.00000000000E+00 0.  1.
         11    1    3    3    0    0 -0.33909534234E+02 -0.17510055874E+02 -0.11208393307E+02  0.39775452847E+02  0.00000000000E+00 0. -1.
         21    1    1    2  502  501  0.16010651652E+02 -0.12880583512E+02  0.51172438860E+02  0.55144073996E+02  0.00000000000E+00 0.  1.
<scales pt_clust_5="13000.00000" pt_clust_6="13000.00000" pt_clust_7="13000.00000" pt_clust_8="13000.00000" pt_clust_9="20.54873"></scales>
<clustering>
<clus scale="   20.549">  1  9  2 -1</clus>
<clus scale="   82.496">  5  6 -1 -1</clus>
<clus scale="   93.939">  7  8 -1 -1</clus>
<clus scale="  109.237">  1  5  2 -1</clus>
<clus scale="   20.549">  1  5  2 -1</clus>
</clustering>
</event>
<event>
 9    2  0.3791909E-005  0.1133482E+03  0.7546771E-02  0.1257654E+00
         -1   -1    0    0    0  501 -0.00000000000E+00  0.00000000000E+00  0.40801673350E+02  0.40801673350E+02  0.00000000000E+00 0.  1.
          2   -1    0    0  502    0  0.00000000000E+00 -0.00000000000E+00 -0.37101360607E+03  0.37101360607E+03  0.00000000000E+00 0. -1.
         23    2    1    2    0    0 -0.37700920493E+01 -0.68796286541E+02 -0.11649999244E+03  0.16120656101E+03  0.87568056040E+02 0.  0.
         24    2    1    2    0    0 -0.14864085774E+02  0.76333124878E+02 -0.18671160389E+03  0.21694784082E+03  0.78469456528E+02 0.  0.
        -11    1    4    4    0    0  0.16302255688E+02  0.56669087392E+02 -0.56664438927E+02  0.81780239944E+02  0.00000000000E+00 0.  1.
         12    1    4    4    0    0 -0.31166341461E+02  0.19664037485E+02 -0.13004716497E+03  0.13516760087E+03  0.00000000000E+00 0. -1.
        -11    1    3    3    0    0  0.37365429677E+02 -0.13042439842E+02 -0.26514560047E+02  0.47637196249E+02  0.00000000000E+00 0.  1.
         11    1    3    3    0    0 -0.41135521727E+02 -0.55753846699E+02 -0.89985432395E+02  0.11356936476E+03  0.00000000000E+00 0. -1.
         21    1    1    2  502  501  0.18634177823E+02 -0.75368383362E+01 -0.27000336387E+02  0.33660877592E+02  0.00000000000E+00 0.  1.
<scales pt_clust_5="13000.00000" pt_clust_6="13000.00000" pt_clust_7="13000.00000" pt_clust_8="13000.00000" pt_clust_9="20.10066"></scales>
<clustering>
<clus scale="   20.101">  2  9  1 -1</clus>
<clus scale="   78.469">  5  6 -1 -1</clus>
<clus scale="   87.568">  7  8 -1 -1</clus>
<clus scale="  106.476">  2  5  1 -1</clus>
<clus scale="   20.101">  2  5  1 -1</clus>
</clustering>
</event>
<event>
 9    2  0.3791909E-005  0.1605854E+03  0.7546771E-02  0.1189957E+00
          2   -1    0    0  502    0  0.00000000000E+00  0.00000000000E+00  0.86193018765E+03  0.86193018765E+03  0.00000000000E+00 0. -1.
         -1   -1    0    0    0  501 -0.00000000000E+00 -0.00000000000E+00 -0.75037407023E+02  0.75037407023E+02  0.00000000000E+00 0.  1.
         23    2    1    2    0    0  0.50258523264E+01 -0.12161213280E+03  0.55253174234E+02  0.16262372082E+03  0.92621764587E+02 0.  0.
         24    2    1    2    0    0 -0.15327190883E+02  0.17558127250E+03  0.49881977549E+03  0.53512878386E+03  0.80485656306E+02 0.  0.
        -13    1    4    4    0    0  0.10261335238E+02  0.12939493835E+03  0.26071568918E+03  0.29124047736E+03  0.00000000000E+00 0.  1.
         14    1    4    4    0    0 -0.25588526121E+02  0.46186334150E+02  0.23810408631E+03  0.24388830650E+03  0.00000000000E+00 0. -1.
        -11    1    3    3    0    0  0.45302736214E+02 -0.38372479500E+02  0.31227388696E+02  0.67081554069E+02  0.00000000000E+00 0.  1.
         11    1    3    3    0    0 -0.40276883888E+02 -0.83239653296E+02  0.24025785538E+02  0.95542166750E+02  0.00000000000E+00 0. -1.
         21    1    1    2  502  501  0.10301338556E+02 -0.53969139702E+02  0.23281983091E+03  0.23921508999E+03  0.00000000000E+00 0. -1.
<scales pt_clust_5="13000.00000" pt_clust_6="13000.00000" pt_clust_7="13000.00000" pt_clust_8="13000.00000" pt_clust_9="54.94348"></scales>
<clustering>
<clus scale="   54.943">  1  9  2 -1</clus>
<clus scale="   80.486">  5  6 -1 -1</clus>
<clus scale="   92.622">  7  8 -1 -1</clus>
<clus scale="  153.905">  1  5  2 -1</clus>
<clus scale="   54.943">  1  5  2 -1</clus>
</clustering>
</event>
<event>
 9    2  0.3791909E-005  0.9184083E+02  0.7546771E-02  0.1305732E+00
         -1   -1    0    0    0  501 -0.00000000000E+00  0.00000000000E+00  0.16173798678E+03  0.16173798678E+03  0.00000000000E+00 0.  1.
          2   -1    0    0  502    0  0.00000000000E+00 -0.00000000000E+00 -0.15535951526E+03  0.15535951526E+03  0.00000000000E+00 0. -1.
         24    2    1    2    0    0 -0.56388648234E+01  0.12831496564E+02  0.11284506749E+03  0.13893658295E+03  0.79830575127E+02 0.  0.
         23    2    1    2    0    0 -0.35454595255E+01  0.31662351208E+02 -0.80102416784E+02  0.12563355244E+03  0.91391014645E+02 0.  0.
        -13    1    3    3    0    0 -0.25819765168E+02  0.37109603152E+02  0.43475212542E+02  0.62720626790E+02  0.00000000000E+00 0.  1.
         14    1    3    3    0    0  0.20180900345E+02 -0.24278106588E+02  0.69369854945E+02  0.76215956159E+02  0.00000000000E+00 0. -1.
        -13    1    4    4    0    0 -0.14396725977E+02 -0.18245438811E+02  0.73358013405E+01  0.24371617459E+02  0.00000000000E+00 0.  1.
         13    1    4    4    0    0  0.10851266452E+02  0.49907790018E+02 -0.87438218124E+02  0.10126193498E+03  0.00000000000E+00 0. -1.
         21    1    1    2  502  501  0.91843243489E+01 -0.44493847772E+02 -0.26364179184E+02  0.52527366652E+02  0.00000000000E+00 0. -1.
<scales pt_clust_5="13000.00000" pt_clust_6="13000.00000" pt_clust_7="13000.00000" pt_clust_8="13000.00000" pt_clust_9="45.43186"></scales>
<clustering>
<clus scale="   45.432">  2  9  1 -1</clus>
<clus scale="   79.831">  5  6 -1 -1</clus>
<clus scale="   80.345">  1  5  2 -1</clus>
<clus scale="   91.391">  7  8 -1 -1</clus>
<clus scale="   45.432">  2  5  1 -1</clus>
</clustering>
</event>
<event>
 9    2  0.3791909E-005  0.1326761E+03  0.7546771E-02  0.1226262E+00
         -1   -1    0    0    0  501 -0.00000000000E+00  0.00000000000E+00  0.11287215969E+03  0.11287215969E+03  0.00000000000E+00 0.  1.
          2   -1    0    0  502    0  0.00000000000E+00 -0.00000000000E+00 -0.38066843258E+03  0.38066843258E+03  0.00000000000E+00 0. -1.
         23    2    1    2    0    0 -0.95274283980E+02 -0.68034832474E+02  0.26666968376E+02  0.15104850074E+03  0.91643847347E+02 0.  0.
         24    2    1    2    0    0  0.49845556450E+02  0.19396708634E+02 -0.11074551856E+03  0.14709086837E+03  0.80686689551E+02 0.  0.
        -13    1    4    4    0    0  0.14776360057E+02 -0.15378536085E+02  0.44217914834E+01  0.21780551613E+02  0.00000000000E+00 0.  1.
         14    1    4    4    0    0  0.35069196393E+02  0.34775244719E+02 -0.11516731005E+03  0.12531031675E+03  0.00000000000E+00 0. -1.
        -11    1    3    3    0    0 -0.77321910450E+02 -0.79225025343E+02 -0.73969066787E+01  0.11095042454E+03  0.00000000000E+00 0. -1.
         11    1    3    3    0    0 -0.17952373530E+02  0.11190192868E+02  0.34063875055E+02  0.40098076207E+02  0.00000000000E+00 0.  1.
         21    1    1    2  502  501  0.45428727530E+02  0.48638123840E+02 -0.18371772270E+03  0.19540122315E+03  0.00000000000E+00 0. -1.
<scales pt_clust_5="13000.00000" pt_clust_6="13000.00000" pt_clust_7="13000.00000" pt_clust_8="13000.00000" pt_clust_9="66.55401"></scales>
<clustering>
<clus scale="   66.554">  2  9  1 -1</clus>
<clus scale="   80.687">  5  6 -1 -1</clus>
<clus scale="   91.644">  7  8 -1 -1</clus>
<clus scale="  125.358">  2  5  1 -1</clus>
<clus scale="   66.554">  2  5  1 -1</clus>
</clustering>
</event>
<event>
 9    2  0.3791909E-005  0.1072796E+03  0.7546771E-02  0.1273245E+00
         -1   -1    0    0    0  501 -0.00000000000E+00  0.00000000000E+00  0.43554312108E+02  0.43554312108E+02  0.00000000000E+00 0.  1.
          2   -1    0    0  502    0  0.00000000000E+00 -0.00000000000E+00 -0.90940947380E+03  0.90940947380E+03  0.00000000000E+00 0. -1.
         23    2    1    2    0    0  0.51524739033E+02  0.12157859165E+02 -0.39094555235E+02  0.11655067342E+03  0.96192842531E+02 0.  0.
         24    2    1    2    0    0 -0.70665409355E+01 -0.11628142971E+01 -0.57405753552E+03  0.57959359521E+03  0.79595184459E+02 0.  0.
        -11    1    4    4    0    0 -0.19992241594E+02  0.95286541285E+00 -0.34561854537E+02  0.39938946725E+02  0.00000000000E+00 0.  1.
         12    1    4    4    0    0  0.12925700658E+02 -0.21156797100E+01 -0.53949568098E+03  0.53965464849E+03  0.00000000000E+00 0. -1.
        -11    1    3    3    0    0  0.11337575515E+02 -0.35622425452E+02  0.81439614175E+01  0.38259925787E+02  0.00000000000E+00 0.  1.
         11    1    3    3    0    0  0.40187163519E+02  0.47780284617E+02 -0.47238516652E+02  0.78290747635E+02  0.00000000000E+00 0. -1.
         21    1    1    2  502  501 -0.44458198098E+02 -0.10995044868E+02 -0.25270307094E+03  0.25681951727E+03  0.00000000000E+00 0. -1.
<scales pt_clust_5="13000.00000" pt_clust_6="13000.00000" pt_clust_7="13000.00000" pt_clust_8="13000.00000" pt_clust_9="45.79762"></scales>
<clustering>
<clus scale="   45.798">  2  9  1 -1</clus>
<clus scale="   79.595">  5  6 -1 -1</clus>
<clus scale="   92.689">  2  5  1 -1</clus>
<clus scale="   96.193">  7  8 -1 -1</clus>
<clus scale="   45.798">  2  5  1 -1</clus>
</clustering>
</event>
<event>
 9    2  0.3791909E-005  0.1168843E+03  0.7546771E-02  0.1251964E+00
          2   -1    0    0  502    0  0.00000000000E+00  0.00000000000E+00  0.46035130375E+03  0.46035130375E+03  0.00000000000E+00 0. -1.
         -1   -1    0    0    0  501 -0.00000000000E+00 -0.00000000000E+00 -0.80445199454E+02  0.80445199454E+02  0.00000000000E+00 0.  1.
         23    2    1    2    0    0 -0.27832449246E+00 -0.82508345544E+02 -0.12698781514E+02  0.12294365433E+03  0.90256182831E+02 0.  0.
         24    2    1    2    0    0 -0.24048825560E+02  0.35701178723E+02  0.24579682462E+03  0.26185500297E+03  0.79366513187E+02 0.  0.
        -11    1    4    4    0    0 -0.24555429268E+02  0.64935830440E+01  0.15590541895E+02  0.29802696587E+02  0.00000000000E+00 0.  1.
         12    1    4    4    0    0  0.50660370825E+00  0.29207595679E+02  0.23020628272E+03  0.23205230638E+03  0.00000000000E+00 0. -1.
        -11    1    3    3    0    0  0.23799389690E+02 -0.92729437401E+02 -0.58962888053E+01  0.95916243317E+02  0.00000000000E+00 0.  1.
         11    1    3    3    0    0 -0.24077714183E+02  0.10221091857E+02 -0.68024927085E+01  0.27027411013E+02  0.00000000000E+00 0. -1.
         21    1    1    2  502  501  0.24327150053E+02  0.46807166821E+02  0.14680806120E+03  0.15599784591E+03  0.00000000000E+00 0. -1.
<scales pt_clust_5="13000.00000" pt_clust_6="13000.00000" pt_clust_7="13000.00000" pt_clust_8="13000.00000" pt_clust_9="52.75150"></scales>
<clustering>
<clus scale="   52.752">  1  9  2 -1</clus>
<clus scale="   79.367">  5  6 -1 -1</clus>
<clus scale="   90.256">  7  8 -1 -1</clus>
<clus scale="  108.696">  1  5  2 -1</clus>
<clus scale="   52.752">  1  5  2 -1</clus>
</clustering>
</event>
<event>
 9    2  0.3791909E-005  0.1664426E+03  0.7546771E-02  0.1182979E+00
         -1   -1    0    0    0  501 -0.00000000000E+00  0.00000000000E+00  0.50019917328E+02  0.50019917328E+02  0.00000000000E+00 0.  1.
          2   -1    0    0  502    0  0.00000000000E+00 -0.00000000000E+00 -0.72667290422E+03  0.72667290422E+03  0.00000000000E+00 0. -1.
         23    2    1    2    0    0  0.10857889127E+03  0.10246902599E+03 -0.20273090056E+03  0.26739935425E+03  0.90073967915E+02 0.  0.
         24    2    1    2    0    0 -0.10485637521E+03 -0.71468057665E+02 -0.33881894438E+03  0.37062921044E+03  0.80406416869E+02 0.  0.
        -13    1    4    4    0    0 -0.71420598081E+02 -0.80425191366E+00 -0.17870591353E+03  0.19245090850E+03  0.00000000000E+00 0.  1.
         14    1    4    4    0    0 -0.33435777126E+02 -0.70663805751E+02 -0.16011303086E+03  0.17817830195E+03  0.00000000000E+00 0. -1.
        -11    1    3    3    0    0  0.47871121366E+02  0.99150576275E+02 -0.15489028555E+03  0.19003547457E+03  0.00000000000E+00 0.  1.
         11    1    3    3    0    0  0.60707769904E+02  0.33184497167E+01 -0.47840615005E+02  0.77363879681E+02  0.00000000000E+00 0. -1.
         21    1    1    2  502  501 -0.37225160637E+01 -0.31000968327E+02 -0.13510314195E+03  0.13866425685E+03  0.00000000000E+00 0. -1.
<scales pt_clust_5="13000.00000" pt_clust_6="13000.00000" pt_clust_7="13000.00000" pt_clust_8="13000.00000" pt_clust_9="31.22366"></scales>
<clustering>
<clus scale="   31.224">  2  9  1 -1</clus>
<clus scale="   80.406">  5  6 -1 -1</clus>
<clus scale="   90.074">  7  8 -1 -1</clus>
<clus scale="  161.416">  2  5  1 -1</clus>
<clus scale="   31.224">  2  5  1 -1</clus>
</clustering>
</event>
<event>
 9    2  0.3791909E-005  0.1017641E+03  0.7546771E-02  0.1281269E+00
          2   -1    0    0  502    0  0.00000000000E+00  0.00000000000E+00  0.24999971502E+03  0.24999971502E+03  0.00000000000E+00 0. -1.
         -1   -1    0    0    0  501 -0.00000000000E+00 -0.00000000000E+00 -0.11887655650E+03  0.11887655650E+03  0.00000000000E+00 0.  1.
         24    2    1    2    0    0 -0.23553427239E+01 -0.44156680191E+02 -0.77239779026E+02  0.12060969137E+03  0.81396278437E+02 0.  0.
         23    2    1    2    0    0 -0.21538390037E+02  0.55092250591E+02  0.17078312242E+03  0.20241094069E+03  0.91127688909E+02 0.  0.
        -11    1    3    3    0    0  0.22380549208E+02 -0.53843253119E+02 -0.73441839451E+02  0.93774669667E+02  0.00000000000E+00 0.  1.
         12    1    3    3    0    0 -0.24735891932E+02  0.96865729282E+01 -0.37979395755E+01  0.26835021702E+02  0.00000000000E+00 0. -1.
        -11    1    4    4    0    0 -0.15099986091E+02  0.26929197042E+02  0.17075259582E+03  0.17352129614E+03  0.00000000000E+00 0. -1.
         11    1    4    4    0    0 -0.64384039462E+01  0.28163053549E+02  0.30526602464E-01  0.28889644554E+02  0.00000000000E+00 0.  1.
         21    1    1    2  502  501  0.23893732761E+02 -0.10935570400E+02  0.37579815124E+02  0.45855639457E+02  0.00000000000E+00 0.  1.
<scales pt_clust_5="13000.00000" pt_clust_6="13000.00000" pt_clust_7="13000.00000" pt_clust_8="13000.00000" pt_clust_9="26.27731"></scales>
<clustering>
<clus scale="   26.277">  1  9  2 -1</clus>
<clus scale="   81.396">  5  6 -1 -1</clus>
<clus scale="   91.128">  7  8 -1 -1</clus>
<clus scale="   93.151">  2  5  1 -1</clus>
<clus scale="   26.277">  1  5  2 -1</clus>
</clustering>
</event>
<event>
 9    2  0.3791909E-005  0.9716997E+02  0.7546771E-02  0.1289893E+00
         -1   -1    0    0    0  501 -0.00000000000E+00  0.00000000000E+00  0.49466926774E+03  0.49466926774E+03  0.00000000000E+00 0.  1.
          2   -1    0    0  502    0  0.00000000000E+00 -0.00000000000E+00 -0.28654513879E+02  0.28654513879E+02  0.00000000000E+00 0. -1.
         23    2    1    2    0    0  0.74103313856E+01  0.19076907763E+02  0.32197942077E+03  0.33491253637E+03  0.89871119900E+02 0.  0.
         24    2    1    2    0    0 -0.12554968171E+02 -0.40492916688E+02  0.88145507439E+02  0.12833807872E+03  0.83088678176E+02 0.  0.
        -13    1    4    4    0    0  0.18784961853E+02  0.11085162152E+02  0.36915361565E+00  0.21814946394E+02  0.00000000000E+00 0.  1.
         14    1    4    4    0    0 -0.31339930024E+02 -0.51578078840E+02  0.87776353823E+02  0.10652313233E+03  0.00000000000E+00 0. -1.
        -11    1    3    3    0    0  0.33873289253E+02 -0.15068124557E+02  0.69556366389E+02  0.78819643540E+02  0.00000000000E+00 0.  1.
         11    1    3    3    0    0 -0.26462957867E+02  0.34145032320E+02  0.25242305438E+03  0.25609289283E+03  0.00000000000E+00 0. -1.
         21    1    1    2  502  501  0.51446367852E+01  0.21416008925E+02  0.55889825652E+02  0.60073166533E+02  0.00000000000E+00 0. -1.
<scales pt_clust_5="13000.00000" pt_clust_6="13000.00000" pt_clust_7="13000.00000" pt_clust_8="13000.00000" pt_clust_9="22.02527"></scales>
<clustering>
<clus scale="   22.025">  1  9  2 -1</clus>
<clus scale="   83.089">  5  6 -1 -1</clus>
<clus scale="   89.871">  7  8 -1 -1</clus>
<clus scale="   90.934">  2  5  1 -1</clus>
<clus scale="   90.934">  2  5  1 -1</clus>
</clustering>
</event>
<event>
 9    2  0.3791909E-005  0.1039961E+03  0.7546771E-02  0.1277688E+00
          2   -1    0    0  502    0  0.00000000000E+00  0.00000000000E+00  0.39894012217E+03  0.39894012217E+03  0.00000000000E+00 0. -1.
         -1   -1    0    0    0  501 -0.00000000000E+00 -0.00000000000E+00 -0.62848660965E+02  0.62848660965E+02  0.00000000000E+00 0.  1.
         24    2    1    2    0    0 -0.19947408237E+02  0.48886678567E+02 -0.54727066290E+00  0.95681489853E+02  0.79792490616E+02 0.  0.
         23    2    1    2    0    0  0.18549934730E+01 -0.35058003243E+02  0.15880706380E+03  0.18682352408E+03  0.91928456111E+02 0.  0.
        -11    1    3    3    0    0 -0.36756527703E+02  0.62471811111E+02 -0.77601378296E+01  0.72897114150E+02  0.00000000000E+00 0.  1.
         12    1    3    3    0    0  0.16809119466E+02 -0.13585132544E+02  0.72128671667E+01  0.22784375704E+02  0.00000000000E+00 0. -1.
        -13    1    4    4    0    0 -0.32198181508E+02 -0.51319484105E+02  0.94083328092E+02  0.11190212226E+03  0.00000000000E+00 0. -1.
         13    1    4    4    0    0  0.34053174981E+02  0.16261480861E+02  0.64723735709E+02  0.74921401817E+02  0.00000000000E+00 0.  1.
         21    1    1    2  502  501  0.18092414764E+02 -0.13828675323E+02  0.17783166806E+03  0.17928376920E+03  0.00000000000E+00 0.  1.
<scales pt_clust_5="13000.00000" pt_clust_6="13000.00000" pt_clust_7="13000.00000" pt_clust_8="13000.00000" pt_clust_9="22.77208"></scales>
<clustering>
<clus scale="   22.772">  1  9  2 -1</clus>
<clus scale="   79.792">  5  6 -1 -1</clus>
<clus scale="   91.928">  7  8 -1 -1</clus>
<clus scale="   93.441">  2  5  1 -1</clus>
<clus scale="   22.772">  1  5  2 -1</clus>
</clustering>
</event>
<event>
 9    2  0.3791909E-005  0.1386809E+03  0.7546771E-02  0.1240103E+00
          2   -1    0    0  502    0  0.00000000000E+00  0.00000000000E+00  0.96685764261E+03  0.96685764261E+03  0.00000000000E+00 0. -1.
         -1   -1    0    0    0  501 -0.00000000000E+00 -0.00000000000E+00 -0.39017816937E+02  0.39017816937E+02  0.00000000000E+00 0.  1.
         24    2    1    2    0    0  0.14565172326E+02 -0.55542387967E+01  0.59496977228E+02  0.10180210480E+03  0.81122034182E+02 0.  0.
         23    2    1    2    0    0  0.86245359321E+02 -0.37176295608E+02  0.33530858565E+03  0.35990960441E+03  0.91009542230E+02 0.  0.
        -13    1    3    3    0    0  0.85024365304E+01 -0.38246014728E+02  0.72079943652E+01  0.39837221945E+02  0.00000000000E+00 0.  1.
         14    1    3    3    0    0  0.60627357952E+01  0.32691775932E+02  0.52288982863E+02  0.61964882859E+02  0.00000000000E+00 0. -1.
        -13    1    4    4    0    0 -0.58619689068E+01 -0.26698181369E+02  0.28873891295E+02  0.39759994547E+02  0.00000000000E+00 0. -1.
         13    1    4    4    0    0  0.92107328228E+02 -0.10478114239E+02  0.30643469436E+03  0.32014960986E+03  0.00000000000E+00 0.  1.
         21    1    1    2  502  501 -0.10081053165E+03  0.42730534405E+02  0.53303426279E+03  0.54416375033E+03  0.00000000000E+00 0. -1.
<scales pt_clust_5="13000.00000" pt_clust_6="13000.00000" pt_clust_7="13000.00000" pt_clust_8="13000.00000" pt_clust_9="104.64065"></scales>
<clustering>
<clus scale="   81.122">  5  6 -1 -1</clus>
<clus scale="   82.606">  2  5  1 -1</clus>
<clus scale="   91.010">  7  8 -1 -1</clus>
<clus scale="  104.641">  1  9  2 -1</clus>
<clus scale="  104.641">  1  5  2 -1</clus>
</clustering>
</event>
<event>
 9    2  0.3791909E-005  0.2226911E+03  0.7546771E-02  0.1156465E+00
          2   -1    0    0  502    0  0.00000000000E+00  0.00000000000E+00  0.17121091164E+04  0.17121091164E+04  0.00000000000E+00 0. -1.
         -1   -1    0    0    0  501 -0.00000000000E+00 -0.00000000000E+00 -0.58912656039E+02  0.58912656039E+02  0.00000000000E+00 0.  1.
         23    2    1    2    0    0 -0.52102060138E+02  0.64198416147E+02  0.11042668678E+03  0.16577810747E+03  0.91936208621E+02 0.  0.
         24    2    1    2    0    0  0.14738598744E+03 -0.19468679796E+03  0.11871420776E+04  0.12146322177E+04  0.79997082923E+02 0.  0.
        -11    1    4    4    0    0  0.14347848792E+03 -0.14007758566E+03  0.87089908268E+03  0.89368507804E+03  0.00000000000E+00 0.  1.
         12    1    4    4    0    0  0.39074995204E+01 -0.54609212300E+02  0.31624299488E+03  0.32094713962E+03  0.00000000000E+00 0. -1.
        -13    1    3    3    0    0 -0.48367945318E+02  0.33226750204E+02  0.86345795574E+01  0.59312992063E+02  0.00000000000E+00 0.  1.
         13    1    3    3    0    0 -0.37341148198E+01  0.30971665943E+02  0.10179210723E+03  0.10646511541E+03  0.00000000000E+00 0. -1.
         21    1    1    2  502  501 -0.95283927302E+02  0.13048838182E+03  0.35562769599E+03  0.39061144728E+03  0.00000000000E+00 0. -1.
<scales pt_clust_5="13000.00000" pt_clust_6="13000.00000" pt_clust_7="13000.00000" pt_clust_8="13000.00000" pt_clust_9="207.82630"></scales>
<clustering>
<clus scale="   79.997">  5  6 -1 -1</clus>
<clus scale="   91.936">  7  8 -1 -1</clus>
<clus scale="  123.646">  2  7  1 -1</clus>
<clus scale="  207.826">  2  9  1 -1</clus>
<clus scale="  222.691">  1  5  2 -1</clus>
</clustering>
</event>
<event>
 9    2  0.3791909E-005  0.2130685E+03  0.7546771E-02  0.1140362E+00
          2   -1    0    0  502    0  0.00000000000E+00  0.00000000000E+00  0.10346795898E+04  0.10346795898E+04  0.00000000000E+00 0. -1.
         -1   -1    0    0    0  501 -0.00000000000E+00 -0.00000000000E+00 -0.11561748124E+03  0.11561748124E+03  0.00000000000E+00 0.  1.
         24    2    1    2    0    0  0.17570676636E+03  0.83200294431E+02  0.10093890710E+02  0.21058568888E+03  0.80307465360E+02 0.  0.
         23    2    1    2    0    0 -0.13643883021E+03 -0.92567329821E+02  0.82347426703E+03  0.84516547908E+03  0.94923936043E+02 0.  0.
        -13    1    3    3    0    0  0.44573183965E+02  0.13420041308E+01 -0.26303086167E+02  0.51772792524E+02  0.00000000000E+00 0.  1.
         14    1    3    3    0    0  0.13113358240E+03  0.81858290300E+02  0.36396976877E+02  0.15881289635E+03  0.00000000000E+00 0. -1.
        -11    1    4    4    0    0 -0.47604323702E+02 -0.88534055350E+02  0.47542444487E+03  0.48593502999E+03  0.00000000000E+00 0.  1.
         11    1    4    4    0    0 -0.88834506510E+02 -0.40332744704E+01  0.34804982216E+03  0.35923044909E+03  0.00000000000E+00 0. -1.
         21    1    1    2  502  501 -0.39267936148E+02  0.93670353898E+01  0.85493950786E+02  0.94545903044E+02  0.00000000000E+00 0. -1.
<scales pt_clust_5="13000.00000" pt_clust_6="13000.00000" pt_clust_7="13000.00000" pt_clust_8="13000.00000" pt_clust_9="40.36969"></scales>
<clustering>
<clus scale="   40.370">  1  9  2 -1</clus>
<clus scale="   80.307">  5  6 -1 -1</clus>
<clus scale="   94.924">  7  8 -1 -1</clus>
<clus scale="  206.971">  2  5  1 -1</clus>
<clus scale="   40.370">  1  5  2 -1</clus>
</clustering>
</event>
<event>
 9    2  0.3791909E-005  0.1111227E+03  0.7546771E-02  0.1261568E+00
         -1   -1    0    0    0  501 -0.00000000000E+00  0.00000000000E+00  0.67478040314E+02  0.67478040314E+02  0.00000000000E+00 0.  1.
          2   -1    0    0  502    0  0.00000000000E+00 -0.00000000000E+00 -0.59219377385E+03  0.59219377385E+03  0.00000000000E+00 0. -1.
         24    2    1    2    0    0  0.20096980432E+01  0.21815577849E+02 -0.20193034435E+02  0.89885221848E+02  0.84803514926E+02 0.  0.
         23    2    1    2    0    0 -0.69599301803E+02  0.31756501542E+02 -0.45441712805E+03  0.47004246729E+03  0.92695504688E+02 0.  0.
        -13    1    3    3    0    0  0.40069496446E+02  0.44688578288E+01  0.56606718845E+01  0.40713369327E+02  0.00000000000E+00 0.  1.
         14    1    3    3    0    0 -0.38059798403E+02  0.17346720020E+02 -0.25853706319E+02  0.49171852521E+02  0.00000000000E+00 0. -1.
        -11    1    4    4    0    0 -0.27581061420E+02  0.59431851079E+02 -0.19273348794E+03  0.20356585481E+03  0.00000000000E+00 0. -1.
         11    1    4    4    0    0 -0.42018240383E+02 -0.27675349537E+02 -0.26168364010E+03  0.26647661247E+03  0.00000000000E+00 0.  1.
         21    1    1    2  502  501  0.67589603760E+02 -0.53572079391E+02 -0.50105571051E+02  0.99744125026E+02  0.00000000000E+00 0.  1.
<scales pt_clust_5="13000.00000" pt_clust_6="13000.00000" pt_clust_7="13000.00000" pt_clust_8="13000.00000" pt_clust_9="86.24571"></scales>
<clustering>
<clus scale="   84.804">  5  6 -1 -1</clus>
<clus scale="   86.246">  1  9  2 -1</clus>
<clus scale="   92.696">  7  8 -1 -1</clus>
<clus scale="  104.630">  1  5  2 -1</clus>
<clus scale="  111.123">  2  5  1 -1</clus>
</clustering>
</event>
<event>
 9    2  0.3791909E-005  0.1080952E+03  0.7546771E-02  0.1268033E+00
          2   -1    0    0  502    0  0.00000000000E+00  0.00000000000E+00  0.83778784325E+02  0.83778784325E+02  0.00000000000E+00 0. -1.
         -1   -1    0    0    0  501 -0.00000000000E+00 -0.00000000000E+00 -0.29489493682E+03  0.29489493682E+03  0.00000000000E+00 0.  1.
         23    2    1    2    0    0 -0.47409291217E+02  0.16207855245E+02 -0.15702293940E+03  0.18793363734E+03  0.90291268016E+02 0.  0.
         24    2    1    2    0    0  0.69230979838E+02 -0.28611338939E+02 -0.93217144725E+02  0.14425659718E+03  0.80678327159E+02 0.  0.
        -13    1    4    4    0    0  0.54903160569E+02 -0.36983115102E+00 -0.97899300379E+02  0.11224422849E+03  0.00000000000E+00 0.  1.
         14    1    4    4    0    0  0.14327819269E+02 -0.28241507788E+02  0.46821556540E+01  0.32012368683E+02  0.00000000000E+00 0. -1.
        -11    1    3    3    0    0 -0.65427614041E+02  0.34121017656E+02 -0.90792672291E+02  0.11699711905E+03  0.00000000000E+00 0.  1.
         11    1    3    3    0    0  0.18018322824E+02 -0.17913162412E+02 -0.66230267113E+02  0.70936518289E+02  0.00000000000E+00 0. -1.
         21    1    1    2  502  501 -0.21821688622E+02  0.12403483694E+02  0.39123931636E+02  0.46483486624E+02  0.00000000000E+00 0. -1.
<scales pt_clust_5="13000.00000" pt_clust_6="13000.00000" pt_clust_7="13000.00000" pt_clust_8="13000.00000" pt_clust_9="25.10045"></scales>
<clustering>
<clus scale="   25.100">  1  9  2 -1</clus>
<clus scale="   80.678">  5  6 -1 -1</clus>
<clus scale="   90.291">  7  8 -1 -1</clus>
<clus scale="  100.205">  1  5  2 -1</clus>
<clus scale="   25.100">  1  5  2 -1</clus>
</clustering>
</event>
<event>
 9    2  0.3791909E-005  0.1097620E+03  0.7546771E-02  0.1262143E+00
          2   -1    0    0  502    0  0.00000000000E+00  0.00000000000E+00  0.32123222721E+03  0.32123222721E+03  0.00000000000E+00 0. -1.
         -1   -1    0    0    0  501 -0.00000000000E+00 -0.00000000000E+00 -0.72854584060E+02  0.72854584060E+02  0.00000000000E+00 0.  1.
         23    2    1    2    0    0 -0.50068201490E+02 -0.20300786342E+02  0.77983519004E+01  0.10680630647E+03  0.91803192113E+02 0.  0.
         24    2    1    2    0    0  0.66391101680E+02 -0.10522845768E+02  0.14621622927E+03  0.18667771740E+03  0.94609068309E+02 0.  0.
        -11    1    4    4    0    0  0.46900648883E+02 -0.46511347757E+02  0.52367993048E+02  0.84293434096E+02  0.00000000000E+00 0.  1.
         12    1    4    4    0    0  0.19490452797E+02  0.35988501990E+02  0.93848236219E+02  0.10238428330E+03  0.00000000000E+00 0. -1.
        -11    1    3    3    0    0 -0.21755514075E+02 -0.56045697921E+01  0.49466714502E+02  0.54329268712E+02  0.00000000000E+00 0. -1.
         11    1    3    3    0    0 -0.28312687416E+02 -0.14696216550E+02 -0.41668362602E+02  0.52477037754E+02  0.00000000000E+00 0.  1.
         21    1    1    2  502  501 -0.16322900190E+02  0.30823632110E+02  0.94363061981E+02  0.10060278740E+03  0.00000000000E+00 0.  1.
<scales pt_clust_5="13000.00000" pt_clust_6="13000.00000" pt_clust_7="13000.00000" pt_clust_8="13000.00000" pt_clust_9="34.87884"></scales>
<clustering>
<clus scale="   34.879">  1  9  2 -1</clus>
<clus scale="   91.803">  7  8 -1 -1</clus>
<clus scale="   94.609">  5  6 -1 -1</clus>
<clus scale="  107.353">  2  7  1 -1</clus>
<clus scale="   34.879">  1  5  2 -1</clus>
</clustering>
</event>
<event>
 9    2  0.3791909E-005  0.1104318E+03  0.7546771E-02  0.1265014E+00
         -1   -1    0    0    0  501 -0.00000000000E+00  0.00000000000E+00  0.24336314697E+03  0.24336314697E+03  0.00000000000E+00 0.  1.
          2   -1    0    0  502    0  0.00000000000E+00 -0.00000000000E+00 -0.63073000449E+02  0.63073000449E+02  0.00000000000E+00 0. -1.
         24    2    1    2    0    0  0.27198629404E+02 -0.56399727697E+02  0.12080301624E+03  0.15775115248E+03  0.79820815885E+02 0.  0.
         23    2    1    2    0    0 -0.57060718151E+01  0.59151464834E+02  0.34405765632E+02  0.11554020740E+03  0.92921083554E+02 0.  0.
        -13    1    3    3    0    0  0.49986473643E+02 -0.22194615692E+02  0.93778383417E+02  0.10856165856E+03  0.00000000000E+00 0.  1.
         14    1    3    3    0    0 -0.22787844240E+02 -0.34205112005E+02  0.27024632826E+02  0.49189493916E+02  0.00000000000E+00 0. -1.
        -11    1    4    4    0    0 -0.39173735176E+02  0.24728504280E+02 -0.12952639462E+02  0.48102508465E+02  0.00000000000E+00 0. -1.
         11    1    4    4    0    0  0.33467663361E+02  0.34422960555E+02  0.47358405094E+02  0.67437698932E+02  0.00000000000E+00 0.  1.
         21    1    1    2  502  501 -0.21492557589E+02 -0.27517371371E+01  0.25081364647E+02  0.33144787547E+02  0.00000000000E+00 0. -1.
<scales pt_clust_5="13000.00000" pt_clust_6="13000.00000" pt_clust_7="13000.00000" pt_clust_8="13000.00000" pt_clust_9="21.66800"></scales>
<clustering>
<clus scale="   21.668">  1  9  2 -1</clus>
<clus scale="   79.821">  5  6 -1 -1</clus>
<clus scale="   92.921">  7  8 -1 -1</clus>
<clus scale="   99.661">  1  5  2 -1</clus>
<clus scale="  110.432">  2  5  1 -1</clus>
</clustering>
</event>
<event>
 9    2  0.3791909E-005  0.1098959E+03  0.7546771E-02  0.1264872E+00
          2   -1    0    0  502    0  0.00000000000E+00  0.00000000000E+00  0.57234572224E+03  0.57234572224E+03  0.00000000000E+00 0. -1.
         -1   -1    0    0    0  501 -0.00000000000E+00 -0.00000000000E+00 -0.40916329912E+02  0.40916329912E+02  0.00000000000E+00 0.  1.
         23    2    1    2    0    0  0.45245404900E+02  0.37777283403E+02  0.60069223049E+02  0.12460056595E+03  0.91884273252E+02 0.  0.
         24    2    1    2    0    0 -0.37071154449E+02 -0.56916939911E+02  0.35768529434E+03  0.37309712312E+03  0.81540695089E+02 0.  0.
        -11    1    4    4    0    0 -0.28270875801E+02  0.16129572049E+02  0.11091588085E+03  0.11559298481E+03  0.00000000000E+00 0.  1.
         12    1    4    4    0    0 -0.88002786484E+01 -0.73046511960E+02  0.24676941349E+03  0.25750413832E+03  0.00000000000E+00 0. -1.
        -13    1    3    3    0    0  0.32158393068E+02 -0.23951566373E+02  0.41937544828E+01  0.40316589055E+02  0.00000000000E+00 0.  1.
         13    1    3    3    0    0  0.13087011832E+02  0.61728849776E+02  0.55875468566E+02  0.84283976893E+02  0.00000000000E+00 0. -1.
         21    1    1    2  502  501 -0.81742504506E+01  0.19139656508E+02  0.11367487494E+03  0.11556436308E+03  0.00000000000E+00 0.  1.
<scales pt_clust_5="13000.00000" pt_clust_6="13000.00000" pt_clust_7="13000.00000" pt_clust_8="13000.00000" pt_clust_9="20.81213"></scales>
<clustering>
<clus scale="   20.812">  1  9  2 -1</clus>
<clus scale="   81.541">  5  6 -1 -1</clus>
<clus scale="   91.884">  7  8 -1 -1</clus>
<clus scale="  101.406">  1  5  2 -1</clus>
<clus scale="   20.812">  1  5  2 -1</clus>
</clustering>
</event>
<event>
 9    2  0.3791909E-005  0.1213349E+03  0.7546771E-02  0.1260093E+00
          2   -1    0    0  502    0  0.00000000000E+00  0.00000000000E+00  0.19761224007E+03  0.19761224007E+03  0.00000000000E+00 0. -1.
         -1   -1    0    0    0  501 -0.00000000000E+00 -0.00000000000E+00 -0.11210643385E+03  0.11210643385E+03  0.00000000000E+00 0.  1.
         23    2    1    2    0    0  0.68693306272E+01 -0.16148024737E+02 -0.48930395682E+02  0.13097952363E+03  0.12022273322E+03 0.  0.
         24    2    1    2    0    0 -0.28693701761E+02 -0.57000517812E+01  0.90015434337E+02  0.12463881560E+03  0.81093999924E+02 0.  0.
        -11    1    4    4    0    0 -0.25632249766E+02 -0.42281843929E+02  0.53855756317E+02  0.73110936546E+02  0.00000000000E+00 0.  1.
         12    1    4    4    0    0 -0.30614519955E+01  0.36581792148E+02  0.36159678020E+02  0.51527879052E+02  0.00000000000E+00 0. -1.
        -11    1    3    3    0    0  0.20443585834E+02 -0.57247066082E+02  0.59574521461E+01  0.61079112738E+02  0.00000000000E+00 0.  1.
         11    1    3    3    0    0 -0.13574255206E+02  0.41099041345E+02 -0.54887847828E+02  0.69900410894E+02  0.00000000000E+00 0. -1.
         21    1    1    2  502  501  0.21824371134E+02  0.21848076518E+02  0.44420767566E+02  0.54100334695E+02  0.00000000000E+00 0. -1.
<scales pt_clust_5="13000.00000" pt_clust_6="13000.00000" pt_clust_7="13000.00000" pt_clust_8="13000.00000" pt_clust_9="30.88109"></scales>
<clustering>
<clus scale="   30.881">  1  9  2 -1</clus>
<clus scale="   81.094">  5  6 -1 -1</clus>
<clus scale="   82.734">  1  5  2 -1</clus>
<clus scale="  120.223">  7  8 -1 -1</clus>
<clus scale="   30.881">  1  5  2 -1</clus>
</clustering>
</event>
<event>
 9    2  0.3791909E-005  0.9759299E+02  0.7546771E-02  0.1291627E+00
          2   -1    0    0  502    0  0.00000000000E+00  0.00000000000E+00  0.44373483087E+03  0.44373483087E+03  0.00000000000E+00 0. -1.
         -1   -1    0    0    0  501 -0.00000000000E+00 -0.00000000000E+00 -0.44061373647E+02  0.44061373647E+02  0.00000000000E+00 0.  1.
         23    2    1    2    0    0  0.14299991991E+02  0.95550204409E+01  0.53221116168E+02  0.10857109386E+03  0.93055934950E+02 0.  0.
         24    2    1    2    0    0  0.35606470055E+02 -0.15664936969E+02  0.28913295171E+03  0.30297880957E+03  0.81762364978E+02 0.  0.
        -13    1    4    4    0    0 -0.26056386867E+02  0.27198598247E+01  0.82937786693E+02  0.86977062468E+02  0.00000000000E+00 0.  1.
         14    1    4    4    0    0  0.61662856921E+02 -0.18384796793E+02  0.20619516501E+03  0.21600174710E+03  0.00000000000E+00 0. -1.
        -13    1    3    3    0    0 -0.33053632135E+02 -0.27514677883E+01 -0.38589051602E+01  0.33391680421E+02  0.00000000000E+00 0.  1.
         13    1    3    3    0    0  0.47353624126E+02  0.12306488229E+02  0.57080021329E+02  0.75179413440E+02  0.00000000000E+00 0. -1.
         21    1    1    2  502  501 -0.49906462045E+02  0.61099165279E+01  0.57319389353E+02  0.76246301089E+02  0.00000000000E+00 0.  1.
<scales pt_clust_5="13000.00000" pt_clust_6="13000.00000" pt_clust_7="13000.00000" pt_clust_8="13000.00000" pt_clust_9="50.27908"></scales>
<clustering>
<clus scale="   50.279">  2  9  1 -1</clus>
<clus scale="   81.762">  5  6 -1 -1</clus>
<clus scale="   86.891">  1  5  2 -1</clus>
<clus scale="   93.056">  7  8 -1 -1</clus>
<clus scale="   86.891">  1  5  2 -1</clus>
</clustering>
</event>
<event>
 9    2  0.3791909E-005  0.9136000E+02  0.7546771E-02  0.1312445E+00
          4   -1    0    0  502    0  0.00000000000E+00  0.00000000000E+00  0.24823712134E+03  0.24823712134E+03  0.00000000000E+00 0. -1.
         -3   -1    0    0    0  501 -0.00000000000E+00 -0.00000000000E+00 -0.56280438669E+02  0.56280438669E+02  0.00000000000E+00 0.  1.
         24    2    1    2    0    0  0.13174483770E+02 -0.26599317563E+02 -0.87231213975E+01  0.73690924474E+02  0.66881752260E+02 0.  0.
         23    2    1    2    0    0  0.83219413794E+01  0.20963307376E+02  0.14274175013E+03  0.16877279602E+03  0.87179897225E+02 0.  0.
        -11    1    3    3    0    0  0.26615159702E+02  0.31470911866E+01 -0.25496848819E+02  0.36991353160E+02  0.00000000000E+00 0.  1.
         12    1    3    3    0    0 -0.13440675932E+02 -0.29746408750E+02  0.16773727421E+02  0.36699571314E+02  0.00000000000E+00 0. -1.
        -13    1    4    4    0    0  0.38018330910E+02 -0.16311047141E+02  0.79096488957E+02  0.89261964516E+02  0.00000000000E+00 0.  1.
         13    1    4    4    0    0 -0.29696389531E+02  0.37274354517E+02  0.63645261177E+02  0.79510831502E+02  0.00000000000E+00 0. -1.
         21    1    1    2  502  501 -0.21496425149E+02  0.56360101872E+01  0.57938053938E+02  0.62053839520E+02  0.00000000000E+00 0. -1.
<scales pt_clust_5="13000.00000" pt_clust_6="13000.00000" pt_clust_7="13000.00000" pt_clust_8="13000.00000" pt_clust_9="22.22298"></scales>
<clustering>
<clus scale="   22.223">  1  9  2 -1</clus>
<clus scale="   66.882">  5  6 -1 -1</clus>
<clus scale="   72.246">  2  5  1 -1</clus>
<clus scale="   87.180">  7  8 -1 -1</clus>
<clus scale="   22.223">  1  5  2 -1</clus>
</clustering>
</event>
<event>
 9    2  0.3791909E-005  0.9804349E+02  0.7546771E-02  0.1293965E+00
          2   -1    0    0  502    0  0.00000000000E+00  0.00000000000E+00  0.56438264241E+03  0.56438264241E+03  0.00000000000E+00 0. -1.
         -1   -1    0    0    0  501 -0.00000000000E+00 -0.00000000000E+00 -0.73282049631E+02  0.73282049631E+02  0.00000000000E+00 0.  1.
         24    2    1    2    0    0  0.11368755126E+02 -0.21314005556E+02 -0.37161711408E+02  0.90598469981E+02  0.79016166334E+02 0.  0.
         23    2    1    2    0    0  0.15337932919E+02 -0.64622634111E+01  0.44320489702E+03  0.45368779404E+03  0.95524974176E+02 0.  0.
        -13    1    3    3    0    0 -0.20999140776E+02 -0.20237219277E+02 -0.48240018790E+02  0.56370279139E+02  0.00000000000E+00 0.  1.
         14    1    3    3    0    0  0.32367895903E+02 -0.10767862798E+01  0.11078307382E+02  0.34228190842E+02  0.00000000000E+00 0. -1.
        -13    1    4    4    0    0  0.25154370597E+02  0.41096933476E+02  0.23595598170E+03  0.24082550862E+03  0.00000000000E+00 0. -1.
         13    1    4    4    0    0 -0.98164376779E+01 -0.47559196887E+02  0.20724891531E+03  0.21286228542E+03  0.00000000000E+00 0.  1.
         21    1    1    2  502  501 -0.26706688045E+02  0.27776268968E+02  0.85057407167E+02  0.93378428013E+02  0.00000000000E+00 0. -1.
<scales pt_clust_5="13000.00000" pt_clust_6="13000.00000" pt_clust_7="13000.00000" pt_clust_8="13000.00000" pt_clust_9="38.53269"></scales>
<clustering>
<clus scale="   38.533">  1  9  2 -1</clus>
<clus scale="   79.016">  5  6 -1 -1</clus>
<clus scale="   82.043">  2  5  1 -1</clus>
<clus scale="   95.525">  7  8 -1 -1</clus>
<clus scale="   38.533">  1  5  2 -1</clus>
</clustering>
</event>
<event>
 9    2  0.3791909E-005  0.1284284E+03  0.7546771E-02  0.1233549E+00
         -1   -1    0    0    0  501 -0.00000000000E+00  0.00000000000E+00  0.12471515066E+03  0.12471515066E+03  0.00000000000E+00 0.  1.
          2   -1    0    0  502    0  0.00000000000E+00 -0.00000000000E+00 -0.29420219836E+03  0.29420219836E+03  0.00000000000E+00 0. -1.
         23    2    1    2    0    0  0.81782073579E+02 -0.56385356736E+02  0.13915180591E+02  0.13683633855E+03  0.93074890721E+02 0.  0.
         24    2    1    2    0    0 -0.54674468970E+02  0.55591576595E+02 -0.15933829694E+02  0.11243102715E+03  0.79417428770E+02 0.  0.
        -11    1    4    4    0    0 -0.42223379024E+02  0.44573735572E+02  0.26488102029E+02  0.66867414995E+02  0.00000000000E+00 0.  1.
         12    1    4    4    0    0 -0.12451089946E+02  0.11017841023E+02 -0.42421931724E+02  0.45563612157E+02  0.00000000000E+00 0. -1.
        -13    1    3    3    0    0  0.86166566668E+01  0.25038392775E+02 -0.70153281221E-01  0.26479667792E+02  0.00000000000E+00 0.  1.
         13    1    3    3    0    0  0.73165416912E+02 -0.81423749512E+02  0.13985333872E+02  0.11035667075E+03  0.00000000000E+00 0. -1.
         21    1    1    2  502  501 -0.27107604609E+02  0.79378014171E+00 -0.16746839860E+03  0.16964998333E+03  0.00000000000E+00 0. -1.
<scales pt_clust_5="13000.00000" pt_clust_6="13000.00000" pt_clust_7="13000.00000" pt_clust_8="13000.00000" pt_clust_9="27.11922"></scales>
<clustering>
<clus scale="   27.119">  2  9  1 -1</clus>
<clus scale="   79.417">  5  6 -1 -1</clus>
<clus scale="   93.075">  7  8 -1 -1</clus>
<clus scale="  118.904">  2  5  1 -1</clus>
<clus scale="   27.119">  2  5  1 -1</clus>
</clustering>
</event>
<event>
 9    2  0.3791909E-005  0.1491459E+03  0.7546771E-02  0.1214074E+00
          2   -1    0    0  502    0  0.00000000000E+00  0.00000000000E+00  0.20435809250E+03  0.20435809250E+03  0.00000000000E+00 0. -1.
         -1   -1    0    0    0  501 -0.00000000000E+00 -0.00000000000E+00 -0.22888800929E+03  0.22888800929E+03  0.00000000000E+00 0.  1.
         23    2    1    2    0    0  0.13931461735E+02 -0.12327789333E+03 -0.95701744384E+02  0.18140852215E+03  0.91425945003E+02 0.  0.
         24    2    1    2    0    0  0.80197264330E+02  0.37713419950E+02  0.40775743001E+02  0.12104989622E+03  0.71669469833E+02 0.  0.
        -13    1    4    4    0    0  0.40600405221E+02 -0.18950648245E+02  0.17640007671E+02  0.48152776074E+02  0.00000000000E+00 0.  1.
         14    1    4    4    0    0  0.39596859108E+02  0.56664068194E+02  0.23135735330E+02  0.72897120141E+02  0.00000000000E+00 0. -1.
        -11    1    3    3    0    0 -0.25707351736E+01 -0.10687901152E+03 -0.11056621395E+03  0.15380058339E+03  0.00000000000E+00 0.  1.
         11    1    3    3    0    0  0.16502196908E+02 -0.16398881810E+02  0.14864469562E+02  0.27607938764E+02  0.00000000000E+00 0. -1.
         21    1    1    2  502  501 -0.94128726064E+02  0.85564473382E+02  0.30396084597E+02  0.13078768342E+03  0.00000000000E+00 0. -1.
<scales pt_clust_5="13000.00000" pt_clust_6="13000.00000" pt_clust_7="13000.00000" pt_clust_8="13000.00000" pt_clust_9="117.83797"></scales>
<clustering>
<clus scale="   71.669">  5  6 -1 -1</clus>
<clus scale="   91.426">  7  8 -1 -1</clus>
<clus scale="  113.976">  1  5  2 -1</clus>
<clus scale="  117.838">  1  9  2 -1</clus>
<clus scale="  113.976">  1  5  2 -1</clus>
</clustering>
</event>
<event>
 9    2  0.3791909E-005  0.9393971E+02  0.7546771E-02  0.1301339E+00
         -3   -1    0    0    0  501 -0.00000000000E+00  0.00000000000E+00  0.42262280300E+02  0.42262280300E+02  0.00000000000E+00 0.  1.
          4   -1    0    0  502    0  0.00000000000E+00 -0.00000000000E+00 -0.44935065272E+03  0.44935065272E+03  0.00000000000E+00 0. -1.
         23    2    1    2    0    0  0.70016568108E+01 -0.12810155433E+02 -0.35593889110E+02  0.10040529010E+03  0.92742514832E+02 0.  0.
         24    2    1    2    0    0 -0.79771183302E+01 -0.16670964829E+02 -0.33148427677E+03  0.34149944838E+03  0.79990574529E+02 0.  0.
        -13    1    4    4    0    0 -0.18978051773E+02 -0.46241925082E+02 -0.22213851222E+03  0.22769277699E+03  0.00000000000E+00 0.  1.
         14    1    4    4    0    0  0.11000933442E+02  0.29570960253E+02 -0.10934576455E+03  0.11380667139E+03  0.00000000000E+00 0. -1.
        -13    1    3    3    0    0  0.33113269108E+02 -0.41026127371E+02 -0.85721885566E+01  0.53414549841E+02  0.00000000000E+00 0.  1.
         13    1    3    3    0    0 -0.26111612297E+02  0.28215971938E+02 -0.27021700554E+02  0.46990740258E+02  0.00000000000E+00 0. -1.
         21    1    1    2  502  501  0.97546151940E+00  0.29481120262E+02 -0.40010206534E+02  0.49708194536E+02  0.00000000000E+00 0. -1.
<scales pt_clust_5="13000.00000" pt_clust_6="13000.00000" pt_clust_7="13000.00000" pt_clust_8="13000.00000" pt_clust_9="29.49725"></scales>
<clustering>
<clus scale="   29.497">  1  9  2 -1</clus>
<clus scale="   79.991">  5  6 -1 -1</clus>
<clus scale="   81.376">  2  5  1 -1</clus>
<clus scale="   92.743">  7  8 -1 -1</clus>
<clus scale="   81.376">  2  5  1 -1</clus>
</clustering>
</event>
<event>
 9    2  0.3791909E-005  0.9990797E+02  0.7546771E-02  0.1285868E+00
          2   -1    0    0  502    0  0.00000000000E+00  0.00000000000E+00  0.32496500177E+03  0.32496500177E+03  0.00000000000E+00 0. -1.
         -1   -1    0    0    0  501 -0.00000000000E+00 -0.00000000000E+00 -0.99984673354E+02  0.99984673354E+02  0.00000000000E+00 0.  1.
         23    2    1    2    0    0 -0.12931969018E+02 -0.37766368630E+01 -0.50152408581E+02  0.10482853042E+03  0.91061835557E+02 0.  0.
         24    2    1    2    0    0 -0.15435863957E+01  0.44956448709E+02  0.25675045563E+03  0.27275842860E+03  0.80329938183E+02 0.  0.
        -11    1    4    4    0    0 -0.29688634536E+02 -0.85125206950E+01  0.70983576646E+02  0.77411537787E+02  0.00000000000E+00 0.  1.
         12    1    4    4    0    0  0.28145048140E+02  0.53468969404E+02  0.18576687898E+03  0.19534689082E+03  0.00000000000E+00 0. -1.
        -13    1    3    3    0    0 -0.38941487671E+02  0.30152712944E+02 -0.28582556040E+02  0.56943727220E+02  0.00000000000E+00 0.  1.
         13    1    3    3    0    0  0.26009518653E+02 -0.33929349807E+02 -0.21569852541E+02  0.47884803200E+02  0.00000000000E+00 0. -1.
         21    1    1    2  502  501  0.14475555414E+02 -0.41179811846E+02  0.18382281365E+02  0.47362716100E+02  0.00000000000E+00 0. -1.
<scales pt_clust_5="13000.00000" pt_clust_6="13000.00000" pt_clust_7="13000.00000" pt_clust_8="13000.00000" pt_clust_9="43.64996"></scales>
<clustering>
<clus scale="   43.650">  2  9  1 -1</clus>
<clus scale="   80.330">  5  6 -1 -1</clus>
<clus scale="   90.234">  1  5  2 -1</clus>
<clus scale="   91.062">  7  8 -1 -1</clus>
<clus scale="   90.234">  1  5  2 -1</clus>
</clustering>
</event>
<event>
 9    2  0.3791909E-005  0.1559368E+03  0.7546771E-02  0.1194914E+00
          2   -1    0    0  502    0  0.00000000000E+00  0.00000000000E+00  0.84758585793E+03  0.84758585793E+03  0.00000000000E+00 0. -1.
         -1   -1    0    0    0  501 -0.00000000000E+00 -0.00000000000E+00 -0.55190070832E+02  0.55190070832E+02  0.00000000000E+00 0.  1.
         23    2    1    2    0    0  0.11585874208E+02 -0.12450132350E+03  0.98481344007E+02  0.18328140616E+03  0.90877316710E+02 0.  0.
         24    2    1    2    0    0  0.14166850932E+02  0.13437346393E+03  0.52072550809E+03  0.54412329002E+03  0.81597625548E+02 0.  0.
        -11    1    4    4    0    0 -0.10254812573E+02  0.11581117105E+03  0.30829264418E+03  0.32948709076E+03  0.00000000000E+00 0.  1.
         12    1    4    4    0    0  0.24421663505E+02  0.18562292880E+02  0.21243286391E+03  0.21463619926E+03  0.00000000000E+00 0. -1.
        -11    1    3    3    0    0 -0.19888855729E+02 -0.12130850435E+03  0.77443672740E+02  0.14528882358E+03  0.00000000000E+00 0.  1.
         11    1    3    3    0    0  0.31474729936E+02 -0.31928191490E+01  0.21037671267E+02  0.37992582579E+02  0.00000000000E+00 0. -1.
         21    1    1    2  502  501 -0.25752725140E+02 -0.98721404297E+01  0.17318893500E+03  0.17537123257E+03  0.00000000000E+00 0. -1.
<scales pt_clust_5="13000.00000" pt_clust_6="13000.00000" pt_clust_7="13000.00000" pt_clust_8="13000.00000" pt_clust_9="27.58010"></scales>
<clustering>
<clus scale="   27.580">  1  9  2 -1</clus>
<clus scale="   81.598">  5  6 -1 -1</clus>
<clus scale="   90.877">  7  8 -1 -1</clus>
<clus scale="  150.718">  1  5  2 -1</clus>
<clus scale="   27.580">  1  5  2 -1</clus>
</clustering>
</event>
<event>
 9    2  0.3791909E-005  0.1276629E+03  0.7546771E-02  0.1246045E+00
         -1   -1    0    0    0  501 -0.00000000000E+00  0.00000000000E+00  0.67011815941E+03  0.67011815941E+03  0.00000000000E+00 0.  1.
          2   -1    0    0  502    0  0.00000000000E+00 -0.00000000000E+00 -0.46975419196E+02  0.46975419196E+02  0.00000000000E+00 0. -1.
         24    2    1    2    0    0  0.46896177298E+02  0.11409643169E+02  0.18241020388E+03  0.20516575749E+03  0.80560996537E+02 0.  0.
         23    2    1    2    0    0  0.29580218869E+02 -0.68745318502E+02  0.38238452749E+03  0.39994340714E+03  0.90199190084E+02 0.  0.
        -11    1    3    3    0    0  0.16817203488E+02 -0.26286266173E+02  0.23403260579E+02  0.39006393428E+02  0.00000000000E+00 0.  1.
         12    1    3    3    0    0  0.30078973810E+02  0.37695909342E+02  0.15900694330E+03  0.16615936406E+03  0.00000000000E+00 0. -1.
        -11    1    4    4    0    0  0.60649353529E+02 -0.59072953763E+02  0.27575233650E+03  0.28845677152E+03  0.00000000000E+00 0.  1.
         11    1    4    4    0    0 -0.31069134661E+02 -0.96723647391E+01  0.10663219099E+03  0.11148663563E+03  0.00000000000E+00 0. -1.
         21    1    1    2  502  501 -0.76476396167E+02  0.57335675334E+02  0.58348008844E+02  0.11198441397E+03  0.00000000000E+00 0. -1.
<scales pt_clust_5="13000.00000" pt_clust_6="13000.00000" pt_clust_7="13000.00000" pt_clust_8="13000.00000" pt_clust_9="90.34338"></scales>
<clustering>
<clus scale="   80.561">  5  6 -1 -1</clus>
<clus scale="   90.199">  7  8 -1 -1</clus>
<clus scale="   93.912">  1  5  2 -1</clus>
<clus scale="   90.343">  2  9  1 -1</clus>
<clus scale="   90.343">  2  5  1 -1</clus>
</clustering>
</event>
<event>
 9    2  0.7009562E-005  0.7017046E+03  0.7546771E-02  0.9952646E-01
         -3   -1    0    0    0  501 -0.00000000000E+00  0.00000000000E+00  0.16896308763E+04  0.16896308763E+04  0.00000000000E+00 0.  1.
          4   -1    0    0  502    0  0.00000000000E+00 -0.00000000000E+00 -0.85251658544E+03  0.85251658544E+03  0.00000000000E+00 0. -1.
         23    2    1    2    0    0  0.15247614754E+03 -0.40904109434E+03 -0.54920019966E+03  0.70754926555E+03  0.91877698306E+02 0.  0.
         24    2    1    2    0    0  0.20804248726E+03 -0.23272706679E+03  0.75469565006E+02  0.33121718080E+03  0.81028399321E+02 0.  0.
        -11    1    4    4    0    0  0.18921288572E+03 -0.23009439824E+03  0.54381849634E+02  0.30282393200E+03  0.00000000000E+00 0.  1.
         12    1    4    4    0    0  0.18829601534E+02 -0.26326685461E+01  0.21087715372E+02  0.28393248796E+02  0.00000000000E+00 0. -1.
        -11    1    3    3    0    0  0.12775090786E+03 -0.39899839217E+03 -0.52347567361E+03  0.67048250706E+03  0.00000000000E+00 0. -1.
         11    1    3    3    0    0  0.24725239686E+02 -0.10042702168E+02 -0.25724526049E+02  0.37066758488E+02  0.00000000000E+00 0.  1.
         21    1    1    2  502  501 -0.36051863480E+03  0.64176816113E+03  0.13108449255E+04  0.15033810154E+04  0.00000000000E+00 0.  1.
<scales pt_clust_5="13000.00000" pt_clust_6="13000.00000" pt_clust_7="13000.00000" pt_clust_8="13000.00000" pt_clust_9="695.66359"></scales>
<clustering>
<clus scale="   81.028">  5  6 -1 -1</clus>
<clus scale="   91.878">  7  8 -1 -1</clus>
<clus scale="  322.505">  2  5  1 -1</clus>
<clus scale="  695.664">  1  9  2 -1</clus>
<clus scale="  322.505">  2  5  1 -1</clus>
</clustering>
</event>
<event>
 9    2  0.3791909E-005  0.1358139E+03  0.7546771E-02  0.1223326E+00
         -1   -1    0    0    0  501 -0.00000000000E+00  0.00000000000E+00  0.25667027775E+03  0.25667027775E+03  0.00000000000E+00 0.  1.
          2   -1    0    0  502    0  0.00000000000E+00 -0.00000000000E+00 -0.93127639837E+02  0.93127639837E+02  0.00000000000E+00 0. -1.
         23    2    1    2    0    0 -0.88458261856E+02  0.72858746151E+02  0.12356463454E+03  0.19459866842E+03  0.97299341515E+02 0.  0.
         24    2    1    2    0    0  0.70327053943E+02 -0.49794212030E+02  0.19514355166E+02  0.11942950871E+03  0.80356950073E+02 0.  0.
        -13    1    4    4    0    0  0.52199072474E+01 -0.35359543574E+02  0.36004060067E+02  0.50732998085E+02  0.00000000000E+00 0.  1.
         14    1    4    4    0    0  0.65107146695E+02 -0.14434668456E+02 -0.16489704901E+02  0.68696510624E+02  0.00000000000E+00 0. -1.
        -11    1    3    3    0    0 -0.77438431508E+02  0.38581530258E+02  0.13180414672E+03  0.15766286260E+03  0.00000000000E+00 0.  1.
         11    1    3    3    0    0 -0.11019830348E+02  0.34277215893E+02 -0.82395121778E+01  0.36935805815E+02  0.00000000000E+00 0. -1.
         21    1    1    2  502  501  0.18131207913E+02 -0.23064534122E+02  0.20463648201E+02  0.35769740456E+02  0.00000000000E+00 0.  1.
<scales pt_clust_5="13000.00000" pt_clust_6="13000.00000" pt_clust_7="13000.00000" pt_clust_8="13000.00000" pt_clust_9="29.33792"></scales>
<clustering>
<clus scale="   29.338">  1  9  2 -1</clus>
<clus scale="   80.357">  5  6 -1 -1</clus>
<clus scale="   97.299">  7  8 -1 -1</clus>
<clus scale="  124.240">  2  5  1 -1</clus>
<clus scale="  124.240">  2  5  1 -1</clus>
</clustering>
</event>
<event>
 9    2  0.3791909E-005  0.1050312E+03  0.7546771E-02  0.1275076E+00
         -1   -1    0    0    0  501 -0.00000000000E+00  0.00000000000E+00  0.21346843810E+03  0.21346843810E+03  0.00000000000E+00 0.  1.
          2   -1    0    0  502    0  0.00000000000E+00 -0.00000000000E+00 -0.27903179647E+03  0.27903179647E+03  0.00000000000E+00 0. -1.
         23    2    1    2    0    0  0.36152834085E+02 -0.33916804625E+02  0.15542735577E+03  0.18830869214E+03  0.94048517091E+02 0.  0.
         24    2    1    2    0    0  0.40251154705E+02  0.70349041890E+02 -0.84489371026E+02  0.14357555914E+03  0.83104417549E+02 0.  0.
        -11    1    4    4    0    0  0.50496652114E+02  0.23520394100E+02 -0.12507217176E+02  0.57092480195E+02  0.00000000000E+00 0.  1.
         12    1    4    4    0    0 -0.10245497409E+02  0.46828647790E+02 -0.71982153850E+02  0.86483078945E+02  0.00000000000E+00 0. -1.
        -11    1    3    3    0    0  0.48367954193E+02  0.18292927647E+02  0.89097303652E+02  0.10301659921E+03  0.00000000000E+00 0.  1.
         11    1    3    3    0    0 -0.12215120108E+02 -0.52209732272E+02  0.66330052116E+02  0.85292092933E+02  0.00000000000E+00 0. -1.
         21    1    1    2  502  501 -0.76403988790E+02 -0.36432237265E+02 -0.13650134311E+03  0.16061598329E+03  0.00000000000E+00 0. -1.
<scales pt_clust_5="13000.00000" pt_clust_6="13000.00000" pt_clust_7="13000.00000" pt_clust_8="13000.00000" pt_clust_9="84.64560"></scales>
<clustering>
<clus scale="   83.104">  5  6 -1 -1</clus>
<clus scale="   84.646">  2  9  1 -1</clus>
<clus scale="   94.049">  7  8 -1 -1</clus>
<clus scale="   95.356">  2  5  1 -1</clus>
<clus scale="   84.646">  2  5  1 -1</clus>
</clustering>
</event>
<event>
 9    2  0.3791909E-005  0.1148750E+03  0.7546771E-02  0.1264526E+00
          2   -1    0    0  502    0  0.00000000000E+00  0.00000000000E+00  0.65566748900E+03  0.65566748900E+03  0.00000000000E+00 0. -1.
         -1   -1    0    0    0  501 -0.00000000000E+00 -0.00000000000E+00 -0.69246439505E+02  0.69246439505E+02  0.00000000000E+00 0.  1.
         23    2    1    2    0    0 -0.44618084463E+02  0.51844978685E+01 -0.67608550888E+01  0.89641185565E+02  0.77279884243E+02 0.  0.
         24    2    1    2    0    0 -0.51962950986E+02 -0.49011619972E+02  0.40693096113E+03  0.42094092781E+03  0.80598823876E+02 0.  0.
        -11    1    4    4    0    0  0.16101925226E+02 -0.17111542998E+02  0.40008378027E+02  0.46397706970E+02  0.00000000000E+00 0.  1.
         12    1    4    4    0    0 -0.68064876211E+02 -0.31900076974E+02  0.36692258310E+03  0.37454322084E+03  0.00000000000E+00 0. -1.
        -11    1    3    3    0    0 -0.66290665842E+02  0.73368545011E+01  0.45730530761E+00  0.66697008478E+02  0.00000000000E+00 0.  1.
         11    1    3    3    0    0  0.21672581379E+02 -0.21523566326E+01 -0.72181603964E+01  0.22944177087E+02  0.00000000000E+00 0. -1.
         21    1    1    2  502  501  0.96581035449E+02  0.43827122103E+02  0.18625094345E+03  0.21433181513E+03  0.00000000000E+00 0.  1.
<scales pt_clust_5="13000.00000" pt_clust_6="13000.00000" pt_clust_7="13000.00000" pt_clust_8="13000.00000" pt_clust_9="81.85406"></scales>
<clustering>
<clus scale="   77.280">  7  8 -1 -1</clus>
<clus scale="   80.599">  5  6 -1 -1</clus>
<clus scale="   89.386">  2  7  1 -1</clus>
<clus scale="   81.854">  2  9  1 -1</clus>
<clus scale="  114.875">  1  5  2 -1</clus>
</clustering>
</event>
<event>
 9    2  0.3791909E-005  0.3485558E+03  0.7546771E-02  0.1063412E+00
         -1   -1    0    0    0  501 -0.00000000000E+00  0.00000000000E+00  0.36995840186E+03  0.36995840186E+03  0.00000000000E+00 0.  1.
          2   -1    0    0  502    0  0.00000000000E+00 -0.00000000000E+00 -0.48879061975E+03  0.48879061975E+03  0.00000000000E+00 0. -1.
         23    2    1    2    0    0 -0.10678442302E+03 -0.29003194115E+03 -0.15744722858E+02  0.32272709567E+03  0.91561138542E+02 0.  0.
         24    2    1    2    0    0  0.23035817939E+03  0.29950550520E+03 -0.21462982423E+02  0.38762117549E+03  0.83791870814E+02 0.  0.
        -11    1    4    4    0    0  0.14908728255E+03  0.12535470009E+03 -0.14263322229E+02  0.19530555807E+03  0.00000000000E+00 0.  1.
         12    1    4    4    0    0  0.81270896834E+02  0.17415080512E+03 -0.71996601931E+01  0.19231561742E+03  0.00000000000E+00 0. -1.
        -11    1    3    3    0    0 -0.99099815114E+02 -0.13913097959E+03 -0.16669885078E+02  0.17162775972E+03  0.00000000000E+00 0.  1.
         11    1    3    3    0    0 -0.76846079105E+01 -0.15090096157E+03  0.92516221968E+00  0.15109933595E+03  0.00000000000E+00 0. -1.
         21    1    1    2  502  501 -0.12357375636E+03 -0.94735640498E+01 -0.81624512612E+02  0.14840075046E+03  0.00000000000E+00 0.  1.
<scales pt_clust_5="13000.00000" pt_clust_6="13000.00000" pt_clust_7="13000.00000" pt_clust_8="13000.00000" pt_clust_9="123.93636"></scales>
<clustering>
<clus scale="   83.792">  5  6 -1 -1</clus>
<clus scale="   91.561">  7  8 -1 -1</clus>
<clus scale="  123.936">  2  9  1 -1</clus>
<clus scale="  346.596">  2  5  1 -1</clus>
<clus scale="  123.936">  2  5  1 -1</clus>
</clustering>
</event>
<event>
 9    2  0.3791909E-005  0.1107303E+03  0.7546771E-02  0.1265043E+00
         -1   -1    0    0    0  501 -0.00000000000E+00  0.00000000000E+00  0.88752543962E+02  0.88752543962E+02  0.00000000000E+00 0.  1.
          2   -1    0    0  502    0  0.00000000000E+00 -0.00000000000E+00 -0.29106059634E+03  0.29106059634E+03  0.00000000000E+00 0. -1.
         23    2    1    2    0    0  0.85419948986E+01 -0.65331039259E+02  0.30444415161E+02  0.11625575463E+03  0.90815349493E+02 0.  0.
         24    2    1    2    0    0 -0.29608294423E+02  0.48883856135E+02 -0.15997679240E+03  0.18602934106E+03  0.75815955714E+02 0.  0.
        -11    1    4    4    0    0 -0.32146321337E+02 -0.11664576546E+02 -0.52839764167E+02  0.62940360650E+02  0.00000000000E+00 0.  1.
         12    1    4    4    0    0  0.25380269136E+01  0.60548432681E+02 -0.10713702823E+03  0.12308898041E+03  0.00000000000E+00 0. -1.
        -13    1    3    3    0    0  0.39053098776E+02 -0.67822039355E+02  0.87810195325E+01  0.78753284695E+02  0.00000000000E+00 0. -1.
         13    1    3    3    0    0 -0.30511103878E+02  0.24910000960E+01  0.21663395628E+02  0.37502469938E+02  0.00000000000E+00 0.  1.
         21    1    1    2  502  501  0.21066299525E+02  0.16447183124E+02 -0.72775675140E+02  0.77528044606E+02  0.00000000000E+00 0.  1.
<scales pt_clust_5="13000.00000" pt_clust_6="13000.00000" pt_clust_7="13000.00000" pt_clust_8="13000.00000" pt_clust_9="26.72637"></scales>
<clustering>
<clus scale="   26.726">  2  9  1 -1</clus>
<clus scale="   75.816">  5  6 -1 -1</clus>
<clus scale="   90.815">  7  8 -1 -1</clus>
<clus scale="   98.802">  2  5  1 -1</clus>
<clus scale="   26.726">  2  5  1 -1</clus>
</clustering>
</event>
<event>
 9    2  0.3791909E-005  0.2369504E+03  0.7546771E-02  0.1122866E+00
         -1   -1    0    0    0  501 -0.00000000000E+00  0.00000000000E+00  0.23870831031E+03  0.23870831031E+03  0.00000000000E+00 0.  1.
          2   -1    0    0  502    0  0.00000000000E+00 -0.00000000000E+00 -0.79011008175E+03  0.79011008175E+03  0.00000000000E+00 0. -1.
         23    2    1    2    0    0 -0.17531198668E+03  0.12163486497E+03  0.14558426616E+03  0.27695194164E+03  0.99891272771E+02 0.  0.
         24    2    1    2    0    0  0.17124483424E+03 -0.15579304820E+03 -0.63101001329E+03  0.67746108104E+03  0.84756193422E+02 0.  0.
        -13    1    4    4    0    0  0.40788042434E+02 -0.18507525718E+02 -0.53955443501E+02  0.70124052915E+02  0.00000000000E+00 0.  1.
         14    1    4    4    0    0  0.13045679181E+03 -0.13728552248E+03 -0.57705456979E+03  0.60733702812E+03  0.00000000000E+00 0. -1.
        -13    1    3    3    0    0 -0.10430649232E+03  0.12696930720E+03  0.10476037257E+03  0.19487376677E+03  0.00000000000E+00 0.  1.
         13    1    3    3    0    0 -0.71005494355E+02 -0.53344422381E+01  0.40823893582E+02  0.82078174869E+02  0.00000000000E+00 0. -1.
         21    1    1    2  502  501  0.40671524374E+01  0.34158183237E+02 -0.65976024306E+02  0.74405369391E+02  0.00000000000E+00 0. -1.
<scales pt_clust_5="13000.00000" pt_clust_6="13000.00000" pt_clust_7="13000.00000" pt_clust_8="13000.00000" pt_clust_9="34.39947"></scales>
<clustering>
<clus scale="   34.399">  2  9  1 -1</clus>
<clus scale="   84.756">  5  6 -1 -1</clus>
<clus scale="   99.891">  7  8 -1 -1</clus>
<clus scale="  230.978">  2  5  1 -1</clus>
<clus scale="   34.399">  2  5  1 -1</clus>
</clustering>
</event>
<event>
 9    2  0.3791909E-005  0.1126778E+03  0.7546771E-02  0.1259797E+00
          2   -1    0    0  502    0  0.00000000000E+00  0.00000000000E+00  0.10550137268E+03  0.10550137268E+03  0.00000000000E+00 0. -1.
         -1   -1    0    0    0  501 -0.00000000000E+00 -0.00000000000E+00 -0.34700700502E+03  0.34700700502E+03  0.00000000000E+00 0.  1.
         23    2    1    2    0    0  0.65729277910E+02  0.35128298266E+01 -0.30083679516E+03  0.32180373894E+03  0.93392671697E+02 0.  0.
         24    2    1    2    0    0 -0.43533583782E+02 -0.56630875582E+01  0.42388623921E+02  0.10269888809E+03  0.82601590180E+02 0.  0.
        -13    1    4    4    0    0  0.14311727015E+02  0.24002656932E+02  0.18130186666E+02  0.33311510600E+02  0.00000000000E+00 0.  1.
         14    1    4    4    0    0 -0.57845310797E+02 -0.29665744490E+02  0.24258437256E+02  0.69387377494E+02  0.00000000000E+00 0. -1.
        -13    1    3    3    0    0  0.81437590414E+01  0.39008899371E+02 -0.63099134132E+02  0.74629188457E+02  0.00000000000E+00 0. -1.
         13    1    3    3    0    0  0.57585518868E+02 -0.35496069545E+02 -0.23773766102E+03  0.24717455048E+03  0.00000000000E+00 0.  1.
         21    1    1    2  502  501 -0.22195694128E+02  0.21502577316E+01  0.16942538892E+02  0.28005750664E+02  0.00000000000E+00 0. -1.
<scales pt_clust_5="13000.00000" pt_clust_6="13000.00000" pt_clust_7="13000.00000" pt_clust_8="13000.00000" pt_clust_9="22.29961"></scales>
<clustering>
<clus scale="   22.300">  1  9  2 -1</clus>
<clus scale="   82.602">  5  6 -1 -1</clus>
<clus scale="   93.393">  7  8 -1 -1</clus>
<clus scale="  103.909">  1  5  2 -1</clus>
<clus scale="   22.300">  1  5  2 -1</clus>
</clustering>
</event>
<event>
 9    2  0.3791909E-005  0.1098448E+03  0.7546771E-02  0.1266092E+00
          2   -1    0    0  502    0  0.00000000000E+00  0.00000000000E+00  0.33439826760E+03  0.33439826760E+03  0.00000000000E+00 0. -1.
         -1   -1    0    0    0  501 -0.00000000000E+00 -0.00000000000E+00 -0.10927787801E+03  0.10927787801E+03  0.00000000000E+00 0.  1.
         24    2    1    2    0    0 -0.71868577566E+02  0.67702599204E+01 -0.49271283687E+02  0.11868526153E+03  0.80296967858E+02 0.  0.
         23    2    1    2    0    0  0.12177322026E+02  0.17819499120E+02  0.96995941905E+02  0.13621337549E+03  0.93166781610E+02 0.  0.
        -13    1    3    3    0    0 -0.47604263094E+02  0.27169963662E+02 -0.63545904327E+02  0.83919334762E+02  0.00000000000E+00 0.  1.
         14    1    3    3    0    0 -0.24264314472E+02 -0.20399703741E+02  0.14274620640E+02  0.34765926767E+02  0.00000000000E+00 0. -1.
        -11    1    4    4    0    0  0.46821996484E+02 -0.13097731073E+02  0.57090064898E+02  0.74987501786E+02  0.00000000000E+00 0. -1.
         11    1    4    4    0    0 -0.34644674458E+02  0.30917230193E+02  0.39905877006E+02  0.61225873703E+02  0.00000000000E+00 0.  1.
         21    1    1    2  502  501  0.59691255541E+02 -0.24589759040E+02  0.17739573137E+03  0.18877750859E+03  0.00000000000E+00 0. -1.
<scales pt_clust_5="13000.00000" pt_clust_6="13000.00000" pt_clust_7="13000.00000" pt_clust_8="13000.00000" pt_clust_9="64.55774"></scales>
<clustering>
<clus scale="   64.558">  1  9  2 -1</clus>
<clus scale="   80.297">  5  6 -1 -1</clus>
<clus scale="   93.167">  7  8 -1 -1</clus>
<clus scale="   99.164">  2  5  1 -1</clus>
<clus scale="   64.558">  1  5  2 -1</clus>
</clustering>
</event>
<event>
 9    2  0.3791909E-005  0.9950802E+02  0.7546771E-02  0.1284151E+00
          2   -1    0    0  502    0  0.00000000000E+00  0.00000000000E+00  0.79985477142E+03  0.79985477142E+03  0.00000000000E+00 0. -1.
         -1   -1    0    0    0  501 -0.00000000000E+00 -0.00000000000E+00 -0.14889690061E+02  0.14889690061E+02  0.00000000000E+00 0.  1.
         24    2    1    2    0    0 -0.42523697888E+01  0.55608179006E+02  0.30639221631E+03  0.32191296260E+03  0.81494865178E+02 0.  0.
         23    2    1    2    0    0 -0.67702006978E+01 -0.38047674544E+02  0.36082468913E+03  0.37327188485E+03  0.87429872330E+02 0.  0.
        -13    1    3    3    0    0 -0.37142472398E+02  0.51651156664E+02  0.16885001116E+03  0.18043761113E+03  0.00000000000E+00 0.  1.
         14    1    3    3    0    0  0.32890102609E+02  0.39570223423E+01  0.13754220515E+03  0.14147535147E+03  0.00000000000E+00 0. -1.
        -11    1    4    4    0    0  0.14719795713E+02  0.21671438200E+02  0.54866740775E+02  0.60800352489E+02  0.00000000000E+00 0.  1.
         11    1    4    4    0    0 -0.21489996411E+02 -0.59719112744E+02  0.30595794836E+03  0.31247153236E+03  0.00000000000E+00 0. -1.
         21    1    1    2  502  501  0.11022570487E+02 -0.17560504463E+02  0.11774817592E+03  0.11955961404E+03  0.00000000000E+00 0. -1.
<scales pt_clust_5="13000.00000" pt_clust_6="13000.00000" pt_clust_7="13000.00000" pt_clust_8="13000.00000" pt_clust_9="20.73327"></scales>
<clustering>
<clus scale="   20.733">  1  9  2 -1</clus>
<clus scale="   81.495">  5  6 -1 -1</clus>
<clus scale="   87.430">  7  8 -1 -1</clus>
<clus scale="   94.336">  2  5  1 -1</clus>
<clus scale="   20.733">  1  5  2 -1</clus>
</clustering>
</event>
<event>
 9    2  0.3791909E-005  0.1027402E+03  0.7546771E-02  0.1280707E+00
          2   -1    0    0  502    0  0.00000000000E+00  0.00000000000E+00  0.49584628542E+03  0.49584628542E+03  0.00000000000E+00 0. -1.
         -1   -1    0    0    0  501 -0.00000000000E+00 -0.00000000000E+00 -0.58926616131E+02  0.58926616131E+02  0.00000000000E+00 0.  1.
         23    2    1    2    0    0  0.46907620326E+02 -0.47824693755E+01 -0.21600777183E-01  0.10346074094E+03  0.92091951827E+02 0.  0.
         24    2    1    2    0    0 -0.31220184911E+02  0.21191859078E+02  0.37970533367E+03  0.38973849647E+03  0.79348348297E+02 0.  0.
        -11    1    4    4    0    0 -0.29409536008E+02 -0.81159178771E+01  0.48929030084E+02  0.57661416182E+02  0.00000000000E+00 0.  1.
         12    1    4    4    0    0 -0.18106489034E+01  0.29307776955E+02  0.33077630359E+03  0.33207708029E+03  0.00000000000E+00 0. -1.
        -13    1    3    3    0    0  0.30455786033E+02 -0.24894383158E+02 -0.39793298922E+02  0.55953479380E+02  0.00000000000E+00 0.  1.
         13    1    3    3    0    0  0.16451834293E+02  0.20111913783E+02  0.39771698144E+02  0.47507261560E+02  0.00000000000E+00 0. -1.
         21    1    1    2  502  501 -0.15687435415E+02 -0.16409389702E+02  0.57235936394E+02  0.61573664136E+02  0.00000000000E+00 0. -1.
<scales pt_clust_5="13000.00000" pt_clust_6="13000.00000" pt_clust_7="13000.00000" pt_clust_8="13000.00000" pt_clust_9="22.70162"></scales>
<clustering>
<clus scale="   22.702">  1  9  2 -1</clus>
<clus scale="   79.348">  5  6 -1 -1</clus>
<clus scale="   91.492">  1  5  2 -1</clus>
<clus scale="   92.092">  7  8 -1 -1</clus>
<clus scale="   22.702">  1  5  2 -1</clus>
</clustering>
</event>
<event>
 9    2  0.3791909E-005  0.1185210E+03  0.7546771E-02  0.1253140E+00
         -1   -1    0    0    0  501 -0.00000000000E+00  0.00000000000E+00  0.17282398239E+02  0.17282398239E+02  0.00000000000E+00 0.  1.
          2   -1    0    0  502    0  0.00000000000E+00 -0.00000000000E+00 -0.12361554858E+04  0.12361554858E+04  0.00000000000E+00 0. -1.
         23    2    1    2    0    0 -0.78843911380E+02  0.29413514431E+02 -0.30341194953E+03  0.32811990668E+03  0.92316547003E+02 0.  0.
         24    2    1    2    0    0  0.58388983082E+02  0.81737542917E+01 -0.66468922531E+03  0.67092112386E+03  0.69622586761E+02 0.  0.
        -11    1    4    4    0    0  0.20569165228E+02  0.33652051925E+02 -0.19023463987E+03  0.19428013116E+03  0.00000000000E+00 0.  1.
         12    1    4    4    0    0  0.37819817854E+02 -0.25478297633E+02 -0.47445458544E+03  0.47664099269E+03  0.00000000000E+00 0. -1.
        -11    1    3    3    0    0 -0.65534068855E+02 -0.13479837447E+02 -0.24760966324E+03  0.25648969868E+03  0.00000000000E+00 0. -1.
         11    1    3    3    0    0 -0.13309842525E+02  0.42893351878E+02 -0.55802286287E+02  0.71630208001E+02  0.00000000000E+00 0.  1.
         21    1    1    2  502  501  0.20454928298E+02 -0.37587268723E+02 -0.25077191273E+03  0.25439685351E+03  0.00000000000E+00 0.  1.
<scales pt_clust_5="13000.00000" pt_clust_6="13000.00000" pt_clust_7="13000.00000" pt_clust_8="13000.00000" pt_clust_9="42.79260"></scales>
<clustering>
<clus scale="   42.793">  2  9  1 -1</clus>
<clus scale="   69.623">  5  6 -1 -1</clus>
<clus scale="   92.317">  7  8 -1 -1</clus>
<clus scale="  101.844">  2  5  1 -1</clus>
<clus scale="   42.793">  2  5  1 -1</clus>
</clustering>
</event>
<event>
 9    2  0.3791909E-005  0.1516759E+03  0.7546771E-02  0.1202260E+00
         -1   -1    0    0    0  501 -0.00000000000E+00  0.00000000000E+00  0.58079613081E+02  0.58079613081E+02  0.00000000000E+00 0.  1.
          2   -1    0    0  502    0  0.00000000000E+00 -0.00000000000E+00 -0.56218033316E+03  0.56218033316E+03  0.00000000000E+00 0. -1.
         23    2    1    2    0    0  0.11917465982E+03  0.46871309926E+02 -0.11979009645E+03  0.20133644666E+03  0.98930168837E+02 0.  0.
         24    2    1    2    0    0 -0.84591738915E+02 -0.43122700302E+02 -0.23397233007E+03  0.26461331520E+03  0.79131698906E+02 0.  0.
        -13    1    4    4    0    0 -0.56378531150E+02 -0.65657871395E+02 -0.17930477976E+03  0.19909720966E+03  0.00000000000E+00 0.  1.
         14    1    4    4    0    0 -0.28213207765E+02  0.22535171093E+02 -0.54667550312E+02  0.65516105544E+02  0.00000000000E+00 0. -1.
        -13    1    3    3    0    0  0.97712838595E+02 -0.12592248973E+02 -0.69787957504E+02  0.12073409864E+03  0.00000000000E+00 0.  1.
         13    1    3    3    0    0  0.21461821229E+02  0.59463558899E+02 -0.50002138946E+02  0.80602348022E+02  0.00000000000E+00 0. -1.
         21    1    1    2  502  501 -0.34582920910E+02 -0.37486096242E+01 -0.15033829356E+03  0.15431018438E+03  0.00000000000E+00 0. -1.
<scales pt_clust_5="13000.00000" pt_clust_6="13000.00000" pt_clust_7="13000.00000" pt_clust_8="13000.00000" pt_clust_9="34.78549"></scales>
<clustering>
<clus scale="   34.785">  2  9  1 -1</clus>
<clus scale="   79.132">  5  6 -1 -1</clus>
<clus scale="   98.930">  7  8 -1 -1</clus>
<clus scale="  139.572">  2  5  1 -1</clus>
<clus scale="   34.785">  2  5  1 -1</clus>
</clustering>
</event>
<event>
 9    2  0.3791909E-005  0.1100967E+03  0.7546771E-02  0.1264499E+00
          2   -1    0    0  502    0  0.00000000000E+00  0.00000000000E+00  0.13123120405E+03  0.13123120405E+03  0.00000000000E+00 0. -1.
         -1   -1    0    0    0  501 -0.00000000000E+00 -0.00000000000E+00 -0.36231644036E+03  0.36231644036E+03  0.00000000000E+00 0.  1.
         23    2    1    2    0    0  0.50689004554E+02  0.40155403904E+02 -0.32264018584E+03  0.34104185233E+03  0.89615980025E+02 0.  0.
         24    2    1    2    0    0 -0.32978395032E+02 -0.49797712494E+02  0.62239270135E+02  0.11692421169E+03  0.78931348806E+02 0.  0.
        -13    1    4    4    0    0 -0.41782418268E+02 -0.17241975910E+02 -0.10474536771E+01  0.45212314349E+02  0.00000000000E+00 0.  1.
         14    1    4    4    0    0  0.88040232357E+01 -0.32555736584E+02  0.63286723812E+02  0.71711897343E+02  0.00000000000E+00 0. -1.
        -11    1    3    3    0    0  0.74059465190E+02  0.21900304252E+02 -0.18938072028E+03  0.20452257803E+03  0.00000000000E+00 0.  1.
         11    1    3    3    0    0 -0.23370460636E+02  0.18255099652E+02 -0.13325946555E+03  0.13651927429E+03  0.00000000000E+00 0. -1.
         21    1    1    2  502  501 -0.17710609522E+02  0.96423085899E+01  0.29315679393E+02  0.35581580387E+02  0.00000000000E+00 0. -1.
<scales pt_clust_5="13000.00000" pt_clust_6="13000.00000" pt_clust_7="13000.00000" pt_clust_8="13000.00000" pt_clust_9="20.16531"></scales>
<clustering>
<clus scale="   20.165">  1  9  2 -1</clus>
<clus scale="   78.931">  5  6 -1 -1</clus>
<clus scale="   89.616">  7  8 -1 -1</clus>
<clus scale="  101.589">  1  5  2 -1</clus>
<clus scale="   20.165">  1  5  2 -1</clus>
</clustering>
</event>
<event>
 9    2  0.3791909E-005  0.2123209E+03  0.7546771E-02  0.1140526E+00
          2   -1    0    0  502    0  0.00000000000E+00  0.00000000000E+00  0.16829780657E+04  0.16829780657E+04  0.00000000000E+00 0. -1.
         -1   -1    0    0    0  501 -0.00000000000E+00 -0.00000000000E+00 -0.34454830711E+02  0.34454830711E+02  0.00000000000E+00 0.  1.
         23    2    1    2    0    0  0.13562945873E+03  0.14972177867E+03  0.57711367876E+03  0.61823956194E+03  0.91367371933E+02 0.  0.
         24    2    1    2    0    0 -0.91507511441E+02 -0.15491884988E+03  0.79228639667E+03  0.81655665252E+03  0.81691846146E+02 0.  0.
        -11    1    4    4    0    0 -0.64311001649E+02 -0.15082571661E+03  0.58820308338E+03  0.61062850329E+03  0.00000000000E+00 0.  1.
         12    1    4    4    0    0 -0.27196509792E+02 -0.40931332751E+01  0.20408331329E+03  0.20592814923E+03  0.00000000000E+00 0. -1.
        -11    1    3    3    0    0  0.30561350978E+02 -0.84546900466E+01  0.75709920673E+02  0.82082093332E+02  0.00000000000E+00 0.  1.
         11    1    3    3    0    0  0.10506810775E+03  0.15817646871E+03  0.50140375809E+03  0.53615746861E+03  0.00000000000E+00 0. -1.
         21    1    1    2  502  501 -0.44121947291E+02  0.51970712160E+01  0.27912315956E+03  0.28263668195E+03  0.00000000000E+00 0.  1.
<scales pt_clust_5="13000.00000" pt_clust_6="13000.00000" pt_clust_7="13000.00000" pt_clust_8="13000.00000" pt_clust_9="44.42697"></scales>
<clustering>
<clus scale="   44.427">  1  9  2 -1</clus>
<clus scale="   81.692">  5  6 -1 -1</clus>
<clus scale="   91.367">  7  8 -1 -1</clus>
<clus scale="  208.340">  1  5  2 -1</clus>
<clus scale="   44.427">  1  5  2 -1</clus>
</clustering>
</event>
<event>
 9    2  0.3791909E-005  0.5845343E+03  0.7546771E-02  0.9938022E-01
         -1   -1    0    0    0  501 -0.00000000000E+00  0.00000000000E+00  0.12672480994E+04  0.12672480994E+04  0.00000000000E+00 0.  1.
          2   -1    0    0  502    0  0.00000000000E+00 -0.00000000000E+00 -0.32437417195E+03  0.32437417195E+03  0.00000000000E+00 0. -1.
         24    2    1    2    0    0  0.68575637368E+02  0.55555952363E+02  0.18174725295E+03  0.21788348713E+03  0.81560211661E+02 0.  0.
         23    2    1    2    0    0  0.40752134884E+03  0.20181195286E+03  0.68449591371E+03  0.82713211355E+03  0.93867796933E+02 0.  0.
        -13    1    3    3    0    0  0.31469082330E+02  0.32360049128E+02  0.16494300632E+03  0.17100781051E+03  0.00000000000E+00 0.  1.
         14    1    3    3    0    0  0.37106555038E+02  0.23195903235E+02  0.16804246630E+02  0.46875676619E+02  0.00000000000E+00 0. -1.
        -11    1    4    4    0    0  0.31086594065E+03  0.10656841387E+03  0.48789058703E+03  0.58824457907E+03  0.00000000000E+00 0.  1.
         11    1    4    4    0    0  0.96655408186E+02  0.95243538983E+02  0.19660532668E+03  0.23888753448E+03  0.00000000000E+00 0. -1.
         21    1    1    2  502  501 -0.47609698621E+03 -0.25736790522E+03  0.76630760780E+02  0.54660667066E+03  0.00000000000E+00 0. -1.
<scales pt_clust_5="13000.00000" pt_clust_6="13000.00000" pt_clust_7="13000.00000" pt_clust_8="13000.00000" pt_clust_9="541.20844"></scales>
<clustering>
<clus scale="   81.560">  5  6 -1 -1</clus>
<clus scale="   93.868">  7  8 -1 -1</clus>
<clus scale="   97.135">  5  7 -1 -1</clus>
<clus scale="  541.208">  2  9  1 -1</clus>
<clus scale="  541.208">  2  5  1 -1</clus>
</clustering>
</event>
<event>
 9    2  0.3791909E-005  0.1031466E+03  0.7546771E-02  0.1279389E+00
          2   -1    0    0  502    0  0.00000000000E+00  0.00000000000E+00  0.59962722171E+03  0.59962722171E+03  0.00000000000E+00 0. -1.
         -1   -1    0    0    0  501 -0.00000000000E+00 -0.00000000000E+00 -0.53252513344E+02  0.53252513344E+02  0.00000000000E+00 0.  1.
         23    2    1    2    0    0 -0.27150730748E+02  0.36289032670E+02  0.12791155009E+02  0.10301928964E+03  0.91625893282E+02 0.  0.
         24    2    1    2    0    0  0.25730020538E+02 -0.60896384266E+02  0.47752364140E+03  0.48862112880E+03  0.79695519596E+02 0.  0.
        -11    1    4    4    0    0  0.25371972960E+02  0.55472845080E+01  0.54043647666E+02  0.59960197051E+02  0.00000000000E+00 0.  1.
         12    1    4    4    0    0  0.35804757784E+00 -0.66443668774E+02  0.42347999373E+03  0.42866093175E+03  0.00000000000E+00 0. -1.
        -13    1    3    3    0    0 -0.26092501163E+02  0.17382047221E+01  0.47380754231E+02  0.54118165565E+02  0.00000000000E+00 0. -1.
         13    1    3    3    0    0 -0.10582295851E+01  0.34550827948E+02 -0.34589599222E+02  0.48901124078E+02  0.00000000000E+00 0.  1.
         21    1    1    2  502  501  0.14207102099E+01  0.24607351596E+02  0.56059911959E+02  0.61239316610E+02  0.00000000000E+00 0.  1.
<scales pt_clust_5="13000.00000" pt_clust_6="13000.00000" pt_clust_7="13000.00000" pt_clust_8="13000.00000" pt_clust_9="24.64833"></scales>
<clustering>
<clus scale="   24.648">  1  9  2 -1</clus>
<clus scale="   79.696">  5  6 -1 -1</clus>
<clus scale="   91.626">  7  8 -1 -1</clus>
<clus scale="   92.711">  1  5  2 -1</clus>
<clus scale="   24.648">  1  5  2 -1</clus>
</clustering>
</event>
<event>
 9    2  0.3791909E-005  0.1555746E+03  0.7546771E-02  0.1195474E+00
          2   -1    0    0  502    0  0.00000000000E+00  0.00000000000E+00  0.70329141965E+03  0.70329141965E+03  0.00000000000E+00 0. -1.
         -1   -1    0    0    0  501 -0.00000000000E+00 -0.00000000000E+00 -0.18945140550E+03  0.18945140550E+03  0.00000000000E+00 0.  1.
         24    2    1    2    0    0 -0.36697007174E+02  0.88094161034E+02 -0.71226275193E+02  0.14396200601E+03  0.80898858776E+02 0.  0.
         23    2    1    2    0    0  0.72984032161E+02 -0.10647488409E+03  0.65178482550E+03  0.67064016244E+03  0.90946131466E+02 0.  0.
        -13    1    3    3    0    0 -0.59011149163E+02  0.77445484858E+02 -0.43000453604E+02  0.10643851681E+03  0.00000000000E+00 0.  1.
         14    1    3    3    0    0  0.22314141990E+02  0.10648676177E+02 -0.28225821589E+02  0.37523489196E+02  0.00000000000E+00 0. -1.
        -11    1    4    4    0    0  0.47274983574E+02 -0.34374533211E+01  0.13563545008E+03  0.14367921031E+03  0.00000000000E+00 0.  1.
         11    1    4    4    0    0  0.25709048588E+02 -0.10303743077E+03  0.51614937542E+03  0.52696095213E+03  0.00000000000E+00 0. -1.
         21    1    1    2  502  501 -0.36287024988E+02  0.18380723056E+02 -0.66718536164E+02  0.78140656706E+02  0.00000000000E+00 0.  1.
<scales pt_clust_5="13000.00000" pt_clust_6="13000.00000" pt_clust_7="13000.00000" pt_clust_8="13000.00000" pt_clust_9="40.67676"></scales>
<clustering>
<clus scale="   40.677">  2  9  1 -1</clus>
<clus scale="   80.899">  5  6 -1 -1</clus>
<clus scale="   90.946">  7  8 -1 -1</clus>
<clus scale="  149.923">  2  5  1 -1</clus>
<clus scale="  155.575">  1  5  2 -1</clus>
</clustering>
</event>
<event>
 9    2  0.3791909E-005  0.2274668E+03  0.7546771E-02  0.1129643E+00
         -1   -1    0    0    0  501 -0.00000000000E+00  0.00000000000E+00  0.98881483633E+03  0.98881483633E+03  0.00000000000E+00 0.  1.
          2   -1    0    0  502    0  0.00000000000E+00 -0.00000000000E+00 -0.15180746850E+03  0.15180746850E+03  0.00000000000E+00 0. -1.
         23    2    1    2    0    0 -0.13797765784E+03 -0.21959562717E+03  0.75899866406E+03  0.80745484771E+03  0.92974649890E+02 0.  0.
         24    2    1    2    0    0  0.10833862338E+03  0.72928709982E+02  0.10149180008E+03  0.18170421811E+03  0.75232860765E+02 0.  0.
        -11    1    4    4    0    0  0.11713372022E+03  0.52716965920E+02  0.90036611616E+02  0.15686292850E+03  0.00000000000E+00 0.  1.
         12    1    4    4    0    0 -0.87950968364E+01  0.20211744062E+02  0.11455188463E+02  0.24841289602E+02  0.00000000000E+00 0. -1.
        -13    1    3    3    0    0  0.30171437761E+01 -0.23476481259E+02  0.23681551998E+02  0.33482297321E+02  0.00000000000E+00 0.  1.
         13    1    3    3    0    0 -0.14099480162E+03 -0.19611914591E+03  0.73531711206E+03  0.77397255039E+03  0.00000000000E+00 0. -1.
         21    1    1    2  502  501  0.29639034460E+02  0.14666691719E+03 -0.23483096307E+02  0.15146323901E+03  0.00000000000E+00 0.  1.
<scales pt_clust_5="13000.00000" pt_clust_6="13000.00000" pt_clust_7="13000.00000" pt_clust_8="13000.00000" pt_clust_9="149.63174"></scales>
<clustering>
<clus scale="   75.233">  5  6 -1 -1</clus>
<clus scale="   92.975">  7  8 -1 -1</clus>
<clus scale="  149.632">  2  9  1 -1</clus>
<clus scale="  220.810">  2  5  1 -1</clus>
<clus scale="  149.632">  2  5  1 -1</clus>
</clustering>
</event>
<event>
 9    2  0.3791909E-005  0.2181778E+03  0.7546771E-02  0.1135442E+00
         -1   -1    0    0    0  501 -0.00000000000E+00  0.00000000000E+00  0.16942056781E+03  0.16942056781E+03  0.00000000000E+00 0.  1.
          2   -1    0    0  502    0  0.00000000000E+00 -0.00000000000E+00 -0.11368882256E+04  0.11368882256E+04  0.00000000000E+00 0. -1.
         24    2    1    2    0    0 -0.17016515693E+03 -0.11305642296E+03  0.63844007787E+02  0.23193184806E+03  0.89321830522E+02 0.  0.
         23    2    1    2    0    0  0.85320233494E+02  0.14990393704E+03 -0.53596852564E+03  0.57047097533E+03  0.91783117377E+02 0.  0.
        -11    1    3    3    0    0 -0.11954306673E+03 -0.82089047970E+02  0.85988637232E+02  0.16859182166E+03  0.00000000000E+00 0.  1.
         12    1    3    3    0    0 -0.50622090207E+02 -0.30967374989E+02 -0.22144629445E+02  0.63340026396E+02  0.00000000000E+00 0. -1.
        -11    1    4    4    0    0  0.64696126071E+02  0.46497776991E+02 -0.32495315226E+03  0.33457761903E+03  0.00000000000E+00 0. -1.
         11    1    4    4    0    0  0.20624107423E+02  0.10340616005E+03 -0.21101537338E+03  0.23589335630E+03  0.00000000000E+00 0.  1.
         21    1    1    2  502  501  0.84844923440E+02 -0.36847514085E+02 -0.49534313990E+03  0.50390596997E+03  0.00000000000E+00 0. -1.
<scales pt_clust_5="13000.00000" pt_clust_6="13000.00000" pt_clust_7="13000.00000" pt_clust_8="13000.00000" pt_clust_9="92.50081"></scales>
<clustering>
<clus scale="   89.322">  5  6 -1 -1</clus>
<clus scale="   91.783">  7  8 -1 -1</clus>
<clus scale="   92.501">  2  9  1 -1</clus>
<clus scale="  217.154">  1  5  2 -1</clus>
<clus scale="   92.501">  2  5  1 -1</clus>
</clustering>
</event>
<event>
 9    2  0.3791909E-005  0.1045300E+03  0.7546771E-02  0.1277589E+00
         -3   -1    0    0    0  501 -0.00000000000E+00  0.00000000000E+00  0.29063292121E+03  0.29063292121E+03  0.00000000000E+00 0.  1.
          4   -1    0    0  502    0  0.00000000000E+00 -0.00000000000E+00 -0.51212526557E+02  0.51212526557E+02  0.00000000000E+00 0. -1.
         23    2    1    2    0    0  0.35610164927E+02  0.34822817341E+02  0.19976890697E+03  0.22640974802E+03  0.94196843654E+02 0.  0.
         24    2    1    2    0    0 -0.33383373379E+02 -0.14796701712E+02  0.30736319772E+02  0.93401995410E+02  0.80285860485E+02 0.  0.
        -11    1    4    4    0    0 -0.41076002871E+02  0.24718916364E+02  0.16377613636E+02  0.50660527696E+02  0.00000000000E+00 0.  1.
         12    1    4    4    0    0  0.76926294921E+01 -0.39515618076E+02  0.14358706137E+02  0.42741467714E+02  0.00000000000E+00 0. -1.
        -11    1    3    3    0    0  0.34273589345E+02 -0.23843337849E+02  0.47589540275E+02  0.63308356715E+02  0.00000000000E+00 0.  1.
         11    1    3    3    0    0  0.13365755821E+01  0.58666155190E+02  0.15217936669E+03  0.16310139131E+03  0.00000000000E+00 0. -1.
         21    1    1    2  502  501 -0.22267915484E+01 -0.20026115629E+02  0.89151679132E+01  0.22033704335E+02  0.00000000000E+00 0.  1.
<scales pt_clust_5="13000.00000" pt_clust_6="13000.00000" pt_clust_7="13000.00000" pt_clust_8="13000.00000" pt_clust_9="20.14954"></scales>
<clustering>
<clus scale="   20.150">  2  9  1 -1</clus>
<clus scale="   80.286">  5  6 -1 -1</clus>
<clus scale="   92.192">  2  5  1 -1</clus>
<clus scale="   94.197">  7  8 -1 -1</clus>
<clus scale="   20.150">  2  5  1 -1</clus>
</clustering>
</event>
<event>
 9    2  0.3791909E-005  0.2120160E+03  0.7546771E-02  0.1140742E+00
         -1   -1    0    0    0  501 -0.00000000000E+00  0.00000000000E+00  0.24427949736E+03  0.24427949736E+03  0.00000000000E+00 0.  1.
          2   -1    0    0  502    0  0.00000000000E+00 -0.00000000000E+00 -0.70272789489E+03  0.70272789489E+03  0.00000000000E+00 0. -1.
         24    2    1    2    0    0  0.41789796594E+02 -0.18943252947E+03  0.17697300238E+03  0.27502192493E+03  0.81771298755E+02 0.  0.
         23    2    1    2    0    0 -0.41093334322E+02  0.15746762126E+03 -0.53374930558E+03  0.56540472242E+03  0.91156267283E+02 0.  0.
        -13    1    3    3    0    0  0.65406162203E+02 -0.13991099953E+03  0.14306626614E+03  0.21052555748E+03  0.00000000000E+00 0.  1.
         14    1    3    3    0    0 -0.23616365610E+02 -0.49521529937E+02  0.33906736238E+02  0.64496367450E+02  0.00000000000E+00 0. -1.
        -11    1    4    4    0    0 -0.35839688791E+01  0.14723574973E+03 -0.43619116330E+03  0.46038455857E+03  0.00000000000E+00 0. -1.
         11    1    4    4    0    0 -0.37509365443E+02  0.10231871533E+02 -0.97558142279E+02  0.10502016385E+03  0.00000000000E+00 0.  1.
         21    1    1    2  502  501 -0.69646227138E+00  0.31964908201E+02 -0.10167209434E+03  0.10658074490E+03  0.00000000000E+00 0.  1.
<scales pt_clust_5="13000.00000" pt_clust_6="13000.00000" pt_clust_7="13000.00000" pt_clust_8="13000.00000" pt_clust_9="31.97249"></scales>
<clustering>
<clus scale="   31.972">  2  9  1 -1</clus>
<clus scale="   81.771">  5  6 -1 -1</clus>
<clus scale="   91.156">  7  8 -1 -1</clus>
<clus scale="  208.154">  1  5  2 -1</clus>
<clus scale="   31.972">  2  5  1 -1</clus>
</clustering>
</event>
<event>
 9    2  0.3791909E-005  0.2404873E+03  0.7546771E-02  0.1120200E+00
         -1   -1    0    0    0  501 -0.00000000000E+00  0.00000000000E+00  0.82005371371E+02  0.82005371371E+02  0.00000000000E+00 0.  1.
          2   -1    0    0  502    0  0.00000000000E+00 -0.00000000000E+00 -0.17406714030E+04  0.17406714030E+04  0.00000000000E+00 0. -1.
         24    2    1    2    0    0  0.55434145172E+02 -0.21089877908E+03 -0.15271983005E+03  0.27808203762E+03  0.80343224261E+02 0.  0.
         23    2    1    2    0    0 -0.12702009657E+03  0.21882195796E+03 -0.12511436992E+04  0.12798087091E+04  0.92372191293E+02 0.  0.
        -13    1    3    3    0    0  0.28095834123E+02 -0.12069816444E+03 -0.38023089441E+02  0.12962707327E+03  0.00000000000E+00 0.  1.
         14    1    3    3    0    0  0.27338311050E+02 -0.90200614649E+02 -0.11469674061E+03  0.14845496435E+03  0.00000000000E+00 0. -1.
        -13    1    4    4    0    0 -0.99568548919E+02  0.21393958167E+03 -0.11806524202E+04  0.12040033961E+04  0.00000000000E+00 0. -1.
         13    1    4    4    0    0 -0.27451547654E+02  0.48823762847E+01 -0.70491278939E+02  0.75805312962E+02  0.00000000000E+00 0.  1.
         21    1    1    2  502  501  0.71585951401E+02 -0.79231788734E+01 -0.25480250247E+03  0.26478602770E+03  0.00000000000E+00 0. -1.
<scales pt_clust_5="13000.00000" pt_clust_6="13000.00000" pt_clust_7="13000.00000" pt_clust_8="13000.00000" pt_clust_9="72.02309"></scales>
<clustering>
<clus scale="   72.023">  2  9  1 -1</clus>
<clus scale="   80.343">  5  6 -1 -1</clus>
<clus scale="   92.372">  7  8 -1 -1</clus>
<clus scale="  236.128">  1  5  2 -1</clus>
<clus scale="   72.023">  2  5  1 -1</clus>
</clustering>
</event>
<event>
 9    2  0.3791909E-005  0.1518515E+03  0.7546771E-02  0.1200250E+00
          2   -1    0    0  502    0  0.00000000000E+00  0.00000000000E+00  0.38322448379E+03  0.38322448379E+03  0.00000000000E+00 0. -1.
         -1   -1    0    0    0  501 -0.00000000000E+00 -0.00000000000E+00 -0.12980565254E+03  0.12980565254E+03  0.00000000000E+00 0.  1.
         24    2    1    2    0    0 -0.94884274498E+02 -0.80890366579E+02 -0.60538951346E+02  0.16004312400E+03  0.80015998133E+02 0.  0.
         23    2    1    2    0    0  0.82526606186E+02  0.60822271300E+02  0.25835774901E+03  0.29259823731E+03  0.91405757975E+02 0.  0.
        -13    1    3    3    0    0 -0.64012097940E+02 -0.87956914700E+02 -0.66943056938E+02  0.12773151686E+03  0.00000000000E+00 0.  1.
         14    1    3    3    0    0 -0.30872176558E+02  0.70665481209E+01  0.64041055914E+01  0.32311607143E+02  0.00000000000E+00 0. -1.
        -11    1    4    4    0    0 -0.29975053912E+01  0.20920645288E+02  0.42852195910E+01  0.21564358205E+02  0.00000000000E+00 0.  1.
         11    1    4    4    0    0  0.85524111578E+02  0.39901626011E+02  0.25407252942E+03  0.27103387911E+03  0.00000000000E+00 0. -1.
         21    1    1    2  502  501  0.12357668311E+02  0.20068095280E+02  0.55600033584E+02  0.60388775023E+02  0.00000000000E+00 0.  1.
<scales pt_clust_5="13000.00000" pt_clust_6="13000.00000" pt_clust_7="13000.00000" pt_clust_8="13000.00000" pt_clust_9="23.56778"></scales>
<clustering>
<clus scale="   23.568">  1  9  2 -1</clus>
<clus scale="   80.016">  5  6 -1 -1</clus>
<clus scale="   91.406">  7  8 -1 -1</clus>
<clus scale="  145.281">  2  5  1 -1</clus>
<clus scale="   23.568">  1  5  2 -1</clus>
</clustering>
</event>
<event>
 9    2  0.3791909E-005  0.9450635E+02  0.7546771E-02  0.1294245E+00
          2   -1    0    0  502    0  0.00000000000E+00  0.00000000000E+00  0.10948181197E+03  0.10948181197E+03  0.00000000000E+00 0. -1.
         -1   -1    0    0    0  501 -0.00000000000E+00 -0.00000000000E+00 -0.25751412591E+03  0.25751412591E+03  0.00000000000E+00 0.  1.
         23    2    1    2    0    0 -0.20562635001E+02 -0.80980467918E+01 -0.16098723843E+03  0.18616415909E+03  0.90839434571E+02 0.  0.
         24    2    1    2    0    0 -0.44895628852E+02 -0.12018146999E+02 -0.16377834214E+02  0.10633442117E+03  0.94226972380E+02 0.  0.
        -13    1    4    4    0    0 -0.54896291930E+02  0.20494741692E+02 -0.34287403978E+02  0.67891556001E+02  0.00000000000E+00 0.  1.
         14    1    4    4    0    0  0.10000663077E+02 -0.32512888690E+02  0.17909569765E+02  0.38442865165E+02  0.00000000000E+00 0. -1.
        -13    1    3    3    0    0  0.43630776218E+01 -0.45440962019E+02 -0.10428632127E+03  0.11384003812E+03  0.00000000000E+00 0.  1.
         13    1    3    3    0    0 -0.24925712623E+02  0.37342915227E+02 -0.56700917164E+02  0.72324120974E+02  0.00000000000E+00 0. -1.
         21    1    1    2  502  501  0.65458263854E+02  0.20116193790E+02  0.29332758703E+02  0.74497357621E+02  0.00000000000E+00 0. -1.
<scales pt_clust_5="13000.00000" pt_clust_6="13000.00000" pt_clust_7="13000.00000" pt_clust_8="13000.00000" pt_clust_9="68.47953"></scales>
<clustering>
<clus scale="   68.480">  1  9  2 -1</clus>
<clus scale="   90.839">  7  8 -1 -1</clus>
<clus scale="   91.129">  2  7  1 -1</clus>
<clus scale="   94.227">  5  6 -1 -1</clus>
<clus scale="   68.480">  1  5  2 -1</clus>
</clustering>
</event>
<event>
 9    2  0.3791909E-005  0.9401896E+02  0.7546771E-02  0.1300270E+00
         -1   -1    0    0    0  501 -0.00000000000E+00  0.00000000000E+00  0.77406114009E+02  0.77406114009E+02  0.00000000000E+00 0.  1.
          2   -1    0    0  502    0  0.00000000000E+00 -0.00000000000E+00 -0.23938644335E+03  0.23938644335E+03  0.00000000000E+00 0. -1.
         23    2    1    2    0    0  0.17040248004E+02  0.57625608809E+01  0.23094476583E+02  0.96482938914E+02  0.91934898123E+02 0.  0.
         24    2    1    2    0    0 -0.14960260080E+02 -0.25658851289E+02 -0.94641814452E+02  0.12769042676E+03  0.80408867748E+02 0.  0.
        -11    1    4    4    0    0  0.13968529405E+02 -0.43880972981E+02 -0.31206637512E+02  0.55628354535E+02  0.00000000000E+00 0.  1.
         12    1    4    4    0    0 -0.28928789485E+02  0.18222121692E+02 -0.63435176940E+02  0.72062072226E+02  0.00000000000E+00 0. -1.
        -13    1    3    3    0    0 -0.37315951747E+02  0.10596575411E+02  0.13512031763E+02  0.41077276779E+02  0.00000000000E+00 0. -1.
         13    1    3    3    0    0  0.54356199752E+02 -0.48340145298E+01  0.95824448199E+01  0.55405662135E+02  0.00000000000E+00 0.  1.
         21    1    1    2  502  501 -0.20799879247E+01  0.19896290408E+02 -0.90432991476E+02  0.92619191689E+02  0.00000000000E+00 0. -1.
<scales pt_clust_5="13000.00000" pt_clust_6="13000.00000" pt_clust_7="13000.00000" pt_clust_8="13000.00000" pt_clust_9="20.00472"></scales>
<clustering>
<clus scale="   20.005">  2  9  1 -1</clus>
<clus scale="   80.409">  5  6 -1 -1</clus>
<clus scale="   82.784">  2  5  1 -1</clus>
<clus scale="   91.935">  7  8 -1 -1</clus>
<clus scale="   20.005">  2  5  1 -1</clus>
</clustering>
</event>
<event>
 9    2  0.3791909E-005  0.1124695E+03  0.7546771E-02  0.1261534E+00
          2   -1    0    0  502    0  0.00000000000E+00  0.00000000000E+00  0.34481296014E+03  0.34481296014E+03  0.00000000000E+00 0. -1.
         -1   -1    0    0    0  501 -0.00000000000E+00 -0.00000000000E+00 -0.11418533647E+03  0.11418533647E+03  0.00000000000E+00 0.  1.
         23    2    1    2    0    0 -0.12922927851E+02  0.65408153235E+02 -0.72291856139E+02  0.13481633399E+03  0.92217692844E+02 0.  0.
         24    2    1    2    0    0  0.51870875866E+01 -0.44073375941E+02  0.26769086296E+03  0.28227645710E+03  0.77796091008E+02 0.  0.
        -13    1    4    4    0    0  0.24991249946E+01  0.21164919291E+02  0.10162466112E+03  0.10383530798E+03  0.00000000000E+00 0.  1.
         14    1    4    4    0    0  0.26879625919E+01 -0.65238295233E+02  0.16606620184E+03  0.17844114913E+03  0.00000000000E+00 0. -1.
        -11    1    3    3    0    0 -0.19845716201E+02  0.87644551967E+02 -0.62975126936E+02  0.10973279616E+03  0.00000000000E+00 0. -1.
         11    1    3    3    0    0  0.69227883493E+01 -0.22236398732E+02 -0.93167292032E+01  0.25083537831E+02  0.00000000000E+00 0.  1.
         21    1    1    2  502  501  0.77358402649E+01 -0.21334777294E+02  0.35228616848E+02  0.41905505507E+02  0.00000000000E+00 0.  1.
<scales pt_clust_5="13000.00000" pt_clust_6="13000.00000" pt_clust_7="13000.00000" pt_clust_8="13000.00000" pt_clust_9="22.69396"></scales>
<clustering>
<clus scale="   22.694">  1  9  2 -1</clus>
<clus scale="   77.796">  5  6 -1 -1</clus>
<clus scale="   92.218">  7  8 -1 -1</clus>
<clus scale="  100.983">  1  5  2 -1</clus>
<clus scale="   22.694">  1  5  2 -1</clus>
</clustering>
</event>
<event>
 9    2  0.3791909E-005  0.2173112E+03  0.7546771E-02  0.1173085E+00
         -1   -1    0    0    0  501 -0.00000000000E+00  0.00000000000E+00  0.11336434549E+03  0.11336434549E+03  0.00000000000E+00 0.  1.
          2   -1    0    0  502    0  0.00000000000E+00 -0.00000000000E+00 -0.84477555715E+03  0.84477555715E+03  0.00000000000E+00 0. -1.
         23    2    1    2    0    0  0.12910269056E+03 -0.16013876378E+03 -0.62734044092E+02  0.23317649519E+03  0.90132065573E+02 0.  0.
         24    2    1    2    0    0 -0.41697995917E+02  0.30220365841E+01 -0.32090570288E+03  0.33346597674E+03  0.80443967659E+02 0.  0.
        -11    1    4    4    0    0 -0.11608701378E+02  0.19617970211E+02 -0.19183070864E+02  0.29792900340E+02  0.00000000000E+00 0.  1.
         12    1    4    4    0    0 -0.30089294539E+02 -0.16595933627E+02 -0.30172263201E+03  0.30367307640E+03  0.00000000000E+00 0. -1.
        -11    1    3    3    0    0  0.55072398372E+02 -0.36883169161E+02  0.17462320482E+02  0.68543926546E+02  0.00000000000E+00 0.  1.
         11    1    3    3    0    0  0.74030292192E+02 -0.12325559462E+03 -0.80196364574E+02  0.16463256864E+03  0.00000000000E+00 0. -1.
         21    1    1    2  502  501 -0.87404694646E+02  0.15711672720E+03 -0.34777146469E+03  0.39149743072E+03  0.00000000000E+00 0.  1.
<scales pt_clust_5="13000.00000" pt_clust_6="13000.00000" pt_clust_7="13000.00000" pt_clust_8="13000.00000" pt_clust_9="197.73817"></scales>
<clustering>
<clus scale="   80.444">  5  6 -1 -1</clus>
<clus scale="   90.132">  7  8 -1 -1</clus>
<clus scale="   90.659">  2  5  1 -1</clus>
<clus scale="  197.738">  2  9  1 -1</clus>
<clus scale="   90.659">  2  5  1 -1</clus>
</clustering>
</event>
<event>
 9    2  0.3791909E-005  0.1021987E+03  0.7546771E-02  0.1283908E+00
          2   -1    0    0  502    0  0.00000000000E+00  0.00000000000E+00  0.15967342596E+03  0.15967342596E+03  0.00000000000E+00 0. -1.
         -1   -1    0    0    0  501 -0.00000000000E+00 -0.00000000000E+00 -0.15872639753E+03  0.15872639753E+03  0.00000000000E+00 0.  1.
         24    2    1    2    0    0  0.44640176802E+01  0.36303086813E+02 -0.10344614025E+03  0.13560281321E+03  0.79681725961E+02 0.  0.
         23    2    1    2    0    0  0.26259856328E+02 -0.35110798443E+02  0.42033873190E+02  0.11326960764E+03  0.95607579708E+02 0.  0.
        -13    1    3    3    0    0 -0.58334819646E+01  0.60794261070E+02 -0.70330446277E+02  0.93146891330E+02  0.00000000000E+00 0.  1.
         14    1    3    3    0    0  0.10297499645E+02 -0.24491174257E+02 -0.33115693970E+02  0.42455921879E+02  0.00000000000E+00 0. -1.
        -11    1    4    4    0    0 -0.92253106787E+01 -0.30909545602E+02 -0.22620480140E+02  0.39397874158E+02  0.00000000000E+00 0.  1.
         11    1    4    4    0    0  0.35485167007E+02 -0.42012528415E+01  0.64654353330E+02  0.73871733481E+02  0.00000000000E+00 0. -1.
         21    1    1    2  502  501 -0.30723874009E+02 -0.11922883697E+01  0.62359295484E+02  0.69527402648E+02  0.00000000000E+00 0. -1.
<scales pt_clust_5="13000.00000" pt_clust_6="13000.00000" pt_clust_7="13000.00000" pt_clust_8="13000.00000" pt_clust_9="30.74700"></scales>
<clustering>
<clus scale="   30.747">  1  9  2 -1</clus>
<clus scale="   79.682">  5  6 -1 -1</clus>
<clus scale="   87.481">  2  5  1 -1</clus>
<clus scale="   95.608">  7  8 -1 -1</clus>
<clus scale="   30.747">  1  5  2 -1</clus>
</clustering>
</event>
<event>
 9    2  0.3791909E-005  0.3283827E+03  0.7546771E-02  0.1072117E+00
         -1   -1    0    0    0  501 -0.00000000000E+00  0.00000000000E+00  0.42712251640E+03  0.42712251640E+03  0.00000000000E+00 0.  1.
          2   -1    0    0  502    0  0.00000000000E+00 -0.00000000000E+00 -0.27504233029E+03  0.27504233029E+03  0.00000000000E+00 0. -1.
         23    2    1    2    0    0 -0.24633162177E+03 -0.21121775937E+03  0.13918483985E+03  0.36440779607E+03  0.90157708694E+02 0.  0.
         24    2    1    2    0    0  0.22770872234E+03  0.20193525258E+03  0.20354960265E+02  0.31565222859E+03  0.81196653501E+02 0.  0.
        -13    1    4    4    0    0  0.85852535647E+02  0.57574690962E+02  0.43077035514E+02  0.11198720420E+03  0.00000000000E+00 0.  1.
         14    1    4    4    0    0  0.14185618669E+03  0.14436056162E+03 -0.22722075249E+02  0.20366502439E+03  0.00000000000E+00 0. -1.
        -11    1    3    3    0    0 -0.53251956791E+02 -0.10005538730E+03  0.57658357302E+02  0.12716657421E+03  0.00000000000E+00 0. -1.
         11    1    3    3    0    0 -0.19307966498E+03 -0.11116237207E+03  0.81526482547E+02  0.23724122186E+03  0.00000000000E+00 0.  1.
         21    1    1    2  502  501  0.18622899432E+02  0.92825067889E+01 -0.74596140040E+01  0.22104822022E+02  0.00000000000E+00 0. -1.
<scales pt_clust_5="13000.00000" pt_clust_6="13000.00000" pt_clust_7="13000.00000" pt_clust_8="13000.00000" pt_clust_9="20.80811"></scales>
<clustering>
<clus scale="   20.808">  2  9  1 -1</clus>
<clus scale="   81.197">  5  6 -1 -1</clus>
<clus scale="   90.158">  7  8 -1 -1</clus>
<clus scale="  326.036">  2  5  1 -1</clus>
<clus scale="   20.808">  2  5  1 -1</clus>
</clustering>
</event>
<event>
 9    2  0.3791909E-005  0.1387172E+03  0.7546771E-02  0.1215165E+00
          2   -1    0    0  502    0  0.00000000000E+00  0.00000000000E+00  0.12846748141E+04  0.12846748141E+04  0.00000000000E+00 0. -1.
         -1   -1    0    0    0  501 -0.00000000000E+00 -0.00000000000E+00 -0.64337301296E+02  0.64337301296E+02  0.00000000000E+00 0.  1.
         23    2    1    2    0    0  0.94885339064E+02 -0.41101086649E+02  0.36728410342E+02  0.14372592987E+03  0.92820471330E+02 0.  0.
         24    2    1    2    0    0 -0.64774767213E+02  0.96875753236E+02  0.10010771016E+04  0.10120625035E+04  0.92382171112E+02 0.  0.
        -11    1    4    4    0    0 -0.39280794321E+01  0.53108513906E+02  0.18390377568E+03  0.19145898455E+03  0.00000000000E+00 0.  1.
         12    1    4    4    0    0 -0.60846687781E+02  0.43767239331E+02  0.81717332597E+03  0.82060351896E+03  0.00000000000E+00 0. -1.
        -13    1    3    3    0    0  0.59539092097E+02  0.24501871180E+02  0.15081791222E+02  0.66126436510E+02  0.00000000000E+00 0. -1.
         13    1    3    3    0    0  0.35346246968E+02 -0.65602957829E+02  0.21646619120E+02  0.77599493361E+02  0.00000000000E+00 0.  1.
         21    1    1    2  502  501 -0.30110571851E+02 -0.55774666587E+02  0.18253200086E+03  0.19322368206E+03  0.00000000000E+00 0. -1.
<scales pt_clust_5="13000.00000" pt_clust_6="13000.00000" pt_clust_7="13000.00000" pt_clust_8="13000.00000" pt_clust_9="63.38344"></scales>
<clustering>
<clus scale="   63.383">  1  9  2 -1</clus>
<clus scale="   92.382">  5  6 -1 -1</clus>
<clus scale="   92.820">  7  8 -1 -1</clus>
<clus scale="  138.424">  1  5  2 -1</clus>
<clus scale="   63.383">  1  5  2 -1</clus>
</clustering>
</event>
<event>
 9    2  0.3791909E-005  0.1236553E+03  0.7546771E-02  0.1239271E+00
         -1   -1    0    0    0  501 -0.00000000000E+00  0.00000000000E+00  0.15294563437E+03  0.15294563437E+03  0.00000000000E+00 0.  1.
          2   -1    0    0  502    0  0.00000000000E+00 -0.00000000000E+00 -0.64925436339E+03  0.64925436339E+03  0.00000000000E+00 0. -1.
         24    2    1    2    0    0 -0.62075420188E+02  0.58357235142E+02  0.10593374537E+03  0.16008530161E+03  0.84536505121E+02 0.  0.
         23    2    1    2    0    0  0.45983846606E+01 -0.86549106442E+02 -0.21213739083E+03  0.24679157840E+03  0.91607410243E+02 0.  0.
        -11    1    3    3    0    0 -0.35189716598E+02  0.12594399210E+02  0.99905492011E+02  0.10666790698E+03  0.00000000000E+00 0.  1.
         12    1    3    3    0    0 -0.26885703590E+02  0.45762835932E+02  0.60282533556E+01  0.53417394626E+02  0.00000000000E+00 0. -1.
        -13    1    4    4    0    0 -0.39800563319E+02 -0.44942741333E+02 -0.70243796790E+02  0.92401979559E+02  0.00000000000E+00 0.  1.
         13    1    4    4    0    0  0.44398947979E+02 -0.41606365109E+02 -0.14189359404E+03  0.15438959884E+03  0.00000000000E+00 0. -1.
         21    1    1    2  502  501  0.57477035527E+02  0.28191871300E+02 -0.39010508356E+03  0.39532311776E+03  0.00000000000E+00 0. -1.
<scales pt_clust_5="13000.00000" pt_clust_6="13000.00000" pt_clust_7="13000.00000" pt_clust_8="13000.00000" pt_clust_9="64.01868"></scales>
<clustering>
<clus scale="   64.019">  2  9  1 -1</clus>
<clus scale="   84.537">  5  6 -1 -1</clus>
<clus scale="   91.607">  7  8 -1 -1</clus>
<clus scale="  118.512">  1  5  2 -1</clus>
<clus scale="   64.019">  2  5  1 -1</clus>
</clustering>
</event>
<event>
 9    2  0.3791909E-005  0.1120507E+03  0.7546771E-02  0.1258900E+00
         -1   -1    0    0    0  501 -0.00000000000E+00  0.00000000000E+00  0.56635734396E+02  0.56635734396E+02  0.00000000000E+00 0.  1.
          2   -1    0    0  502    0  0.00000000000E+00 -0.00000000000E+00 -0.54699550366E+03  0.54699550366E+03  0.00000000000E+00 0. -1.
         24    2    1    2    0    0  0.44850373551E+02 -0.53399668367E+02 -0.13488622559E+02  0.11034094091E+03  0.84439917776E+02 0.  0.
         23    2    1    2    0    0 -0.35651594336E+02  0.30700086077E+02 -0.39040367694E+03  0.40342088130E+03  0.90110182781E+02 0.  0.
        -11    1    3    3    0    0  0.64034946303E+02 -0.61154692290E+02 -0.78466406576E+01  0.88892859706E+02  0.00000000000E+00 0.  1.
         12    1    3    3    0    0 -0.19184572752E+02  0.77550239237E+01 -0.56419819011E+01  0.21448081208E+02  0.00000000000E+00 0. -1.
        -13    1    4    4    0    0  0.62451236280E+01 -0.28115649902E+02 -0.91930890635E+02  0.96336804968E+02  0.00000000000E+00 0.  1.
         13    1    4    4    0    0 -0.41896717964E+02  0.58815735979E+02 -0.29847278630E+03  0.30708407633E+03  0.00000000000E+00 0. -1.
         21    1    1    2  502  501 -0.91987792155E+01  0.22699582289E+02 -0.86467469765E+02  0.89869415836E+02  0.00000000000E+00 0. -1.
<scales pt_clust_5="13000.00000" pt_clust_6="13000.00000" pt_clust_7="13000.00000" pt_clust_8="13000.00000" pt_clust_9="24.49262"></scales>
<clustering>
<clus scale="   24.493">  2  9  1 -1</clus>
<clus scale="   84.440">  5  6 -1 -1</clus>
<clus scale="   90.110">  7  8 -1 -1</clus>
<clus scale="  107.544">  1  5  2 -1</clus>
<clus scale="   24.493">  2  5  1 -1</clus>
</clustering>
</event>
<event>
 9    2  0.3791909E-005  0.9571091E+02  0.7546771E-02  0.1293552E+00
         -1   -1    0    0    0  501 -0.00000000000E+00  0.00000000000E+00  0.74194504813E+02  0.74194504813E+02  0.00000000000E+00 0.  1.
          2   -1    0    0  502    0  0.00000000000E+00 -0.00000000000E+00 -0.49749037041E+03  0.49749037041E+03  0.00000000000E+00 0. -1.
         23    2    1    2    0    0 -0.21445081115E+02  0.78283768293E+01  0.31282797549E+02  0.10115910279E+03  0.93452531622E+02 0.  0.
         24    2    1    2    0    0 -0.27121051703E+01 -0.16423412670E+02 -0.26535852447E+03  0.27957628914E+03  0.86433043114E+02 0.  0.
        -11    1    4    4    0    0 -0.30088494630E+02 -0.13274667193E+02 -0.36763798541E+02  0.49326576825E+02  0.00000000000E+00 0.  1.
         12    1    4    4    0    0  0.27376389460E+02 -0.31487454766E+01 -0.22859472593E+03  0.23024971232E+03  0.00000000000E+00 0. -1.
        -11    1    3    3    0    0 -0.40765474217E+02 -0.31670624324E+02  0.11220868570E+02  0.52827646405E+02  0.00000000000E+00 0.  1.
         11    1    3    3    0    0  0.19320393102E+02  0.39499001153E+02  0.20061928980E+02  0.48331456383E+02  0.00000000000E+00 0. -1.
         21    1    1    2  502  501  0.24157186285E+02  0.85950358404E+01 -0.18922013867E+03  0.19094948329E+03  0.00000000000E+00 0. -1.
<scales pt_clust_5="13000.00000" pt_clust_6="13000.00000" pt_clust_7="13000.00000" pt_clust_8="13000.00000" pt_clust_9="25.64068"></scales>
<clustering>
<clus scale="   25.641">  2  9  1 -1</clus>
<clus scale="   86.433">  5  6 -1 -1</clus>
<clus scale="   88.870">  2  5  1 -1</clus>
<clus scale="   93.453">  7  8 -1 -1</clus>
<clus scale="   25.641">  2  5  1 -1</clus>
</clustering>
</event>
<event>
 9    2  0.3791909E-005  0.9528379E+02  0.7546771E-02  0.1295178E+00
          2   -1    0    0  502    0  0.00000000000E+00  0.00000000000E+00  0.32515945522E+03  0.32515945522E+03  0.00000000000E+00 0. -1.
         -1   -1    0    0    0  501 -0.00000000000E+00 -0.00000000000E+00 -0.11521034423E+03  0.11521034423E+03  0.00000000000E+00 0.  1.
         24    2    1    2    0    0  0.76458457238E+01 -0.37302027865E+02 -0.67808871370E+02  0.11279815411E+03  0.81703612490E+02 0.  0.
         23    2    1    2    0    0  0.11145059005E+01 -0.34550033694E+02  0.19535806397E+03  0.21789389435E+03  0.90100105908E+02 0.  0.
        -11    1    3    3    0    0 -0.19084724055E+02  0.19526232995E+02 -0.22022635100E+02  0.35078439589E+02  0.00000000000E+00 0.  1.
         12    1    3    3    0    0  0.26730569779E+02 -0.56828260860E+02 -0.45786236270E+02  0.77719714519E+02  0.00000000000E+00 0. -1.
        -11    1    4    4    0    0  0.31925630351E+02 -0.46072165263E+01  0.15706073617E+03  0.16033885107E+03  0.00000000000E+00 0.  1.
         11    1    4    4    0    0 -0.30811124450E+02 -0.29942817167E+02  0.38297327801E+02  0.57555043276E+02  0.00000000000E+00 0. -1.
         21    1    1    2  502  501 -0.87603516243E+01  0.71852061559E+02  0.82399918392E+02  0.10967775099E+03  0.00000000000E+00 0.  1.
<scales pt_clust_5="13000.00000" pt_clust_6="13000.00000" pt_clust_7="13000.00000" pt_clust_8="13000.00000" pt_clust_9="72.38413"></scales>
<clustering>
<clus scale="   72.384">  1  9  2 -1</clus>
<clus scale="   81.704">  5  6 -1 -1</clus>
<clus scale="   87.387">  2  5  1 -1</clus>
<clus scale="   90.100">  7  8 -1 -1</clus>
<clus scale="   72.384">  1  5  2 -1</clus>
</clustering>
</event>
<event>
 9    2  0.3791909E-005  0.1337000E+03  0.7546771E-02  0.1228919E+00
         -1   -1    0    0    0  501 -0.00000000000E+00  0.00000000000E+00  0.93731942530E+02  0.93731942530E+02  0.00000000000E+00 0.  1.
          2   -1    0    0  502    0  0.00000000000E+00 -0.00000000000E+00 -0.31403203125E+03  0.31403203125E+03  0.00000000000E+00 0. -1.
         24    2    1    2    0    0 -0.69309198177E+02 -0.32139981216E+02 -0.47609888061E+00  0.11091429752E+03  0.80405294471E+02 0.  0.
         23    2    1    2    0    0  0.87169532322E+02  0.54355382585E+02 -0.10942327153E+03  0.18282847561E+03  0.10440193562E+03 0.  0.
        -13    1    3    3    0    0 -0.75816431717E+02  0.22632121369E+01 -0.18717972182E+01  0.75873296174E+02  0.00000000000E+00 0.  1.
         14    1    3    3    0    0  0.65072335404E+01 -0.34403193353E+02  0.13956983376E+01  0.35041001342E+02  0.00000000000E+00 0. -1.
        -13    1    4    4    0    0  0.68244861637E+02 -0.44568466485E+01 -0.15043417246E+02  0.70025202780E+02  0.00000000000E+00 0.  1.
         13    1    4    4    0    0  0.18924670685E+02  0.58812229234E+02 -0.94379854281E+02  0.11280327283E+03  0.00000000000E+00 0. -1.
         21    1    1    2  502  501 -0.17860334145E+02 -0.22215401369E+02 -0.11040071831E+03  0.11402120065E+03  0.00000000000E+00 0. -1.
<scales pt_clust_5="13000.00000" pt_clust_6="13000.00000" pt_clust_7="13000.00000" pt_clust_8="13000.00000" pt_clust_9="28.50466"></scales>
<clustering>
<clus scale="   28.505">  2  9  1 -1</clus>
<clus scale="   80.405">  5  6 -1 -1</clus>
<clus scale="  104.402">  7  8 -1 -1</clus>
<clus scale="  115.935">  1  5  2 -1</clus>
<clus scale="   28.505">  2  5  1 -1</clus>
</clustering>
</event>
<event>
 9    2  0.3791909E-005  0.1576696E+03  0.7546771E-02  0.1193626E+00
          2   -1    0    0  502    0  0.00000000000E+00  0.00000000000E+00  0.21178530224E+03  0.21178530224E+03  0.00000000000E+00 0. -1.
         -1   -1    0    0    0  501 -0.00000000000E+00 -0.00000000000E+00 -0.32941516303E+03  0.32941516303E+03  0.00000000000E+00 0.  1.
         23    2    1    2    0    0 -0.13030985007E+03 -0.27099846113E+02 -0.24899062281E+03  0.29698533617E+03  0.92135231961E+02 0.  0.
         24    2    1    2    0    0  0.10256093115E+03  0.42997290432E+02  0.31807976893E+02  0.13965180731E+03  0.78251954026E+02 0.  0.
        -11    1    4    4    0    0  0.95058726540E+02  0.40096012788E+01  0.14113397853E+02  0.96184335485E+02  0.00000000000E+00 0.  1.
         12    1    4    4    0    0  0.75022046068E+01  0.38987689153E+02  0.17694579040E+02  0.43467471825E+02  0.00000000000E+00 0. -1.
        -11    1    3    3    0    0 -0.88565720753E+02 -0.35635577116E+02 -0.23243092952E+03  0.25127259749E+03  0.00000000000E+00 0.  1.
         11    1    3    3    0    0 -0.41744129319E+02  0.85357310038E+01 -0.16559693289E+02  0.45712738686E+02  0.00000000000E+00 0. -1.
         21    1    1    2  502  501  0.27748918926E+02 -0.15897444320E+02  0.99552785129E+02  0.10456332179E+03  0.00000000000E+00 0.  1.
<scales pt_clust_5="13000.00000" pt_clust_6="13000.00000" pt_clust_7="13000.00000" pt_clust_8="13000.00000" pt_clust_9="31.98017"></scales>
<clustering>
<clus scale="   31.980">  1  9  2 -1</clus>
<clus scale="   78.252">  5  6 -1 -1</clus>
<clus scale="   92.135">  7  8 -1 -1</clus>
<clus scale="  149.981">  1  5  2 -1</clus>
<clus scale="   31.980">  1  5  2 -1</clus>
</clustering>
</event>
<event>
 9    2  0.3791909E-005  0.1165022E+03  0.7546771E-02  0.1259808E+00
          2   -1    0    0  502    0  0.00000000000E+00  0.00000000000E+00  0.42817783197E+03  0.42817783197E+03  0.00000000000E+00 0. -1.
         -1   -1    0    0    0  501 -0.00000000000E+00 -0.00000000000E+00 -0.65738553514E+02  0.65738553514E+02  0.00000000000E+00 0.  1.
         23    2    1    2    0    0  0.44295582931E+02 -0.13841927505E+01  0.93183755312E+01  0.11519362871E+03  0.10591848430E+03 0.  0.
         24    2    1    2    0    0 -0.64743391720E+02  0.23106934039E+02  0.25300148494E+03  0.27425320029E+03  0.80494902430E+02 0.  0.
        -11    1    4    4    0    0 -0.40199082640E+02 -0.28082988243E+02  0.11318542612E+03  0.12335137276E+03  0.00000000000E+00 0.  1.
         12    1    4    4    0    0 -0.24544309080E+02  0.51189922282E+02  0.13981605882E+03  0.15090182754E+03  0.00000000000E+00 0. -1.
        -13    1    3    3    0    0  0.70582521365E+02 -0.13960009961E+02  0.31528183909E+02  0.78554443419E+02  0.00000000000E+00 0. -1.
         13    1    3    3    0    0 -0.26286938434E+02  0.12575817210E+02 -0.22209808378E+02  0.36639185293E+02  0.00000000000E+00 0.  1.
         21    1    1    2  502  501  0.20447808789E+02 -0.21722741288E+02  0.10011941798E+03  0.10446955648E+03  0.00000000000E+00 0. -1.
<scales pt_clust_5="13000.00000" pt_clust_6="13000.00000" pt_clust_7="13000.00000" pt_clust_8="13000.00000" pt_clust_9="29.83271"></scales>
<clustering>
<clus scale="   29.833">  1  9  2 -1</clus>
<clus scale="   80.495">  5  6 -1 -1</clus>
<clus scale="   93.987">  1  5  2 -1</clus>
<clus scale="  105.918">  7  8 -1 -1</clus>
<clus scale="   29.833">  1  5  2 -1</clus>
</clustering>
</event>
<event>
 9    2  0.3791909E-005  0.1748768E+03  0.7546771E-02  0.1174524E+00
         -1   -1    0    0    0  501 -0.00000000000E+00  0.00000000000E+00  0.54271254134E+03  0.54271254134E+03  0.00000000000E+00 0.  1.
          2   -1    0    0  502    0  0.00000000000E+00 -0.00000000000E+00 -0.23259790289E+03  0.23259790289E+03  0.00000000000E+00 0. -1.
         23    2    1    2    0    0  0.13128566191E+03  0.66976995374E+02  0.47637494711E+03  0.50703072312E+03  0.91789002741E+02 0.  0.
         24    2    1    2    0    0 -0.14609579532E+03 -0.83746616111E+02 -0.15944699288E+03  0.24489208542E+03  0.78684895881E+02 0.  0.
        -13    1    4    4    0    0 -0.51343773005E+02 -0.38132318372E+02 -0.14098111357E+02  0.65490560195E+02  0.00000000000E+00 0.  1.
         14    1    4    4    0    0 -0.94752022318E+02 -0.45614297739E+02 -0.14534888153E+03  0.17940152522E+03  0.00000000000E+00 0. -1.
        -13    1    3    3    0    0  0.29486981249E+02 -0.13556469042E+02  0.38665860520E+02  0.50480775408E+02  0.00000000000E+00 0. -1.
         13    1    3    3    0    0  0.10179868066E+03  0.80533464416E+02  0.43770908659E+03  0.45654994771E+03  0.00000000000E+00 0.  1.
         21    1    1    2  502  501  0.14810133412E+02  0.16769620738E+02 -0.68133157715E+01  0.23387635690E+02  0.00000000000E+00 0. -1.
<scales pt_clust_5="13000.00000" pt_clust_6="13000.00000" pt_clust_7="13000.00000" pt_clust_8="13000.00000" pt_clust_9="22.37320"></scales>
<clustering>
<clus scale="   22.373">  2  9  1 -1</clus>
<clus scale="   78.685">  5  6 -1 -1</clus>
<clus scale="   91.789">  7  8 -1 -1</clus>
<clus scale="  168.369">  2  5  1 -1</clus>
<clus scale="   22.373">  2  5  1 -1</clus>
</clustering>
</event>
<event>
 9    2  0.3791909E-005  0.1001181E+03  0.7546771E-02  0.1286008E+00
          2   -1    0    0  502    0  0.00000000000E+00  0.00000000000E+00  0.88948920427E+03  0.88948920427E+03  0.00000000000E+00 0. -1.
         -1   -1    0    0    0  501 -0.00000000000E+00 -0.00000000000E+00 -0.26366648257E+02  0.26366648257E+02  0.00000000000E+00 0.  1.
         23    2    1    2    0    0 -0.35577635442E+02 -0.21969579242E+02  0.90362132613E+02  0.13560071284E+03  0.92053287587E+02 0.  0.
         24    2    1    2    0    0  0.13742552831E+02  0.26331733138E+02  0.61531435145E+03  0.62124235784E+03  0.80300050730E+02 0.  0.
        -13    1    4    4    0    0 -0.20690080888E+02  0.28718487104E+02  0.13093438921E+03  0.13563423324E+03  0.00000000000E+00 0.  1.
         14    1    4    4    0    0  0.34432633719E+02 -0.23867539658E+01  0.48437996224E+03  0.48560812460E+03  0.00000000000E+00 0. -1.
        -11    1    3    3    0    0  0.25827667913E+02 -0.29489659368E+02  0.36919351290E+02  0.53849298409E+02  0.00000000000E+00 0.  1.
         11    1    3    3    0    0 -0.61405303355E+02  0.75200801266E+01  0.53442781323E+02  0.81751414427E+02  0.00000000000E+00 0. -1.
         21    1    1    2  502  501  0.21835082611E+02 -0.43621538961E+01  0.15744607195E+03  0.15901278185E+03  0.00000000000E+00 0. -1.
<scales pt_clust_5="13000.00000" pt_clust_6="13000.00000" pt_clust_7="13000.00000" pt_clust_8="13000.00000" pt_clust_9="22.26655"></scales>
<clustering>
<clus scale="   22.267">  1  9  2 -1</clus>
<clus scale="   80.300">  5  6 -1 -1</clus>
<clus scale="   89.431">  1  5  2 -1</clus>
<clus scale="   92.053">  7  8 -1 -1</clus>
<clus scale="   22.267">  1  5  2 -1</clus>
</clustering>
</event>
<event>
 9    2  0.3791909E-005  0.1223806E+03  0.7546771E-02  0.1240868E+00
          4   -1    0    0  502    0  0.00000000000E+00  0.00000000000E+00  0.51757497439E+03  0.51757497439E+03  0.00000000000E+00 0. -1.
         -3   -1    0    0    0  501 -0.00000000000E+00 -0.00000000000E+00 -0.53112792545E+02  0.53112792545E+02  0.00000000000E+00 0.  1.
         23    2    1    2    0    0 -0.92094211682E+01  0.89617486607E+02  0.61921080314E+02  0.14054815616E+03  0.88337176023E+02 0.  0.
         24    2    1    2    0    0 -0.11159975931E+02 -0.72868245048E+02  0.22647465126E+03  0.25210915175E+03  0.82667590589E+02 0.  0.
        -11    1    4    4    0    0 -0.22528178862E+02 -0.62575980253E+02  0.76565553634E+02  0.10141773095E+03  0.00000000000E+00 0.  1.
         12    1    4    4    0    0  0.11368202931E+02 -0.10292264795E+02  0.14990909762E+03  0.15069142080E+03  0.00000000000E+00 0. -1.
        -11    1    3    3    0    0  0.11400625006E+02  0.89454483326E+02  0.17894968606E+02  0.91936438582E+02  0.00000000000E+00 0.  1.
         11    1    3    3    0    0 -0.20610046174E+02  0.16300328073E+00  0.44026111709E+02  0.48611717575E+02  0.00000000000E+00 0. -1.
         21    1    1    2  502  501  0.20369397099E+02 -0.16749241559E+02  0.17606645028E+03  0.17803045903E+03  0.00000000000E+00 0. -1.
<scales pt_clust_5="13000.00000" pt_clust_6="13000.00000" pt_clust_7="13000.00000" pt_clust_8="13000.00000" pt_clust_9="26.37138"></scales>
<clustering>
<clus scale="   26.371">  1  9  2 -1</clus>
<clus scale="   82.668">  5  6 -1 -1</clus>
<clus scale="   88.337">  7  8 -1 -1</clus>
<clus scale="  118.353">  1  5  2 -1</clus>
<clus scale="   26.371">  1  5  2 -1</clus>
</clustering>
</event>
<event>
 9    2  0.3791909E-005  0.1061909E+03  0.7546771E-02  0.1273168E+00
          2   -1    0    0  502    0  0.00000000000E+00  0.00000000000E+00  0.10527001391E+03  0.10527001391E+03  0.00000000000E+00 0. -1.
         -1   -1    0    0    0  501 -0.00000000000E+00 -0.00000000000E+00 -0.17398668064E+03  0.17398668064E+03  0.00000000000E+00 0.  1.
         23    2    1    2    0    0 -0.56591288466E+02  0.49352313790E+00 -0.10205145173E+03  0.14721379125E+03  0.89747334443E+02 0.  0.
         24    2    1    2    0    0  0.55748127209E+02 -0.21821816353E+02  0.65650126162E+01  0.97805091952E+02  0.77062904596E+02 0.  0.
        -13    1    4    4    0    0 -0.72307310916E+01 -0.30268411838E+02 -0.89774529149E+01  0.32389116816E+02  0.00000000000E+00 0.  1.
         14    1    4    4    0    0  0.62978858300E+02  0.84465954846E+01  0.15542465531E+02  0.65415975135E+02  0.00000000000E+00 0. -1.
        -13    1    3    3    0    0 -0.43532488689E+02 -0.22249581532E+02 -0.10952761504E+03  0.11994340293E+03  0.00000000000E+00 0.  1.
         13    1    3    3    0    0 -0.13058799777E+02  0.22743104670E+02  0.74761633073E+01  0.27270388326E+02  0.00000000000E+00 0. -1.
         21    1    1    2  502  501  0.84316125694E+00  0.21328293215E+02  0.26769772388E+02  0.34237811351E+02  0.00000000000E+00 0. -1.
<scales pt_clust_5="13000.00000" pt_clust_6="13000.00000" pt_clust_7="13000.00000" pt_clust_8="13000.00000" pt_clust_9="21.34495"></scales>
<clustering>
<clus scale="   21.345">  1  9  2 -1</clus>
<clus scale="   77.063">  5  6 -1 -1</clus>
<clus scale="   89.747">  7  8 -1 -1</clus>
<clus scale="   95.711">  1  5  2 -1</clus>
<clus scale="   21.345">  1  5  2 -1</clus>
</clustering>
</event>
<event>
 9    2  0.3791909E-005  0.1024924E+03  0.7546771E-02  0.1283111E+00
         -1   -1    0    0    0  501 -0.00000000000E+00  0.00000000000E+00  0.70571702873E+02  0.70571702873E+02  0.00000000000E+00 0.  1.
          2   -1    0    0  502    0  0.00000000000E+00 -0.00000000000E+00 -0.30326877757E+03  0.30326877757E+03  0.00000000000E+00 0. -1.
         23    2    1    2    0    0 -0.31570656485E+02  0.37248320090E+02  0.10866318175E+02  0.10510857086E+03  0.92442366350E+02 0.  0.
         24    2    1    2    0    0  0.34743698944E+01 -0.27780383957E+02 -0.20204151904E+03  0.21771123592E+03  0.76115608460E+02 0.  0.
        -11    1    4    4    0    0 -0.34984035822E+02 -0.24058456624E+02 -0.10698680849E+03  0.11510373273E+03  0.00000000000E+00 0.  1.
         12    1    4    4    0    0  0.38458405716E+02 -0.37219273323E+01 -0.95054710545E+02  0.10260750319E+03  0.00000000000E+00 0. -1.
        -11    1    3    3    0    0 -0.37529042541E+02 -0.13120196637E+02  0.31126691478E+02  0.50491974770E+02  0.00000000000E+00 0.  1.
         11    1    3    3    0    0  0.59583860563E+01  0.50368516727E+02 -0.20260373302E+02  0.54616596086E+02  0.00000000000E+00 0. -1.
         21    1    1    2  502  501  0.28096286590E+02 -0.94679361331E+01 -0.41521873838E+02  0.51020673670E+02  0.00000000000E+00 0. -1.
<scales pt_clust_5="13000.00000" pt_clust_6="13000.00000" pt_clust_7="13000.00000" pt_clust_8="13000.00000" pt_clust_9="29.64866"></scales>
<clustering>
<clus scale="   29.649">  2  9  1 -1</clus>
<clus scale="   76.116">  5  6 -1 -1</clus>
<clus scale="   88.049">  2  5  1 -1</clus>
<clus scale="   92.442">  7  8 -1 -1</clus>
<clus scale="   29.649">  2  5  1 -1</clus>
</clustering>
</event>
<event>
 9    2  0.3791909E-005  0.1512858E+03  0.7546771E-02  0.1207322E+00
         -1   -1    0    0    0  501 -0.00000000000E+00  0.00000000000E+00  0.27134476410E+03  0.27134476410E+03  0.00000000000E+00 0.  1.
          2   -1    0    0  502    0  0.00000000000E+00 -0.00000000000E+00 -0.24220533079E+03  0.24220533079E+03  0.00000000000E+00 0. -1.
         24    2    1    2    0    0  0.10167349179E+03 -0.14658560696E+02  0.11409153188E+03  0.17277037498E+03  0.79248674997E+02 0.  0.
         23    2    1    2    0    0 -0.82299826669E+02  0.48716707616E+02  0.81044655791E+02  0.17022117064E+03  0.11515394753E+03 0.  0.
        -13    1    3    3    0    0  0.48892324224E+02 -0.12429767484E+02  0.10849069483E+03  0.11964610045E+03  0.00000000000E+00 0.  1.
         14    1    3    3    0    0  0.52781167568E+02 -0.22287932120E+01  0.56008370540E+01  0.53124274533E+02  0.00000000000E+00 0. -1.
        -13    1    4    4    0    0 -0.63079250829E+02 -0.25024850379E+02  0.61420033730E+02  0.91529533841E+02  0.00000000000E+00 0.  1.
         13    1    4    4    0    0 -0.19220575840E+02  0.73741557995E+02  0.19624622061E+02  0.78691636800E+02  0.00000000000E+00 0. -1.
         21    1    1    2  502  501 -0.19373665123E+02 -0.34058146920E+02 -0.16599675436E+03  0.17055854927E+03  0.00000000000E+00 0. -1.
<scales pt_clust_5="13000.00000" pt_clust_6="13000.00000" pt_clust_7="13000.00000" pt_clust_8="13000.00000" pt_clust_9="39.18286"></scales>
<clustering>
<clus scale="   39.183">  2  9  1 -1</clus>
<clus scale="   79.249">  5  6 -1 -1</clus>
<clus scale="  115.154">  7  8 -1 -1</clus>
<clus scale="  126.124">  1  5  2 -1</clus>
<clus scale="   39.183">  2  5  1 -1</clus>
</clustering>
</event>
<event>
 9    2  0.3791909E-005  0.9654581E+02  0.7546771E-02  0.1288580E+00
         -1   -1    0    0    0  501 -0.00000000000E+00  0.00000000000E+00  0.38948066490E+03  0.38948066490E+03  0.00000000000E+00 0.  1.
          2   -1    0    0  502    0  0.00000000000E+00 -0.00000000000E+00 -0.32939057795E+03  0.32939057795E+03  0.00000000000E+00 0. -1.
         23    2    1    2    0    0 -0.96325205683E+01 -0.27222829697E+02  0.35653784824E+03  0.36916943174E+03  0.91285071028E+02 0.  0.
         24    2    1    2    0    0  0.26818349285E+02 -0.33068753754E+02 -0.97935854434E+02  0.14152543179E+03  0.92872223646E+02 0.  0.
        -13    1    4    4    0    0 -0.61904316422E+01 -0.54964333953E+02 -0.30099645857E+02  0.62971327852E+02  0.00000000000E+00 0.  1.
         14    1    4    4    0    0  0.33008780928E+02  0.21895580199E+02 -0.67836208577E+02  0.78554103933E+02  0.00000000000E+00 0. -1.
        -11    1    3    3    0    0  0.38166088146E+02 -0.28724352389E+02  0.18862694543E+03  0.19458125101E+03  0.00000000000E+00 0.  1.
         11    1    3    3    0    0 -0.47798608714E+02  0.15015226916E+01  0.16791090282E+03  0.17458818073E+03  0.00000000000E+00 0. -1.
         21    1    1    2  502  501 -0.17185828717E+02  0.60291583451E+02 -0.19851190686E+03  0.20817637933E+03  0.00000000000E+00 0. -1.
<scales pt_clust_5="13000.00000" pt_clust_6="13000.00000" pt_clust_7="13000.00000" pt_clust_8="13000.00000" pt_clust_9="62.69312"></scales>
<clustering>
<clus scale="   62.693">  2  9  1 -1</clus>
<clus scale="   91.285">  7  8 -1 -1</clus>
<clus scale="   92.872">  5  6 -1 -1</clus>
<clus scale="   95.020">  1  7  2 -1</clus>
<clus scale="   62.693">  2  5  1 -1</clus>
</clustering>
</event>
<event>
 9    2  0.3791909E-005  0.1073606E+03  0.7546771E-02  0.1270481E+00
         -1   -1    0    0    0  501 -0.00000000000E+00  0.00000000000E+00  0.43198091665E+03  0.43198091665E+03  0.00000000000E+00 0.  1.
          2   -1    0    0  502    0  0.00000000000E+00 -0.00000000000E+00 -0.40043478736E+02  0.40043478736E+02  0.00000000000E+00 0. -1.
         23    2    1    2    0    0  0.69717175152E+02  0.33342883431E+02  0.23707138579E+03  0.26600053850E+03  0.92634832185E+02 0.  0.
         24    2    1    2    0    0 -0.22740365096E+02 -0.16269078159E+02  0.93030865338E+02  0.12651331775E+03  0.81049802919E+02 0.  0.
        -11    1    4    4    0    0 -0.18300512829E+02 -0.45751147440E+02  0.80039154138E+02  0.93991182868E+02  0.00000000000E+00 0.  1.
         12    1    4    4    0    0 -0.44398522664E+01  0.29482069281E+02  0.12991711200E+02  0.32522134880E+02  0.00000000000E+00 0. -1.
        -11    1    3    3    0    0  0.23635680379E+02 -0.24955605631E+02  0.13764855314E+03  0.14187512756E+03  0.00000000000E+00 0.  1.
         11    1    3    3    0    0  0.46081494773E+02  0.58298489063E+02  0.99422832647E+02  0.12412541093E+03  0.00000000000E+00 0. -1.
         21    1    1    2  502  501 -0.46976810056E+02 -0.17073805272E+02  0.61835186789E+02  0.79510539142E+02  0.00000000000E+00 0.  1.
<scales pt_clust_5="13000.00000" pt_clust_6="13000.00000" pt_clust_7="13000.00000" pt_clust_8="13000.00000" pt_clust_9="49.98335"></scales>
<clustering>
<clus scale="   49.983">  2  9  1 -1</clus>
<clus scale="   81.050">  5  6 -1 -1</clus>
<clus scale="   92.635">  7  8 -1 -1</clus>
<clus scale="   97.541">  2  5  1 -1</clus>
<clus scale="   49.983">  2  5  1 -1</clus>
</clustering>
</event>
<event>
 9    2  0.3791909E-005  0.1460312E+03  0.7546771E-02  0.1206425E+00
         -1   -1    0    0    0  501 -0.00000000000E+00  0.00000000000E+00  0.21509021321E+03  0.21509021321E+03  0.00000000000E+00 0.  1.
          2   -1    0    0  502    0  0.00000000000E+00 -0.00000000000E+00 -0.15987182546E+03  0.15987182546E+03  0.00000000000E+00 0. -1.
         24    2    1    2    0    0  0.38883772957E+02  0.11176860744E+03  0.10626562968E+03  0.17854537786E+03  0.81128900499E+02 0.  0.
         23    2    1    2    0    0 -0.98695696582E+01 -0.11849714390E+03 -0.12252109818E+02  0.14750695348E+03  0.86424566016E+02 0.  0.
        -13    1    3    3    0    0 -0.27693936987E+01  0.34577476218E+02  0.79662833037E+02  0.86887504111E+02  0.00000000000E+00 0.  1.
         14    1    3    3    0    0  0.41653166655E+02  0.77191131217E+02  0.26602796646E+02  0.91657873750E+02  0.00000000000E+00 0. -1.
        -11    1    4    4    0    0 -0.45617772399E+02 -0.91269638614E+02 -0.72270194509E+01  0.10229055627E+03  0.00000000000E+00 0. -1.
         11    1    4    4    0    0  0.35748202741E+02 -0.27227505286E+02 -0.50250903671E+01  0.45216397209E+02  0.00000000000E+00 0.  1.
         21    1    1    2  502  501 -0.29014203299E+02  0.67285364651E+01 -0.38795132110E+02  0.48909707333E+02  0.00000000000E+00 0. -1.
<scales pt_clust_5="13000.00000" pt_clust_6="13000.00000" pt_clust_7="13000.00000" pt_clust_8="13000.00000" pt_clust_9="29.78418"></scales>
<clustering>
<clus scale="   29.784">  2  9  1 -1</clus>
<clus scale="   81.129">  5  6 -1 -1</clus>
<clus scale="   86.425">  7  8 -1 -1</clus>
<clus scale="  142.961">  1  5  2 -1</clus>
<clus scale="   29.784">  2  5  1 -1</clus>
</clustering>
</event>
<event>
 9    2  0.3791909E-005  0.9942061E+02  0.7546771E-02  0.1282153E+00
          2   -1    0    0  502    0  0.00000000000E+00  0.00000000000E+00  0.31735579977E+03  0.31735579977E+03  0.00000000000E+00 0. -1.
         -1   -1    0    0    0  501 -0.00000000000E+00 -0.00000000000E+00 -0.10497346433E+03  0.10497346433E+03  0.00000000000E+00 0.  1.
         24    2    1    2    0    0  0.31528802443E+02 -0.41540644559E+02 -0.59670631371E+02  0.11651887569E+03  0.85418812973E+02 0.  0.
         23    2    1    2    0    0 -0.38433498005E+01  0.17423153158E+02  0.24404798534E+03  0.25963229116E+03  0.86782313040E+02 0.  0.
        -11    1    3    3    0    0  0.27488049160E+02 -0.67796955205E+02 -0.39322036028E+02  0.83055659043E+02  0.00000000000E+00 0.  1.
         12    1    3    3    0    0  0.40407532832E+01  0.26256310646E+02 -0.20348595342E+02  0.33463216645E+02  0.00000000000E+00 0. -1.
        -13    1    4    4    0    0  0.21484873060E+02  0.42826171311E+02  0.95899136714E+02  0.10720226277E+03  0.00000000000E+00 0.  1.
         13    1    4    4    0    0 -0.25328222860E+02 -0.25403018153E+02  0.14814884863E+03  0.15243002839E+03  0.00000000000E+00 0. -1.
         21    1    1    2  502  501 -0.27685452643E+02  0.24117491401E+02  0.28004981463E+02  0.46178097257E+02  0.00000000000E+00 0. -1.
<scales pt_clust_5="13000.00000" pt_clust_6="13000.00000" pt_clust_7="13000.00000" pt_clust_8="13000.00000" pt_clust_9="36.71699"></scales>
<clustering>
<clus scale="   36.717">  1  9  2 -1</clus>
<clus scale="   85.419">  5  6 -1 -1</clus>
<clus scale="   86.782">  7  8 -1 -1</clus>
<clus scale="   98.233">  2  5  1 -1</clus>
<clus scale="   36.717">  1  5  2 -1</clus>
</clustering>
</event>
<event>
 9    2  0.3791909E-005  0.1283099E+03  0.7546771E-02  0.1241379E+00
          2   -1    0    0  502    0  0.00000000000E+00  0.00000000000E+00  0.73849715389E+03  0.73849715389E+03  0.00000000000E+00 0. -1.
         -1   -1    0    0    0  501 -0.00000000000E+00 -0.00000000000E+00 -0.45140667888E+02  0.45140667888E+02  0.00000000000E+00 0.  1.
         24    2    1    2    0    0  0.63175390372E+02  0.72146708119E+01  0.12467461659E+03  0.16085211052E+03  0.79287199562E+02 0.  0.
         23    2    1    2    0    0  0.66085142883E+02  0.20392252766E+02  0.34034018428E+03  0.35894797162E+03  0.90714470788E+02 0.  0.
        -11    1    3    3    0    0 -0.14070340792E+02  0.17947767576E+02  0.20099223998E+02  0.30398612736E+02  0.00000000000E+00 0.  1.
         12    1    3    3    0    0  0.77245731163E+02 -0.10733096764E+02  0.10457539259E+03  0.13045349778E+03  0.00000000000E+00 0. -1.
        -13    1    4    4    0    0  0.69857988706E+02 -0.90354746040E+01  0.30390354556E+03  0.31196016314E+03  0.00000000000E+00 0. -1.
         13    1    4    4    0    0 -0.37728458235E+01  0.29427727370E+02  0.36436638728E+02  0.46987808478E+02  0.00000000000E+00 0.  1.
         21    1    1    2  502  501 -0.12926053325E+03 -0.27606923578E+02  0.22834168513E+03  0.26383773963E+03  0.00000000000E+00 0.  1.
<scales pt_clust_5="13000.00000" pt_clust_6="13000.00000" pt_clust_7="13000.00000" pt_clust_8="13000.00000" pt_clust_9="90.74306"></scales>
<clustering>
<clus scale="   79.287">  5  6 -1 -1</clus>
<clus scale="   90.714">  7  8 -1 -1</clus>
<clus scale="  101.635">  2  5  1 -1</clus>
<clus scale="   90.743">  2  9  1 -1</clus>
<clus scale="  128.310">  1  5  2 -1</clus>
</clustering>
</event>
<event>
 9    2  0.3791909E-005  0.1401986E+03  0.7546771E-02  0.1215547E+00
         -1   -1    0    0    0  501 -0.00000000000E+00  0.00000000000E+00  0.22804032774E+03  0.22804032774E+03  0.00000000000E+00 0.  1.
          2   -1    0    0  502    0  0.00000000000E+00 -0.00000000000E+00 -0.45657609173E+03  0.45657609173E+03  0.00000000000E+00 0. -1.
         24    2    1    2    0    0  0.97306371559E+02  0.51081695285E+02  0.18530098631E+03  0.22903263225E+03  0.77727868676E+02 0.  0.
         23    2    1    2    0    0 -0.76688866165E+02 -0.10048536154E+02 -0.38151428088E+03  0.39942736544E+03  0.89481386196E+02 0.  0.
        -11    1    3    3    0    0  0.72287962331E+02  0.35846466738E+02  0.18257970746E+03  0.19961429872E+03  0.00000000000E+00 0.  1.
         12    1    3    3    0    0  0.25018409228E+02  0.15235228547E+02  0.27212788461E+01  0.29418333531E+02  0.00000000000E+00 0. -1.
        -11    1    4    4    0    0 -0.97264123046E+02 -0.82315971795E+01 -0.31307302252E+03  0.32793716815E+03  0.00000000000E+00 0. -1.
         11    1    4    4    0    0  0.20575256881E+02 -0.18169389745E+01 -0.68441258356E+02  0.71490197289E+02  0.00000000000E+00 0.  1.
         21    1    1    2  502  501 -0.20617505395E+02 -0.41033159131E+02 -0.32322469416E+02  0.56156421770E+02  0.00000000000E+00 0.  1.
<scales pt_clust_5="13000.00000" pt_clust_6="13000.00000" pt_clust_7="13000.00000" pt_clust_8="13000.00000" pt_clust_9="45.92169"></scales>
<clustering>
<clus scale="   45.922">  2  9  1 -1</clus>
<clus scale="   77.728">  5  6 -1 -1</clus>
<clus scale="   89.481">  7  8 -1 -1</clus>
<clus scale="  133.005">  1  5  2 -1</clus>
<clus scale="   45.922">  2  5  1 -1</clus>
</clustering>
</event>
<event>
 9    2  0.3791909E-005  0.1074858E+03  0.7546771E-02  0.1270742E+00
         -1   -1    0    0    0  501 -0.00000000000E+00  0.00000000000E+00  0.20108891782E+03  0.20108891782E+03  0.00000000000E+00 0.  1.
          2   -1    0    0  502    0  0.00000000000E+00 -0.00000000000E+00 -0.20134786082E+03  0.20134786082E+03  0.00000000000E+00 0. -1.
         23    2    1    2    0    0  0.67444238686E+02 -0.42220223601E+02  0.14994396408E+03  0.19296422704E+03  0.91764524419E+02 0.  0.
         24    2    1    2    0    0 -0.43904829813E+02  0.31649107078E+02 -0.15603120560E+03  0.18301841509E+03  0.78871433865E+02 0.  0.
        -11    1    4    4    0    0 -0.18275571566E+02  0.45813709682E+02 -0.40462083308E+02  0.63797121381E+02  0.00000000000E+00 0.  1.
         12    1    4    4    0    0 -0.25629258247E+02 -0.14164602604E+02 -0.11556912230E+03  0.11922129371E+03  0.00000000000E+00 0. -1.
        -13    1    3    3    0    0  0.59317628956E+01 -0.33323279561E+02  0.11863942889E+03  0.12337317723E+03  0.00000000000E+00 0. -1.
         13    1    3    3    0    0  0.61512475791E+02 -0.88969440394E+01  0.31304535189E+02  0.69591049816E+02  0.00000000000E+00 0.  1.
         21    1    1    2  502  501 -0.23539408873E+02  0.10571116522E+02  0.58282985337E+01  0.26454136509E+02  0.00000000000E+00 0. -1.
<scales pt_clust_5="13000.00000" pt_clust_6="13000.00000" pt_clust_7="13000.00000" pt_clust_8="13000.00000" pt_clust_9="25.80411"></scales>
<clustering>
<clus scale="   25.804">  1  9  2 -1</clus>
<clus scale="   78.871">  5  6 -1 -1</clus>
<clus scale="   91.765">  7  8 -1 -1</clus>
<clus scale="   96.712">  2  5  1 -1</clus>
<clus scale="   96.712">  2  5  1 -1</clus>
</clustering>
</event>
<event>
 9    2  0.3791909E-005  0.1984244E+03  0.7546771E-02  0.1168739E+00
          2   -1    0    0  502    0  0.00000000000E+00  0.00000000000E+00  0.17272650525E+04  0.17272650525E+04  0.00000000000E+00 0. -1.
         -1   -1    0    0    0  501 -0.00000000000E+00 -0.00000000000E+00 -0.45549053647E+02  0.45549053647E+02  0.00000000000E+00 0.  1.
         23    2    1    2    0    0 -0.43215231091E+02  0.14139123132E+03  0.36453060714E+03  0.40495926318E+03  0.96179024756E+02 0.  0.
         24    2    1    2    0    0  0.43550699129E+02  0.95939538806E+02  0.47082491409E+03  0.48884854887E+03  0.78713058006E+02 0.  0.
        -11    1    4    4    0    0 -0.15370439484E+01  0.69455734986E+02  0.17230373526E+03  0.18578223492E+03  0.00000000000E+00 0.  1.
         12    1    4    4    0    0  0.45087743078E+02  0.26483803820E+02  0.29852117883E+03  0.30306631395E+03  0.00000000000E+00 0. -1.
        -11    1    3    3    0    0 -0.66665180057E+02  0.12548030549E+03  0.25599243063E+03  0.29278264606E+03  0.00000000000E+00 0. -1.
         11    1    3    3    0    0  0.23449948966E+02  0.15910925826E+02  0.10853817651E+03  0.11217661711E+03  0.00000000000E+00 0.  1.
         21    1    1    2  502  501 -0.33546803823E+00 -0.23733077012E+03  0.84636047767E+03  0.87900629415E+03  0.00000000000E+00 0.  1.
<scales pt_clust_5="13000.00000" pt_clust_6="13000.00000" pt_clust_7="13000.00000" pt_clust_8="13000.00000" pt_clust_9="173.55643"></scales>
<clustering>
<clus scale="   78.713">  5  6 -1 -1</clus>
<clus scale="   96.179">  7  8 -1 -1</clus>
<clus scale="  131.517">  1  5  2 -1</clus>
<clus scale="  173.556">  1  9  2 -1</clus>
<clus scale="  131.517">  1  5  2 -1</clus>
</clustering>
</event>
<event>
 9    2  0.3791909E-005  0.9598642E+02  0.7546771E-02  0.1296208E+00
          2   -1    0    0  502    0  0.00000000000E+00  0.00000000000E+00  0.30789232144E+03  0.30789232144E+03  0.00000000000E+00 0. -1.
         -1   -1    0    0    0  501 -0.00000000000E+00 -0.00000000000E+00 -0.53021171998E+02  0.53021171998E+02  0.00000000000E+00 0.  1.
         23    2    1    2    0    0  0.32862362216E+02  0.24584289236E+01  0.17343336511E+02  0.99180670763E+02  0.91924074150E+02 0.  0.
         24    2    1    2    0    0 -0.99718558783E+01  0.14272252223E+02  0.18644032015E+03  0.20330489364E+03  0.79181763744E+02 0.  0.
        -11    1    4    4    0    0 -0.23015511252E+02  0.31839769387E+02  0.43159002211E+02  0.58362523460E+02  0.00000000000E+00 0.  1.
         12    1    4    4    0    0  0.13043655374E+02 -0.17567517164E+02  0.14328131794E+03  0.14494237018E+03  0.00000000000E+00 0. -1.
        -13    1    3    3    0    0  0.30484470037E+02 -0.37138176636E+02  0.31054993849E+02  0.57209786927E+02  0.00000000000E+00 0. -1.
         13    1    3    3    0    0  0.23778921793E+01  0.39596605559E+02 -0.13711657338E+02  0.41970883836E+02  0.00000000000E+00 0.  1.
         21    1    1    2  502  501 -0.22890506338E+02 -0.16730681147E+02  0.51087492784E+02  0.58427929033E+02  0.00000000000E+00 0. -1.
<scales pt_clust_5="13000.00000" pt_clust_6="13000.00000" pt_clust_7="13000.00000" pt_clust_8="13000.00000" pt_clust_9="28.35297"></scales>
<clustering>
<clus scale="   28.353">  1  9  2 -1</clus>
<clus scale="   79.182">  5  6 -1 -1</clus>
<clus scale="   83.864">  1  5  2 -1</clus>
<clus scale="   91.924">  7  8 -1 -1</clus>
<clus scale="   28.353">  1  5  2 -1</clus>
</clustering>
</event>
<event>
 9    2  0.3791909E-005  0.1378689E+03  0.7546771E-02  0.1218446E+00
         -1   -1    0    0    0  501 -0.00000000000E+00  0.00000000000E+00  0.87851429707E+03  0.87851429707E+03  0.00000000000E+00 0.  1.
          2   -1    0    0  502    0  0.00000000000E+00 -0.00000000000E+00 -0.60137385311E+02  0.60137385311E+02  0.00000000000E+00 0. -1.
         24    2    1    2    0    0 -0.12444418610E+03 -0.70664835645E+02  0.63796059611E+03  0.65870053986E+03  0.80079988551E+02 0.  0.
         23    2    1    2    0    0  0.42737782847E+02  0.12893896156E+02  0.13926005318E+03  0.17175106987E+03  0.90068290485E+02 0.  0.
        -13    1    3    3    0    0 -0.12013519704E+03 -0.85544921010E+02  0.59586830524E+03  0.61384805633E+03  0.00000000000E+00 0.  1.
         14    1    3    3    0    0 -0.43089890608E+01  0.14880085365E+02  0.42092290875E+02  0.44852483524E+02  0.00000000000E+00 0. -1.
        -13    1    4    4    0    0 -0.24542945426E+02 -0.17485466431E+01  0.12739607020E+02  0.27707601350E+02  0.00000000000E+00 0.  1.
         13    1    4    4    0    0  0.67280728273E+02  0.14642442800E+02  0.12652044616E+03  0.14404346852E+03  0.00000000000E+00 0. -1.
         21    1    1    2  502  501  0.81706403251E+02  0.57770939488E+02  0.41156262472E+02  0.10820007265E+03  0.00000000000E+00 0. -1.
<scales pt_clust_5="13000.00000" pt_clust_6="13000.00000" pt_clust_7="13000.00000" pt_clust_8="13000.00000" pt_clust_9="100.06707"></scales>
<clustering>
<clus scale="   80.080">  5  6 -1 -1</clus>
<clus scale="   90.068">  7  8 -1 -1</clus>
<clus scale="  100.067">  2  9  1 -1</clus>
<clus scale="  131.561">  1  5  2 -1</clus>
<clus scale="  100.067">  2  5  1 -1</clus>
</clustering>
</event>
<event>
 9    2  0.3791909E-005  0.2402187E+03  0.7546771E-02  0.1152841E+00
         -1   -1    0    0    0  501 -0.00000000000E+00  0.00000000000E+00  0.26797931427E+03  0.26797931427E+03  0.00000000000E+00 0.  1.
          2   -1    0    0  502    0  0.00000000000E+00 -0.00000000000E+00 -0.39937118840E+03  0.39937118840E+03  0.00000000000E+00 0. -1.
         24    2    1    2    0    0 -0.68238359792E+02  0.31891126591E+02  0.91292451363E+02  0.14085455859E+03  0.76368693185E+02 0.  0.
         23    2    1    2    0    0 -0.86674334996E+02  0.17694334179E+03 -0.11559812255E+03  0.24528919976E+03  0.89344720212E+02 0.  0.
        -13    1    3    3    0    0 -0.80636106733E+02  0.40088453420E+02  0.66484273603E+02  0.11193491164E+03  0.00000000000E+00 0.  1.
         14    1    3    3    0    0  0.12397746942E+02 -0.81973268292E+01  0.24808177760E+02  0.28919646957E+02  0.00000000000E+00 0. -1.
        -13    1    4    4    0    0 -0.61513203956E+02  0.16831116727E+03 -0.69774845111E+02  0.19230458211E+03  0.00000000000E+00 0.  1.
         13    1    4    4    0    0 -0.25161131041E+02  0.86321745192E+01 -0.45823277442E+02  0.52984617652E+02  0.00000000000E+00 0. -1.
         21    1    1    2  502  501  0.15491269479E+03 -0.20883446838E+03 -0.10708620294E+03  0.28120674432E+03  0.00000000000E+00 0. -1.
<scales pt_clust_5="13000.00000" pt_clust_6="13000.00000" pt_clust_7="13000.00000" pt_clust_8="13000.00000" pt_clust_9="222.98549"></scales>
<clustering>
<clus scale="   76.369">  5  6 -1 -1</clus>
<clus scale="   89.345">  7  8 -1 -1</clus>
<clus scale="  107.265">  1  5  2 -1</clus>
<clus scale="  222.985">  1  9  2 -1</clus>
<clus scale="  240.219">  2  5  1 -1</clus>
</clustering>
</event>
<event>
 9    2  0.3791909E-005  0.1376451E+03  0.7546771E-02  0.1218577E+00
          2   -1    0    0  502    0  0.00000000000E+00  0.00000000000E+00  0.55593173970E+03  0.55593173970E+03  0.00000000000E+00 0. -1.
         -1   -1    0    0    0  501 -0.00000000000E+00 -0.00000000000E+00 -0.19519067405E+03  0.19519067405E+03  0.00000000000E+00 0.  1.
         24    2    1    2    0    0  0.17831137807E+02  0.10202223948E+03 -0.15840201948E+03  0.20596036936E+03  0.81252613161E+02 0.  0.
         23    2    1    2    0    0 -0.39126093255E+02 -0.10313646370E+03  0.41375980669E+03  0.43764296703E+03  0.90367071657E+02 0.  0.
        -13    1    3    3    0    0  0.72589286669E+01  0.10959398724E+03 -0.10848713714E+03  0.15437938013E+03  0.00000000000E+00 0.  1.
         14    1    3    3    0    0  0.10572209140E+02 -0.75717477607E+01 -0.49914882347E+02  0.51580989231E+02  0.00000000000E+00 0. -1.
        -13    1    4    4    0    0 -0.15839458135E+02 -0.25489304156E+02  0.21056639568E+02  0.36660266369E+02  0.00000000000E+00 0.  1.
         13    1    4    4    0    0 -0.23286635120E+02 -0.77647159541E+02  0.39270316712E+03  0.40098270066E+03  0.00000000000E+00 0. -1.
         21    1    1    2  502  501  0.21294955448E+02  0.11142242216E+01  0.10538327844E+03  0.10751907737E+03  0.00000000000E+00 0. -1.
<scales pt_clust_5="13000.00000" pt_clust_6="13000.00000" pt_clust_7="13000.00000" pt_clust_8="13000.00000" pt_clust_9="21.32409"></scales>
<clustering>
<clus scale="   21.324">  1  9  2 -1</clus>
<clus scale="   81.253">  5  6 -1 -1</clus>
<clus scale="   90.367">  7  8 -1 -1</clus>
<clus scale="  131.841">  2  5  1 -1</clus>
<clus scale="   21.324">  1  5  2 -1</clus>
</clustering>
</event>
<event>
 9    2  0.3791909E-005  0.9847661E+02  0.7546771E-02  0.1288872E+00
          2   -1    0    0  502    0  0.00000000000E+00  0.00000000000E+00  0.91350787396E+03  0.91350787396E+03  0.00000000000E+00 0. -1.
         -1   -1    0    0    0  501 -0.00000000000E+00 -0.00000000000E+00 -0.59698824601E+02  0.59698824601E+02  0.00000000000E+00 0.  1.
         23    2    1    2    0    0 -0.33664488109E+02  0.17891917990E+02 -0.13063970497E+02  0.99720962111E+02  0.91215045196E+02 0.  0.
         24    2    1    2    0    0  0.11956035514E+02 -0.19570898550E+02  0.73878736340E+03  0.74356263890E+03  0.80948519320E+02 0.  0.
        -13    1    4    4    0    0 -0.77115887701E+01 -0.29658317670E+02  0.10475972172E+03  0.10914982228E+03  0.00000000000E+00 0.  1.
         14    1    4    4    0    0  0.19667624284E+02  0.10087419120E+02  0.63402764169E+03  0.63441281662E+03  0.00000000000E+00 0. -1.
        -13    1    3    3    0    0 -0.62124983048E+02  0.72074956670E+01 -0.24599961391E+02  0.67205800441E+02  0.00000000000E+00 0.  1.
         13    1    3    3    0    0  0.28460494938E+02  0.10684422323E+02  0.11535990894E+02  0.32515161670E+02  0.00000000000E+00 0. -1.
         21    1    1    2  502  501  0.21708452595E+02  0.16789805602E+01  0.12808565645E+03  0.12992309755E+03  0.00000000000E+00 0. -1.
<scales pt_clust_5="13000.00000" pt_clust_6="13000.00000" pt_clust_7="13000.00000" pt_clust_8="13000.00000" pt_clust_9="21.77328"></scales>
<clustering>
<clus scale="   21.773">  1  9  2 -1</clus>
<clus scale="   80.949">  5  6 -1 -1</clus>
<clus scale="   89.051">  1  5  2 -1</clus>
<clus scale="   91.215">  7  8 -1 -1</clus>
<clus scale="   21.773">  1  5  2 -1</clus>
</clustering>
</event>
<event>
 9    2  0.3791909E-005  0.9654493E+02  0.7546771E-02  0.1294208E+00
         -1   -1    0    0    0  501 -0.00000000000E+00  0.00000000000E+00  0.17014511885E+03  0.17014511885E+03  0.00000000000E+00 0.  1.
          2   -1    0    0  502    0  0.00000000000E+00 -0.00000000000E+00 -0.66437563064E+02  0.66437563064E+02  0.00000000000E+00 0. -1.
         23    2    1    2    0    0 -0.17719231042E+02  0.92127702305E+01  0.63770294292E+02  0.11381663395E+03  0.92134301133E+02 0.  0.
         24    2    1    2    0    0  0.41314243596E+02 -0.89349642878E+00  0.36156182533E+02  0.97463251836E+02  0.80524225319E+02 0.  0.
        -13    1    4    4    0    0  0.38965884072E+02 -0.26782359027E+02  0.49321352189E+02  0.68324451394E+02  0.00000000000E+00 0.  1.
         14    1    4    4    0    0  0.23483595244E+01  0.25888862599E+02 -0.13165169656E+02  0.29138800442E+02  0.00000000000E+00 0. -1.
        -13    1    3    3    0    0 -0.12909786336E+02  0.49578682724E+02  0.22718956083E+02  0.56043370075E+02  0.00000000000E+00 0. -1.
         13    1    3    3    0    0 -0.48094447066E+01 -0.40365912494E+02  0.41051338208E+02  0.57773263873E+02  0.00000000000E+00 0.  1.
         21    1    1    2  502  501 -0.23595012554E+02 -0.83192738017E+01  0.37810789651E+01  0.25302796133E+02  0.00000000000E+00 0.  1.
<scales pt_clust_5="13000.00000" pt_clust_6="13000.00000" pt_clust_7="13000.00000" pt_clust_8="13000.00000" pt_clust_9="25.01869"></scales>
<clustering>
<clus scale="   25.019">  2  9  1 -1</clus>
<clus scale="   80.524">  5  6 -1 -1</clus>
<clus scale="   85.536">  2  5  1 -1</clus>
<clus scale="   92.134">  7  8 -1 -1</clus>
<clus scale="   25.019">  2  5  1 -1</clus>
</clustering>
</event>
<event>
 9    2  0.3791909E-005  0.1051056E+03  0.7546771E-02  0.1274381E+00
         -1   -1    0    0    0  501 -0.00000000000E+00  0.00000000000E+00  0.40904371332E+02  0.40904371332E+02  0.00000000000E+00 0.  1.
          2   -1    0    0  502    0  0.00000000000E+00 -0.00000000000E+00 -0.80598451152E+03  0.80598451152E+03  0.00000000000E+00 0. -1.
         23    2    1    2    0    0  0.55906815156E+02  0.12585714931E+00 -0.42864617848E+02  0.11490096718E+03  0.90770419056E+02 0.  0.
         24    2    1    2    0    0 -0.33190999337E+02 -0.19211766584E+02 -0.51813835026E+03  0.52576528744E+03  0.80567071808E+02 0.  0.
        -13    1    4    4    0    0  0.75698440403E+01  0.26738923125E+02 -0.16589868371E+03  0.16821012397E+03  0.00000000000E+00 0.  1.
         14    1    4    4    0    0 -0.40760843377E+02 -0.45950689709E+02 -0.35223966655E+03  0.35755516347E+03  0.00000000000E+00 0. -1.
        -11    1    3    3    0    0 -0.23546845745E+02  0.95458422489E+01 -0.32322391550E+01  0.25612973641E+02  0.00000000000E+00 0. -1.
         11    1    3    3    0    0  0.79453660902E+02 -0.94199850996E+01 -0.39632378693E+02  0.89287993542E+02  0.00000000000E+00 0.  1.
         21    1    1    2  502  501 -0.22715815820E+02  0.19085909435E+02 -0.20407717209E+03  0.20622262823E+03  0.00000000000E+00 0.  1.
<scales pt_clust_5="13000.00000" pt_clust_6="13000.00000" pt_clust_7="13000.00000" pt_clust_8="13000.00000" pt_clust_9="29.66952"></scales>
<clustering>
<clus scale="   29.670">  2  9  1 -1</clus>
<clus scale="   80.567">  5  6 -1 -1</clus>
<clus scale="   90.770">  7  8 -1 -1</clus>
<clus scale="   96.431">  2  5  1 -1</clus>
<clus scale="   29.670">  2  5  1 -1</clus>
</clustering>
</event>
<event>
 9    2  0.3791909E-005  0.1946830E+03  0.7546771E-02  0.1155414E+00
          2   -1    0    0  502    0  0.00000000000E+00  0.00000000000E+00  0.32779557180E+03  0.32779557180E+03  0.00000000000E+00 0. -1.
         -1   -1    0    0    0  501 -0.00000000000E+00 -0.00000000000E+00 -0.37523005153E+03  0.37523005153E+03  0.00000000000E+00 0.  1.
         23    2    1    2    0    0 -0.15241206012E+03 -0.98459239517E+02 -0.30818459082E+03  0.36898231146E+03  0.90810496316E+02 0.  0.
         24    2    1    2    0    0  0.10336446605E+03  0.51978408229E+02  0.16162407020E+03  0.21407620746E+03  0.79500407337E+02 0.  0.
        -11    1    4    4    0    0  0.41657338612E+02  0.35488405306E+02  0.19216039757E+02  0.58000146166E+02  0.00000000000E+00 0.  1.
         12    1    4    4    0    0  0.61707127440E+02  0.16490002923E+02  0.14240803044E+03  0.15607606129E+03  0.00000000000E+00 0. -1.
        -13    1    3    3    0    0 -0.11974573484E+03 -0.11432748633E+03 -0.26604955989E+03  0.31335632028E+03  0.00000000000E+00 0.  1.
         13    1    3    3    0    0 -0.32666325279E+02  0.15868246809E+02 -0.42135030924E+02  0.55625991182E+02  0.00000000000E+00 0. -1.
         21    1    1    2  502  501  0.49047594065E+02  0.46480831288E+02  0.99126040882E+02  0.11996710441E+03  0.00000000000E+00 0. -1.
<scales pt_clust_5="13000.00000" pt_clust_6="13000.00000" pt_clust_7="13000.00000" pt_clust_8="13000.00000" pt_clust_9="67.57318"></scales>
<clustering>
<clus scale="   67.573">  1  9  2 -1</clus>
<clus scale="   79.500">  5  6 -1 -1</clus>
<clus scale="   90.810">  7  8 -1 -1</clus>
<clus scale="  189.671">  1  5  2 -1</clus>
<clus scale="   67.573">  1  5  2 -1</clus>
</clustering>
</event>
<event>
 9    2  0.3791909E-005  0.8466678E+02  0.7546771E-02  0.1317131E+00
          2   -1    0    0  502    0  0.00000000000E+00  0.00000000000E+00  0.29438827926E+03  0.29438827926E+03  0.00000000000E+00 0. -1.
         -1   -1    0    0    0  501 -0.00000000000E+00 -0.00000000000E+00 -0.14087709015E+03  0.14087709015E+03  0.00000000000E+00 0.  1.
         24    2    1    2    0    0 -0.69246693721E+01 -0.14508892528E+02 -0.94609368189E+02  0.12616471184E+03  0.81903253639E+02 0.  0.
         23    2    1    2    0    0  0.67879136840E+02  0.43014032309E+02  0.12701619436E+03  0.17055731843E+03  0.80615761764E+02 0.  0.
        -11    1    3    3    0    0 -0.33332978594E+02 -0.33376598150E+02 -0.73876947021E+02  0.87652085355E+02  0.00000000000E+00 0.  1.
         12    1    3    3    0    0  0.26408309222E+02  0.18867705622E+02 -0.20732421168E+02  0.38512626486E+02  0.00000000000E+00 0. -1.
        -11    1    4    4    0    0  0.84356720038E+02  0.26539833432E+02  0.11253213439E+03  0.14312197680E+03  0.00000000000E+00 0. -1.
         11    1    4    4    0    0 -0.16477583198E+02  0.16474198877E+02  0.14484059979E+02  0.27435341627E+02  0.00000000000E+00 0.  1.
         21    1    1    2  502  501 -0.60954467468E+02 -0.28505139782E+02  0.12110436294E+03  0.13854333914E+03  0.00000000000E+00 0. -1.
<scales pt_clust_5="13000.00000" pt_clust_6="13000.00000" pt_clust_7="13000.00000" pt_clust_8="13000.00000" pt_clust_9="67.29034"></scales>
<clustering>
<clus scale="   67.290">  1  9  2 -1</clus>
<clus scale="   80.616">  7  8 -1 -1</clus>
<clus scale="   81.903">  5  6 -1 -1</clus>
<clus scale="   83.422">  1  7  2 -1</clus>
<clus scale="   67.290">  1  5  2 -1</clus>
</clustering>
</event>
<event>
 9    2  0.3791909E-005  0.1457448E+03  0.7546771E-02  0.1209772E+00
         -1   -1    0    0    0  501 -0.00000000000E+00  0.00000000000E+00  0.54054417656E+03  0.54054417656E+03  0.00000000000E+00 0.  1.
          2   -1    0    0  502    0  0.00000000000E+00 -0.00000000000E+00 -0.12724519459E+03  0.12724519459E+03  0.00000000000E+00 0. -1.
         24    2    1    2    0    0 -0.82843098515E+01 -0.60436042337E+02  0.16136628240E+03  0.19059663278E+03  0.81036129757E+02 0.  0.
         23    2    1    2    0    0  0.85218187176E+02  0.91820068844E+02 -0.47171259099E+02  0.16676246168E+03  0.99456153525E+02 0.  0.
        -11    1    3    3    0    0 -0.26582048375E+02 -0.62015983175E+02  0.69319988906E+02  0.96735972249E+02  0.00000000000E+00 0.  1.
         12    1    3    3    0    0  0.18297738523E+02  0.15799408385E+01  0.92046293497E+02  0.93860660527E+02  0.00000000000E+00 0. -1.
        -13    1    4    4    0    0  0.43739690026E+02  0.65771428777E+02 -0.76262198722E+02  0.10979510135E+03  0.00000000000E+00 0. -1.
         13    1    4    4    0    0  0.41478497150E+02  0.26048640066E+02  0.29090939623E+02  0.56967360333E+02  0.00000000000E+00 0.  1.
         21    1    1    2  502  501 -0.76933877325E+02 -0.31384026507E+02  0.29910395866E+03  0.31043027669E+03  0.00000000000E+00 0.  1.
<scales pt_clust_5="13000.00000" pt_clust_6="13000.00000" pt_clust_7="13000.00000" pt_clust_8="13000.00000" pt_clust_9="83.08898"></scales>
<clustering>
<clus scale="   81.036">  5  6 -1 -1</clus>
<clus scale="   83.089">  1  9  2 -1</clus>
<clus scale="   99.456">  7  8 -1 -1</clus>
<clus scale="  133.854">  1  5  2 -1</clus>
<clus scale="  145.745">  2  5  1 -1</clus>
</clustering>
</event>
<event>
 9    2  0.3791909E-005  0.3023837E+03  0.7546771E-02  0.1084432E+00
          4   -1    0    0  502    0  0.00000000000E+00  0.00000000000E+00  0.98573481271E+02  0.98573481271E+02  0.00000000000E+00 0. -1.
         -3   -1    0    0    0  501 -0.00000000000E+00 -0.00000000000E+00 -0.17845288765E+04  0.17845288765E+04  0.00000000000E+00 0.  1.
         24    2    1    2    0    0  0.29142281010E+03 -0.49045872492E+02 -0.88683644799E+03  0.93826186536E+03  0.80769367053E+02 0.  0.
         23    2    1    2    0    0 -0.28200465485E+03 -0.11989591795E+03 -0.62500154292E+03  0.70205066418E+03  0.91359454455E+02 0.  0.
        -11    1    3    3    0    0  0.51536459127E+02 -0.39550737711E+02 -0.22678636947E+03  0.23590744975E+03  0.00000000000E+00 0.  1.
         12    1    3    3    0    0  0.23988635098E+03 -0.94951347819E+01 -0.66005007852E+03  0.70235441561E+03  0.00000000000E+00 0. -1.
        -11    1    4    4    0    0 -0.15377360913E+03 -0.84899575482E+02 -0.44401827321E+03  0.47750024892E+03  0.00000000000E+00 0.  1.
         11    1    4    4    0    0 -0.12823104572E+03 -0.34996342469E+02 -0.18098326971E+03  0.22455041525E+03  0.00000000000E+00 0. -1.
         21    1    1    2  502  501 -0.94181552494E+01  0.16894179044E+03 -0.17411740432E+03  0.24278982823E+03  0.00000000000E+00 0. -1.
<scales pt_clust_5="13000.00000" pt_clust_6="13000.00000" pt_clust_7="13000.00000" pt_clust_8="13000.00000" pt_clust_9="169.20411"></scales>
<clustering>
<clus scale="   80.769">  5  6 -1 -1</clus>
<clus scale="   91.359">  7  8 -1 -1</clus>
<clus scale="  169.204">  1  9  2 -1</clus>
<clus scale="  299.354">  2  5  1 -1</clus>
<clus scale="  169.204">  1  5  2 -1</clus>
</clustering>
</event>
<event>
 9    2  0.3791909E-005  0.1015192E+03  0.7546771E-02  0.1280654E+00
         -1   -1    0    0    0  501 -0.00000000000E+00  0.00000000000E+00  0.57188061044E+02  0.57188061044E+02  0.00000000000E+00 0.  1.
          2   -1    0    0  502    0  0.00000000000E+00 -0.00000000000E+00 -0.41896223712E+03  0.41896223712E+03  0.00000000000E+00 0. -1.
         23    2    1    2    0    0  0.31625643603E+02  0.37656316404E+02 -0.98365954756E+01  0.10031116560E+03  0.86875726388E+02 0.  0.
         24    2    1    2    0    0 -0.51489898232E+02 -0.50348024948E+02 -0.30695454309E+03  0.32505388134E+03  0.79074654709E+02 0.  0.
        -11    1    4    4    0    0 -0.36881667349E+02 -0.17026286180E+02 -0.45154590507E+02  0.60737869994E+02  0.00000000000E+00 0.  1.
         12    1    4    4    0    0 -0.14608230884E+02 -0.33321738769E+02 -0.26179995258E+03  0.26431601135E+03  0.00000000000E+00 0. -1.
        -13    1    3    3    0    0  0.52213627222E+01  0.42759676554E+02 -0.40777380402E+02  0.59316501247E+02  0.00000000000E+00 0. -1.
         13    1    3    3    0    0  0.26404280881E+02 -0.51033601504E+01  0.30940784927E+02  0.40994664355E+02  0.00000000000E+00 0.  1.
         21    1    1    2  502  501  0.19864254629E+02  0.12691708544E+02 -0.44983037517E+02  0.50785251225E+02  0.00000000000E+00 0. -1.
<scales pt_clust_5="13000.00000" pt_clust_6="13000.00000" pt_clust_7="13000.00000" pt_clust_8="13000.00000" pt_clust_9="23.57261"></scales>
<clustering>
<clus scale="   23.573">  2  9  1 -1</clus>
<clus scale="   79.075">  5  6 -1 -1</clus>
<clus scale="   86.876">  7  8 -1 -1</clus>
<clus scale="   94.929">  2  5  1 -1</clus>
<clus scale="   23.573">  2  5  1 -1</clus>
</clustering>
</event>
<event>
 9    2  0.3791909E-005  0.9155983E+02  0.7546771E-02  0.1304351E+00
         -1   -1    0    0    0  501 -0.00000000000E+00  0.00000000000E+00  0.23430106051E+03  0.23430106051E+03  0.00000000000E+00 0.  1.
          2   -1    0    0  502    0  0.00000000000E+00 -0.00000000000E+00 -0.11288846294E+03  0.11288846294E+03  0.00000000000E+00 0. -1.
         24    2    1    2    0    0 -0.26131777211E+01  0.17683344027E+02  0.18848551082E+03  0.20603022251E+03  0.81253525745E+02 0.  0.
         23    2    1    2    0    0  0.29285434959E+02 -0.99206833064E+01 -0.60440249765E+02  0.11259953146E+03  0.89830807830E+02 0.  0.
        -11    1    3    3    0    0  0.29483569345E+02  0.13123522705E+02  0.15888859517E+03  0.16213294972E+03  0.00000000000E+00 0.  1.
         12    1    3    3    0    0 -0.32096747066E+02  0.45598213229E+01  0.29596915646E+02  0.43897272791E+02  0.00000000000E+00 0. -1.
        -13    1    4    4    0    0 -0.23642046264E+02 -0.26552757577E+02 -0.39896065373E+02  0.53438668759E+02  0.00000000000E+00 0. -1.
         13    1    4    4    0    0  0.52927481223E+02  0.16632074271E+02 -0.20544184392E+02  0.59160862701E+02  0.00000000000E+00 0.  1.
         21    1    1    2  502  501 -0.26672257238E+02 -0.77626607210E+01 -0.66326634872E+01  0.28559769477E+02  0.00000000000E+00 0. -1.
<scales pt_clust_5="13000.00000" pt_clust_6="13000.00000" pt_clust_7="13000.00000" pt_clust_8="13000.00000" pt_clust_9="27.77892"></scales>
<clustering>
<clus scale="   27.779">  2  9  1 -1</clus>
<clus scale="   81.254">  5  6 -1 -1</clus>
<clus scale="   83.161">  1  5  2 -1</clus>
<clus scale="   89.831">  7  8 -1 -1</clus>
<clus scale="   27.779">  2  5  1 -1</clus>
</clustering>
</event>
<event>
 9    2  0.3791909E-005  0.1036427E+03  0.7546771E-02  0.1277574E+00
          2   -1    0    0  502    0  0.00000000000E+00  0.00000000000E+00  0.73939958329E+03  0.73939958329E+03  0.00000000000E+00 0. -1.
         -1   -1    0    0    0  501 -0.00000000000E+00 -0.00000000000E+00 -0.30646690253E+02  0.30646690253E+02  0.00000000000E+00 0.  1.
         23    2    1    2    0    0 -0.25513480778E+02 -0.46840660311E+02  0.81622207846E+02  0.13344933239E+03  0.91112865951E+02 0.  0.
         24    2    1    2    0    0  0.18184283330E+02  0.25170380419E+02  0.50321574560E+03  0.51058809059E+03  0.80683922958E+02 0.  0.
        -13    1    4    4    0    0 -0.30944942218E+01  0.43610227294E+02  0.14972128660E+03  0.15597400899E+03  0.00000000000E+00 0.  1.
         14    1    4    4    0    0  0.21278777552E+02 -0.18439846875E+02  0.35349445900E+03  0.35461408160E+03  0.00000000000E+00 0. -1.
        -11    1    3    3    0    0  0.22617708370E+02 -0.14260622312E+02 -0.68427637747E+01  0.27599809723E+02  0.00000000000E+00 0. -1.
         11    1    3    3    0    0 -0.48131189149E+02 -0.32580037998E+02  0.88464971621E+02  0.10584952267E+03  0.00000000000E+00 0.  1.
         21    1    1    2  502  501  0.73291974483E+01  0.21670279892E+02  0.12391493959E+03  0.12600885056E+03  0.00000000000E+00 0. -1.
<scales pt_clust_5="13000.00000" pt_clust_6="13000.00000" pt_clust_7="13000.00000" pt_clust_8="13000.00000" pt_clust_9="22.87615"></scales>
<clustering>
<clus scale="   22.876">  1  9  2 -1</clus>
<clus scale="   80.684">  5  6 -1 -1</clus>
<clus scale="   91.113">  7  8 -1 -1</clus>
<clus scale="   94.605">  1  5  2 -1</clus>
<clus scale="   22.876">  1  5  2 -1</clus>
</clustering>
</event>
<event>
 9    2  0.3791909E-005  0.3889685E+03  0.7546771E-02  0.1089064E+00
         -1   -1    0    0    0  501 -0.00000000000E+00  0.00000000000E+00  0.51618451084E+03  0.51618451084E+03  0.00000000000E+00 0.  1.
          2   -1    0    0  502    0  0.00000000000E+00 -0.00000000000E+00 -0.86343530279E+03  0.86343530279E+03  0.00000000000E+00 0. -1.
         24    2    1    2    0    0 -0.31331843418E+02 -0.88035132756E+02  0.15353480383E+03  0.19756897661E+03  0.82028626211E+02 0.  0.
         23    2    1    2    0    0  0.33114488999E+03  0.20616327211E+03 -0.69782406110E+03  0.80433894019E+03  0.88557763736E+02 0.  0.
        -11    1    3    3    0    0 -0.44071318415E+02 -0.90639275554E+02  0.98160381600E+02  0.14068837868E+03  0.00000000000E+00 0.  1.
         12    1    3    3    0    0  0.12739474997E+02  0.26041427974E+01  0.55374422232E+02  0.56880597926E+02  0.00000000000E+00 0. -1.
        -13    1    4    4    0    0  0.28162964430E+03  0.19124569625E+03 -0.54087693059E+03  0.63909156381E+03  0.00000000000E+00 0. -1.
         13    1    4    4    0    0  0.49515245687E+02  0.14917575855E+02 -0.15694713051E+03  0.16524737638E+03  0.00000000000E+00 0.  1.
         21    1    1    2  502  501 -0.29981304657E+03 -0.11812813935E+03  0.19703846531E+03  0.37771189684E+03  0.00000000000E+00 0.  1.
<scales pt_clust_5="13000.00000" pt_clust_6="13000.00000" pt_clust_7="13000.00000" pt_clust_8="13000.00000" pt_clust_9="378.75321"></scales>
<clustering>
<clus scale="   82.029">  5  6 -1 -1</clus>
<clus scale="   88.558">  7  8 -1 -1</clus>
<clus scale="  124.341">  1  5  2 -1</clus>
<clus scale="  378.753">  1  9  2 -1</clus>
<clus scale="  388.968">  2  5  1 -1</clus>
</clustering>
</event>
<event>
 9    2  0.3791909E-005  0.1202573E+03  0.7546771E-02  0.1257535E+00
         -1   -1    0    0    0  501 -0.00000000000E+00  0.00000000000E+00  0.12145643475E+03  0.12145643475E+03  0.00000000000E+00 0.  1.
          2   -1    0    0  502    0  0.00000000000E+00 -0.00000000000E+00 -0.31493136802E+03  0.31493136802E+03  0.00000000000E+00 0. -1.
         23    2    1    2    0    0 -0.15383779716E+02  0.34927898260E+02  0.46121662237E+02  0.12823853047E+03  0.11340764619E+03 0.  0.
         24    2    1    2    0    0 -0.53404280778E+02 -0.54027836829E+02 -0.89764998591E+02  0.14217905705E+03  0.79913108646E+02 0.  0.
        -13    1    4    4    0    0 -0.26594840350E+02 -0.62174689528E+02 -0.25857538025E+02  0.72398824740E+02  0.00000000000E+00 0.  1.
         14    1    4    4    0    0 -0.26809440428E+02  0.81468526989E+01 -0.63907460566E+02  0.69780232308E+02  0.00000000000E+00 0. -1.
        -13    1    3    3    0    0  0.17037988612E+02 -0.35927902681E+02  0.26818842820E+02  0.47962043088E+02  0.00000000000E+00 0.  1.
         13    1    3    3    0    0 -0.32421768328E+02  0.70855800941E+02  0.19302819417E+02  0.80276487379E+02  0.00000000000E+00 0. -1.
         21    1    1    2  502  501  0.68788060494E+02  0.19099938569E+02 -0.14983159691E+03  0.16597021526E+03  0.00000000000E+00 0.  1.
<scales pt_clust_5="13000.00000" pt_clust_6="13000.00000" pt_clust_7="13000.00000" pt_clust_8="13000.00000" pt_clust_9="71.39051"></scales>
<clustering>
<clus scale="   71.391">  2  9  1 -1</clus>
<clus scale="   79.913">  5  6 -1 -1</clus>
<clus scale="   89.368">  2  5  1 -1</clus>
<clus scale="  113.408">  7  8 -1 -1</clus>
<clus scale="   71.391">  2  5  1 -1</clus>
</clustering>
</event>
<event>
 9    2  0.3791909E-005  0.1333321E+03  0.7546771E-02  0.1226013E+00
         -1   -1    0    0    0  501 -0.00000000000E+00  0.00000000000E+00  0.55642149630E+02  0.55642149630E+02  0.00000000000E+00 0.  1.
          2   -1    0    0  502    0  0.00000000000E+00 -0.00000000000E+00 -0.56708399003E+03  0.56708399003E+03  0.00000000000E+00 0. -1.
         24    2    1    2    0    0  0.53202121350E+02  0.62925212270E+02 -0.83134659960E+02  0.14113589317E+03  0.78853792540E+02 0.  0.
         23    2    1    2    0    0 -0.98278541961E+02 -0.94616769876E+02 -0.31221381105E+03  0.35308379166E+03  0.92626643941E+02 0.  0.
        -11    1    3    3    0    0  0.63100451384E+02  0.35433013390E+02 -0.25880967006E+02  0.76856944097E+02  0.00000000000E+00 0.  1.
         12    1    3    3    0    0 -0.98983300336E+01  0.27492198880E+02 -0.57253692954E+02  0.64278949070E+02  0.00000000000E+00 0. -1.
        -11    1    4    4    0    0 -0.74404991606E+02 -0.11021043562E+02 -0.11321868869E+03  0.13592658918E+03  0.00000000000E+00 0.  1.
         11    1    4    4    0    0 -0.23873550355E+02 -0.83595726314E+02 -0.19899512236E+03  0.21715720248E+03  0.00000000000E+00 0. -1.
         21    1    1    2  502  501  0.45076420611E+02  0.31691557606E+02 -0.11609336939E+03  0.12850645484E+03  0.00000000000E+00 0.  1.
<scales pt_clust_5="13000.00000" pt_clust_6="13000.00000" pt_clust_7="13000.00000" pt_clust_8="13000.00000" pt_clust_9="55.10207"></scales>
<clustering>
<clus scale="   55.102">  2  9  1 -1</clus>
<clus scale="   78.854">  5  6 -1 -1</clus>
<clus scale="   92.627">  7  8 -1 -1</clus>
<clus scale="  124.160">  1  5  2 -1</clus>
<clus scale="   55.102">  2  5  1 -1</clus>
</clustering>
</event>
<event>
 9    2  0.3791909E-005  0.1616690E+03  0.7546771E-02  0.1190110E+00
         -1   -1    0    0    0  501 -0.00000000000E+00  0.00000000000E+00  0.41725563835E+03  0.41725563835E+03  0.00000000000E+00 0.  1.
          2   -1    0    0  502    0  0.00000000000E+00 -0.00000000000E+00 -0.90164206027E+02  0.90164206027E+02  0.00000000000E+00 0. -1.
         23    2    1    2    0    0 -0.73435297563E+02 -0.10866213255E+03  0.28861312828E+03  0.33291423942E+03  0.10165702638E+03 0.  0.
         24    2    1    2    0    0  0.47040530120E+02  0.10398255715E+03  0.43252574256E+02  0.14727738742E+03  0.82429727652E+02 0.  0.
        -11    1    4    4    0    0  0.54546966274E+02  0.25495651743E+02  0.74024645980E+01  0.60664621235E+02  0.00000000000E+00 0.  1.
         12    1    4    4    0    0 -0.75064361534E+01  0.78486905409E+02  0.35850109658E+02  0.86612766188E+02  0.00000000000E+00 0. -1.
        -11    1    3    3    0    0 -0.15147157267E+02 -0.53979097512E+02  0.22169830022E+03  0.22867731777E+03  0.00000000000E+00 0.  1.
         11    1    3    3    0    0 -0.58288140296E+02 -0.54683035036E+02  0.66914828061E+02  0.10423692165E+03  0.00000000000E+00 0. -1.
         21    1    1    2  502  501  0.26394767443E+02  0.46795753965E+01 -0.47742702136E+01  0.27228217538E+02  0.00000000000E+00 0. -1.
<scales pt_clust_5="13000.00000" pt_clust_6="13000.00000" pt_clust_7="13000.00000" pt_clust_8="13000.00000" pt_clust_9="26.80638"></scales>
<clustering>
<clus scale="   26.806">  2  9  1 -1</clus>
<clus scale="   82.430">  5  6 -1 -1</clus>
<clus scale="  101.657">  7  8 -1 -1</clus>
<clus scale="  150.324">  2  5  1 -1</clus>
<clus scale="   26.806">  2  5  1 -1</clus>
</clustering>
</event>
<event>
 9    2  0.3791909E-005  0.1063618E+03  0.7546771E-02  0.1270800E+00
          2   -1    0    0  502    0  0.00000000000E+00  0.00000000000E+00  0.62977702468E+02  0.62977702468E+02  0.00000000000E+00 0. -1.
         -1   -1    0    0    0  501 -0.00000000000E+00 -0.00000000000E+00 -0.85570517351E+03  0.85570517351E+03  0.00000000000E+00 0.  1.
         24    2    1    2    0    0 -0.57448767995E+02  0.13019243364E+02 -0.79143685797E+03  0.79779780901E+03  0.81481177344E+02 0.  0.
         23    2    1    2    0    0  0.35900115412E+02 -0.15903194859E+01  0.81002394946E-01  0.96454633942E+02  0.89510571693E+02 0.  0.
        -13    1    3    3    0    0 -0.63216156476E+02  0.21963707633E+02 -0.35628212771E+03  0.36251295345E+03  0.00000000000E+00 0.  1.
         14    1    3    3    0    0  0.57673884809E+01 -0.89444642682E+01 -0.43515473026E+03  0.43528485556E+03  0.00000000000E+00 0. -1.
        -11    1    4    4    0    0  0.57467769492E+02 -0.23846760731E+02 -0.11680155985E+02  0.63305912612E+02  0.00000000000E+00 0.  1.
         11    1    4    4    0    0 -0.21567654080E+02  0.22256441245E+02  0.11761158379E+02  0.33148721330E+02  0.00000000000E+00 0. -1.
         21    1    1    2  502  501  0.21548652583E+02 -0.11428923878E+02 -0.13716154701E+01  0.24430433032E+02  0.00000000000E+00 0. -1.
<scales pt_clust_5="13000.00000" pt_clust_6="13000.00000" pt_clust_7="13000.00000" pt_clust_8="13000.00000" pt_clust_9="24.39190"></scales>
<clustering>
<clus scale="   24.392">  1  9  2 -1</clus>
<clus scale="   81.481">  5  6 -1 -1</clus>
<clus scale="   89.511">  7  8 -1 -1</clus>
<clus scale="   99.699">  2  5  1 -1</clus>
<clus scale="   24.392">  1  5  2 -1</clus>
</clustering>
</event>
<event>
 9    2  0.3791909E-005  0.8792183E+02  0.7546771E-02  0.1310759E+00
          2   -1    0    0  502    0  0.00000000000E+00  0.00000000000E+00  0.38345102126E+02  0.38345102126E+02  0.00000000000E+00 0. -1.
         -1   -1    0    0    0  501 -0.00000000000E+00 -0.00000000000E+00 -0.32739103918E+03  0.32739103918E+03  0.00000000000E+00 0.  1.
         23    2    1    2    0    0  0.29685282951E+02  0.13684100932E+02 -0.19099959902E+03  0.21175257757E+03  0.85380540158E+02 0.  0.
         24    2    1    2    0    0  0.64628402100E+01 -0.11651879653E+02 -0.74657743936E+02  0.11088086005E+03  0.80890368977E+02 0.  0.
        -11    1    4    4    0    0 -0.61901722759E+01  0.33062815120E+02 -0.19982122117E+02  0.39124840968E+02  0.00000000000E+00 0.  1.
         12    1    4    4    0    0  0.12653012486E+02 -0.44714694773E+02 -0.54675621819E+02  0.71756019085E+02  0.00000000000E+00 0. -1.
        -11    1    3    3    0    0  0.58279960124E+02  0.18682763803E+02 -0.14463388011E+03  0.15704954215E+03  0.00000000000E+00 0.  1.
         11    1    3    3    0    0 -0.28594677173E+02 -0.49986628707E+01 -0.46365718915E+02  0.54703035415E+02  0.00000000000E+00 0. -1.
         21    1    1    2  502  501 -0.36148123161E+02 -0.20322212793E+01 -0.23388594098E+02  0.43102703688E+02  0.00000000000E+00 0. -1.
<scales pt_clust_5="13000.00000" pt_clust_6="13000.00000" pt_clust_7="13000.00000" pt_clust_8="13000.00000" pt_clust_9="36.20520"></scales>
<clustering>
<clus scale="   36.205">  1  9  2 -1</clus>
<clus scale="   80.890">  5  6 -1 -1</clus>
<clus scale="   83.568">  1  5  2 -1</clus>
<clus scale="   85.381">  7  8 -1 -1</clus>
<clus scale="   36.205">  1  5  2 -1</clus>
</clustering>
</event>
<event>
 9    2  0.3791909E-005  0.1453200E+03  0.7546771E-02  0.1207616E+00
         -1   -1    0    0    0  501 -0.00000000000E+00  0.00000000000E+00  0.39943510900E+02  0.39943510900E+02  0.00000000000E+00 0.  1.
          2   -1    0    0  502    0  0.00000000000E+00 -0.00000000000E+00 -0.11508197365E+04  0.11508197365E+04  0.00000000000E+00 0. -1.
         23    2    1    2    0    0  0.21188563853E+02 -0.11406357460E+03 -0.14443910533E+03  0.20507577912E+03  0.87942968706E+02 0.  0.
         24    2    1    2    0    0  0.18881582326E+02  0.11520162047E+03 -0.86491489557E+03  0.87653769105E+03  0.81318016058E+02 0.  0.
        -13    1    4    4    0    0 -0.19360685371E+02  0.94096924058E+02 -0.51249863633E+03  0.52142489344E+03  0.00000000000E+00 0.  1.
         14    1    4    4    0    0  0.38242267697E+02  0.21104696409E+02 -0.35241625924E+03  0.35511279761E+03  0.00000000000E+00 0. -1.
        -11    1    3    3    0    0 -0.20866184583E+02 -0.25482458382E+02 -0.83162397028E+02  0.89446842447E+02  0.00000000000E+00 0.  1.
         11    1    3    3    0    0  0.42054748436E+02 -0.88581116214E+02 -0.61276708305E+02  0.11562893667E+03  0.00000000000E+00 0. -1.
         21    1    1    2  502  501 -0.40070146179E+02 -0.11380458709E+01 -0.10152222473E+03  0.10914977726E+03  0.00000000000E+00 0. -1.
<scales pt_clust_5="13000.00000" pt_clust_6="13000.00000" pt_clust_7="13000.00000" pt_clust_8="13000.00000" pt_clust_9="40.08630"></scales>
<clustering>
<clus scale="   40.086">  1  9  2 -1</clus>
<clus scale="   81.318">  5  6 -1 -1</clus>
<clus scale="   87.943">  7  8 -1 -1</clus>
<clus scale="  141.409">  2  5  1 -1</clus>
<clus scale="  141.409">  2  5  1 -1</clus>
</clustering>
</event>
<event>
 9    2  0.3791909E-005  0.1333322E+03  0.7546771E-02  0.1226360E+00
         -1   -1    0    0    0  501 -0.00000000000E+00  0.00000000000E+00  0.24626539748E+03  0.24626539748E+03  0.00000000000E+00 0.  1.
          2   -1    0    0  502    0  0.00000000000E+00 -0.00000000000E+00 -0.11372786433E+03  0.11372786433E+03  0.00000000000E+00 0. -1.
         24    2    1    2    0    0  0.12108166817E+03 -0.16498020438E+02  0.10490864612E+03  0.17880776537E+03  0.77675207620E+02 0.  0.
         23    2    1    2    0    0 -0.55016587166E+02  0.27732461285E+02  0.97941948219E+01  0.11183938021E+03  0.92823523106E+02 0.  0.
        -11    1    3    3    0    0  0.55302576661E+02 -0.22287618437E+01  0.96135262969E+02  0.11092939714E+03  0.00000000000E+00 0.  1.
         12    1    3    3    0    0  0.65779091509E+02 -0.14269258594E+02  0.87733831541E+01  0.67878368222E+02  0.00000000000E+00 0. -1.
        -13    1    4    4    0    0 -0.23701039584E+02  0.56421167418E+02 -0.14527867295E+02  0.62897904085E+02  0.00000000000E+00 0.  1.
         13    1    4    4    0    0 -0.31315547582E+02 -0.28688706132E+02  0.24322062117E+02  0.48941476128E+02  0.00000000000E+00 0. -1.
         21    1    1    2  502  501 -0.66065081005E+02 -0.11234440847E+02  0.17834692208E+02  0.69346116225E+02  0.00000000000E+00 0.  1.
<scales pt_clust_5="13000.00000" pt_clust_6="13000.00000" pt_clust_7="13000.00000" pt_clust_8="13000.00000" pt_clust_9="67.01349"></scales>
<clustering>
<clus scale="   67.013">  2  9  1 -1</clus>
<clus scale="   77.675">  5  6 -1 -1</clus>
<clus scale="   92.824">  7  8 -1 -1</clus>
<clus scale="  123.267">  1  5  2 -1</clus>
<clus scale="   67.013">  2  5  1 -1</clus>
</clustering>
</event>
<event>
 9    2  0.3791909E-005  0.8875639E+02  0.7546771E-02  0.1306361E+00
         -1   -1    0    0    0  501 -0.00000000000E+00  0.00000000000E+00  0.27374833285E+02  0.27374833285E+02  0.00000000000E+00 0.  1.
          2   -1    0    0  502    0  0.00000000000E+00 -0.00000000000E+00 -0.81783833062E+03  0.81783833062E+03  0.00000000000E+00 0. -1.
         23    2    1    2    0    0  0.65321727872E+01 -0.38108487522E+02 -0.73779026038E+02  0.11691155197E+03  0.82036822213E+02 0.  0.
         24    2    1    2    0    0 -0.10496331768E+02  0.12705696608E+01 -0.60763646891E+03  0.61313124433E+03  0.81216113541E+02 0.  0.
        -11    1    4    4    0    0 -0.25129616825E+02  0.15995988883E+02 -0.84749445769E+02  0.89832276272E+02  0.00000000000E+00 0.  1.
         12    1    4    4    0    0  0.14633285057E+02 -0.14725419222E+02 -0.52288702314E+03  0.52329896806E+03  0.00000000000E+00 0. -1.
        -13    1    3    3    0    0 -0.29334309966E+02  0.83182404010E+01 -0.15447939168E+02  0.34180896552E+02  0.00000000000E+00 0.  1.
         13    1    3    3    0    0  0.35866482753E+02 -0.46426727923E+02 -0.58331086871E+02  0.82730655420E+02  0.00000000000E+00 0. -1.
         21    1    1    2  502  501  0.39641589808E+01  0.36837917862E+02 -0.10904800239E+03  0.11517036760E+03  0.00000000000E+00 0.  1.
<scales pt_clust_5="13000.00000" pt_clust_6="13000.00000" pt_clust_7="13000.00000" pt_clust_8="13000.00000" pt_clust_9="37.05060"></scales>
<clustering>
<clus scale="   37.051">  2  9  1 -1</clus>
<clus scale="   81.216">  5  6 -1 -1</clus>
<clus scale="   82.037">  7  8 -1 -1</clus>
<clus scale="   87.998">  2  5  1 -1</clus>
<clus scale="   37.051">  2  5  1 -1</clus>
</clustering>
</event>
<event>
 9    2  0.3791909E-005  0.9610250E+02  0.7546771E-02  0.1292673E+00
         -1   -1    0    0    0  501 -0.00000000000E+00  0.00000000000E+00  0.15330292597E+03  0.15330292597E+03  0.00000000000E+00 0.  1.
          2   -1    0    0  502    0  0.00000000000E+00 -0.00000000000E+00 -0.18206066718E+03  0.18206066718E+03  0.00000000000E+00 0. -1.
         23    2    1    2    0    0 -0.24093635804E+01 -0.37443811335E+02  0.82424690050E+02  0.12820282848E+03  0.90742997860E+02 0.  0.
         24    2    1    2    0    0  0.18324879201E+02  0.18333724944E+02  0.57981973691E+01  0.87565754272E+02  0.83439891901E+02 0.  0.
        -11    1    4    4    0    0 -0.33254716600E+02  0.51737188080E+01 -0.22450759973E+01  0.33729570242E+02  0.00000000000E+00 0.  1.
         12    1    4    4    0    0  0.51579595801E+02  0.13160006136E+02  0.80432733663E+01  0.53836184030E+02  0.00000000000E+00 0. -1.
        -13    1    3    3    0    0 -0.21509187638E+02 -0.24409711589E+02  0.96017830625E+02  0.10137999295E+03  0.00000000000E+00 0.  1.
         13    1    3    3    0    0  0.19099824058E+02 -0.13034099746E+02 -0.13593140575E+02  0.26822835531E+02  0.00000000000E+00 0. -1.
         21    1    1    2  502  501 -0.15915515620E+02  0.19110086391E+02 -0.11698062862E+03  0.11959501040E+03  0.00000000000E+00 0. -1.
<scales pt_clust_5="13000.00000" pt_clust_6="13000.00000" pt_clust_7="13000.00000" pt_clust_8="13000.00000" pt_clust_9="24.86964"></scales>
<clustering>
<clus scale="   24.870">  2  9  1 -1</clus>
<clus scale="   83.440">  5  6 -1 -1</clus>
<clus scale="   89.239">  2  5  1 -1</clus>
<clus scale="   90.743">  7  8 -1 -1</clus>
<clus scale="   24.870">  2  5  1 -1</clus>
</clustering>
</event>
<event>
 9    2  0.3791909E-005  0.2285625E+03  0.7546771E-02  0.1128331E+00
          2   -1    0    0  502    0  0.00000000000E+00  0.00000000000E+00  0.14882915933E+04  0.14882915933E+04  0.00000000000E+00 0. -1.
         -1   -1    0    0    0  501 -0.00000000000E+00 -0.00000000000E+00 -0.54369152626E+02  0.54369152626E+02  0.00000000000E+00 0.  1.
         23    2    1    2    0    0  0.27285997534E+02  0.20100271004E+03  0.28674411218E+03  0.36275464260E+03  0.90675960162E+02 0.  0.
         24    2    1    2    0    0 -0.27309532627E+02 -0.23076287163E+03  0.10373919997E+04  0.10661576714E+04  0.80701336946E+02 0.  0.
        -13    1    4    4    0    0 -0.49152362208E+02 -0.18304722666E+03  0.72372232460E+03  0.74812849500E+03  0.00000000000E+00 0.  1.
         14    1    4    4    0    0  0.21842829581E+02 -0.47715644974E+02  0.31366967509E+03  0.31802917641E+03  0.00000000000E+00 0. -1.
        -11    1    3    3    0    0 -0.19634544832E+01  0.12693709910E+03  0.10651674783E+03  0.16571873717E+03  0.00000000000E+00 0.  1.
         11    1    3    3    0    0  0.29249452017E+02  0.74065610947E+02  0.18022736435E+03  0.19703590543E+03  0.00000000000E+00 0. -1.
         21    1    1    2  502  501  0.23535093630E-01  0.29760161588E+02  0.10978632883E+03  0.11374843195E+03  0.00000000000E+00 0. -1.
<scales pt_clust_5="13000.00000" pt_clust_6="13000.00000" pt_clust_7="13000.00000" pt_clust_8="13000.00000" pt_clust_9="29.76017"></scales>
<clustering>
<clus scale="   29.760">  1  9  2 -1</clus>
<clus scale="   80.701">  5  6 -1 -1</clus>
<clus scale="   90.676">  7  8 -1 -1</clus>
<clus scale="  224.792">  1  5  2 -1</clus>
<clus scale="   29.760">  1  5  2 -1</clus>
</clustering>
</event>
<event>
 9    2  0.3791909E-005  0.1515324E+03  0.7546771E-02  0.1199368E+00
         -1   -1    0    0    0  501 -0.00000000000E+00  0.00000000000E+00  0.23075616037E+03  0.23075616037E+03  0.00000000000E+00 0.  1.
          2   -1    0    0  502    0  0.00000000000E+00 -0.00000000000E+00 -0.90143367369E+03  0.90143367369E+03  0.00000000000E+00 0. -1.
         23    2    1    2    0    0  0.30783315989E+02 -0.12479586859E+03  0.19443304224E+03  0.24867653056E+03  0.86684413685E+02 0.  0.
         24    2    1    2    0    0 -0.74107356236E+01  0.63562861224E+02 -0.38119197558E+03  0.39517638012E+03  0.82230729208E+02 0.  0.
        -11    1    4    4    0    0 -0.15315149620E+02  0.76725666549E+02 -0.36316408692E+03  0.37149634688E+03  0.00000000000E+00 0.  1.
         12    1    4    4    0    0  0.79044139965E+01 -0.13162805325E+02 -0.18027888662E+02  0.23680033240E+02  0.00000000000E+00 0. -1.
        -13    1    3    3    0    0  0.33043483693E+02 -0.56531946255E+02  0.15851387192E+03  0.17150621083E+03  0.00000000000E+00 0.  1.
         13    1    3    3    0    0 -0.22601677042E+01 -0.68263922336E+02  0.35919170318E+02  0.77170319729E+02  0.00000000000E+00 0. -1.
         21    1    1    2  502  501 -0.23372580366E+02  0.61233007367E+02 -0.48391857997E+03  0.48833692338E+03  0.00000000000E+00 0. -1.
<scales pt_clust_5="13000.00000" pt_clust_6="13000.00000" pt_clust_7="13000.00000" pt_clust_8="13000.00000" pt_clust_9="65.54204"></scales>
<clustering>
<clus scale="   65.542">  2  9  1 -1</clus>
<clus scale="   82.231">  5  6 -1 -1</clus>
<clus scale="   86.684">  7  8 -1 -1</clus>
<clus scale="  149.029">  2  5  1 -1</clus>
<clus scale="   65.542">  2  5  1 -1</clus>
</clustering>
</event>
<event>
 9    2  0.3791909E-005  0.2337320E+03  0.7546771E-02  0.1147878E+00
          2   -1    0    0  502    0  0.00000000000E+00  0.00000000000E+00  0.35315659764E+03  0.35315659764E+03  0.00000000000E+00 0. -1.
         -1   -1    0    0    0  501 -0.00000000000E+00 -0.00000000000E+00 -0.64014169906E+03  0.64014169906E+03  0.00000000000E+00 0.  1.
         24    2    1    2    0    0  0.16683716458E+03  0.17234348378E+03 -0.53306169831E+03  0.59011905476E+03  0.80924710074E+02 0.  0.
         23    2    1    2    0    0 -0.42742273001E+02 -0.84801347439E+02  0.20934265902E+03  0.24693408220E+03  0.90188256662E+02 0.  0.
        -11    1    3    3    0    0  0.63506526693E+02  0.30209217453E+02 -0.22176653967E+03  0.23265011040E+03  0.00000000000E+00 0.  1.
         12    1    3    3    0    0  0.10333063788E+03  0.14213426633E+03 -0.31129515864E+03  0.35746894436E+03  0.00000000000E+00 0. -1.
        -13    1    4    4    0    0 -0.35823970076E+02 -0.70519109143E+01  0.18894855636E+02  0.41110848314E+02  0.00000000000E+00 0.  1.
         13    1    4    4    0    0 -0.69183029248E+01 -0.77749436525E+02  0.19044780338E+03  0.20582323389E+03  0.00000000000E+00 0. -1.
         21    1    1    2  502  501 -0.12409489157E+03 -0.87542136340E+02  0.36733937874E+02  0.15624515974E+03  0.00000000000E+00 0. -1.
<scales pt_clust_5="13000.00000" pt_clust_6="13000.00000" pt_clust_7="13000.00000" pt_clust_8="13000.00000" pt_clust_9="219.27571"></scales>
<clustering>
<clus scale="   80.925">  5  6 -1 -1</clus>
<clus scale="   90.188">  7  8 -1 -1</clus>
<clus scale="  130.966">  1  7  2 -1</clus>
<clus scale="  219.276">  1  9  2 -1</clus>
<clus scale="  130.966">  1  5  2 -1</clus>
</clustering>
</event>
<event>
 9    2  0.3791909E-005  0.1422359E+03  0.7546771E-02  0.1212543E+00
         -1   -1    0    0    0  501 -0.00000000000E+00  0.00000000000E+00  0.13239701490E+03  0.13239701490E+03  0.00000000000E+00 0.  1.
          2   -1    0    0  502    0  0.00000000000E+00 -0.00000000000E+00 -0.40747891849E+03  0.40747891849E+03  0.00000000000E+00 0. -1.
         23    2    1    2    0    0  0.10014617801E+03 -0.55419761257E+02  0.65962220167E+02  0.16143286356E+03  0.92784416999E+02 0.  0.
         24    2    1    2    0    0 -0.76155068016E+02  0.10309567221E+02 -0.24313746081E+03  0.26800658304E+03  0.82497406890E+02 0.  0.
        -13    1    4    4    0    0 -0.71584966940E+02  0.84298246845E+01 -0.92403400991E+02  0.11719154385E+03  0.00000000000E+00 0.  1.
         14    1    4    4    0    0 -0.45701010763E+01  0.18797425369E+01 -0.15073405982E+03  0.15081503919E+03  0.00000000000E+00 0. -1.
        -13    1    3    3    0    0  0.74257155515E+02 -0.14466062381E+02 -0.46510630648E+01  0.75795939823E+02  0.00000000000E+00 0. -1.
         13    1    3    3    0    0  0.25889022498E+02 -0.40953698876E+02  0.70613283232E+02  0.85636923732E+02  0.00000000000E+00 0.  1.
         21    1    1    2  502  501 -0.23991109997E+02  0.45110194035E+02 -0.97906662946E+02  0.11043648679E+03  0.00000000000E+00 0. -1.
<scales pt_clust_5="13000.00000" pt_clust_6="13000.00000" pt_clust_7="13000.00000" pt_clust_8="13000.00000" pt_clust_9="51.09308"></scales>
<clustering>
<clus scale="   51.093">  2  9  1 -1</clus>
<clus scale="   82.497">  5  6 -1 -1</clus>
<clus scale="   92.784">  7  8 -1 -1</clus>
<clus scale="  135.749">  2  5  1 -1</clus>
<clus scale="   51.093">  2  5  1 -1</clus>
</clustering>
</event>
<event>
 9    2  0.3791909E-005  0.1328776E+03  0.7546771E-02  0.1229041E+00
         -1   -1    0    0    0  501 -0.00000000000E+00  0.00000000000E+00  0.81698761826E+02  0.81698761826E+02  0.00000000000E+00 0.  1.
          2   -1    0    0  502    0  0.00000000000E+00 -0.00000000000E+00 -0.78334185511E+03  0.78334185511E+03  0.00000000000E+00 0. -1.
         24    2    1    2    0    0  0.59353582159E+02 -0.66435082864E+02  0.26552274557E+02  0.12218438315E+03  0.79293961000E+02 0.  0.
         23    2    1    2    0    0 -0.38582649832E+02  0.51943005323E+02 -0.54531518279E+03  0.55823062877E+03  0.10032990408E+03 0.  0.
        -11    1    3    3    0    0  0.73022219347E+02 -0.71262670339E+02  0.31633302511E+02  0.10682358602E+03  0.00000000000E+00 0.  1.
         12    1    3    3    0    0 -0.13668637188E+02  0.48275874752E+01 -0.50810279536E+01  0.15360797130E+02  0.00000000000E+00 0. -1.
        -11    1    4    4    0    0 -0.71480342471E+02  0.38437765859E+02 -0.42865626449E+03  0.43627181239E+03  0.00000000000E+00 0. -1.
         11    1    4    4    0    0  0.32897692639E+02  0.13505239465E+02 -0.11665891830E+03  0.12195881638E+03  0.00000000000E+00 0.  1.
         21    1    1    2  502  501 -0.20770932328E+02  0.14492077541E+02 -0.18288018506E+03  0.18462560502E+03  0.00000000000E+00 0. -1.
<scales pt_clust_5="13000.00000" pt_clust_6="13000.00000" pt_clust_7="13000.00000" pt_clust_8="13000.00000" pt_clust_9="25.32690"></scales>
<clustering>
<clus scale="   25.327">  2  9  1 -1</clus>
<clus scale="   79.294">  5  6 -1 -1</clus>
<clus scale="  100.330">  7  8 -1 -1</clus>
<clus scale="  117.804">  1  5  2 -1</clus>
<clus scale="   25.327">  2  5  1 -1</clus>
</clustering>
</event>
<event>
 9    2  0.3791909E-005  0.1360349E+03  0.7546771E-02  0.1224475E+00
         -1   -1    0    0    0  501 -0.00000000000E+00  0.00000000000E+00  0.18446243220E+03  0.18446243220E+03  0.00000000000E+00 0.  1.
          2   -1    0    0  502    0  0.00000000000E+00 -0.00000000000E+00 -0.17780866079E+03  0.17780866079E+03  0.00000000000E+00 0. -1.
         24    2    1    2    0    0 -0.10250337078E+02  0.50359232306E+02  0.78549133298E+02  0.12267767094E+03  0.78985586762E+02 0.  0.
         23    2    1    2    0    0  0.58155743628E+02 -0.92261504789E+02 -0.89661625300E+02  0.17351491925E+03  0.10086597230E+03 0.  0.
        -13    1    3    3    0    0 -0.43889849462E+02  0.38468261360E+02  0.52503768987E+02  0.78503323342E+02  0.00000000000E+00 0.  1.
         14    1    3    3    0    0  0.33639512383E+02  0.11890970946E+02  0.26045364311E+02  0.44174347596E+02  0.00000000000E+00 0. -1.
        -11    1    4    4    0    0 -0.45985666433E+01 -0.41291341527E+02 -0.82477123849E+02  0.92350406922E+02  0.00000000000E+00 0. -1.
         11    1    4    4    0    0  0.62754310272E+02 -0.50970163262E+02 -0.71845014516E+01  0.81164512330E+02  0.00000000000E+00 0.  1.
         21    1    1    2  502  501 -0.47905406550E+02  0.41902272483E+02  0.17766263414E+02  0.66078502796E+02  0.00000000000E+00 0.  1.
<scales pt_clust_5="13000.00000" pt_clust_6="13000.00000" pt_clust_7="13000.00000" pt_clust_8="13000.00000" pt_clust_9="63.64533"></scales>
<clustering>
<clus scale="   63.645">  1  9  2 -1</clus>
<clus scale="   78.986">  5  6 -1 -1</clus>
<clus scale="  100.866">  7  8 -1 -1</clus>
<clus scale="  120.707">  1  5  2 -1</clus>
<clus scale="  136.035">  2  5  1 -1</clus>
</clustering>
</event>
<event>
 9    2  0.3791909E-005  0.3228355E+03  0.7546771E-02  0.1074538E+00
          2   -1    0    0  502    0  0.00000000000E+00  0.00000000000E+00  0.41384397257E+03  0.41384397257E+03  0.00000000000E+00 0. -1.
         -1   -1    0    0    0  501 -0.00000000000E+00 -0.00000000000E+00 -0.48739459969E+03  0.48739459969E+03  0.00000000000E+00 0.  1.
         23    2    1    2    0    0 -0.67607745089E+02 -0.30864244266E+03 -0.25965971839E+03  0.41810165470E+03  0.86918695911E+02 0.  0.
         24    2    1    2    0    0 -0.45711994035E+02  0.30892625522E+03  0.90823623456E+02  0.33508029257E+03  0.80652677136E+02 0.  0.
        -11    1    4    4    0    0 -0.42723365733E+02  0.20618310050E+03  0.22733690797E+02  0.21178663227E+03  0.00000000000E+00 0.  1.
         12    1    4    4    0    0 -0.29886283025E+01  0.10274315472E+03  0.68089932659E+02  0.12329366030E+03  0.00000000000E+00 0. -1.
        -11    1    3    3    0    0 -0.25406228866E+02 -0.21328960616E+02 -0.87085001310E+01  0.34296340923E+02  0.00000000000E+00 0. -1.
         11    1    3    3    0    0 -0.42201516223E+02 -0.28731348205E+03 -0.25095121826E+03  0.38380531378E+03  0.00000000000E+00 0.  1.
         21    1    1    2  502  501  0.11331973912E+03 -0.28381255745E+00  0.95285467812E+02  0.14805662498E+03  0.00000000000E+00 0. -1.
<scales pt_clust_5="13000.00000" pt_clust_6="13000.00000" pt_clust_7="13000.00000" pt_clust_8="13000.00000" pt_clust_9="113.32009"></scales>
<clustering>
<clus scale="   80.653">  5  6 -1 -1</clus>
<clus scale="   86.919">  7  8 -1 -1</clus>
<clus scale="  113.320">  1  9  2 -1</clus>
<clus scale="  321.205">  1  5  2 -1</clus>
<clus scale="  113.320">  1  5  2 -1</clus>
</clustering>
</event>
<event>
 9    2  0.4668004E-005  0.9447467E+02  0.7546771E-02  0.1294660E+00
          2   -1    0    0  502    0  0.00000000000E+00  0.00000000000E+00  0.57148062183E+03  0.57148062183E+03  0.00000000000E+00 0. -1.
         -1   -1    0    0    0  501 -0.00000000000E+00 -0.00000000000E+00 -0.12511157436E+03  0.12511157436E+03  0.00000000000E+00 0.  1.
         23    2    1    2    0    0  0.20259065566E+02  0.13111134078E+01 -0.99679861543E+02  0.13745101133E+03  0.92436772786E+02 0.  0.
         24    2    1    2    0    0  0.18910559528E+00  0.12778404356E+02  0.48637741420E+03  0.49450892118E+03  0.88389822400E+02 0.  0.
        -11    1    4    4    0    0  0.27510933926E+02 -0.19904825516E+02  0.96281805693E+02  0.10209426855E+03  0.00000000000E+00 0.  1.
         12    1    4    4    0    0 -0.27321828331E+02  0.32683229872E+02  0.39009560851E+03  0.39241465263E+03  0.00000000000E+00 0. -1.
        -11    1    3    3    0    0  0.33784995005E+02  0.31967974590E+02 -0.19283178793E+02  0.50350951046E+02  0.00000000000E+00 0.  1.
         11    1    3    3    0    0 -0.13525929439E+02 -0.30656861182E+02 -0.80396682750E+02  0.87100060286E+02  0.00000000000E+00 0. -1.
         21    1    1    2  502  501 -0.20448171161E+02 -0.14089517764E+02  0.59671494812E+02  0.64632263675E+02  0.00000000000E+00 0. -1.
<scales pt_clust_5="13000.00000" pt_clust_6="13000.00000" pt_clust_7="13000.00000" pt_clust_8="13000.00000" pt_clust_9="24.83228"></scales>
<clustering>
<clus scale="   24.832">  1  9  2 -1</clus>
<clus scale="   88.390">  5  6 -1 -1</clus>
<clus scale="   90.519">  1  5  2 -1</clus>
<clus scale="   92.437">  7  8 -1 -1</clus>
<clus scale="   24.832">  1  5  2 -1</clus>
</clustering>
</event>
<event>
 9    2  0.3791909E-005  0.1121534E+03  0.7546771E-02  0.1260946E+00
         -1   -1    0    0    0  501 -0.00000000000E+00  0.00000000000E+00  0.13723127272E+03  0.13723127272E+03  0.00000000000E+00 0.  1.
          2   -1    0    0  502    0  0.00000000000E+00 -0.00000000000E+00 -0.34932048105E+03  0.34932048105E+03  0.00000000000E+00 0. -1.
         24    2    1    2    0    0 -0.60228052288E+01  0.72236645504E+02  0.92411327022E+02  0.14105834945E+03  0.78122963661E+02 0.  0.
         23    2    1    2    0    0 -0.15956802121E+02 -0.14752963189E+02 -0.23577584832E+03  0.25324071070E+03  0.89823924708E+02 0.  0.
        -11    1    3    3    0    0  0.45369785573E+01  0.87667374709E+02  0.78332331228E+02  0.11765248352E+03  0.00000000000E+00 0.  1.
         12    1    3    3    0    0 -0.10559783786E+02 -0.15430729204E+02  0.14078995794E+02  0.23405865931E+02  0.00000000000E+00 0. -1.
        -11    1    4    4    0    0 -0.23092914599E+02 -0.33884148436E+02 -0.22756995256E+03  0.23123473253E+03  0.00000000000E+00 0. -1.
         11    1    4    4    0    0  0.71361124775E+01  0.19131185247E+02 -0.82058957622E+01  0.22005978176E+02  0.00000000000E+00 0.  1.
         21    1    1    2  502  501  0.21979607350E+02 -0.57483682315E+02 -0.68724687031E+02  0.92252693615E+02  0.00000000000E+00 0. -1.
<scales pt_clust_5="13000.00000" pt_clust_6="13000.00000" pt_clust_7="13000.00000" pt_clust_8="13000.00000" pt_clust_9="61.54248"></scales>
<clustering>
<clus scale="   61.542">  2  9  1 -1</clus>
<clus scale="   78.123">  5  6 -1 -1</clus>
<clus scale="   89.824">  7  8 -1 -1</clus>
<clus scale="  103.021">  1  5  2 -1</clus>
<clus scale="   61.542">  2  5  1 -1</clus>
</clustering>
</event>
<event>
 9    2  0.3791909E-005  0.1885527E+03  0.7546771E-02  0.1160766E+00
         -1   -1    0    0    0  501 -0.00000000000E+00  0.00000000000E+00  0.16691252187E+03  0.16691252187E+03  0.00000000000E+00 0.  1.
          2   -1    0    0  502    0  0.00000000000E+00 -0.00000000000E+00 -0.25064626443E+03  0.25064626443E+03  0.00000000000E+00 0. -1.
         23    2    1    2    0    0  0.13196059762E+03  0.85908846348E+02  0.47446616309E+01  0.18220305585E+03  0.91550600980E+02 0.  0.
         24    2    1    2    0    0 -0.14166675851E+03 -0.10642197720E+03 -0.80295579780E+02  0.21123195148E+03  0.82319192756E+02 0.  0.
        -13    1    4    4    0    0 -0.65084242219E+02 -0.94654128184E+02 -0.29547000049E+02  0.11861023472E+03  0.00000000000E+00 0.  1.
         14    1    4    4    0    0 -0.76582516289E+02 -0.11767849019E+02 -0.50748579731E+02  0.92621716764E+02  0.00000000000E+00 0. -1.
        -13    1    3    3    0    0  0.53396841672E+02  0.33830243278E+02  0.47136659685E+02  0.78851586839E+02  0.00000000000E+00 0.  1.
         13    1    3    3    0    0  0.78563755953E+02  0.52078603070E+02 -0.42391998054E+02  0.10335146901E+03  0.00000000000E+00 0. -1.
         21    1    1    2  502  501  0.97061608832E+01  0.20513130855E+02 -0.81828244124E+01  0.24123778973E+02  0.00000000000E+00 0.  1.
<scales pt_clust_5="13000.00000" pt_clust_6="13000.00000" pt_clust_7="13000.00000" pt_clust_8="13000.00000" pt_clust_9="22.69357"></scales>
<clustering>
<clus scale="   22.694">  2  9  1 -1</clus>
<clus scale="   82.319">  5  6 -1 -1</clus>
<clus scale="   91.551">  7  8 -1 -1</clus>
<clus scale="  184.247">  2  5  1 -1</clus>
<clus scale="   22.694">  2  5  1 -1</clus>
</clustering>
</event>
<event>
 9    2  0.3791909E-005  0.9209005E+02  0.7546771E-02  0.1304994E+00
          2   -1    0    0  502    0  0.00000000000E+00  0.00000000000E+00  0.60970393824E+02  0.60970393824E+02  0.00000000000E+00 0. -1.
         -1   -1    0    0    0  501 -0.00000000000E+00 -0.00000000000E+00 -0.51650545840E+03  0.51650545840E+03  0.00000000000E+00 0.  1.
         23    2    1    2    0    0  0.15115539592E+02 -0.36007201938E+01 -0.46187542859E+03  0.47101237750E+03  0.91007161770E+02 0.  0.
         24    2    1    2    0    0 -0.17212037603E+01 -0.15425087436E+02  0.13417289213E+02  0.82143267934E+02  0.79539907922E+02 0.  0.
        -11    1    4    4    0    0 -0.12767643887E+02 -0.43326364362E+02 -0.71946196560E+01  0.45737830417E+02  0.00000000000E+00 0.  1.
         12    1    4    4    0    0  0.11046440127E+02  0.27901276926E+02  0.20611908869E+02  0.36405437517E+02  0.00000000000E+00 0. -1.
        -11    1    3    3    0    0  0.46817458652E+02 -0.25856420207E+02 -0.25659256873E+03  0.26210718271E+03  0.00000000000E+00 0.  1.
         11    1    3    3    0    0 -0.31701919061E+02  0.22255700013E+02 -0.20528285986E+03  0.20890519479E+03  0.00000000000E+00 0. -1.
         21    1    1    2  502  501 -0.13394335831E+02  0.19025807630E+02 -0.70769251975E+01  0.24320206796E+02  0.00000000000E+00 0. -1.
<scales pt_clust_5="13000.00000" pt_clust_6="13000.00000" pt_clust_7="13000.00000" pt_clust_8="13000.00000" pt_clust_9="23.26778"></scales>
<clustering>
<clus scale="   23.268">  1  9  2 -1</clus>
<clus scale="   79.540">  5  6 -1 -1</clus>
<clus scale="   80.777">  1  5  2 -1</clus>
<clus scale="   91.007">  7  8 -1 -1</clus>
<clus scale="   23.268">  1  5  2 -1</clus>
</clustering>
</event>
<event>
 9    2  0.3791909E-005  0.1497932E+03  0.7546771E-02  0.1203095E+00
          2   -1    0    0  502    0  0.00000000000E+00  0.00000000000E+00  0.11778942994E+03  0.11778942994E+03  0.00000000000E+00 0. -1.
         -1   -1    0    0    0  501 -0.00000000000E+00 -0.00000000000E+00 -0.29394010203E+03  0.29394010203E+03  0.00000000000E+00 0.  1.
         23    2    1    2    0    0 -0.21113824400E+02 -0.69743049843E+02 -0.14170659490E+03  0.18353882442E+03  0.91081581269E+02 0.  0.
         24    2    1    2    0    0  0.26577337679E+02  0.12542072738E+03 -0.31767600962E+01  0.16410093558E+03  0.10238316034E+03 0.  0.
        -13    1    4    4    0    0  0.45609763563E+02  0.24305950789E+02  0.25015863382E+02  0.57417969284E+02  0.00000000000E+00 0.  1.
         14    1    4    4    0    0 -0.19032425883E+02  0.10111477659E+03 -0.28192623478E+02  0.10668296630E+03  0.00000000000E+00 0. -1.
        -13    1    3    3    0    0 -0.46645624372E+02 -0.76443450942E+02 -0.11740322337E+03  0.14765816037E+03  0.00000000000E+00 0.  1.
         13    1    3    3    0    0  0.25531799972E+02  0.67004010997E+01 -0.24303371532E+02  0.35880664048E+02  0.00000000000E+00 0. -1.
         21    1    1    2  502  501 -0.54635132795E+01 -0.55677677536E+02 -0.31267317098E+02  0.64089771974E+02  0.00000000000E+00 0.  1.
<scales pt_clust_5="13000.00000" pt_clust_6="13000.00000" pt_clust_7="13000.00000" pt_clust_8="13000.00000" pt_clust_9="55.94510"></scales>
<clustering>
<clus scale="   55.945">  2  9  1 -1</clus>
<clus scale="   91.082">  7  8 -1 -1</clus>
<clus scale="  102.383">  5  6 -1 -1</clus>
<clus scale="  142.308">  2  7  1 -1</clus>
<clus scale="  149.793">  1  5  2 -1</clus>
</clustering>
</event>
<event>
 9    2  0.3791909E-005  0.8930243E+02  0.7546771E-02  0.1311047E+00
          2   -1    0    0  502    0  0.00000000000E+00  0.00000000000E+00  0.43000523846E+03  0.43000523846E+03  0.00000000000E+00 0. -1.
         -1   -1    0    0    0  501 -0.00000000000E+00 -0.00000000000E+00 -0.10348193538E+03  0.10348193538E+03  0.00000000000E+00 0.  1.
         24    2    1    2    0    0  0.12794395245E+01 -0.52511501914E+00 -0.62149018898E+02  0.10064938952E+03  0.79157351829E+02 0.  0.
         23    2    1    2    0    0  0.49518375684E+02 -0.31208027198E+02  0.13420063063E+03  0.17141236085E+03  0.89142457322E+02 0.  0.
        -13    1    3    3    0    0  0.26184911419E+02  0.27735639087E+02 -0.45751794341E+02  0.59566281964E+02  0.00000000000E+00 0.  1.
         14    1    3    3    0    0 -0.24905471894E+02 -0.28260754106E+02 -0.16397224557E+02  0.41083107552E+02  0.00000000000E+00 0. -1.
        -11    1    4    4    0    0  0.23202299682E+02  0.31212567845E+02  0.49987345905E+02  0.63334870748E+02  0.00000000000E+00 0.  1.
         11    1    4    4    0    0  0.26316076002E+02 -0.62420595043E+02  0.84213284728E+02  0.10807749010E+03  0.00000000000E+00 0. -1.
         21    1    1    2  502  501 -0.50797815208E+02  0.31733142217E+02  0.25447169135E+03  0.26142542348E+03  0.00000000000E+00 0. -1.
<scales pt_clust_5="13000.00000" pt_clust_6="13000.00000" pt_clust_7="13000.00000" pt_clust_8="13000.00000" pt_clust_9="59.89499"></scales>
<clustering>
<clus scale="   59.895">  1  9  2 -1</clus>
<clus scale="   79.157">  5  6 -1 -1</clus>
<clus scale="   79.337">  2  5  1 -1</clus>
<clus scale="   89.142">  7  8 -1 -1</clus>
<clus scale="   59.895">  1  5  2 -1</clus>
</clustering>
</event>
<event>
 9    2  0.3791909E-005  0.1013315E+03  0.7546771E-02  0.1283271E+00
         -1   -1    0    0    0  501 -0.00000000000E+00  0.00000000000E+00  0.60476597071E+03  0.60476597071E+03  0.00000000000E+00 0.  1.
          2   -1    0    0  502    0  0.00000000000E+00 -0.00000000000E+00 -0.72257621367E+02  0.72257621367E+02  0.00000000000E+00 0. -1.
         23    2    1    2    0    0  0.32158997156E+02 -0.94763804305E+01  0.34352035409E+03  0.35702264196E+03  0.91295839506E+02 0.  0.
         24    2    1    2    0    0 -0.59883707433E+02  0.32758460026E+01  0.24098676033E+03  0.26074744595E+03  0.79484730163E+02 0.  0.
        -11    1    4    4    0    0 -0.59489644837E+02  0.42396866889E+01  0.24727901136E+03  0.25436961738E+03  0.00000000000E+00 0.  1.
         12    1    4    4    0    0 -0.39406259595E+00 -0.96384068625E+00 -0.62922510296E+01  0.63778285660E+01  0.00000000000E+00 0. -1.
        -11    1    3    3    0    0 -0.72976591987E+01  0.35566961925E+02  0.15618380929E+03  0.16034851697E+03  0.00000000000E+00 0. -1.
         11    1    3    3    0    0  0.39456656355E+02 -0.45043342356E+02  0.18733654481E+03  0.19667412499E+03  0.00000000000E+00 0.  1.
         21    1    1    2  502  501  0.27724710277E+02  0.62005344279E+01 -0.51998765080E+02  0.59253504174E+02  0.00000000000E+00 0. -1.
<scales pt_clust_5="13000.00000" pt_clust_6="13000.00000" pt_clust_7="13000.00000" pt_clust_8="13000.00000" pt_clust_9="28.40961"></scales>
<clustering>
<clus scale="   28.410">  2  9  1 -1</clus>
<clus scale="   79.485">  5  6 -1 -1</clus>
<clus scale="   90.835">  2  5  1 -1</clus>
<clus scale="   91.296">  7  8 -1 -1</clus>
<clus scale="   28.410">  2  5  1 -1</clus>
</clustering>
</event>
<event>
 9    2  0.3791909E-005  0.2451929E+03  0.7546771E-02  0.1151713E+00
         -1   -1    0    0    0  501 -0.00000000000E+00  0.00000000000E+00  0.39160576770E+03  0.39160576770E+03  0.00000000000E+00 0.  1.
          2   -1    0    0  502    0  0.00000000000E+00 -0.00000000000E+00 -0.25482599204E+03  0.25482599204E+03  0.00000000000E+00 0. -1.
         24    2    1    2    0    0  0.47681367713E+02 -0.44456079054E+02  0.12881861642E+03  0.16530200406E+03  0.80502551620E+02 0.  0.
         23    2    1    2    0    0 -0.47379610715E+02 -0.19903078418E+03  0.57589041444E+02  0.23263655595E+03  0.94579008812E+02 0.  0.
        -13    1    3    3    0    0  0.44156367505E+02 -0.39476121498E+02  0.14030564386E+03  0.15229518265E+03  0.00000000000E+00 0.  1.
         14    1    3    3    0    0  0.35250002078E+01 -0.49799575558E+01 -0.11487027439E+02  0.13006821407E+02  0.00000000000E+00 0. -1.
        -11    1    4    4    0    0 -0.60601658090E+02 -0.96965242131E+02  0.61124728139E+02  0.12965743918E+03  0.00000000000E+00 0. -1.
         11    1    4    4    0    0  0.13222047376E+02 -0.10206554204E+03 -0.35356866957E+01  0.10297911677E+03  0.00000000000E+00 0.  1.
         21    1    1    2  502  501 -0.30175699851E+00  0.24348686323E+03 -0.49627882202E+02  0.24849319973E+03  0.00000000000E+00 0.  1.
<scales pt_clust_5="13000.00000" pt_clust_6="13000.00000" pt_clust_7="13000.00000" pt_clust_8="13000.00000" pt_clust_9="226.21748"></scales>
<clustering>
<clus scale="   80.503">  5  6 -1 -1</clus>
<clus scale="   94.579">  7  8 -1 -1</clus>
<clus scale="  103.588">  1  5  2 -1</clus>
<clus scale="  226.217">  2  9  1 -1</clus>
<clus scale="  226.217">  2  5  1 -1</clus>
</clustering>
</event>
<event>
 9    2  0.3791909E-005  0.1414532E+03  0.7546771E-02  0.1224480E+00
          2   -1    0    0  502    0  0.00000000000E+00  0.00000000000E+00  0.13074764132E+04  0.13074764132E+04  0.00000000000E+00 0. -1.
         -1   -1    0    0    0  501 -0.00000000000E+00 -0.00000000000E+00 -0.40117991261E+02  0.40117991261E+02  0.00000000000E+00 0.  1.
         23    2    1    2    0    0  0.26238365288E+02  0.50942872596E+02  0.91001436211E+02  0.14073120593E+03  0.90776554516E+02 0.  0.
         24    2    1    2    0    0  0.98014551475E+02 -0.49861498897E+02  0.45856455211E+03  0.47839498752E+03  0.80543741251E+02 0.  0.
        -11    1    4    4    0    0  0.56370679243E+02  0.15631650079E+02  0.18435000682E+03  0.19340870451E+03  0.00000000000E+00 0.  1.
         12    1    4    4    0    0  0.41643872232E+02 -0.65493148976E+02  0.27421454529E+03  0.28498628301E+03  0.00000000000E+00 0. -1.
        -13    1    3    3    0    0  0.35489047130E+02 -0.15880270009E+02  0.42780625619E+02  0.57808627125E+02  0.00000000000E+00 0.  1.
         13    1    3    3    0    0 -0.92506818418E+01  0.66823142605E+02  0.48220810592E+02  0.82922578809E+02  0.00000000000E+00 0. -1.
         21    1    1    2  502  501 -0.12425291676E+03 -0.10813736997E+01  0.71779243357E+03  0.72846821096E+03  0.00000000000E+00 0. -1.
<scales pt_clust_5="13000.00000" pt_clust_6="13000.00000" pt_clust_7="13000.00000" pt_clust_8="13000.00000" pt_clust_9="116.28285"></scales>
<clustering>
<clus scale="   80.544">  5  6 -1 -1</clus>
<clus scale="   90.777">  7  8 -1 -1</clus>
<clus scale="  107.350">  2  7  1 -1</clus>
<clus scale="  116.283">  1  9  2 -1</clus>
<clus scale="  116.283">  1  5  2 -1</clus>
</clustering>
</event>
<event>
 9    2  0.3791909E-005  0.9519338E+02  0.7546771E-02  0.1297263E+00
         -1   -1    0    0    0  501 -0.00000000000E+00  0.00000000000E+00  0.27461490380E+03  0.27461490380E+03  0.00000000000E+00 0.  1.
          2   -1    0    0  502    0  0.00000000000E+00 -0.00000000000E+00 -0.59150533121E+02  0.59150533121E+02  0.00000000000E+00 0. -1.
         24    2    1    2    0    0  0.35760975238E+01 -0.49526271949E+02  0.17384099554E+03  0.19784833092E+03  0.80359381725E+02 0.  0.
         23    2    1    2    0    0 -0.17055736581E+01  0.18325783895E+02  0.14747992453E+02  0.94695079014E+02  0.91711020991E+02 0.  0.
        -13    1    3    3    0    0  0.41872208655E+02 -0.27286487189E+02  0.85737084902E+02  0.99240525836E+02  0.00000000000E+00 0.  1.
         14    1    3    3    0    0 -0.38296111131E+02 -0.22239784760E+02  0.88103910641E+02  0.98607805088E+02  0.00000000000E+00 0. -1.
        -13    1    4    4    0    0  0.26256172104E+02 -0.26716105783E+02  0.18042835687E+02  0.41577407343E+02  0.00000000000E+00 0.  1.
         13    1    4    4    0    0 -0.27961745762E+02  0.45041889678E+02 -0.32948432336E+01  0.53117671671E+02  0.00000000000E+00 0. -1.
         21    1    1    2  502  501 -0.18705238657E+01  0.31200488054E+02  0.26875382682E+02  0.41222026984E+02  0.00000000000E+00 0. -1.
<scales pt_clust_5="13000.00000" pt_clust_6="13000.00000" pt_clust_7="13000.00000" pt_clust_8="13000.00000" pt_clust_9="31.25651"></scales>
<clustering>
<clus scale="   31.257">  1  9  2 -1</clus>
<clus scale="   80.359">  5  6 -1 -1</clus>
<clus scale="   84.312">  1  5  2 -1</clus>
<clus scale="   91.711">  7  8 -1 -1</clus>
<clus scale="   95.193">  2  5  1 -1</clus>
</clustering>
</event>
<event>
 9    2  0.3791909E-005  0.9449493E+02  0.7546771E-02  0.1300166E+00
         -1   -1    0    0    0  501 -0.00000000000E+00  0.00000000000E+00  0.44508487858E+03  0.44508487858E+03  0.00000000000E+00 0.  1.
          2   -1    0    0  502    0  0.00000000000E+00 -0.00000000000E+00 -0.57288387930E+02  0.57288387930E+02  0.00000000000E+00 0. -1.
         24    2    1    2    0    0  0.12037485093E+02  0.24804308989E+02  0.37617407290E+03  0.38510380294E+03  0.77703610782E+02 0.  0.
         23    2    1    2    0    0  0.50689954215E+00 -0.69411896676E+01  0.20669151977E+02  0.93641175054E+02  0.91066013204E+02 0.  0.
        -11    1    3    3    0    0  0.88404644784E+01  0.48759201658E+02  0.15783392184E+03  0.16543022832E+03  0.00000000000E+00 0.  1.
         12    1    3    3    0    0  0.31970206145E+01 -0.23954892669E+02  0.21834015106E+03  0.21967357462E+03  0.00000000000E+00 0. -1.
        -13    1    4    4    0    0  0.40510836893E+02 -0.14728117190E+02 -0.79625139464E+01  0.43834312702E+02  0.00000000000E+00 0. -1.
         13    1    4    4    0    0 -0.40003937351E+02  0.77869275228E+01  0.28631665923E+02  0.49806862352E+02  0.00000000000E+00 0.  1.
         21    1    1    2  502  501 -0.12544384635E+02 -0.17863119322E+02 -0.90467342267E+01  0.23628288511E+02  0.00000000000E+00 0.  1.
<scales pt_clust_5="13000.00000" pt_clust_6="13000.00000" pt_clust_7="13000.00000" pt_clust_8="13000.00000" pt_clust_9="21.82779"></scales>
<clustering>
<clus scale="   21.828">  2  9  1 -1</clus>
<clus scale="   77.704">  5  6 -1 -1</clus>
<clus scale="   81.695">  1  5  2 -1</clus>
<clus scale="   91.066">  7  8 -1 -1</clus>
<clus scale="   21.828">  2  5  1 -1</clus>
</clustering>
</event>
<event>
 9    2  0.3791909E-005  0.9594462E+02  0.7546771E-02  0.1292143E+00
          2   -1    0    0  502    0  0.00000000000E+00  0.00000000000E+00  0.38590397006E+03  0.38590397006E+03  0.00000000000E+00 0. -1.
         -1   -1    0    0    0  501 -0.00000000000E+00 -0.00000000000E+00 -0.20214989640E+03  0.20214989640E+03  0.00000000000E+00 0.  1.
         24    2    1    2    0    0 -0.11356625318E+02  0.25208742180E+02 -0.17848735458E+03  0.20018595942E+03  0.86326293684E+02 0.  0.
         23    2    1    2    0    0  0.30880860656E+02 -0.10559884935E+02  0.18689186886E+03  0.21082764958E+03  0.91948836092E+02 0.  0.
        -13    1    3    3    0    0 -0.94746326232E+01  0.51862475567E+02 -0.65498013811E+02  0.84080169175E+02  0.00000000000E+00 0.  1.
         14    1    3    3    0    0 -0.18819926953E+01 -0.26653733388E+02 -0.11298934077E+03  0.11610579024E+03  0.00000000000E+00 0. -1.
        -11    1    4    4    0    0  0.55501384773E+02 -0.11317131291E+02  0.17407808198E+03  0.18306190154E+03  0.00000000000E+00 0. -1.
         11    1    4    4    0    0 -0.24620524117E+02  0.75724635604E+00  0.12813786880E+02  0.27765748037E+02  0.00000000000E+00 0.  1.
         21    1    1    2  502  501 -0.19524235338E+02 -0.14648857245E+02  0.17534955939E+03  0.17704025746E+03  0.00000000000E+00 0. -1.
<scales pt_clust_5="13000.00000" pt_clust_6="13000.00000" pt_clust_7="13000.00000" pt_clust_8="13000.00000" pt_clust_9="24.40870"></scales>
<clustering>
<clus scale="   24.409">  1  9  2 -1</clus>
<clus scale="   86.326">  5  6 -1 -1</clus>
<clus scale="   90.570">  2  5  1 -1</clus>
<clus scale="   91.949">  7  8 -1 -1</clus>
<clus scale="   24.409">  1  5  2 -1</clus>
</clustering>
</event>
<event>
 9    2  0.3791909E-005  0.1072929E+03  0.7546771E-02  0.1271605E+00
          2   -1    0    0  502    0  0.00000000000E+00  0.00000000000E+00  0.23283254631E+03  0.23283254631E+03  0.00000000000E+00 0. -1.
         -1   -1    0    0    0  501 -0.00000000000E+00 -0.00000000000E+00 -0.12046592985E+03  0.12046592985E+03  0.00000000000E+00 0.  1.
         23    2    1    2    0    0  0.30292341179E+01  0.64381976019E+02 -0.43588110368E+02  0.12204862468E+03  0.94030464873E+02 0.  0.
         24    2    1    2    0    0 -0.50664118751E+02 -0.12729595222E+02  0.63180121474E+02  0.11487039422E+03  0.80464800967E+02 0.  0.
        -11    1    4    4    0    0 -0.16374243281E+02 -0.27905282170E+02 -0.89550919981E+01  0.33571033477E+02  0.00000000000E+00 0.  1.
         12    1    4    4    0    0 -0.34289875470E+02  0.15175686947E+02  0.72135213472E+02  0.81299360740E+02  0.00000000000E+00 0. -1.
        -11    1    3    3    0    0 -0.23227285529E+02 -0.16672179722E+02 -0.77967804333E+01  0.29635420612E+02  0.00000000000E+00 0.  1.
         11    1    3    3    0    0  0.26256519647E+02  0.81054155741E+02 -0.35791329934E+02  0.92413204064E+02  0.00000000000E+00 0. -1.
         21    1    1    2  502  501  0.47634884633E+02 -0.51652380797E+02  0.92774605357E+02  0.11637945727E+03  0.00000000000E+00 0.  1.
<scales pt_clust_5="13000.00000" pt_clust_6="13000.00000" pt_clust_7="13000.00000" pt_clust_8="13000.00000" pt_clust_9="70.26415"></scales>
<clustering>
<clus scale="   70.264">  1  9  2 -1</clus>
<clus scale="   80.465">  5  6 -1 -1</clus>
<clus scale="   94.030">  7  8 -1 -1</clus>
<clus scale="   95.627">  1  5  2 -1</clus>
<clus scale="   70.264">  1  5  2 -1</clus>
</clustering>
</event>
<event>
 9    2  0.3791909E-005  0.1003185E+03  0.7546771E-02  0.1286706E+00
          4   -1    0    0  502    0  0.00000000000E+00  0.00000000000E+00  0.15686766218E+03  0.15686766218E+03  0.00000000000E+00 0. -1.
         -3   -1    0    0    0  501 -0.00000000000E+00 -0.00000000000E+00 -0.23822437773E+03  0.23822437773E+03  0.00000000000E+00 0.  1.
         23    2    1    2    0    0 -0.26725066637E+02 -0.27226812737E+02 -0.20419704199E+03  0.22798759116E+03  0.93948822479E+02 0.  0.
         24    2    1    2    0    0  0.10993921941E+02  0.89193691824E+01  0.64680627399E+02  0.10413475767E+03  0.80374390992E+02 0.  0.
        -11    1    4    4    0    0 -0.15052409258E+02 -0.27827038543E+02  0.44935729292E+02  0.54955790100E+02  0.00000000000E+00 0.  1.
         12    1    4    4    0    0  0.26046331199E+02  0.36746407725E+02  0.19744898106E+02  0.49178967566E+02  0.00000000000E+00 0. -1.
        -13    1    3    3    0    0  0.34155822250E+02 -0.21075668261E+02 -0.85174743741E+02  0.94157001639E+02  0.00000000000E+00 0. -1.
         13    1    3    3    0    0 -0.60880888888E+02 -0.61511444766E+01 -0.11902229825E+03  0.13383058952E+03  0.00000000000E+00 0.  1.
         21    1    1    2  502  501  0.15731144697E+02  0.18307443555E+02  0.58159699042E+02  0.62969691087E+02  0.00000000000E+00 0. -1.
<scales pt_clust_5="13000.00000" pt_clust_6="13000.00000" pt_clust_7="13000.00000" pt_clust_8="13000.00000" pt_clust_9="24.13776"></scales>
<clustering>
<clus scale="   24.138">  1  9  2 -1</clus>
<clus scale="   80.374">  5  6 -1 -1</clus>
<clus scale="   87.735">  1  5  2 -1</clus>
<clus scale="   93.949">  7  8 -1 -1</clus>
<clus scale="   24.138">  1  5  2 -1</clus>
</clustering>
</event>
<event>
 9    2  0.3791909E-005  0.9164411E+02  0.7546771E-02  0.1305485E+00
         -1   -1    0    0    0  501 -0.00000000000E+00  0.00000000000E+00  0.38392741639E+02  0.38392741639E+02  0.00000000000E+00 0.  1.
          2   -1    0    0  502    0  0.00000000000E+00 -0.00000000000E+00 -0.37347999166E+03  0.37347999166E+03  0.00000000000E+00 0. -1.
         23    2    1    2    0    0  0.81704882004E+01  0.12868070181E+01 -0.53174784565E+02  0.10547367887E+03  0.90712328114E+02 0.  0.
         24    2    1    2    0    0 -0.16925658726E+02  0.25672670223E+02 -0.16392889872E+03  0.18505825979E+03  0.80176753237E+02 0.  0.
        -13    1    4    4    0    0  0.56565045219E+01 -0.22887618038E+02 -0.18149282779E+02  0.29752908568E+02  0.00000000000E+00 0.  1.
         14    1    4    4    0    0 -0.22582163248E+02  0.48560288261E+02 -0.14577961594E+03  0.15530535122E+03  0.00000000000E+00 0. -1.
        -11    1    3    3    0    0  0.14272796044E+02 -0.29156786328E+02  0.10923396697E+02  0.34251299119E+02  0.00000000000E+00 0.  1.
         11    1    3    3    0    0 -0.61023078439E+01  0.30443593346E+02 -0.64098181262E+02  0.71222379755E+02  0.00000000000E+00 0. -1.
         21    1    1    2  502  501  0.87551705253E+01 -0.26959477241E+02 -0.11798356674E+03  0.12134079464E+03  0.00000000000E+00 0.  1.
<scales pt_clust_5="13000.00000" pt_clust_6="13000.00000" pt_clust_7="13000.00000" pt_clust_8="13000.00000" pt_clust_9="28.34548"></scales>
<clustering>
<clus scale="   28.345">  2  9  1 -1</clus>
<clus scale="   80.177">  5  6 -1 -1</clus>
<clus scale="   81.229">  2  5  1 -1</clus>
<clus scale="   90.712">  7  8 -1 -1</clus>
<clus scale="   28.345">  2  5  1 -1</clus>
</clustering>
</event>
<event>
 9    2  0.3791909E-005  0.1073760E+03  0.7546771E-02  0.1278720E+00
          2   -1    0    0  502    0  0.00000000000E+00  0.00000000000E+00  0.25403225708E+03  0.25403225708E+03  0.00000000000E+00 0. -1.
         -1   -1    0    0    0  501 -0.00000000000E+00 -0.00000000000E+00 -0.97674216180E+02  0.97674216180E+02  0.00000000000E+00 0.  1.
         23    2    1    2    0    0 -0.20025979626E+02 -0.51292346224E+01 -0.13582633563E+02  0.10819836677E+03  0.10533304196E+03 0.  0.
         24    2    1    2    0    0 -0.56169347813E+01  0.35951152774E+02  0.23232415811E+02  0.91419767508E+02  0.80584076620E+02 0.  0.
        -11    1    4    4    0    0 -0.36722573174E+02  0.40417804524E+02  0.44043753815E+01  0.54786356199E+02  0.00000000000E+00 0.  1.
         12    1    4    4    0    0  0.31105638393E+02 -0.44666517504E+01  0.18828040430E+02  0.36633411309E+02  0.00000000000E+00 0. -1.
        -11    1    3    3    0    0  0.10260416329E+02  0.28317222023E+02  0.32080175856E+02  0.44003169082E+02  0.00000000000E+00 0.  1.
         11    1    3    3    0    0 -0.30286395955E+02 -0.33446456646E+02 -0.45662809418E+02  0.64195197687E+02  0.00000000000E+00 0. -1.
         21    1    1    2  502  501  0.25642914408E+02 -0.30821918152E+02  0.14670825865E+03  0.15208833898E+03  0.00000000000E+00 0. -1.
<scales pt_clust_5="13000.00000" pt_clust_6="13000.00000" pt_clust_7="13000.00000" pt_clust_8="13000.00000" pt_clust_9="40.09426"></scales>
<clustering>
<clus scale="   40.094">  1  9  2 -1</clus>
<clus scale="   80.584">  5  6 -1 -1</clus>
<clus scale="   83.237">  1  5  2 -1</clus>
<clus scale="  105.333">  7  8 -1 -1</clus>
<clus scale="   40.094">  1  5  2 -1</clus>
</clustering>
</event>
<event>
 9    2  0.3791909E-005  0.9185628E+02  0.7546771E-02  0.1305615E+00
          2   -1    0    0  502    0  0.00000000000E+00  0.00000000000E+00  0.22915884206E+03  0.22915884206E+03  0.00000000000E+00 0. -1.
         -1   -1    0    0    0  501 -0.00000000000E+00 -0.00000000000E+00 -0.96838125934E+02  0.96838125934E+02  0.00000000000E+00 0.  1.
         23    2    1    2    0    0  0.31073302700E+01  0.80622967492E+01 -0.56882354075E+02  0.10806613626E+03  0.91476945028E+02 0.  0.
         24    2    1    2    0    0 -0.19660728905E+02  0.46421169839E+01  0.12002132074E+03  0.14567066571E+03  0.80042063346E+02 0.  0.
        -11    1    4    4    0    0 -0.95451133259E+01  0.24688605641E+02  0.31435641082E+01  0.26655551621E+02  0.00000000000E+00 0.  1.
         12    1    4    4    0    0 -0.10115615579E+02 -0.20046488657E+02  0.11687775664E+03  0.11901511409E+03  0.00000000000E+00 0. -1.
        -13    1    3    3    0    0  0.12107270541E+02  0.26234561948E+02 -0.75311733009E+02  0.80664089713E+02  0.00000000000E+00 0.  1.
         13    1    3    3    0    0 -0.89999402710E+01 -0.18172265199E+02  0.18429378933E+02  0.27402046551E+02  0.00000000000E+00 0. -1.
         21    1    1    2  502  501  0.16553398635E+02 -0.12704413733E+02  0.69181749454E+02  0.72260166013E+02  0.00000000000E+00 0. -1.
<scales pt_clust_5="13000.00000" pt_clust_6="13000.00000" pt_clust_7="13000.00000" pt_clust_8="13000.00000" pt_clust_9="20.86665"></scales>
<clustering>
<clus scale="   20.867">  1  9  2 -1</clus>
<clus scale="   80.042">  5  6 -1 -1</clus>
<clus scale="   80.475">  1  5  2 -1</clus>
<clus scale="   91.477">  7  8 -1 -1</clus>
<clus scale="   20.867">  1  5  2 -1</clus>
</clustering>
</event>
<event>
 9    2  0.3791909E-005  0.1185322E+03  0.7546771E-02  0.1249173E+00
         -1   -1    0    0    0  501 -0.00000000000E+00  0.00000000000E+00  0.20856767798E+03  0.20856767798E+03  0.00000000000E+00 0.  1.
          2   -1    0    0  502    0  0.00000000000E+00 -0.00000000000E+00 -0.20153348766E+03  0.20153348766E+03  0.00000000000E+00 0. -1.
         24    2    1    2    0    0 -0.91561161808E+01  0.67101084470E+02  0.11759937024E+03  0.15775363677E+03  0.80437603342E+02 0.  0.
         23    2    1    2    0    0 -0.13487600553E+02 -0.10489459974E+03 -0.72737640135E+01  0.14005236288E+03  0.91525757484E+02 0.  0.
        -13    1    3    3    0    0 -0.37681725504E+02  0.15064778074E+02  0.72995114302E+02  0.83517343632E+02  0.00000000000E+00 0.  1.
         14    1    3    3    0    0  0.28525609323E+02  0.52036306396E+02  0.44604255942E+02  0.74236293137E+02  0.00000000000E+00 0. -1.
        -11    1    4    4    0    0 -0.44986640549E+02 -0.97408188588E+02 -0.24835146570E+01  0.10732344048E+03  0.00000000000E+00 0.  1.
         11    1    4    4    0    0  0.31499039996E+02 -0.74864111495E+01 -0.47902493565E+01  0.32728922400E+02  0.00000000000E+00 0. -1.
         21    1    1    2  502  501  0.22643716734E+02  0.37793515267E+02 -0.10329141591E+03  0.11229516599E+03  0.00000000000E+00 0. -1.
<scales pt_clust_5="13000.00000" pt_clust_6="13000.00000" pt_clust_7="13000.00000" pt_clust_8="13000.00000" pt_clust_9="44.05778"></scales>
<clustering>
<clus scale="   44.058">  2  9  1 -1</clus>
<clus scale="   80.438">  5  6 -1 -1</clus>
<clus scale="   91.526">  7  8 -1 -1</clus>
<clus scale="  110.196">  1  5  2 -1</clus>
<clus scale="   44.058">  2  5  1 -1</clus>
</clustering>
</event>
<event>
 9    2  0.3791909E-005  0.1994482E+03  0.7546771E-02  0.1150823E+00
          4   -1    0    0  502    0  0.00000000000E+00  0.00000000000E+00  0.97619320454E+02  0.97619320454E+02  0.00000000000E+00 0. -1.
         -3   -1    0    0    0  501 -0.00000000000E+00 -0.00000000000E+00 -0.46983199360E+03  0.46983199360E+03  0.00000000000E+00 0.  1.
         23    2    1    2    0    0 -0.16235373992E+03  0.57604766584E+02 -0.22590941604E+03  0.29873629540E+03  0.92364841447E+02 0.  0.
         24    2    1    2    0    0  0.16671587012E+03 -0.77167944739E+02 -0.14356832701E+03  0.24848568446E+03  0.85931355259E+02 0.  0.
        -11    1    4    4    0    0  0.36623398146E+02 -0.35151000859E+02 -0.86600091396E+02  0.10038148227E+03  0.00000000000E+00 0.  1.
         12    1    4    4    0    0  0.13009247198E+03 -0.42016943879E+02 -0.56968235615E+02  0.14810420219E+03  0.00000000000E+00 0. -1.
        -11    1    3    3    0    0 -0.15535352059E+03  0.35425741933E+02 -0.22467967830E+03  0.27544628767E+03  0.00000000000E+00 0.  1.
         11    1    3    3    0    0 -0.70002193326E+01  0.22179024651E+02 -0.12297377387E+01  0.23290007730E+02  0.00000000000E+00 0. -1.
         21    1    1    2  502  501 -0.43621302004E+01  0.19563178154E+02 -0.27349301040E+01  0.20229334197E+02  0.00000000000E+00 0.  1.
<scales pt_clust_5="13000.00000" pt_clust_6="13000.00000" pt_clust_7="13000.00000" pt_clust_8="13000.00000" pt_clust_9="20.04361"></scales>
<clustering>
<clus scale="   20.044">  1  9  2 -1</clus>
<clus scale="   85.931">  5  6 -1 -1</clus>
<clus scale="   92.365">  7  8 -1 -1</clus>
<clus scale="  196.552">  1  5  2 -1</clus>
<clus scale="   20.044">  1  5  2 -1</clus>
</clustering>
</event>
<event>
 9    2  0.3791909E-005  0.9655383E+02  0.7546771E-02  0.1299766E+00
          2   -1    0    0  502    0  0.00000000000E+00  0.00000000000E+00  0.78176483763E+03  0.78176483763E+03  0.00000000000E+00 0. -1.
         -1   -1    0    0    0  501 -0.00000000000E+00 -0.00000000000E+00 -0.13626989312E+02  0.13626989312E+02  0.00000000000E+00 0.  1.
         23    2    1    2    0    0  0.18763106034E+02 -0.29401954063E+02  0.30944326159E+03  0.32477114361E+03  0.92220575419E+02 0.  0.
         24    2    1    2    0    0  0.88420635390E+01  0.26895777607E+02  0.31566215477E+03  0.32492715945E+03  0.71648433720E+02 0.  0.
        -13    1    4    4    0    0 -0.13164562487E+02  0.31347817710E+02  0.65863226972E+02  0.74121225353E+02  0.00000000000E+00 0.  1.
         14    1    4    4    0    0  0.22006626026E+02 -0.44520401031E+01  0.24979892779E+03  0.25080593409E+03  0.00000000000E+00 0. -1.
        -13    1    3    3    0    0  0.56309470228E+02 -0.16725403215E+02  0.17385370626E+03  0.18350914618E+03  0.00000000000E+00 0. -1.
         13    1    3    3    0    0 -0.37546364195E+02 -0.12676550848E+02  0.13558955533E+03  0.14126199744E+03  0.00000000000E+00 0.  1.
         21    1    1    2  502  501 -0.27605169573E+02  0.25061764553E+01  0.14303243197E+03  0.14569352388E+03  0.00000000000E+00 0. -1.
<scales pt_clust_5="13000.00000" pt_clust_6="13000.00000" pt_clust_7="13000.00000" pt_clust_8="13000.00000" pt_clust_9="27.71870"></scales>
<clustering>
<clus scale="   27.719">  1  9  2 -1</clus>
<clus scale="   71.648">  5  6 -1 -1</clus>
<clus scale="   77.146">  1  5  2 -1</clus>
<clus scale="   92.221">  7  8 -1 -1</clus>
<clus scale="   27.719">  1  5  2 -1</clus>
</clustering>
</event>
<event>
 9    2  0.3791909E-005  0.3148979E+03  0.7546771E-02  0.1078495E+00
         -1   -1    0    0    0  501 -0.00000000000E+00  0.00000000000E+00  0.38920936900E+03  0.38920936900E+03  0.00000000000E+00 0.  1.
          2   -1    0    0  502    0  0.00000000000E+00 -0.00000000000E+00 -0.74524560450E+03  0.74524560450E+03  0.00000000000E+00 0. -1.
         23    2    1    2    0    0  0.30397732353E+03  0.15977057156E+02  0.27927928432E+03  0.42307882734E+03  0.91330695364E+02 0.  0.
         24    2    1    2    0    0 -0.27658179790E+03  0.23736277153E+01 -0.56355244157E+03  0.63240018869E+03  0.76390570178E+02 0.  0.
        -11    1    4    4    0    0 -0.86520159457E+02 -0.24432303493E+02 -0.12788214504E+03  0.15632184258E+03  0.00000000000E+00 0.  1.
         12    1    4    4    0    0 -0.19006163844E+03  0.26805931209E+02 -0.43567029653E+03  0.47607834611E+03  0.00000000000E+00 0. -1.
        -13    1    3    3    0    0  0.18250225458E+03 -0.32090920508E+02  0.18603698991E+03  0.26257696343E+03  0.00000000000E+00 0. -1.
         13    1    3    3    0    0  0.12147506895E+03  0.48067977665E+02  0.93242294407E+02  0.16050186391E+03  0.00000000000E+00 0.  1.
         21    1    1    2  502  501 -0.27395525638E+02 -0.18350684872E+02 -0.71763078244E+02  0.78975957476E+02  0.00000000000E+00 0. -1.
<scales pt_clust_5="13000.00000" pt_clust_6="13000.00000" pt_clust_7="13000.00000" pt_clust_8="13000.00000" pt_clust_9="32.97366"></scales>
<clustering>
<clus scale="   32.974">  2  9  1 -1</clus>
<clus scale="   76.391">  5  6 -1 -1</clus>
<clus scale="   91.331">  7  8 -1 -1</clus>
<clus scale="  310.894">  2  5  1 -1</clus>
<clus scale="   32.974">  2  5  1 -1</clus>
</clustering>
</event>
<event>
 9    2  0.3791909E-005  0.1031796E+03  0.7546771E-02  0.1277153E+00
         -1   -1    0    0    0  501 -0.00000000000E+00  0.00000000000E+00  0.28718311619E+02  0.28718311619E+02  0.00000000000E+00 0.  1.
          2   -1    0    0  502    0  0.00000000000E+00 -0.00000000000E+00 -0.47718859529E+03  0.47718859529E+03  0.00000000000E+00 0. -1.
         24    2    1    2    0    0  0.35900811842E+02 -0.22859442590E+02 -0.16901212164E+03  0.19251609200E+03  0.81767511968E+02 0.  0.
         23    2    1    2    0    0 -0.38321685063E+02  0.50106705942E+02 -0.18375532476E+03  0.21385535866E+03  0.89380431442E+02 0.  0.
        -13    1    3    3    0    0  0.39419871968E+01 -0.27110169617E+02 -0.83332960158E+01  0.28634670982E+02  0.00000000000E+00 0.  1.
         14    1    3    3    0    0  0.31958824645E+02  0.42507270270E+01 -0.16067882562E+03  0.16388142102E+03  0.00000000000E+00 0. -1.
        -13    1    4    4    0    0 -0.45589007384E+02 -0.71424379924E+01 -0.49235875261E+02  0.67479948336E+02  0.00000000000E+00 0.  1.
         13    1    4    4    0    0  0.72673223206E+01  0.57249143934E+02 -0.13451944949E+03  0.14637541032E+03  0.00000000000E+00 0. -1.
         21    1    1    2  502  501  0.24208732214E+01 -0.27247263351E+02 -0.95702837278E+02  0.99535456247E+02  0.00000000000E+00 0.  1.
<scales pt_clust_5="13000.00000" pt_clust_6="13000.00000" pt_clust_7="13000.00000" pt_clust_8="13000.00000" pt_clust_9="27.35460"></scales>
<clustering>
<clus scale="   27.355">  2  9  1 -1</clus>
<clus scale="   81.768">  5  6 -1 -1</clus>
<clus scale="   89.380">  7  8 -1 -1</clus>
<clus scale="   96.660">  1  5  2 -1</clus>
<clus scale="   27.355">  2  5  1 -1</clus>
</clustering>
</event>
<event>
 9    2  0.3791909E-005  0.1180792E+03  0.7546771E-02  0.1251407E+00
         -3   -1    0    0    0  501 -0.00000000000E+00  0.00000000000E+00  0.12543539248E+03  0.12543539248E+03  0.00000000000E+00 0.  1.
          4   -1    0    0  502    0  0.00000000000E+00 -0.00000000000E+00 -0.55467959468E+03  0.55467959468E+03  0.00000000000E+00 0. -1.
         23    2    1    2    0    0  0.12517039284E+02  0.66912433699E+02  0.64542838536E+02  0.13107229700E+03  0.91543535970E+02 0.  0.
         24    2    1    2    0    0 -0.69684857694E+02 -0.11449721295E+03 -0.24585901052E+03  0.29019760357E+03  0.76173518381E+02 0.  0.
        -13    1    4    4    0    0  0.89087365636E+01 -0.25318531109E+02 -0.15543179647E+02  0.31015867523E+02  0.00000000000E+00 0.  1.
         14    1    4    4    0    0 -0.78593594257E+02 -0.89178681844E+02 -0.23031583087E+03  0.25918173605E+03  0.00000000000E+00 0. -1.
        -13    1    3    3    0    0 -0.31584050905E+02 -0.13178684643E+01  0.97545970501E+01  0.33082339888E+02  0.00000000000E+00 0. -1.
         13    1    3    3    0    0  0.44101090189E+02  0.68230302163E+02  0.54788241486E+02  0.97989957109E+02  0.00000000000E+00 0.  1.
         21    1    1    2  502  501  0.57167818409E+02  0.47584779254E+02 -0.24792803022E+03  0.25884508658E+03  0.00000000000E+00 0.  1.
<scales pt_clust_5="13000.00000" pt_clust_6="13000.00000" pt_clust_7="13000.00000" pt_clust_8="13000.00000" pt_clust_9="74.38058"></scales>
<clustering>
<clus scale="   74.381">  2  9  1 -1</clus>
<clus scale="   76.174">  5  6 -1 -1</clus>
<clus scale="   91.544">  7  8 -1 -1</clus>
<clus scale="  106.606">  2  5  1 -1</clus>
<clus scale="   74.381">  2  5  1 -1</clus>
</clustering>
</event>
<event>
 9    2  0.3791909E-005  0.1943217E+03  0.7546771E-02  0.1156244E+00
         -3   -1    0    0    0  501 -0.00000000000E+00  0.00000000000E+00  0.25797667616E+03  0.25797667616E+03  0.00000000000E+00 0.  1.
          4   -1    0    0  502    0  0.00000000000E+00 -0.00000000000E+00 -0.20050417069E+03  0.20050417069E+03  0.00000000000E+00 0. -1.
         24    2    1    2    0    0  0.87455390829E+01 -0.16548173314E+03  0.11351260172E+03  0.21601849105E+03  0.79487038374E+02 0.  0.
         23    2    1    2    0    0 -0.35401096118E+02  0.17547178075E+03 -0.32244387646E+02  0.20536039466E+03  0.95339434210E+02 0.  0.
        -13    1    3    3    0    0 -0.34805429835E+02 -0.81518801246E+02  0.63393673733E+02  0.10897472538E+03  0.00000000000E+00 0.  1.
         14    1    3    3    0    0  0.43550968918E+02 -0.83962931892E+02  0.50118927986E+02  0.10704376567E+03  0.00000000000E+00 0. -1.
        -11    1    4    4    0    0 -0.39467866092E+02  0.53100196199E+02  0.24316197181E+02  0.70488443986E+02  0.00000000000E+00 0.  1.
         11    1    4    4    0    0  0.40667699740E+01  0.12237158455E+03 -0.56560584826E+02  0.13487195068E+03  0.00000000000E+00 0. -1.
         21    1    1    2  502  501  0.26655557035E+02 -0.99900476130E+01 -0.23795708604E+02  0.37101961136E+02  0.00000000000E+00 0. -1.
<scales pt_clust_5="13000.00000" pt_clust_6="13000.00000" pt_clust_7="13000.00000" pt_clust_8="13000.00000" pt_clust_9="28.46612"></scales>
<clustering>
<clus scale="   28.466">  2  9  1 -1</clus>
<clus scale="   79.487">  5  6 -1 -1</clus>
<clus scale="   95.339">  7  8 -1 -1</clus>
<clus scale="  187.055">  1  5  2 -1</clus>
<clus scale="   28.466">  2  5  1 -1</clus>
</clustering>
</event>
<event>
 9    2  0.3791909E-005  0.1508046E+03  0.7546771E-02  0.1217042E+00
         -1   -1    0    0    0  501 -0.00000000000E+00  0.00000000000E+00  0.18946836389E+03  0.18946836389E+03  0.00000000000E+00 0.  1.
          2   -1    0    0  502    0  0.00000000000E+00 -0.00000000000E+00 -0.48379316015E+03  0.48379316015E+03  0.00000000000E+00 0. -1.
         23    2    1    2    0    0  0.93461443604E+01 -0.43446926804E+00 -0.47896579725E+02  0.11408696415E+03  0.10312232475E+03 0.  0.
         24    2    1    2    0    0  0.76119533580E+02  0.96951813100E+02  0.10808047803E+03  0.18195261686E+03  0.78940025305E+02 0.  0.
        -13    1    4    4    0    0  0.40865521576E+02  0.95681227422E+02  0.53572739593E+02  0.11702532445E+03  0.00000000000E+00 0.  1.
         14    1    4    4    0    0  0.35254012004E+02  0.12705856786E+01  0.54507738440E+02  0.64927292414E+02  0.00000000000E+00 0. -1.
        -11    1    3    3    0    0 -0.33744233243E+02 -0.29971724816E+02 -0.41754538952E+02  0.61485112740E+02  0.00000000000E+00 0.  1.
         11    1    3    3    0    0  0.43090377604E+02  0.29537255548E+02 -0.61420407735E+01  0.52601851414E+02  0.00000000000E+00 0. -1.
         21    1    1    2  502  501 -0.85465677940E+02 -0.96517343832E+02 -0.35450869457E+03  0.37722194302E+03  0.00000000000E+00 0. -1.
<scales pt_clust_5="13000.00000" pt_clust_6="13000.00000" pt_clust_7="13000.00000" pt_clust_8="13000.00000" pt_clust_9="128.49323"></scales>
<clustering>
<clus scale="   78.940">  5  6 -1 -1</clus>
<clus scale="  103.122">  7  8 -1 -1</clus>
<clus scale="  103.546">  1  7  2 -1</clus>
<clus scale="  128.493">  2  9  1 -1</clus>
<clus scale="  128.493">  2  5  1 -1</clus>
</clustering>
</event>
<event>
 9    2  0.3791909E-005  0.1343112E+03  0.7546771E-02  0.1226598E+00
         -1   -1    0    0    0  501 -0.00000000000E+00  0.00000000000E+00  0.23945779381E+03  0.23945779381E+03  0.00000000000E+00 0.  1.
          2   -1    0    0  502    0  0.00000000000E+00 -0.00000000000E+00 -0.22850571487E+03  0.22850571487E+03  0.00000000000E+00 0. -1.
         23    2    1    2    0    0 -0.78674032426E+02  0.14666810077E+02  0.94686057026E+02  0.15883533662E+03  0.99289959555E+02 0.  0.
         24    2    1    2    0    0  0.98608103701E+02 -0.29610698086E+02  0.74084713348E+02  0.14935512568E+03  0.78854659074E+02 0.  0.
        -11    1    4    4    0    0  0.23130787836E+02  0.12047569443E+02  0.55271838283E+02  0.61115901225E+02  0.00000000000E+00 0.  1.
         12    1    4    4    0    0  0.75477315865E+02 -0.41658267529E+02  0.18812875065E+02  0.88239224452E+02  0.00000000000E+00 0. -1.
        -13    1    3    3    0    0 -0.28504040510E+02  0.12931131874E+02 -0.17549815040E+02  0.35884404758E+02  0.00000000000E+00 0. -1.
         13    1    3    3    0    0 -0.50169991916E+02  0.17356782038E+01  0.11223587207E+03  0.12295093186E+03  0.00000000000E+00 0.  1.
         21    1    1    2  502  501 -0.19934071275E+02  0.14943888009E+02 -0.15781869143E+03  0.15977304639E+03  0.00000000000E+00 0. -1.
<scales pt_clust_5="13000.00000" pt_clust_6="13000.00000" pt_clust_7="13000.00000" pt_clust_8="13000.00000" pt_clust_9="24.91359"></scales>
<clustering>
<clus scale="   24.914">  2  9  1 -1</clus>
<clus scale="   78.855">  5  6 -1 -1</clus>
<clus scale="   99.290">  7  8 -1 -1</clus>
<clus scale="  119.996">  2  5  1 -1</clus>
<clus scale="   24.914">  2  5  1 -1</clus>
</clustering>
</event>
<event>
 9    2  0.3791909E-005  0.1591301E+03  0.7546771E-02  0.1214128E+00
         -1   -1    0    0    0  501 -0.00000000000E+00  0.00000000000E+00  0.36595498053E+03  0.36595498053E+03  0.00000000000E+00 0.  1.
          2   -1    0    0  502    0  0.00000000000E+00 -0.00000000000E+00 -0.17453623679E+03  0.17453623679E+03  0.00000000000E+00 0. -1.
         23    2    1    2    0    0  0.11854295809E+03  0.59527802395E+02  0.25477212744E+03  0.30133485999E+03  0.91092638312E+02 0.  0.
         24    2    1    2    0    0 -0.35066981931E+02  0.39006891670E+02  0.33779685762E+01  0.93793370613E+02  0.77682397490E+02 0.  0.
        -13    1    4    4    0    0 -0.51663017840E+02  0.50569416654E+02  0.88668600830E+01  0.72835118733E+02  0.00000000000E+00 0.  1.
         14    1    4    4    0    0  0.16596035909E+02 -0.11562524984E+02 -0.54888915069E+01  0.20958251880E+02  0.00000000000E+00 0. -1.
        -13    1    3    3    0    0  0.61756099850E+02 -0.17882428343E+02  0.89455161796E+02  0.11016271186E+03  0.00000000000E+00 0. -1.
         13    1    3    3    0    0  0.56786858241E+02  0.77410230738E+02  0.16531696565E+03  0.19117214813E+03  0.00000000000E+00 0.  1.
         21    1    1    2  502  501 -0.83475976160E+02 -0.98534694065E+02 -0.66731352279E+02  0.14536298672E+03  0.00000000000E+00 0. -1.
<scales pt_clust_5="13000.00000" pt_clust_6="13000.00000" pt_clust_7="13000.00000" pt_clust_8="13000.00000" pt_clust_9="130.47798"></scales>
<clustering>
<clus scale="   77.682">  5  6 -1 -1</clus>
<clus scale="   91.093">  7  8 -1 -1</clus>
<clus scale="   93.733">  2  5  1 -1</clus>
<clus scale="  130.478">  2  9  1 -1</clus>
<clus scale="   93.733">  2  5  1 -1</clus>
</clustering>
</event>
<event>
 9    2  0.3791909E-005  0.9177383E+02  0.7546771E-02  0.1302529E+00
          2   -1    0    0  502    0  0.00000000000E+00  0.00000000000E+00  0.34875874690E+03  0.34875874690E+03  0.00000000000E+00 0. -1.
         -1   -1    0    0    0  501 -0.00000000000E+00 -0.00000000000E+00 -0.42307671788E+02  0.42307671788E+02  0.00000000000E+00 0.  1.
         23    2    1    2    0    0 -0.14567704180E+02  0.22338890019E+02  0.34806264009E+02  0.97692636936E+02  0.87299090974E+02 0.  0.
         24    2    1    2    0    0  0.34431859427E+02 -0.15565858145E+02  0.20432598414E+03  0.22285936417E+03  0.80556436841E+02 0.  0.
        -11    1    4    4    0    0 -0.17154897743E+01 -0.39918794139E+02  0.59926000876E+02  0.72024847183E+02  0.00000000000E+00 0.  1.
         12    1    4    4    0    0  0.36147349201E+02  0.24352935994E+02  0.14439998327E+03  0.15083451698E+03  0.00000000000E+00 0. -1.
        -11    1    3    3    0    0 -0.30740484210E+02  0.38395032847E+02 -0.73885907622E+01  0.49736779050E+02  0.00000000000E+00 0.  1.
         11    1    3    3    0    0  0.16172780030E+02 -0.16056142828E+02  0.42194854771E+02  0.47955857886E+02  0.00000000000E+00 0. -1.
         21    1    1    2  502  501 -0.19864155247E+02 -0.67730318736E+01  0.67318826958E+02  0.70514417586E+02  0.00000000000E+00 0.  1.
<scales pt_clust_5="13000.00000" pt_clust_6="13000.00000" pt_clust_7="13000.00000" pt_clust_8="13000.00000" pt_clust_9="20.98711"></scales>
<clustering>
<clus scale="   20.987">  1  9  2 -1</clus>
<clus scale="   80.556">  5  6 -1 -1</clus>
<clus scale="   85.385">  1  5  2 -1</clus>
<clus scale="   87.299">  7  8 -1 -1</clus>
<clus scale="   20.987">  1  5  2 -1</clus>
</clustering>
</event>
<event>
 9    2  0.3791909E-005  0.1136077E+03  0.7546771E-02  0.1259272E+00
          2   -1    0    0  502    0  0.00000000000E+00  0.00000000000E+00  0.36153918615E+03  0.36153918615E+03  0.00000000000E+00 0. -1.
         -1   -1    0    0    0  501 -0.00000000000E+00 -0.00000000000E+00 -0.74851026439E+02  0.74851026439E+02  0.00000000000E+00 0.  1.
         23    2    1    2    0    0  0.59762475355E+02  0.14687526205E+02  0.94363714276E+01  0.11160415275E+03  0.92623781603E+02 0.  0.
         24    2    1    2    0    0 -0.65050503233E+02 -0.44137358881E+02  0.11539537522E+03  0.16018729212E+03  0.78512429055E+02 0.  0.
        -11    1    4    4    0    0 -0.71530084322E+02 -0.46139171918E+02  0.59433010569E+02  0.10381550411E+03  0.00000000000E+00 0.  1.
         12    1    4    4    0    0  0.64795810894E+01  0.20018130374E+01  0.55962364651E+02  0.56371788014E+02  0.00000000000E+00 0. -1.
        -13    1    3    3    0    0  0.81834623047E+02  0.26693109600E+02  0.71622326288E+01  0.86375489612E+02  0.00000000000E+00 0.  1.
         13    1    3    3    0    0 -0.22072147692E+02 -0.12005583396E+02  0.22741387988E+01  0.25228663137E+02  0.00000000000E+00 0. -1.
         21    1    1    2  502  501  0.52880278778E+01  0.29449832676E+02  0.16185641306E+03  0.16459876772E+03  0.00000000000E+00 0. -1.
<scales pt_clust_5="13000.00000" pt_clust_6="13000.00000" pt_clust_7="13000.00000" pt_clust_8="13000.00000" pt_clust_9="29.92083"></scales>
<clustering>
<clus scale="   29.921">  1  9  2 -1</clus>
<clus scale="   78.512">  5  6 -1 -1</clus>
<clus scale="   92.624">  7  8 -1 -1</clus>
<clus scale="  102.429">  1  5  2 -1</clus>
<clus scale="   29.921">  1  5  2 -1</clus>
</clustering>
</event>
<event>
 9    2  0.3791909E-005  0.3636315E+03  0.7546771E-02  0.1098359E+00
          2   -1    0    0  502    0  0.00000000000E+00  0.00000000000E+00  0.50855444331E+03  0.50855444331E+03  0.00000000000E+00 0. -1.
         -1   -1    0    0    0  501 -0.00000000000E+00 -0.00000000000E+00 -0.80483569780E+03  0.80483569780E+03  0.00000000000E+00 0.  1.
         23    2    1    2    0    0 -0.18983387058E+02 -0.72776115963E+02 -0.26509010438E+03  0.29067047433E+03  0.92519344841E+02 0.  0.
         24    2    1    2    0    0 -0.14861861792E+03  0.33137183206E+03  0.36473097678E+03  0.52100609608E+03  0.80770551892E+02 0.  0.
        -13    1    4    4    0    0 -0.17502651555E+02  0.15421807384E+02  0.54190992275E+02  0.58998632172E+02  0.00000000000E+00 0.  1.
         14    1    4    4    0    0 -0.13111596637E+03  0.31595002468E+03  0.31053998450E+03  0.46200746391E+03  0.00000000000E+00 0. -1.
        -13    1    3    3    0    0  0.33565021567E+02 -0.42052877538E+02 -0.85266695949E+02  0.10082392881E+03  0.00000000000E+00 0. -1.
         13    1    3    3    0    0 -0.52548408625E+02 -0.30723238424E+02 -0.17982340843E+03  0.18984654553E+03  0.00000000000E+00 0.  1.
         21    1    1    2  502  501  0.16760200498E+03 -0.25859571610E+03 -0.39592212689E+03  0.50171357070E+03  0.00000000000E+00 0.  1.
<scales pt_clust_5="13000.00000" pt_clust_6="13000.00000" pt_clust_7="13000.00000" pt_clust_8="13000.00000" pt_clust_9="354.54755"></scales>
<clustering>
<clus scale="   80.771">  5  6 -1 -1</clus>
<clus scale="   92.519">  7  8 -1 -1</clus>
<clus scale="  119.233">  2  7  1 -1</clus>
<clus scale="  354.548">  2  9  1 -1</clus>
<clus scale="  363.631">  1  5  2 -1</clus>
</clustering>
</event>
<event>
 9    2  0.3791909E-005  0.1386192E+03  0.7546771E-02  0.1217858E+00
          2   -1    0    0  502    0  0.00000000000E+00  0.00000000000E+00  0.37138076268E+03  0.37138076268E+03  0.00000000000E+00 0. -1.
         -1   -1    0    0    0  501 -0.00000000000E+00 -0.00000000000E+00 -0.13177306174E+03  0.13177306174E+03  0.00000000000E+00 0.  1.
         23    2    1    2    0    0  0.42040782477E+02  0.82870662009E+02 -0.52809366299E+02  0.13824497325E+03  0.87680496392E+02 0.  0.
         24    2    1    2    0    0 -0.97065052247E+02 -0.85659581229E+02  0.20807272825E+03  0.26416454189E+03  0.98638008528E+02 0.  0.
        -13    1    4    4    0    0 -0.46776877768E+02  0.56405263118E+01  0.24601332703E+02  0.53151833473E+02  0.00000000000E+00 0.  1.
         14    1    4    4    0    0 -0.50288174479E+02 -0.91300107541E+02  0.18347139555E+03  0.21101270842E+03  0.00000000000E+00 0. -1.
        -13    1    3    3    0    0  0.60886928800E+02  0.31883946069E+02 -0.47671668927E+02  0.83644438751E+02  0.00000000000E+00 0.  1.
         13    1    3    3    0    0 -0.18846146323E+02  0.50986715940E+02 -0.51376973725E+01  0.54600534502E+02  0.00000000000E+00 0. -1.
         21    1    1    2  502  501  0.55024269770E+02  0.27889192203E+01  0.84344338984E+02  0.10074430928E+03  0.00000000000E+00 0. -1.
<scales pt_clust_5="13000.00000" pt_clust_6="13000.00000" pt_clust_7="13000.00000" pt_clust_8="13000.00000" pt_clust_9="55.09490"></scales>
<clustering>
<clus scale="   55.095">  1  9  2 -1</clus>
<clus scale="   87.680">  7  8 -1 -1</clus>
<clus scale="   98.638">  5  6 -1 -1</clus>
<clus scale="  131.048">  2  7  1 -1</clus>
<clus scale="   55.095">  1  5  2 -1</clus>
</clustering>
</event>
<event>
 9    2  0.3791909E-005  0.1365771E+03  0.7546771E-02  0.1219799E+00
         -1   -1    0    0    0  501 -0.00000000000E+00  0.00000000000E+00  0.16414091032E+03  0.16414091032E+03  0.00000000000E+00 0.  1.
          2   -1    0    0  502    0  0.00000000000E+00 -0.00000000000E+00 -0.34747810574E+03  0.34747810574E+03  0.00000000000E+00 0. -1.
         23    2    1    2    0    0 -0.24267009126E+02  0.12378353170E+03  0.92812006742E+02  0.18016844259E+03  0.89080573969E+02 0.  0.
         24    2    1    2    0    0  0.33064313643E+02 -0.95662679659E+02 -0.27244838184E+03  0.30175426129E+03  0.81135173148E+02 0.  0.
        -11    1    4    4    0    0 -0.25169673331E+02 -0.36414207857E+02 -0.12366098466E+03  0.13134514120E+03  0.00000000000E+00 0.  1.
         12    1    4    4    0    0  0.58233986975E+02 -0.59248471803E+02 -0.14878739718E+03  0.17040912009E+03  0.00000000000E+00 0. -1.
        -13    1    3    3    0    0 -0.31316885834E+02  0.27694168947E+02  0.69396980055E+02  0.81016388298E+02  0.00000000000E+00 0.  1.
         13    1    3    3    0    0  0.70498767083E+01  0.96089362756E+02  0.23415026687E+02  0.99152054297E+02  0.00000000000E+00 0. -1.
         21    1    1    2  502  501 -0.87973045172E+01 -0.28120852044E+02 -0.37008203224E+01  0.29696312187E+02  0.00000000000E+00 0. -1.
<scales pt_clust_5="13000.00000" pt_clust_6="13000.00000" pt_clust_7="13000.00000" pt_clust_8="13000.00000" pt_clust_9="29.46481"></scales>
<clustering>
<clus scale="   29.465">  1  9  2 -1</clus>
<clus scale="   81.135">  5  6 -1 -1</clus>
<clus scale="   89.081">  7  8 -1 -1</clus>
<clus scale="  131.533">  2  5  1 -1</clus>
<clus scale="  131.533">  2  5  1 -1</clus>
</clustering>
</event>
<event>
 9    2  0.3791909E-005  0.2056735E+03  0.7546771E-02  0.1146811E+00
          2   -1    0    0  502    0  0.00000000000E+00  0.00000000000E+00  0.36508517307E+03  0.36508517307E+03  0.00000000000E+00 0. -1.
         -1   -1    0    0    0  501 -0.00000000000E+00 -0.00000000000E+00 -0.54875221779E+03  0.54875221779E+03  0.00000000000E+00 0.  1.
         23    2    1    2    0    0  0.16207486129E+03 -0.88287245031E+02 -0.48540052387E+03  0.52740809816E+03  0.92101765090E+02 0.  0.
         24    2    1    2    0    0 -0.16673604982E+03  0.56504316994E+02  0.29900992726E+03  0.35419113319E+03  0.71068798227E+02 0.  0.
        -13    1    4    4    0    0 -0.64574191440E+02  0.59195442691E+02  0.14228084430E+03  0.16708610143E+03  0.00000000000E+00 0.  1.
         14    1    4    4    0    0 -0.10216185838E+03 -0.26911256975E+01  0.15672908297E+03  0.18710503177E+03  0.00000000000E+00 0. -1.
        -13    1    3    3    0    0  0.15761982184E+03 -0.56011311882E+02 -0.34686895536E+03  0.38509654307E+03  0.00000000000E+00 0.  1.
         13    1    3    3    0    0  0.44550394577E+01 -0.32275933149E+02 -0.13853156852E+03  0.14231155509E+03  0.00000000000E+00 0. -1.
         21    1    1    2  502  501  0.46611885264E+01  0.31782928038E+02  0.27235518928E+01  0.32238159501E+02  0.00000000000E+00 0. -1.
<scales pt_clust_5="13000.00000" pt_clust_6="13000.00000" pt_clust_7="13000.00000" pt_clust_8="13000.00000" pt_clust_9="32.12291"></scales>
<clustering>
<clus scale="   32.123">  1  9  2 -1</clus>
<clus scale="   71.069">  5  6 -1 -1</clus>
<clus scale="   92.102">  7  8 -1 -1</clus>
<clus scale="  197.154">  1  5  2 -1</clus>
<clus scale="   32.123">  1  5  2 -1</clus>
</clustering>
</event>
<event>
 9    2  0.3791909E-005  0.9882578E+02  0.7546771E-02  0.1291937E+00
         -3   -1    0    0    0  501 -0.00000000000E+00  0.00000000000E+00  0.16110964495E+03  0.16110964495E+03  0.00000000000E+00 0.  1.
          4   -1    0    0  502    0  0.00000000000E+00 -0.00000000000E+00 -0.41257762072E+03  0.41257762072E+03  0.00000000000E+00 0. -1.
         23    2    1    2    0    0  0.26117675132E+02  0.19238890662E+02  0.13677342866E+03  0.16855243905E+03  0.93009064368E+02 0.  0.
         24    2    1    2    0    0 -0.35843307649E+02 -0.39665219554E+02 -0.30675597122E+03  0.32056711017E+03  0.76196941554E+02 0.  0.
        -13    1    4    4    0    0  0.13976611701E+02 -0.34642852133E+02 -0.79208090889E+02  0.87575079451E+02  0.00000000000E+00 0.  1.
         14    1    4    4    0    0 -0.49819919350E+02 -0.50223674215E+01 -0.22754788033E+03  0.23299203072E+03  0.00000000000E+00 0. -1.
        -11    1    3    3    0    0 -0.26478711782E+02  0.32130256463E+02  0.79427576997E+02  0.89678400664E+02  0.00000000000E+00 0.  1.
         11    1    3    3    0    0  0.52596386914E+02 -0.12891365801E+02  0.57345851664E+02  0.78874038389E+02  0.00000000000E+00 0. -1.
         21    1    1    2  502  501  0.97256325175E+01  0.20426328892E+02 -0.81485433205E+02  0.84567716443E+02  0.00000000000E+00 0.  1.
<scales pt_clust_5="13000.00000" pt_clust_6="13000.00000" pt_clust_7="13000.00000" pt_clust_8="13000.00000" pt_clust_9="22.62350"></scales>
<clustering>
<clus scale="   22.624">  2  9  1 -1</clus>
<clus scale="   76.197">  5  6 -1 -1</clus>
<clus scale="   83.197">  2  5  1 -1</clus>
<clus scale="   93.009">  7  8 -1 -1</clus>
<clus scale="   22.624">  2  5  1 -1</clus>
</clustering>
</event>
<event>
 9    2  0.3791909E-005  0.1585521E+03  0.7546771E-02  0.1202479E+00
          2   -1    0    0  502    0  0.00000000000E+00  0.00000000000E+00  0.36194798536E+03  0.36194798536E+03  0.00000000000E+00 0. -1.
         -1   -1    0    0    0  501 -0.00000000000E+00 -0.00000000000E+00 -0.15478021901E+03  0.15478021901E+03  0.00000000000E+00 0.  1.
         23    2    1    2    0    0  0.57157848917E+02  0.52362424502E+02 -0.34990442912E+02  0.12654545975E+03  0.93704744254E+02 0.  0.
         24    2    1    2    0    0  0.40221823636E+02  0.87187024820E+02  0.52481756748E+02  0.13536122654E+03  0.79680326720E+02 0.  0.
        -11    1    4    4    0    0  0.37793335030E+02  0.79333956536E+02  0.72370548547E+02  0.11384071824E+03  0.00000000000E+00 0.  1.
         12    1    4    4    0    0  0.24284886059E+01  0.78530682839E+01 -0.19888791799E+02  0.21520508303E+02  0.00000000000E+00 0. -1.
        -13    1    3    3    0    0  0.53623619482E+02 -0.11073932113E+02 -0.30915963317E+02  0.62880214111E+02  0.00000000000E+00 0.  1.
         13    1    3    3    0    0  0.35342294348E+01  0.63436356615E+02 -0.40744795945E+01  0.63665245639E+02  0.00000000000E+00 0. -1.
         21    1    1    2  502  501 -0.97379672553E+02 -0.13954944932E+03  0.18967645252E+03  0.25482151807E+03  0.00000000000E+00 0. -1.
<scales pt_clust_5="13000.00000" pt_clust_6="13000.00000" pt_clust_7="13000.00000" pt_clust_8="13000.00000" pt_clust_9="137.07592"></scales>
<clustering>
<clus scale="   79.680">  5  6 -1 -1</clus>
<clus scale="   93.705">  7  8 -1 -1</clus>
<clus scale="  121.612">  2  7  1 -1</clus>
<clus scale="  137.076">  1  9  2 -1</clus>
<clus scale="  137.076">  1  5  2 -1</clus>
</clustering>
</event>
<event>
 9    2  0.3791909E-005  0.1206075E+03  0.7546771E-02  0.1245425E+00
         -3   -1    0    0    0  501 -0.00000000000E+00  0.00000000000E+00  0.25472304101E+02  0.25472304101E+02  0.00000000000E+00 0.  1.
          4   -1    0    0  502    0  0.00000000000E+00 -0.00000000000E+00 -0.87670239552E+03  0.87670239552E+03  0.00000000000E+00 0. -1.
         23    2    1    2    0    0  0.83947258949E+02 -0.20883249754E+02 -0.18215792819E+03  0.22103383500E+03  0.90505209836E+02 0.  0.
         24    2    1    2    0    0 -0.58074775842E+02  0.23525271304E+02 -0.51618510141E+03  0.52605759882E+03  0.79771049752E+02 0.  0.
        -11    1    4    4    0    0 -0.55481349791E+02  0.22149460400E+02 -0.17604579244E+03  0.18590562070E+03  0.00000000000E+00 0.  1.
         12    1    4    4    0    0 -0.25934260517E+01  0.13758109045E+01 -0.34013930897E+03  0.34015197812E+03  0.00000000000E+00 0. -1.
        -13    1    3    3    0    0  0.16138468824E+01  0.25329461470E+02 -0.69810402445E+02  0.74281077063E+02  0.00000000000E+00 0. -1.
         13    1    3    3    0    0  0.82333412067E+02 -0.46212711224E+02 -0.11234752574E+03  0.14675275794E+03  0.00000000000E+00 0.  1.
         21    1    1    2  502  501 -0.25872483107E+02 -0.26420215499E+01 -0.15288706182E+03  0.15508326580E+03  0.00000000000E+00 0. -1.
<scales pt_clust_5="13000.00000" pt_clust_6="13000.00000" pt_clust_7="13000.00000" pt_clust_8="13000.00000" pt_clust_9="26.00703"></scales>
<clustering>
<clus scale="   26.007">  2  9  1 -1</clus>
<clus scale="   79.771">  5  6 -1 -1</clus>
<clus scale="   90.505">  7  8 -1 -1</clus>
<clus scale="  112.776">  2  5  1 -1</clus>
<clus scale="   26.007">  2  5  1 -1</clus>
</clustering>
</event>
<event>
 9    2  0.3791909E-005  0.1140176E+03  0.7546771E-02  0.1256752E+00
         -1   -1    0    0    0  501 -0.00000000000E+00  0.00000000000E+00  0.18277108879E+03  0.18277108879E+03  0.00000000000E+00 0.  1.
          2   -1    0    0  502    0  0.00000000000E+00 -0.00000000000E+00 -0.15148269224E+03  0.15148269224E+03  0.00000000000E+00 0. -1.
         23    2    1    2    0    0  0.43931023350E+02 -0.60093774917E+02  0.13226445488E+03  0.17573988922E+03  0.88596986640E+02 0.  0.
         24    2    1    2    0    0 -0.45347378210E+02  0.38203325289E+02 -0.92054877856E+02  0.13483298584E+03  0.78676265546E+02 0.  0.
        -11    1    4    4    0    0  0.20190200823E+02  0.21133894755E+02 -0.17307399061E+02  0.33968099432E+02  0.00000000000E+00 0.  1.
         12    1    4    4    0    0 -0.65537579033E+02  0.17069430533E+02 -0.74747478796E+02  0.10086488641E+03  0.00000000000E+00 0. -1.
        -11    1    3    3    0    0  0.32492426499E+02 -0.80304392967E+02  0.12363759414E+03  0.15096624786E+03  0.00000000000E+00 0.  1.
         11    1    3    3    0    0  0.11438596851E+02  0.20210618050E+02  0.86268607472E+01  0.24773641360E+02  0.00000000000E+00 0. -1.
         21    1    1    2  502  501  0.14163548601E+01  0.21890449628E+02 -0.89211804796E+01  0.23680905962E+02  0.00000000000E+00 0. -1.
<scales pt_clust_5="13000.00000" pt_clust_6="13000.00000" pt_clust_7="13000.00000" pt_clust_8="13000.00000" pt_clust_9="21.93622"></scales>
<clustering>
<clus scale="   21.936">  2  9  1 -1</clus>
<clus scale="   78.676">  5  6 -1 -1</clus>
<clus scale="   88.597">  7  8 -1 -1</clus>
<clus scale="  106.492">  2  5  1 -1</clus>
<clus scale="   21.936">  2  5  1 -1</clus>
</clustering>
</event>
<event>
 9    2  0.3791909E-005  0.1093869E+03  0.7546771E-02  0.1266802E+00
          2   -1    0    0  502    0  0.00000000000E+00  0.00000000000E+00  0.49246324927E+02  0.49246324927E+02  0.00000000000E+00 0. -1.
         -1   -1    0    0    0  501 -0.00000000000E+00 -0.00000000000E+00 -0.39785065462E+03  0.39785065462E+03  0.00000000000E+00 0.  1.
         23    2    1    2    0    0  0.51081258757E+02 -0.11717889519E+02 -0.25764484396E+03  0.27868849796E+03  0.92411088861E+02 0.  0.
         24    2    1    2    0    0 -0.67699602553E+02  0.36540212310E+02 -0.79292614087E+02  0.13633929150E+03  0.79891554346E+02 0.  0.
        -13    1    4    4    0    0 -0.21829078478E+02  0.30084238190E+00 -0.74559050126E+02  0.77689453139E+02  0.00000000000E+00 0.  1.
         14    1    4    4    0    0 -0.45870524075E+02  0.36239369928E+02 -0.47335639604E+01  0.58649838358E+02  0.00000000000E+00 0. -1.
        -11    1    3    3    0    0  0.63982705575E+02 -0.32991603470E+02 -0.23219232083E+03  0.24309567328E+03  0.00000000000E+00 0.  1.
         11    1    3    3    0    0 -0.12901446817E+02  0.21273713951E+02 -0.25452523123E+02  0.35592824678E+02  0.00000000000E+00 0. -1.
         21    1    1    2  502  501  0.16618343796E+02 -0.24822322791E+02 -0.11666871650E+02  0.32069190095E+02  0.00000000000E+00 0.  1.
<scales pt_clust_5="13000.00000" pt_clust_6="13000.00000" pt_clust_7="13000.00000" pt_clust_8="13000.00000" pt_clust_9="29.87168"></scales>
<clustering>
<clus scale="   29.872">  1  9  2 -1</clus>
<clus scale="   79.892">  5  6 -1 -1</clus>
<clus scale="   92.411">  7  8 -1 -1</clus>
<clus scale="   99.037">  1  5  2 -1</clus>
<clus scale="   29.872">  1  5  2 -1</clus>
</clustering>
</event>
<event>
 9    2  0.3791909E-005  0.1183687E+03  0.7546771E-02  0.1248323E+00
         -1   -1    0    0    0  501 -0.00000000000E+00  0.00000000000E+00  0.50134297172E+02  0.50134297172E+02  0.00000000000E+00 0.  1.
          2   -1    0    0  502    0  0.00000000000E+00 -0.00000000000E+00 -0.51770182189E+03  0.51770182189E+03  0.00000000000E+00 0. -1.
         24    2    1    2    0    0 -0.36894302226E+02 -0.74627102339E+02 -0.44005158445E+02  0.12420963096E+03  0.81001138958E+02 0.  0.
         23    2    1    2    0    0  0.27473371851E+02  0.50249671082E+02 -0.33671710400E+03  0.35293408124E+03  0.88905803915E+02 0.  0.
        -13    1    3    3    0    0 -0.57700778535E+02 -0.29267500679E+02 -0.34798268429E+02  0.73463500633E+02  0.00000000000E+00 0.  1.
         14    1    3    3    0    0  0.20806476309E+02 -0.45359601659E+02 -0.92068900158E+01  0.50746130324E+02  0.00000000000E+00 0. -1.
        -11    1    4    4    0    0  0.21325317408E+02  0.76175748409E+02 -0.25035173302E+03  0.26255190731E+03  0.00000000000E+00 0.  1.
         11    1    4    4    0    0  0.61480544429E+01 -0.25926077327E+02 -0.86365370988E+02  0.90382173933E+02  0.00000000000E+00 0. -1.
         21    1    1    2  502  501  0.94209303756E+01  0.24377431257E+02 -0.86845262265E+02  0.90692406858E+02  0.00000000000E+00 0.  1.
<scales pt_clust_5="13000.00000" pt_clust_6="13000.00000" pt_clust_7="13000.00000" pt_clust_8="13000.00000" pt_clust_9="26.13452"></scales>
<clustering>
<clus scale="   26.135">  2  9  1 -1</clus>
<clus scale="   81.001">  5  6 -1 -1</clus>
<clus scale="   88.906">  7  8 -1 -1</clus>
<clus scale="  112.553">  1  5  2 -1</clus>
<clus scale="   26.135">  2  5  1 -1</clus>
</clustering>
</event>
<event>
 9    2  0.3791909E-005  0.1123024E+03  0.7546771E-02  0.1260053E+00
          2   -1    0    0  502    0  0.00000000000E+00  0.00000000000E+00  0.74603755081E+03  0.74603755081E+03  0.00000000000E+00 0. -1.
         -1   -1    0    0    0  501 -0.00000000000E+00 -0.00000000000E+00 -0.58773994446E+02  0.58773994446E+02  0.00000000000E+00 0.  1.
         23    2    1    2    0    0  0.66822416145E+02  0.12974809229E+02  0.10652797678E+02  0.11433136038E+03  0.91239228917E+02 0.  0.
         24    2    1    2    0    0 -0.39024969956E+02 -0.58765346406E+01  0.62434398164E+03  0.63085720693E+03  0.81350637272E+02 0.  0.
        -11    1    4    4    0    0 -0.25144028636E+02  0.33402245985E+02  0.19136920817E+03  0.19588288861E+03  0.00000000000E+00 0.  1.
         12    1    4    4    0    0 -0.13880941320E+02 -0.39278780626E+02  0.43297477347E+03  0.43497431832E+03  0.00000000000E+00 0. -1.
        -11    1    3    3    0    0  0.75821755868E+02  0.31109774210E+02 -0.13236032346E+02  0.83017764765E+02  0.00000000000E+00 0.  1.
         11    1    3    3    0    0 -0.89993397226E+01 -0.18134964981E+02  0.23888830024E+02  0.31313595613E+02  0.00000000000E+00 0. -1.
         21    1    1    2  502  501 -0.27797446189E+02 -0.70982745889E+01  0.52266777045E+02  0.59622977948E+02  0.00000000000E+00 0. -1.
<scales pt_clust_5="13000.00000" pt_clust_6="13000.00000" pt_clust_7="13000.00000" pt_clust_8="13000.00000" pt_clust_9="28.68943"></scales>
<clustering>
<clus scale="   28.689">  1  9  2 -1</clus>
<clus scale="   81.351">  5  6 -1 -1</clus>
<clus scale="   91.239">  7  8 -1 -1</clus>
<clus scale="  104.428">  1  5  2 -1</clus>
<clus scale="   28.689">  1  5  2 -1</clus>
</clustering>
</event>
<event>
 9    2  0.3791909E-005  0.2177432E+03  0.7546771E-02  0.1136936E+00
          2   -1    0    0  502    0  0.00000000000E+00  0.00000000000E+00  0.13983195594E+03  0.13983195594E+03  0.00000000000E+00 0. -1.
         -1   -1    0    0    0  501 -0.00000000000E+00 -0.00000000000E+00 -0.78350922676E+03  0.78350922676E+03  0.00000000000E+00 0.  1.
         24    2    1    2    0    0 -0.16087704735E+03 -0.12589590827E+03 -0.64612263532E+03  0.68135672430E+03  0.71002266074E+02 0.  0.
         23    2    1    2    0    0  0.14250016896E+03  0.93774042351E+02 -0.27017891261E+02  0.19468110367E+03  0.89838168418E+02 0.  0.
        -13    1    3    3    0    0 -0.11248111681E+03 -0.10992157557E+03 -0.55607095463E+03  0.57788377811E+03  0.00000000000E+00 0.  1.
         14    1    3    3    0    0 -0.48395930542E+02 -0.15974332694E+02 -0.90051680688E+02  0.10347294619E+03  0.00000000000E+00 0. -1.
        -11    1    4    4    0    0  0.24595220712E+02  0.44512288264E+02 -0.42088867769E+02  0.66013191700E+02  0.00000000000E+00 0.  1.
         11    1    4    4    0    0  0.11790494825E+03  0.49261754087E+02  0.15070976507E+02  0.12866791197E+03  0.00000000000E+00 0. -1.
         21    1    1    2  502  501  0.18376878386E+02  0.32121865916E+02  0.29463255761E+02  0.47303354735E+02  0.00000000000E+00 0.  1.
<scales pt_clust_5="13000.00000" pt_clust_6="13000.00000" pt_clust_7="13000.00000" pt_clust_8="13000.00000" pt_clust_9="37.00708"></scales>
<clustering>
<clus scale="   37.007">  1  9  2 -1</clus>
<clus scale="   71.002">  5  6 -1 -1</clus>
<clus scale="   89.838">  7  8 -1 -1</clus>
<clus scale="  210.672">  2  5  1 -1</clus>
<clus scale="   37.007">  1  5  2 -1</clus>
</clustering>
</event>
<event>
 9    2  0.3791909E-005  0.4015346E+03  0.7546771E-02  0.1091960E+00
         -1   -1    0    0    0  501 -0.00000000000E+00  0.00000000000E+00  0.38348837468E+03  0.38348837468E+03  0.00000000000E+00 0.  1.
          2   -1    0    0  502    0  0.00000000000E+00 -0.00000000000E+00 -0.60295909988E+03  0.60295909988E+03  0.00000000000E+00 0. -1.
         24    2    1    2    0    0 -0.58237313898E+02  0.13123017579E+02  0.65277708056E+02  0.12338676535E+03  0.86019279082E+02 0.  0.
         23    2    1    2    0    0 -0.32597869702E+03  0.16793063906E+03 -0.20344983116E+03  0.43061206217E+03  0.97837129132E+02 0.  0.
        -13    1    3    3    0    0 -0.61547537311E+02  0.23297877951E+01  0.82401548860E+02  0.10287634575E+03  0.00000000000E+00 0.  1.
         14    1    3    3    0    0  0.33102234135E+01  0.10793229784E+02 -0.17123840804E+02  0.20510419599E+02  0.00000000000E+00 0. -1.
        -13    1    4    4    0    0 -0.18056293106E+03  0.45199723046E+02 -0.73162864812E+02  0.19999697954E+03  0.00000000000E+00 0.  1.
         13    1    4    4    0    0 -0.14541576596E+03  0.12273091601E+03 -0.13028696635E+03  0.23061508263E+03  0.00000000000E+00 0. -1.
         21    1    1    2  502  501  0.38421601092E+03 -0.18105365663E+03 -0.81298602087E+02  0.43244864704E+03  0.00000000000E+00 0. -1.
<scales pt_clust_5="13000.00000" pt_clust_6="13000.00000" pt_clust_7="13000.00000" pt_clust_8="13000.00000" pt_clust_9="389.43288"></scales>
<clustering>
<clus scale="   86.019">  5  6 -1 -1</clus>
<clus scale="   97.837">  7  8 -1 -1</clus>
<clus scale="  104.705">  1  5  2 -1</clus>
<clus scale="  389.433">  1  9  2 -1</clus>
<clus scale="  401.535">  2  5  1 -1</clus>
</clustering>
</event>
<event>
 9    2  0.3791909E-005  0.2067885E+03  0.7546771E-02  0.1162717E+00
          2   -1    0    0  502    0  0.00000000000E+00  0.00000000000E+00  0.89334883150E+03  0.89334883150E+03  0.00000000000E+00 0. -1.
         -1   -1    0    0    0  501 -0.00000000000E+00 -0.00000000000E+00 -0.93931392092E+02  0.93931392092E+02  0.00000000000E+00 0.  1.
         24    2    1    2    0    0 -0.86369838086E+02 -0.60230463903E+02  0.68796757329E+02  0.15017708233E+03  0.82053059212E+02 0.  0.
         23    2    1    2    0    0 -0.51825387287E+02  0.19240266461E+03  0.38099399796E+03  0.43859814856E+03  0.86644407357E+02 0.  0.
        -11    1    3    3    0    0 -0.78420579465E+02 -0.75731968120E+02  0.74273729007E+02  0.13191552259E+03  0.00000000000E+00 0.  1.
         12    1    3    3    0    0 -0.79492586211E+01  0.15501504216E+02 -0.54769716775E+01  0.18261559746E+02  0.00000000000E+00 0. -1.
        -13    1    4    4    0    0  0.13704913609E+02  0.10786438718E+03  0.21851011324E+03  0.24406806483E+03  0.00000000000E+00 0.  1.
         13    1    4    4    0    0 -0.65530300896E+02  0.84538277427E+02  0.16248388471E+03  0.19453008373E+03  0.00000000000E+00 0. -1.
         21    1    1    2  502  501  0.13819522537E+03 -0.13217220070E+03  0.34962668412E+03  0.39850499270E+03  0.00000000000E+00 0.  1.
<scales pt_clust_5="13000.00000" pt_clust_6="13000.00000" pt_clust_7="13000.00000" pt_clust_8="13000.00000" pt_clust_9="187.76112"></scales>
<clustering>
<clus scale="   82.053">  5  6 -1 -1</clus>
<clus scale="   86.644">  7  8 -1 -1</clus>
<clus scale="  133.492">  2  5  1 -1</clus>
<clus scale="  187.761">  1  9  2 -1</clus>
<clus scale="  187.761">  1  5  2 -1</clus>
</clustering>
</event>
<event>
 9    2  0.3791909E-005  0.1554008E+03  0.7546771E-02  0.1195892E+00
         -1   -1    0    0    0  501 -0.00000000000E+00  0.00000000000E+00  0.37275671102E+02  0.37275671102E+02  0.00000000000E+00 0.  1.
          2   -1    0    0  502    0  0.00000000000E+00 -0.00000000000E+00 -0.84319011177E+03  0.84319011177E+03  0.00000000000E+00 0. -1.
         23    2    1    2    0    0 -0.11033803129E+03 -0.93591725863E+02 -0.29852285973E+03  0.34415606758E+03  0.91616640251E+02 0.  0.
         24    2    1    2    0    0  0.82652915929E+02  0.59680239550E+02 -0.38806834671E+03  0.40920940552E+03  0.80386941394E+02 0.  0.
        -13    1    4    4    0    0 -0.15432896871E+02  0.16693601141E+02 -0.68751825229E+02  0.72413148649E+02  0.00000000000E+00 0.  1.
         14    1    4    4    0    0  0.98085812800E+02  0.42986638409E+02 -0.31931652148E+03  0.33679625687E+03  0.00000000000E+00 0. -1.
        -11    1    3    3    0    0 -0.55308186957E+02 -0.93620167773E+02 -0.24180748755E+03  0.26513127388E+03  0.00000000000E+00 0. -1.
         11    1    3    3    0    0 -0.55029844335E+02  0.28441910571E-01 -0.56715372182E+02  0.79024793693E+02  0.00000000000E+00 0.  1.
         21    1    1    2  502  501  0.27685115363E+02  0.33911486313E+02 -0.11932323423E+03  0.12710030977E+03  0.00000000000E+00 0. -1.
<scales pt_clust_5="13000.00000" pt_clust_6="13000.00000" pt_clust_7="13000.00000" pt_clust_8="13000.00000" pt_clust_9="43.77733"></scales>
<clustering>
<clus scale="   43.777">  2  9  1 -1</clus>
<clus scale="   80.387">  5  6 -1 -1</clus>
<clus scale="   91.617">  7  8 -1 -1</clus>
<clus scale="  149.057">  2  5  1 -1</clus>
<clus scale="   43.777">  2  5  1 -1</clus>
</clustering>
</event>
<event>
 9    2  0.3791909E-005  0.2702332E+03  0.7546771E-02  0.1101686E+00
          2   -1    0    0  502    0  0.00000000000E+00  0.00000000000E+00  0.11410252677E+04  0.11410252677E+04  0.00000000000E+00 0. -1.
         -1   -1    0    0    0  501 -0.00000000000E+00 -0.00000000000E+00 -0.17452125990E+03  0.17452125990E+03  0.00000000000E+00 0.  1.
         24    2    1    2    0    0 -0.18970116857E+03  0.16567419953E+03 -0.34850452019E+02  0.26675807194E+03  0.80689783697E+02 0.  0.
         23    2    1    2    0    0  0.21472104746E+03 -0.16622078588E+03  0.91822578837E+03  0.96197446419E+03  0.92313560511E+02 0.  0.
        -11    1    3    3    0    0 -0.17450180822E+03  0.11661905437E+03 -0.44384350855E+02  0.21452472005E+03  0.00000000000E+00 0.  1.
         12    1    3    3    0    0 -0.15199360345E+02  0.49055145165E+02  0.95338988359E+01  0.52233351885E+02  0.00000000000E+00 0. -1.
        -11    1    4    4    0    0  0.18542884039E+03 -0.11923314343E+03  0.82104316164E+03  0.85012485590E+03  0.00000000000E+00 0. -1.
         11    1    4    4    0    0  0.29292207071E+02 -0.46987642448E+02  0.97182626730E+02  0.11184960830E+03  0.00000000000E+00 0.  1.
         21    1    1    2  502  501 -0.25019878897E+02  0.54658635079E+00  0.83128671498E+02  0.86813991508E+02  0.00000000000E+00 0. -1.
<scales pt_clust_5="13000.00000" pt_clust_6="13000.00000" pt_clust_7="13000.00000" pt_clust_8="13000.00000" pt_clust_9="25.02585"></scales>
<clustering>
<clus scale="   25.026">  1  9  2 -1</clus>
<clus scale="   80.690">  5  6 -1 -1</clus>
<clus scale="   92.314">  7  8 -1 -1</clus>
<clus scale="  266.486">  2  5  1 -1</clus>
<clus scale="   25.026">  1  5  2 -1</clus>
</clustering>
</event>
<event>
 9    2  0.3791909E-005  0.1362466E+03  0.7546771E-02  0.1220445E+00
          2   -1    0    0  502    0  0.00000000000E+00  0.00000000000E+00  0.90587270363E+03  0.90587270363E+03  0.00000000000E+00 0. -1.
         -1   -1    0    0    0  501 -0.00000000000E+00 -0.00000000000E+00 -0.62014651391E+02  0.62014651391E+02  0.00000000000E+00 0.  1.
         23    2    1    2    0    0 -0.43238151270E+02 -0.97531865626E+02  0.44890664470E+02  0.14642059342E+03  0.89676172322E+02 0.  0.
         24    2    1    2    0    0 -0.20835004888E+02  0.94673021266E+02  0.50207578946E+03  0.51772647208E+03  0.81015573505E+02 0.  0.
        -11    1    4    4    0    0  0.11314108528E+02  0.17826366824E+02  0.22057391485E+02  0.30533865216E+02  0.00000000000E+00 0.  1.
         12    1    4    4    0    0 -0.32149113416E+02  0.76846654443E+02  0.48001839797E+03  0.48719260686E+03  0.00000000000E+00 0. -1.
        -11    1    3    3    0    0 -0.57544138983E+02 -0.78022554764E+02  0.17545189479E+01  0.96963525719E+02  0.00000000000E+00 0.  1.
         11    1    3    3    0    0  0.14305987713E+02 -0.19509310862E+02  0.43136145522E+02  0.49457067698E+02  0.00000000000E+00 0. -1.
         21    1    1    2  502  501  0.64073156158E+02  0.28588443599E+01  0.29689159831E+03  0.30374028952E+03  0.00000000000E+00 0. -1.
<scales pt_clust_5="13000.00000" pt_clust_6="13000.00000" pt_clust_7="13000.00000" pt_clust_8="13000.00000" pt_clust_9="64.13690"></scales>
<clustering>
<clus scale="   64.137">  1  9  2 -1</clus>
<clus scale="   81.016">  5  6 -1 -1</clus>
<clus scale="   89.676">  7  8 -1 -1</clus>
<clus scale="  130.709">  1  5  2 -1</clus>
<clus scale="   64.137">  1  5  2 -1</clus>
</clustering>
</event>
<event>
 9    2  0.3791909E-005  0.1113445E+03  0.7546771E-02  0.1263125E+00
          2   -1    0    0  502    0  0.00000000000E+00  0.00000000000E+00  0.21571559531E+03  0.21571559531E+03  0.00000000000E+00 0. -1.
         -1   -1    0    0    0  501 -0.00000000000E+00 -0.00000000000E+00 -0.18602030037E+03  0.18602030037E+03  0.00000000000E+00 0.  1.
         23    2    1    2    0    0  0.69410559491E+02 -0.75661215531E+02 -0.87266793037E+02  0.16330729754E+03  0.92256896538E+02 0.  0.
         24    2    1    2    0    0  0.13014879873E+02  0.60314306904E+02  0.11746550698E+03  0.15458508861E+03  0.79317095106E+02 0.  0.
        -11    1    4    4    0    0  0.17914324100E+02 -0.14975593622E+02  0.40873952360E+02  0.47073043176E+02  0.00000000000E+00 0.  1.
         12    1    4    4    0    0 -0.48994442278E+01  0.75289900526E+02  0.76591554618E+02  0.10751204544E+03  0.00000000000E+00 0. -1.
        -13    1    3    3    0    0  0.18959036515E+02  0.21186844975E+02 -0.13119412119E+02  0.31312081373E+02  0.00000000000E+00 0. -1.
         13    1    3    3    0    0  0.50451522975E+02 -0.96848060506E+02 -0.74147380917E+02  0.13199521617E+03  0.00000000000E+00 0.  1.
         21    1    1    2  502  501 -0.82425439363E+02  0.15346908627E+02 -0.50341900035E+00  0.83843509524E+02  0.00000000000E+00 0. -1.
<scales pt_clust_5="13000.00000" pt_clust_6="13000.00000" pt_clust_7="13000.00000" pt_clust_8="13000.00000" pt_clust_9="83.84200"></scales>
<clustering>
<clus scale="   79.317">  5  6 -1 -1</clus>
<clus scale="   83.842">  2  9  1 -1</clus>
<clus scale="   92.257">  7  8 -1 -1</clus>
<clus scale="  100.883">  1  5  2 -1</clus>
<clus scale="  100.883">  1  5  2 -1</clus>
</clustering>
</event>
<event>
 9    2  0.3791909E-005  0.1821299E+03  0.7546771E-02  0.1167100E+00
          2   -1    0    0  502    0  0.00000000000E+00  0.00000000000E+00  0.10659651116E+03  0.10659651116E+03  0.00000000000E+00 0. -1.
         -1   -1    0    0    0  501 -0.00000000000E+00 -0.00000000000E+00 -0.65317992673E+03  0.65317992673E+03  0.00000000000E+00 0.  1.
         23    2    1    2    0    0 -0.15363480657E+03  0.31774625621E+02 -0.51867344644E+03  0.54964495995E+03  0.92055186365E+02 0.  0.
         24    2    1    2    0    0  0.14904601899E+03 -0.59716153564E+02 -0.28104992786E+02  0.18181498117E+03  0.80536091202E+02 0.  0.
        -13    1    4    4    0    0  0.91453072154E+02 -0.42790546890E+01 -0.41915336972E+02  0.10069195692E+03  0.00000000000E+00 0.  1.
         14    1    4    4    0    0  0.57592946834E+02 -0.55437098875E+02  0.13810344186E+02  0.81123024249E+02  0.00000000000E+00 0. -1.
        -13    1    3    3    0    0 -0.90290057800E+02 -0.26167785840E+02 -0.31189797192E+03  0.32575664604E+03  0.00000000000E+00 0.  1.
         13    1    3    3    0    0 -0.63344748767E+02  0.57942411461E+02 -0.20677547452E+03  0.22388831391E+03  0.00000000000E+00 0. -1.
         21    1    1    2  502  501  0.45887875788E+01  0.27941527943E+02  0.19502365877E+00  0.28316496772E+02  0.00000000000E+00 0. -1.
<scales pt_clust_5="13000.00000" pt_clust_6="13000.00000" pt_clust_7="13000.00000" pt_clust_8="13000.00000" pt_clust_9="28.31583"></scales>
<clustering>
<clus scale="   28.316">  1  9  2 -1</clus>
<clus scale="   80.536">  5  6 -1 -1</clus>
<clus scale="   92.055">  7  8 -1 -1</clus>
<clus scale="  176.588">  1  5  2 -1</clus>
<clus scale="   28.316">  1  5  2 -1</clus>
</clustering>
</event>
<event>
 9    2  0.3791909E-005  0.1029013E+03  0.7546771E-02  0.1277707E+00
         -1   -1    0    0    0  501 -0.00000000000E+00  0.00000000000E+00  0.17999801410E+03  0.17999801410E+03  0.00000000000E+00 0.  1.
          2   -1    0    0  502    0  0.00000000000E+00 -0.00000000000E+00 -0.39753220389E+03  0.39753220389E+03  0.00000000000E+00 0. -1.
         24    2    1    2    0    0  0.43945369133E+02 -0.24979919844E+02  0.15154154674E+03  0.17937294567E+03  0.81575862760E+02 0.  0.
         23    2    1    2    0    0 -0.58641628863E+02  0.44719595692E+02 -0.34437505434E+03  0.36328954292E+03  0.89142756698E+02 0.  0.
        -13    1    3    3    0    0  0.33195816290E+01 -0.22261069462E+02  0.13254580527E+03  0.13444316766E+03  0.00000000000E+00 0.  1.
         14    1    3    3    0    0  0.40625787504E+02 -0.27188503815E+01  0.18995741470E+02  0.44929778006E+02  0.00000000000E+00 0. -1.
        -13    1    4    4    0    0 -0.80788234596E+02  0.35552353224E+02 -0.22836170015E+03  0.24482600917E+03  0.00000000000E+00 0. -1.
         13    1    4    4    0    0  0.22146605733E+02  0.91672424685E+01 -0.11601335419E+03  0.11846353375E+03  0.00000000000E+00 0.  1.
         21    1    1    2  502  501  0.14696259731E+02 -0.19739675849E+02 -0.24700682188E+02  0.34867729396E+02  0.00000000000E+00 0. -1.
<scales pt_clust_5="13000.00000" pt_clust_6="13000.00000" pt_clust_7="13000.00000" pt_clust_8="13000.00000" pt_clust_9="24.60965"></scales>
<clustering>
<clus scale="   24.610">  2  9  1 -1</clus>
<clus scale="   81.576">  5  6 -1 -1</clus>
<clus scale="   89.143">  7  8 -1 -1</clus>
<clus scale="   96.420">  1  5  2 -1</clus>
<clus scale="   24.610">  2  5  1 -1</clus>
</clustering>
</event>
<event>
 9    2  0.3791909E-005  0.1002140E+03  0.7546771E-02  0.1286424E+00
          2   -1    0    0  502    0  0.00000000000E+00  0.00000000000E+00  0.40125184396E+02  0.40125184396E+02  0.00000000000E+00 0. -1.
         -1   -1    0    0    0  501 -0.00000000000E+00 -0.00000000000E+00 -0.37764093784E+03  0.37764093784E+03  0.00000000000E+00 0.  1.
         23    2    1    2    0    0 -0.49683757178E+02 -0.63365923813E+01 -0.25335074301E+03  0.27356845763E+03  0.90246738978E+02 0.  0.
         24    2    1    2    0    0  0.25888846999E+02  0.25435669434E+02 -0.71456557571E+02  0.11114502070E+03  0.77006300579E+02 0.  0.
        -13    1    4    4    0    0  0.29359330665E+02  0.51259874859E+02 -0.49268789430E+02  0.76921769868E+02  0.00000000000E+00 0.  1.
         14    1    4    4    0    0 -0.34704836654E+01 -0.25824205425E+02 -0.22187768141E+02  0.34223250836E+02  0.00000000000E+00 0. -1.
        -11    1    3    3    0    0 -0.54856389403E+02 -0.34975782338E+02 -0.21944473879E+03  0.22888539096E+03  0.00000000000E+00 0.  1.
         11    1    3    3    0    0  0.51726322251E+01  0.28639189957E+02 -0.33906004215E+02  0.44683066674E+02  0.00000000000E+00 0. -1.
         21    1    1    2  502  501  0.23794910179E+02 -0.19099077052E+02 -0.12708452863E+02  0.33052643901E+02  0.00000000000E+00 0. -1.
<scales pt_clust_5="13000.00000" pt_clust_6="13000.00000" pt_clust_7="13000.00000" pt_clust_8="13000.00000" pt_clust_9="30.51184"></scales>
<clustering>
<clus scale="   30.512">  1  9  2 -1</clus>
<clus scale="   77.006">  5  6 -1 -1</clus>
<clus scale="   88.478">  1  5  2 -1</clus>
<clus scale="   90.247">  7  8 -1 -1</clus>
<clus scale="   30.512">  1  5  2 -1</clus>
</clustering>
</event>
<event>
 9    2  0.3791909E-005  0.9017237E+02  0.7546771E-02  0.1306579E+00
          2   -1    0    0  502    0  0.00000000000E+00  0.00000000000E+00  0.30521048069E+03  0.30521048069E+03  0.00000000000E+00 0. -1.
         -1   -1    0    0    0  501 -0.00000000000E+00 -0.00000000000E+00 -0.85039929432E+02  0.85039929432E+02  0.00000000000E+00 0.  1.
         23    2    1    2    0    0 -0.12892490945E+02  0.10179168985E+02 -0.45223883712E+02  0.10125466823E+03  0.89092515822E+02 0.  0.
         24    2    1    2    0    0 -0.10898264475E+02 -0.10271554256E+02  0.15624955245E+03  0.17728802525E+03  0.82418713046E+02 0.  0.
        -13    1    4    4    0    0 -0.24355254547E+02 -0.41916386014E+02  0.78332943127E+02  0.92120637316E+02  0.00000000000E+00 0.  1.
         14    1    4    4    0    0  0.13456990072E+02  0.31644831759E+02  0.77916609321E+02  0.85167387931E+02  0.00000000000E+00 0. -1.
        -11    1    3    3    0    0  0.15114390955E+02  0.34946038014E+02  0.52579678874E+01  0.38435876641E+02  0.00000000000E+00 0.  1.
         11    1    3    3    0    0 -0.28006881900E+02 -0.24766869030E+02 -0.50481851599E+02  0.62818791585E+02  0.00000000000E+00 0. -1.
         21    1    1    2  502  501  0.23790755420E+02  0.92385271143E-01  0.10914488252E+03  0.11170771665E+03  0.00000000000E+00 0.  1.
<scales pt_clust_5="13000.00000" pt_clust_6="13000.00000" pt_clust_7="13000.00000" pt_clust_8="13000.00000" pt_clust_9="23.79093"></scales>
<clustering>
<clus scale="   23.791">  1  9  2 -1</clus>
<clus scale="   82.419">  5  6 -1 -1</clus>
<clus scale="   83.585">  1  5  2 -1</clus>
<clus scale="   89.093">  7  8 -1 -1</clus>
<clus scale="   23.791">  1  5  2 -1</clus>
</clustering>
</event>
<event>
 9    2  0.3791909E-005  0.1178606E+03  0.7546771E-02  0.1252017E+00
          2   -1    0    0  502    0  0.00000000000E+00  0.00000000000E+00  0.66403077197E+02  0.66403077197E+02  0.00000000000E+00 0. -1.
         -1   -1    0    0    0  501 -0.00000000000E+00 -0.00000000000E+00 -0.56257290112E+03  0.56257290112E+03  0.00000000000E+00 0.  1.
         24    2    1    2    0    0 -0.54278054801E+02  0.57911278010E+02 -0.46059327123E+03  0.47384687366E+03  0.78005607607E+02 0.  0.
         23    2    1    2    0    0  0.18474619777E+02 -0.28147539077E+02 -0.42298155589E+02  0.10808714403E+03  0.93595412312E+02 0.  0.
        -13    1    3    3    0    0 -0.35374733715E+01  0.59811116162E+02 -0.22472894299E+03  0.23257897831E+03  0.00000000000E+00 0.  1.
         14    1    3    3    0    0 -0.50740581430E+02 -0.18998381525E+01 -0.23586432824E+03  0.24126789534E+03  0.00000000000E+00 0. -1.
        -13    1    4    4    0    0 -0.11407646622E+02  0.30655216168E+02 -0.76962867439E+01  0.33602224769E+02  0.00000000000E+00 0.  1.
         13    1    4    4    0    0  0.29882266399E+02 -0.58802755245E+02 -0.34601868845E+02  0.74484919260E+02  0.00000000000E+00 0. -1.
         21    1    1    2  502  501  0.35803435024E+02 -0.29763738933E+02  0.67216028950E+01  0.47041960634E+02  0.00000000000E+00 0. -1.
<scales pt_clust_5="13000.00000" pt_clust_6="13000.00000" pt_clust_7="13000.00000" pt_clust_8="13000.00000" pt_clust_9="46.55928"></scales>
<clustering>
<clus scale="   46.559">  1  9  2 -1</clus>
<clus scale="   78.006">  5  6 -1 -1</clus>
<clus scale="   93.595">  7  8 -1 -1</clus>
<clus scale="  105.905">  2  5  1 -1</clus>
<clus scale="   46.559">  1  5  2 -1</clus>
</clustering>
</event>
<event>
 9    2  0.3791909E-005  0.1256654E+03  0.7546771E-02  0.1238961E+00
          2   -1    0    0  502    0  0.00000000000E+00  0.00000000000E+00  0.25851515712E+03  0.25851515712E+03  0.00000000000E+00 0. -1.
         -1   -1    0    0    0  501 -0.00000000000E+00 -0.00000000000E+00 -0.19473900724E+03  0.19473900724E+03  0.00000000000E+00 0.  1.
         24    2    1    2    0    0  0.72455651796E+02  0.34089451968E+02 -0.13528677115E+03  0.17688848191E+03  0.81087066622E+02 0.  0.
         23    2    1    2    0    0 -0.45696361506E+02 -0.77601007573E+02  0.10406979585E+03  0.16850925511E+03  0.97235656113E+02 0.  0.
        -13    1    3    3    0    0  0.23590037736E+02  0.21808874516E+02 -0.12001381572E+03  0.12423941746E+03  0.00000000000E+00 0.  1.
         14    1    3    3    0    0  0.48865614061E+02  0.12280577452E+02 -0.15272955429E+02  0.52649064451E+02  0.00000000000E+00 0. -1.
        -13    1    4    4    0    0 -0.22550659267E+02 -0.32635552839E+02 -0.12376873389E+02  0.41554765520E+02  0.00000000000E+00 0.  1.
         13    1    4    4    0    0 -0.23145702239E+02 -0.44965454734E+02  0.11644666924E+03  0.12695448959E+03  0.00000000000E+00 0. -1.
         21    1    1    2  502  501 -0.26759290290E+02  0.43511555605E+02  0.94993125180E+02  0.10785642734E+03  0.00000000000E+00 0. -1.
<scales pt_clust_5="13000.00000" pt_clust_6="13000.00000" pt_clust_7="13000.00000" pt_clust_8="13000.00000" pt_clust_9="51.08146"></scales>
<clustering>
<clus scale="   51.081">  1  9  2 -1</clus>
<clus scale="   81.087">  5  6 -1 -1</clus>
<clus scale="   97.236">  7  8 -1 -1</clus>
<clus scale="  113.632">  2  5  1 -1</clus>
<clus scale="   51.081">  1  5  2 -1</clus>
</clustering>
</event>
<event>
 9    2  0.3791909E-005  0.1035836E+03  0.7546771E-02  0.1282152E+00
         -3   -1    0    0    0  501 -0.00000000000E+00  0.00000000000E+00  0.40504212105E+03  0.40504212105E+03  0.00000000000E+00 0.  1.
          4   -1    0    0  502    0  0.00000000000E+00 -0.00000000000E+00 -0.32141034893E+02  0.32141034893E+02  0.00000000000E+00 0. -1.
         24    2    1    2    0    0  0.25448850808E+02  0.69289202020E+01  0.22117701968E+03  0.23691286192E+03  0.80701773003E+02 0.  0.
         23    2    1    2    0    0 -0.46158573241E+02 -0.10914794966E+02  0.12170702275E+03  0.16358511016E+03  0.98477115348E+02 0.  0.
        -11    1    3    3    0    0  0.30959989424E+02 -0.32609388866E+02  0.11483048789E+03  0.12332045304E+03  0.00000000000E+00 0.  1.
         12    1    3    3    0    0 -0.55111386155E+01  0.39538309068E+02  0.10634653179E+03  0.11359240888E+03  0.00000000000E+00 0. -1.
        -11    1    4    4    0    0 -0.30947122168E+02 -0.46632786997E+02  0.28906740190E+02  0.62991593265E+02  0.00000000000E+00 0.  1.
         11    1    4    4    0    0 -0.15211451074E+02  0.35717992032E+02  0.92800282563E+02  0.10059351690E+03  0.00000000000E+00 0. -1.
         21    1    1    2  502  501  0.20709722433E+02  0.39858747636E+01  0.30017043727E+02  0.36685183862E+02  0.00000000000E+00 0. -1.
<scales pt_clust_5="13000.00000" pt_clust_6="13000.00000" pt_clust_7="13000.00000" pt_clust_8="13000.00000" pt_clust_9="21.08980"></scales>
<clustering>
<clus scale="   21.090">  2  9  1 -1</clus>
<clus scale="   80.702">  5  6 -1 -1</clus>
<clus scale="   86.860">  1  5  2 -1</clus>
<clus scale="   98.477">  7  8 -1 -1</clus>
<clus scale="   21.090">  2  5  1 -1</clus>
</clustering>
</event>
<event>
 9    2  0.3791909E-005  0.1107218E+03  0.7546771E-02  0.1263761E+00
          2   -1    0    0  502    0  0.00000000000E+00  0.00000000000E+00  0.50105787545E+03  0.50105787545E+03  0.00000000000E+00 0. -1.
         -1   -1    0    0    0  501 -0.00000000000E+00 -0.00000000000E+00 -0.38293138871E+02  0.38293138871E+02  0.00000000000E+00 0.  1.
         23    2    1    2    0    0 -0.41854728628E+02  0.18262894504E+02  0.82026660844E+02  0.13068957579E+03  0.90917767830E+02 0.  0.
         24    2    1    2    0    0  0.45711669186E+02  0.89825713810E+01  0.35038237393E+03  0.36768998464E+03  0.10128116091E+03 0.  0.
        -11    1    4    4    0    0 -0.13359235903E+02  0.36275867416E+02  0.71127147910E+02  0.80953560209E+02  0.00000000000E+00 0.  1.
         12    1    4    4    0    0  0.59070905088E+02 -0.27293296035E+02  0.27925522602E+03  0.28673642443E+03  0.00000000000E+00 0. -1.
        -13    1    3    3    0    0 -0.41645147498E+02  0.48029729273E+02  0.78042024446E+02  0.10065649896E+03  0.00000000000E+00 0.  1.
         13    1    3    3    0    0 -0.20958113062E+00 -0.29766834770E+02  0.39846363978E+01  0.30033076827E+02  0.00000000000E+00 0. -1.
         21    1    1    2  502  501 -0.38569405572E+01 -0.27245465885E+02  0.30355701805E+02  0.40971453889E+02  0.00000000000E+00 0.  1.
<scales pt_clust_5="13000.00000" pt_clust_6="13000.00000" pt_clust_7="13000.00000" pt_clust_8="13000.00000" pt_clust_9="27.51711"></scales>
<clustering>
<clus scale="   27.517">  2  9  1 -1</clus>
<clus scale="   90.918">  7  8 -1 -1</clus>
<clus scale="  101.281">  5  6 -1 -1</clus>
<clus scale="  101.329">  2  7  1 -1</clus>
<clus scale="  110.722">  1  5  2 -1</clus>
</clustering>
</event>
<event>
 9    2  0.3791909E-005  0.2538286E+03  0.7546771E-02  0.1144285E+00
         -1   -1    0    0    0  501 -0.00000000000E+00  0.00000000000E+00  0.33055311985E+03  0.33055311985E+03  0.00000000000E+00 0.  1.
          2   -1    0    0  502    0  0.00000000000E+00 -0.00000000000E+00 -0.34948963499E+03  0.34948963499E+03  0.00000000000E+00 0. -1.
         24    2    1    2    0    0  0.31250116386E+02  0.67406881140E+02  0.12032942972E+03  0.16398455655E+03  0.83015093404E+02 0.  0.
         23    2    1    2    0    0 -0.21242813126E+03  0.98742646509E+02 -0.61910835760E+02  0.25834721382E+03  0.89635428920E+02 0.  0.
        -11    1    3    3    0    0 -0.20910445334E+02 -0.19506812854E+01  0.90543295242E+01  0.22869909591E+02  0.00000000000E+00 0.  1.
         12    1    3    3    0    0  0.52160561720E+02  0.69357562425E+02  0.11127510019E+03  0.14111464696E+03  0.00000000000E+00 0. -1.
        -13    1    4    4    0    0 -0.13152462957E+03  0.13098738272E+02 -0.43201771864E+02  0.13905645695E+03  0.00000000000E+00 0.  1.
         13    1    4    4    0    0 -0.80903501683E+02  0.85643908237E+02 -0.18709063896E+02  0.11929075687E+03  0.00000000000E+00 0. -1.
         21    1    1    2  502  501  0.18117801487E+03 -0.16614952765E+03 -0.77355109094E+02  0.25771098446E+03  0.00000000000E+00 0. -1.
<scales pt_clust_5="13000.00000" pt_clust_6="13000.00000" pt_clust_7="13000.00000" pt_clust_8="13000.00000" pt_clust_9="237.47520"></scales>
<clustering>
<clus scale="   83.015">  5  6 -1 -1</clus>
<clus scale="   89.635">  7  8 -1 -1</clus>
<clus scale="  111.408">  1  5  2 -1</clus>
<clus scale="  237.475">  2  9  1 -1</clus>
<clus scale="  237.475">  2  5  1 -1</clus>
</clustering>
</event>
<event>
 9    2  0.3791909E-005  0.1507751E+03  0.7546771E-02  0.1203357E+00
         -1   -1    0    0    0  501 -0.00000000000E+00  0.00000000000E+00  0.23708600572E+03  0.23708600572E+03  0.00000000000E+00 0.  1.
          2   -1    0    0  502    0  0.00000000000E+00 -0.00000000000E+00 -0.11156813207E+03  0.11156813207E+03  0.00000000000E+00 0. -1.
         24    2    1    2    0    0  0.11887802046E+03  0.27959046215E+02  0.82156355287E+02  0.16764192407E+03  0.80252451546E+02 0.  0.
         23    2    1    2    0    0 -0.93218901956E+02 -0.45101512772E+02  0.43612478123E+02  0.15015257174E+03  0.99598375574E+02 0.  0.
        -13    1    3    3    0    0  0.50701612267E+02  0.50141697464E+02  0.58222184920E+02  0.92057949836E+02  0.00000000000E+00 0.  1.
         14    1    3    3    0    0  0.68176408190E+02 -0.22182651249E+02  0.23934170367E+02  0.75583974235E+02  0.00000000000E+00 0. -1.
        -11    1    4    4    0    0 -0.10123416668E+03 -0.66211617000E+02  0.34356304218E+02  0.12574852035E+03  0.00000000000E+00 0.  1.
         11    1    4    4    0    0  0.80152647288E+01  0.21110104228E+02  0.92561739055E+01  0.24404051396E+02  0.00000000000E+00 0. -1.
         21    1    1    2  502  501 -0.25659118501E+02  0.17142466556E+02 -0.25095976065E+00  0.30859641973E+02  0.00000000000E+00 0.  1.
<scales pt_clust_5="13000.00000" pt_clust_6="13000.00000" pt_clust_7="13000.00000" pt_clust_8="13000.00000" pt_clust_9="30.85862"></scales>
<clustering>
<clus scale="   30.859">  2  9  1 -1</clus>
<clus scale="   80.252">  5  6 -1 -1</clus>
<clus scale="   99.598">  7  8 -1 -1</clus>
<clus scale="  138.758">  1  5  2 -1</clus>
<clus scale="   30.859">  2  5  1 -1</clus>
</clustering>
</event>
<event>
 9    2  0.3791909E-005  0.1691747E+03  0.7546771E-02  0.1179979E+00
          2   -1    0    0  502    0  0.00000000000E+00  0.00000000000E+00  0.60586759793E+03  0.60586759793E+03  0.00000000000E+00 0. -1.
         -1   -1    0    0    0  501 -0.00000000000E+00 -0.00000000000E+00 -0.86171541011E+02  0.86171541011E+02  0.00000000000E+00 0.  1.
         23    2    1    2    0    0 -0.11326088491E+03  0.84815802016E+02  0.50090298450E+02  0.17503401949E+03  0.90034002789E+02 0.  0.
         24    2    1    2    0    0  0.95125822075E+02 -0.12087079567E+03  0.40694392020E+03  0.44247090552E+03  0.80737084237E+02 0.  0.
        -11    1    4    4    0    0  0.70531459596E+01 -0.67313951339E+02  0.12293835209E+03  0.14033799673E+03  0.00000000000E+00 0.  1.
         12    1    4    4    0    0  0.88072676115E+02 -0.53556844332E+02  0.28400556812E+03  0.30213290879E+03  0.00000000000E+00 0. -1.
        -13    1    3    3    0    0 -0.80623672251E+02  0.73388624456E+02  0.75075531749E+02  0.13237221081E+03  0.00000000000E+00 0. -1.
         13    1    3    3    0    0 -0.32637212655E+02  0.11427177560E+02 -0.24985233299E+02  0.42661808681E+02  0.00000000000E+00 0.  1.
         21    1    1    2  502  501  0.18135062832E+02  0.36054993655E+02  0.62661838265E+02  0.74534213930E+02  0.00000000000E+00 0.  1.
<scales pt_clust_5="13000.00000" pt_clust_6="13000.00000" pt_clust_7="13000.00000" pt_clust_8="13000.00000" pt_clust_9="40.35893"></scales>
<clustering>
<clus scale="   40.359">  1  9  2 -1</clus>
<clus scale="   80.737">  5  6 -1 -1</clus>
<clus scale="   90.034">  7  8 -1 -1</clus>
<clus scale="  164.415">  1  5  2 -1</clus>
<clus scale="   40.359">  1  5  2 -1</clus>
</clustering>
</event>
<event>
 9    2  0.3791909E-005  0.2034364E+03  0.7546771E-02  0.1148325E+00
          2   -1    0    0  502    0  0.00000000000E+00  0.00000000000E+00  0.18643897592E+03  0.18643897592E+03  0.00000000000E+00 0. -1.
         -1   -1    0    0    0  501 -0.00000000000E+00 -0.00000000000E+00 -0.59794949996E+03  0.59794949996E+03  0.00000000000E+00 0.  1.
         23    2    1    2    0    0 -0.80530518463E+02 -0.15804917212E+03 -0.43826016078E+03  0.48231465037E+03  0.95345415341E+02 0.  0.
         24    2    1    2    0    0  0.34062405772E+02  0.19274165544E+03 -0.38534906272E+02  0.21475300639E+03  0.79525602945E+02 0.  0.
        -13    1    4    4    0    0  0.47623506855E+02  0.57697341798E+02 -0.22276860029E+02  0.78059209249E+02  0.00000000000E+00 0.  1.
         14    1    4    4    0    0 -0.13561101083E+02  0.13504431364E+03 -0.16258046243E+02  0.13669379714E+03  0.00000000000E+00 0. -1.
        -13    1    3    3    0    0  0.12349616194E+02 -0.40896060752E+02 -0.47259062321E+02  0.63705727974E+02  0.00000000000E+00 0. -1.
         13    1    3    3    0    0 -0.92880134657E+02 -0.11715311137E+03 -0.39100109846E+03  0.41860892240E+03  0.00000000000E+00 0.  1.
         21    1    1    2  502  501  0.46468112691E+02 -0.34692483317E+02  0.65284543015E+02  0.87320819124E+02  0.00000000000E+00 0. -1.
<scales pt_clust_5="13000.00000" pt_clust_6="13000.00000" pt_clust_7="13000.00000" pt_clust_8="13000.00000" pt_clust_9="57.99012"></scales>
<clustering>
<clus scale="   57.990">  1  9  2 -1</clus>
<clus scale="   79.526">  5  6 -1 -1</clus>
<clus scale="   95.345">  7  8 -1 -1</clus>
<clus scale="  196.520">  1  5  2 -1</clus>
<clus scale="   57.990">  1  5  2 -1</clus>
</clustering>
</event>
<event>
 9    2  0.3791909E-005  0.1445351E+03  0.7546771E-02  0.1210318E+00
          2   -1    0    0  502    0  0.00000000000E+00  0.00000000000E+00  0.38662347835E+03  0.38662347835E+03  0.00000000000E+00 0. -1.
         -1   -1    0    0    0  501 -0.00000000000E+00 -0.00000000000E+00 -0.14035785212E+03  0.14035785212E+03  0.00000000000E+00 0.  1.
         24    2    1    2    0    0  0.18038163809E+01 -0.98545517849E+02 -0.81749647593E+02  0.15023180672E+03  0.78562828524E+02 0.  0.
         23    2    1    2    0    0 -0.20957623764E+02  0.11042302641E+03  0.32184923211E+03  0.35338365939E+03  0.93062429367E+02 0.  0.
        -13    1    3    3    0    0  0.22648623646E+02 -0.38641553135E+01  0.66719068346E+00  0.22985582280E+02  0.00000000000E+00 0.  1.
         14    1    3    3    0    0 -0.20844807265E+02 -0.94681362535E+02 -0.82416838276E+02  0.12724622443E+03  0.00000000000E+00 0. -1.
        -13    1    4    4    0    0 -0.13341533250E+02  0.87166897399E+02  0.31620364999E+03  0.32826942102E+03  0.00000000000E+00 0. -1.
         13    1    4    4    0    0 -0.76160905138E+01  0.23256129015E+02  0.56455821217E+01  0.25114238371E+02  0.00000000000E+00 0.  1.
         21    1    1    2  502  501  0.19153807383E+02 -0.11877508565E+02  0.61660417098E+01  0.23365864362E+02  0.00000000000E+00 0.  1.
<scales pt_clust_5="13000.00000" pt_clust_6="13000.00000" pt_clust_7="13000.00000" pt_clust_8="13000.00000" pt_clust_9="22.53760"></scales>
<clustering>
<clus scale="   22.538">  2  9  1 -1</clus>
<clus scale="   78.563">  5  6 -1 -1</clus>
<clus scale="   93.062">  7  8 -1 -1</clus>
<clus scale="  135.654">  2  5  1 -1</clus>
<clus scale="  144.535">  1  5  2 -1</clus>
</clustering>
</event>
<event>
 9    2  0.3791909E-005  0.9256194E+02  0.7546771E-02  0.1302915E+00
         -3   -1    0    0    0  501 -0.00000000000E+00  0.00000000000E+00  0.21026130440E+03  0.21026130440E+03  0.00000000000E+00 0.  1.
          4   -1    0    0  502    0  0.00000000000E+00 -0.00000000000E+00 -0.20232033201E+03  0.20232033201E+03  0.00000000000E+00 0. -1.
         23    2    1    2    0    0  0.22577472975E+02 -0.36189171248E+01  0.16702055594E+03  0.19122481739E+03  0.90267523690E+02 0.  0.
         24    2    1    2    0    0  0.86957476476E+01 -0.29149155451E+02 -0.15342487018E+03  0.17570885421E+03  0.80056988235E+02 0.  0.
        -11    1    4    4    0    0  0.35167348823E+02 -0.29971511573E+02 -0.46503224994E+02  0.65555959790E+02  0.00000000000E+00 0.  1.
         12    1    4    4    0    0 -0.26471601175E+02  0.82235612151E+00 -0.10692164519E+03  0.11015289442E+03  0.00000000000E+00 0. -1.
        -11    1    3    3    0    0  0.40740790017E+02  0.12135710851E+02  0.16089052315E+03  0.16641168195E+03  0.00000000000E+00 0.  1.
         11    1    3    3    0    0 -0.18163317042E+02 -0.15754627976E+02  0.61300327915E+01  0.24813135446E+02  0.00000000000E+00 0. -1.
         21    1    1    2  502  501 -0.31273220622E+02  0.32768072576E+02 -0.56547133661E+01  0.45647964814E+02  0.00000000000E+00 0.  1.
<scales pt_clust_5="13000.00000" pt_clust_6="13000.00000" pt_clust_7="13000.00000" pt_clust_8="13000.00000" pt_clust_9="45.29637"></scales>
<clustering>
<clus scale="   45.296">  2  9  1 -1</clus>
<clus scale="   80.057">  5  6 -1 -1</clus>
<clus scale="   82.635">  2  5  1 -1</clus>
<clus scale="   90.268">  7  8 -1 -1</clus>
<clus scale="   45.296">  2  5  1 -1</clus>
</clustering>
</event>
<event>
 9    2  0.3791909E-005  0.1030613E+03  0.7546771E-02  0.1280479E+00
          2   -1    0    0  502    0  0.00000000000E+00  0.00000000000E+00  0.29406538656E+03  0.29406538656E+03  0.00000000000E+00 0. -1.
         -1   -1    0    0    0  501 -0.00000000000E+00 -0.00000000000E+00 -0.39623088636E+03  0.39623088636E+03  0.00000000000E+00 0.  1.
         23    2    1    2    0    0  0.40570572938E+02 -0.19678388984E+02 -0.37757152044E+03  0.39151241021E+03  0.93212144684E+02 0.  0.
         24    2    1    2    0    0 -0.90689658061E+01  0.42031565539E+01  0.20304640971E+03  0.21836155633E+03  0.79712057557E+02 0.  0.
        -11    1    4    4    0    0  0.19042633098E+02  0.16711894368E+02  0.18762999811E+02  0.31527122460E+02  0.00000000000E+00 0.  1.
         12    1    4    4    0    0 -0.28111598904E+02 -0.12508737814E+02  0.18428340990E+03  0.18683443387E+03  0.00000000000E+00 0. -1.
        -11    1    3    3    0    0  0.53350642208E+02 -0.45710261679E+02 -0.20973161039E+03  0.22118559502E+03  0.00000000000E+00 0. -1.
         11    1    3    3    0    0 -0.12780069270E+02  0.26031872695E+02 -0.16783991005E+03  0.17032681519E+03  0.00000000000E+00 0.  1.
         21    1    1    2  502  501 -0.31501607131E+02  0.15475232430E+02  0.72359610927E+02  0.80422306384E+02  0.00000000000E+00 0. -1.
<scales pt_clust_5="13000.00000" pt_clust_6="13000.00000" pt_clust_7="13000.00000" pt_clust_8="13000.00000" pt_clust_9="35.09749"></scales>
<clustering>
<clus scale="   35.097">  1  9  2 -1</clus>
<clus scale="   79.712">  5  6 -1 -1</clus>
<clus scale="   91.034">  1  5  2 -1</clus>
<clus scale="   93.212">  7  8 -1 -1</clus>
<clus scale="   35.097">  1  5  2 -1</clus>
</clustering>
</event>
<event>
 9    2  0.3791909E-005  0.1426818E+03  0.7546771E-02  0.1223491E+00
         -1   -1    0    0    0  501 -0.00000000000E+00  0.00000000000E+00  0.12640128201E+03  0.12640128201E+03  0.00000000000E+00 0.  1.
          2   -1    0    0  502    0  0.00000000000E+00 -0.00000000000E+00 -0.22066630534E+03  0.22066630534E+03  0.00000000000E+00 0. -1.
         23    2    1    2    0    0  0.53705403824E+02  0.50214302087E+02  0.28735195180E+02  0.14819019804E+03  0.12541481898E+03 0.  0.
         24    2    1    2    0    0 -0.32685856070E+02 -0.53485437281E+02 -0.36344880490E+02  0.10964920250E+03  0.82297874106E+02 0.  0.
        -13    1    4    4    0    0 -0.27430443128E+02 -0.48994848429E+02  0.14776452295E+02  0.58062620723E+02  0.00000000000E+00 0.  1.
         14    1    4    4    0    0 -0.52554129424E+01 -0.44905888516E+01 -0.51121332786E+02  0.51586581775E+02  0.00000000000E+00 0. -1.
        -11    1    3    3    0    0  0.72329632823E+02  0.20165912193E+02 -0.28998124947E+02  0.80493049696E+02  0.00000000000E+00 0.  1.
         11    1    3    3    0    0 -0.18624228999E+02  0.30048389894E+02  0.57733320127E+02  0.67697148344E+02  0.00000000000E+00 0. -1.
         21    1    1    2  502  501 -0.21019547754E+02  0.32711351938E+01 -0.86655338024E+02  0.89228186810E+02  0.00000000000E+00 0. -1.
<scales pt_clust_5="13000.00000" pt_clust_6="13000.00000" pt_clust_7="13000.00000" pt_clust_8="13000.00000" pt_clust_9="21.27256"></scales>
<clustering>
<clus scale="   21.273">  2  9  1 -1</clus>
<clus scale="   82.298">  5  6 -1 -1</clus>
<clus scale="  106.781">  2  5  1 -1</clus>
<clus scale="  125.415">  7  8 -1 -1</clus>
<clus scale="   21.273">  2  5  1 -1</clus>
</clustering>
</event>
<event>
 9    2  0.3791909E-005  0.9664722E+02  0.7546771E-02  0.1291511E+00
         -1   -1    0    0    0  501 -0.00000000000E+00  0.00000000000E+00  0.86154772069E+02  0.86154772069E+02  0.00000000000E+00 0.  1.
          2   -1    0    0  502    0  0.00000000000E+00 -0.00000000000E+00 -0.29341141058E+03  0.29341141058E+03  0.00000000000E+00 0. -1.
         23    2    1    2    0    0  0.32865756917E+02 -0.21141329352E+02  0.35576139362E+02  0.10195414951E+03  0.87188721323E+02 0.  0.
         24    2    1    2    0    0 -0.35920217793E+02  0.51564255544E+02 -0.20753994524E+03  0.23091654937E+03  0.79375622241E+02 0.  0.
        -13    1    4    4    0    0  0.13329544692E+02  0.29660106878E+02 -0.26272269898E+02  0.41804675184E+02  0.00000000000E+00 0.  1.
         14    1    4    4    0    0 -0.49249762484E+02  0.21904148666E+02 -0.18126767534E+03  0.18911187419E+03  0.00000000000E+00 0. -1.
        -13    1    3    3    0    0  0.57832627995E+02  0.16800550382E+01  0.35969083240E+02  0.68126429489E+02  0.00000000000E+00 0.  1.
         13    1    3    3    0    0 -0.24966871078E+02 -0.22821384391E+02 -0.39294387868E+00  0.33827720021E+02  0.00000000000E+00 0. -1.
         21    1    1    2  502  501  0.30544608759E+01 -0.30422926191E+02 -0.35292832632E+02  0.46695483770E+02  0.00000000000E+00 0.  1.
<scales pt_clust_5="13000.00000" pt_clust_6="13000.00000" pt_clust_7="13000.00000" pt_clust_8="13000.00000" pt_clust_9="30.57588"></scales>
<clustering>
<clus scale="   30.576">  2  9  1 -1</clus>
<clus scale="   79.376">  5  6 -1 -1</clus>
<clus scale="   87.189">  7  8 -1 -1</clus>
<clus scale="   89.662">  2  5  1 -1</clus>
<clus scale="   30.576">  2  5  1 -1</clus>
</clustering>
</event>
<event>
 9    2  0.3791909E-005  0.1244691E+03  0.7546771E-02  0.1238846E+00
         -1   -1    0    0    0  501 -0.00000000000E+00  0.00000000000E+00  0.34409942060E+02  0.34409942060E+02  0.00000000000E+00 0.  1.
          2   -1    0    0  502    0  0.00000000000E+00 -0.00000000000E+00 -0.77110248991E+03  0.77110248991E+03  0.00000000000E+00 0. -1.
         24    2    1    2    0    0 -0.64550515218E+02 -0.54734187368E+02 -0.10837893661E+03  0.15974536732E+03  0.81301833918E+02 0.  0.
         23    2    1    2    0    0  0.78203777443E+02  0.36145400741E+02 -0.51216917705E+03  0.52735471668E+03  0.91451683878E+02 0.  0.
        -13    1    3    3    0    0 -0.62153593027E+02  0.31035310899E+00 -0.54063913320E+02  0.82377619343E+02  0.00000000000E+00 0.  1.
         14    1    3    3    0    0 -0.23969221911E+01 -0.55044540477E+02 -0.54315023287E+02  0.77367747976E+02  0.00000000000E+00 0. -1.
        -11    1    4    4    0    0  0.11820065452E+02  0.55048059049E+02 -0.21163132206E+03  0.21899273784E+03  0.00000000000E+00 0. -1.
         11    1    4    4    0    0  0.66383711991E+02 -0.18902658309E+02 -0.30053785499E+03  0.30836197884E+03  0.00000000000E+00 0.  1.
         21    1    1    2  502  501 -0.13653262225E+02  0.18588786627E+02 -0.11614443420E+03  0.11841234797E+03  0.00000000000E+00 0. -1.
<scales pt_clust_5="13000.00000" pt_clust_6="13000.00000" pt_clust_7="13000.00000" pt_clust_8="13000.00000" pt_clust_9="23.06414"></scales>
<clustering>
<clus scale="   23.064">  2  9  1 -1</clus>
<clus scale="   81.302">  5  6 -1 -1</clus>
<clus scale="   91.452">  7  8 -1 -1</clus>
<clus scale="  117.214">  1  5  2 -1</clus>
<clus scale="   23.064">  2  5  1 -1</clus>
</clustering>
</event>
<event>
 9    2  0.3791909E-005  0.1207570E+03  0.7546771E-02  0.1246825E+00
          2   -1    0    0  502    0  0.00000000000E+00  0.00000000000E+00  0.34352352589E+03  0.34352352589E+03  0.00000000000E+00 0. -1.
         -1   -1    0    0    0  501 -0.00000000000E+00 -0.00000000000E+00 -0.17342638891E+03  0.17342638891E+03  0.00000000000E+00 0.  1.
         24    2    1    2    0    0 -0.50598174864E+02  0.37264691553E+02 -0.13580668365E+03  0.16907091190E+03  0.78693617221E+02 0.  0.
         23    2    1    2    0    0  0.71106280424E+02 -0.29275066992E+02  0.30201648982E+03  0.32552888355E+03  0.94031703374E+02 0.  0.
        -13    1    3    3    0    0 -0.43556750992E+02 -0.16424377852E+02 -0.61880498210E+02  0.77434790654E+02  0.00000000000E+00 0.  1.
         14    1    3    3    0    0 -0.70414238716E+01  0.53689069405E+02 -0.73926185436E+02  0.91636121245E+02  0.00000000000E+00 0. -1.
        -11    1    4    4    0    0 -0.21489982880E+02 -0.14797658472E+02  0.45822315242E+02  0.52730206092E+02  0.00000000000E+00 0.  1.
         11    1    4    4    0    0  0.92596263303E+02 -0.14477408520E+02  0.25619417458E+03  0.27279867746E+03  0.00000000000E+00 0. -1.
         21    1    1    2  502  501 -0.20508105560E+02 -0.79896245612E+01  0.38873308126E+01  0.22350119354E+02  0.00000000000E+00 0. -1.
<scales pt_clust_5="13000.00000" pt_clust_6="13000.00000" pt_clust_7="13000.00000" pt_clust_8="13000.00000" pt_clust_9="22.00946"></scales>
<clustering>
<clus scale="   22.009">  2  9  1 -1</clus>
<clus scale="   78.694">  5  6 -1 -1</clus>
<clus scale="   94.032">  7  8 -1 -1</clus>
<clus scale="  109.238">  2  5  1 -1</clus>
<clus scale="  120.757">  1  5  2 -1</clus>
</clustering>
</event>
<event>
 9    2  0.3791909E-005  0.1640592E+03  0.7546771E-02  0.1185530E+00
          2   -1    0    0  502    0  0.00000000000E+00  0.00000000000E+00  0.73976532288E+03  0.73976532288E+03  0.00000000000E+00 0. -1.
         -1   -1    0    0    0  501 -0.00000000000E+00 -0.00000000000E+00 -0.15035463551E+03  0.15035463551E+03  0.00000000000E+00 0.  1.
         24    2    1    2    0    0 -0.13488480385E+03 -0.60046521851E+02 -0.63421691889E+02  0.17986209728E+03  0.80799554097E+02 0.  0.
         23    2    1    2    0    0  0.18586367347E+02  0.11814968179E+03  0.35972932092E+03  0.38961677463E+03  0.89951355643E+02 0.  0.
        -11    1    3    3    0    0 -0.75062004867E+02 -0.16248147974E+02 -0.71940825529E+02  0.10523207337E+03  0.00000000000E+00 0.  1.
         12    1    3    3    0    0 -0.59822798980E+02 -0.43798373877E+02  0.85191336396E+01  0.74630023918E+02  0.00000000000E+00 0. -1.
        -13    1    4    4    0    0  0.53270094764E+02  0.80257865405E+02  0.26314130588E+03  0.28021844125E+03  0.00000000000E+00 0. -1.
         13    1    4    4    0    0 -0.34683727416E+02  0.37891816382E+02  0.96588015043E+02  0.10939833338E+03  0.00000000000E+00 0.  1.
         21    1    1    2  502  501  0.11629843650E+03 -0.58103159937E+02  0.29310305834E+03  0.32064108648E+03  0.00000000000E+00 0. -1.
<scales pt_clust_5="13000.00000" pt_clust_6="13000.00000" pt_clust_7="13000.00000" pt_clust_8="13000.00000" pt_clust_9="130.00501"></scales>
<clustering>
<clus scale="   80.800">  5  6 -1 -1</clus>
<clus scale="   89.951">  7  8 -1 -1</clus>
<clus scale="  130.005">  1  9  2 -1</clus>
<clus scale="  159.225">  2  5  1 -1</clus>
<clus scale="  130.005">  1  5  2 -1</clus>
</clustering>
</event>
<event>
 9    2  0.3791909E-005  0.1884733E+03  0.7546771E-02  0.1159991E+00
          2   -1    0    0  502    0  0.00000000000E+00  0.00000000000E+00  0.59666994508E+03  0.59666994508E+03  0.00000000000E+00 0. -1.
         -1   -1    0    0    0  501 -0.00000000000E+00 -0.00000000000E+00 -0.12804785845E+03  0.12804785845E+03  0.00000000000E+00 0.  1.
         23    2    1    2    0    0 -0.77167727688E+02  0.17668972760E+03  0.24510587855E+02  0.21468044609E+03  0.91174596133E+02 0.  0.
         24    2    1    2    0    0  0.86927949211E+02 -0.78441819962E+02  0.21744087881E+03  0.26279762916E+03  0.89846928950E+02 0.  0.
        -13    1    4    4    0    0  0.37894846483E+02 -0.68611334768E+02  0.63306099520E+02  0.10075314826E+03  0.00000000000E+00 0.  1.
         14    1    4    4    0    0  0.49033102729E+02 -0.98304851948E+01  0.15413477929E+03  0.16204448090E+03  0.00000000000E+00 0. -1.
        -13    1    3    3    0    0 -0.25724430665E+02  0.11535034656E+03  0.53244498772E+02  0.12962416994E+03  0.00000000000E+00 0. -1.
         13    1    3    3    0    0 -0.51443297023E+02  0.61339381044E+02 -0.28733910917E+02  0.85056276147E+02  0.00000000000E+00 0.  1.
         21    1    1    2  502  501 -0.97602215231E+01 -0.98247907639E+02  0.22667061996E+03  0.24723972827E+03  0.00000000000E+00 0.  1.
<scales pt_clust_5="13000.00000" pt_clust_6="13000.00000" pt_clust_7="13000.00000" pt_clust_8="13000.00000" pt_clust_9="98.73152"></scales>
<clustering>
<clus scale="   89.847">  5  6 -1 -1</clus>
<clus scale="   91.175">  7  8 -1 -1</clus>
<clus scale="   98.732">  1  9  2 -1</clus>
<clus scale="  187.835">  1  5  2 -1</clus>
<clus scale="   98.732">  1  5  2 -1</clus>
</clustering>
</event>
<event>
 9    2  0.3791909E-005  0.1754718E+03  0.7546771E-02  0.1194312E+00
         -1   -1    0    0    0  501 -0.00000000000E+00  0.00000000000E+00  0.47653471077E+02  0.47653471077E+02  0.00000000000E+00 0.  1.
          2   -1    0    0  502    0  0.00000000000E+00 -0.00000000000E+00 -0.13456481463E+04  0.13456481463E+04  0.00000000000E+00 0. -1.
         24    2    1    2    0    0  0.12839649000E+03  0.10740821696E+03 -0.22789300530E+03  0.29427809516E+03  0.81499642393E+02 0.  0.
         23    2    1    2    0    0 -0.16024296753E+02 -0.57358080545E+02 -0.28781609665E+03  0.30712501603E+03  0.89111966010E+02 0.  0.
        -13    1    3    3    0    0  0.83905604316E+02  0.27830973799E+02 -0.73449860573E+02  0.11493300464E+03  0.00000000000E+00 0.  1.
         14    1    3    3    0    0  0.44490885681E+02  0.79577243159E+02 -0.15444314473E+03  0.17934509052E+03  0.00000000000E+00 0. -1.
        -11    1    4    4    0    0 -0.97381658818E+01 -0.78162922463E+02 -0.17053195853E+03  0.18784414604E+03  0.00000000000E+00 0. -1.
         11    1    4    4    0    0 -0.62861308714E+01  0.20804841918E+02 -0.11728413812E+03  0.11928086998E+03  0.00000000000E+00 0.  1.
         21    1    1    2  502  501 -0.11237219324E+03 -0.50050136413E+02 -0.78228557325E+03  0.79189850618E+03  0.00000000000E+00 0. -1.
<scales pt_clust_5="13000.00000" pt_clust_6="13000.00000" pt_clust_7="13000.00000" pt_clust_8="13000.00000" pt_clust_9="155.39683"></scales>
<clustering>
<clus scale="   81.500">  5  6 -1 -1</clus>
<clus scale="   89.112">  7  8 -1 -1</clus>
<clus scale="  107.181">  2  7  1 -1</clus>
<clus scale="  155.397">  2  9  1 -1</clus>
<clus scale="  107.181">  2  5  1 -1</clus>
</clustering>
</event>
<event>
 9    2  0.3791909E-005  0.1160876E+03  0.7546771E-02  0.1253918E+00
          2   -1    0    0  502    0  0.00000000000E+00  0.00000000000E+00  0.13251903569E+03  0.13251903569E+03  0.00000000000E+00 0. -1.
         -1   -1    0    0    0  501 -0.00000000000E+00 -0.00000000000E+00 -0.17032466692E+03  0.17032466692E+03  0.00000000000E+00 0.  1.
         24    2    1    2    0    0 -0.51659769874E+02 -0.10480116938E+02 -0.10044324034E+03  0.13872905562E+03  0.79864520721E+02 0.  0.
         23    2    1    2    0    0  0.75985036792E+02  0.43387549039E+01  0.69427387677E+02  0.13812357099E+03  0.92007652364E+02 0.  0.
        -11    1    3    3    0    0 -0.57787503288E+02 -0.40831906945E+01 -0.11084242456E+03  0.12506842553E+03  0.00000000000E+00 0.  1.
         12    1    3    3    0    0  0.61277334144E+01 -0.63969262430E+01  0.10399184219E+02  0.13660630094E+02  0.00000000000E+00 0. -1.
        -11    1    4    4    0    0  0.28233087598E+02  0.90448396973E+01  0.83100295975E+02  0.88230241707E+02  0.00000000000E+00 0. -1.
         11    1    4    4    0    0  0.47751949194E+02 -0.47060847934E+01 -0.13672908298E+02  0.49893329285E+02  0.00000000000E+00 0.  1.
         21    1    1    2  502  501 -0.24325266918E+02  0.61413620336E+01 -0.67897785652E+01  0.25991075992E+02  0.00000000000E+00 0.  1.
<scales pt_clust_5="13000.00000" pt_clust_6="13000.00000" pt_clust_7="13000.00000" pt_clust_8="13000.00000" pt_clust_9="25.08854"></scales>
<clustering>
<clus scale="   25.089">  2  9  1 -1</clus>
<clus scale="   79.865">  5  6 -1 -1</clus>
<clus scale="   92.008">  7  8 -1 -1</clus>
<clus scale="  106.720">  2  5  1 -1</clus>
<clus scale="  116.088">  1  5  2 -1</clus>
</clustering>
</event>
<event>
 9    2  0.3791909E-005  0.1577588E+03  0.7546771E-02  0.1193808E+00
          2   -1    0    0  502    0  0.00000000000E+00  0.00000000000E+00  0.49119809342E+03  0.49119809342E+03  0.00000000000E+00 0. -1.
         -1   -1    0    0    0  501 -0.00000000000E+00 -0.00000000000E+00 -0.10757202814E+03  0.10757202814E+03  0.00000000000E+00 0.  1.
         23    2    1    2    0    0  0.14051354099E+02 -0.12233636614E+03  0.39556967197E+02  0.15953521171E+03  0.93397553987E+02 0.  0.
         24    2    1    2    0    0  0.18924425529E+02  0.13343983732E+03  0.84105041080E+02  0.17695261910E+03  0.77937458290E+02 0.  0.
        -13    1    4    4    0    0 -0.29740831503E+02  0.35901185012E+02  0.22911441035E+02  0.51945608805E+02  0.00000000000E+00 0.  1.
         14    1    4    4    0    0  0.48665257032E+02  0.97538652304E+02  0.61193600045E+02  0.12500701029E+03  0.00000000000E+00 0. -1.
        -11    1    3    3    0    0  0.21571896366E+01 -0.93955310294E+02 -0.16661566240E+02  0.95445594918E+02  0.00000000000E+00 0.  1.
         11    1    3    3    0    0  0.11894164462E+02 -0.28381055841E+02  0.56218533437E+02  0.64089616794E+02  0.00000000000E+00 0. -1.
         21    1    1    2  502  501 -0.32975779628E+02 -0.11103471181E+02  0.25996405700E+03  0.26228229076E+03  0.00000000000E+00 0. -1.
<scales pt_clust_5="13000.00000" pt_clust_6="13000.00000" pt_clust_7="13000.00000" pt_clust_8="13000.00000" pt_clust_9="34.79496"></scales>
<clustering>
<clus scale="   34.795">  1  9  2 -1</clus>
<clus scale="   77.937">  5  6 -1 -1</clus>
<clus scale="   93.398">  7  8 -1 -1</clus>
<clus scale="  149.127">  1  5  2 -1</clus>
<clus scale="   34.795">  1  5  2 -1</clus>
</clustering>
</event>
<event>
 9    2  0.3791909E-005  0.1630481E+03  0.7546771E-02  0.1204831E+00
         -1   -1    0    0    0  501 -0.00000000000E+00  0.00000000000E+00  0.15561790824E+03  0.15561790824E+03  0.00000000000E+00 0.  1.
          2   -1    0    0  502    0  0.00000000000E+00 -0.00000000000E+00 -0.78074063561E+03  0.78074063561E+03  0.00000000000E+00 0. -1.
         24    2    1    2    0    0  0.68767996192E+02  0.13028097239E+02  0.96324613793E+02  0.14344361421E+03  0.79992941047E+02 0.  0.
         23    2    1    2    0    0  0.80322300025E+02  0.27518637726E+02 -0.12336948516E+03  0.17520215174E+03  0.90922036947E+02 0.  0.
        -11    1    3    3    0    0  0.65392290140E+02  0.38240428269E+02  0.50532038165E+02  0.91060248435E+02  0.00000000000E+00 0.  1.
         12    1    3    3    0    0  0.33757060520E+01 -0.25212331029E+02  0.45792575629E+02  0.52383365776E+02  0.00000000000E+00 0. -1.
        -11    1    4    4    0    0  0.62919473198E+02 -0.25799474558E+02 -0.73748806689E+02  0.10031629720E+03  0.00000000000E+00 0.  1.
         11    1    4    4    0    0  0.17402826827E+02  0.53318112284E+02 -0.49620678466E+02  0.74885854542E+02  0.00000000000E+00 0. -1.
         21    1    1    2  502  501 -0.14909029622E+03 -0.40546734965E+02 -0.59807785601E+03  0.61771277791E+03  0.00000000000E+00 0. -1.
<scales pt_clust_5="13000.00000" pt_clust_6="13000.00000" pt_clust_7="13000.00000" pt_clust_8="13000.00000" pt_clust_9="135.34350"></scales>
<clustering>
<clus scale="   79.993">  5  6 -1 -1</clus>
<clus scale="   90.922">  7  8 -1 -1</clus>
<clus scale="  106.290">  1  5  2 -1</clus>
<clus scale="  135.344">  2  9  1 -1</clus>
<clus scale="  135.344">  2  5  1 -1</clus>
</clustering>
</event>
<event>
 9    2  0.3791909E-005  0.9939519E+02  0.7546771E-02  0.1289270E+00
          2   -1    0    0  502    0  0.00000000000E+00  0.00000000000E+00  0.24735895742E+03  0.24735895742E+03  0.00000000000E+00 0. -1.
         -1   -1    0    0    0  501 -0.00000000000E+00 -0.00000000000E+00 -0.11898264435E+03  0.11898264435E+03  0.00000000000E+00 0.  1.
         23    2    1    2    0    0  0.10158350867E+02 -0.15324305272E+02 -0.82804683848E+02  0.12951243749E+03  0.97871494177E+02 0.  0.
         24    2    1    2    0    0 -0.19397342926E+02 -0.31896844028E+01  0.17305408513E+03  0.19344958164E+03  0.84193783963E+02 0.  0.
        -11    1    4    4    0    0  0.79351476897E+01 -0.36042729059E+02  0.43594763241E+02  0.57118720827E+02  0.00000000000E+00 0.  1.
         12    1    4    4    0    0 -0.27332490615E+02  0.32853044657E+02  0.12945932189E+03  0.13633086082E+03  0.00000000000E+00 0. -1.
        -11    1    3    3    0    0  0.52259475803E+02  0.53502279887E+01 -0.47253770277E+02  0.70658308473E+02  0.00000000000E+00 0.  1.
         11    1    3    3    0    0 -0.42101124936E+02 -0.20674533261E+02 -0.35550913570E+02  0.58854129015E+02  0.00000000000E+00 0. -1.
         21    1    1    2  502  501  0.92389920589E+01  0.18513989675E+02  0.38126911784E+02  0.43379582642E+02  0.00000000000E+00 0.  1.
<scales pt_clust_5="13000.00000" pt_clust_6="13000.00000" pt_clust_7="13000.00000" pt_clust_8="13000.00000" pt_clust_9="20.69122"></scales>
<clustering>
<clus scale="   20.691">  1  9  2 -1</clus>
<clus scale="   84.194">  5  6 -1 -1</clus>
<clus scale="   85.960">  1  5  2 -1</clus>
<clus scale="   97.871">  7  8 -1 -1</clus>
<clus scale="   20.691">  1  5  2 -1</clus>
</clustering>
</event>
<event>
 9    2  0.3791909E-005  0.1121431E+03  0.7546771E-02  0.1261935E+00
          2   -1    0    0  502    0  0.00000000000E+00  0.00000000000E+00  0.47265434098E+03  0.47265434098E+03  0.00000000000E+00 0. -1.
         -1   -1    0    0    0  501 -0.00000000000E+00 -0.00000000000E+00 -0.34457210169E+02  0.34457210169E+02  0.00000000000E+00 0.  1.
         23    2    1    2    0    0 -0.19198897264E+02  0.50516883497E+02  0.12406030699E+03  0.16415218021E+03  0.92921608490E+02 0.  0.
         24    2    1    2    0    0  0.34993811406E+02 -0.70811919146E+02  0.25198594769E+03  0.27569794671E+03  0.79205714802E+02 0.  0.
        -13    1    4    4    0    0 -0.18135832842E+02 -0.18571796733E+02  0.22276119168E+02  0.34205928609E+02  0.00000000000E+00 0.  1.
         14    1    4    4    0    0  0.53129644248E+02 -0.52240122413E+02  0.22970982852E+03  0.24149201810E+03  0.00000000000E+00 0. -1.
        -11    1    3    3    0    0 -0.15146179033E+02  0.21091904139E+02 -0.92559279892E+01  0.27567142805E+02  0.00000000000E+00 0.  1.
         11    1    3    3    0    0 -0.40527182311E+01  0.29424979357E+02  0.13331623498E+03  0.13658503741E+03  0.00000000000E+00 0. -1.
         21    1    1    2  502  501 -0.15794914142E+02  0.20295035649E+02  0.62150876138E+02  0.67261424230E+02  0.00000000000E+00 0.  1.
<scales pt_clust_5="13000.00000" pt_clust_6="13000.00000" pt_clust_7="13000.00000" pt_clust_8="13000.00000" pt_clust_9="25.71707"></scales>
<clustering>
<clus scale="   25.717">  1  9  2 -1</clus>
<clus scale="   79.206">  5  6 -1 -1</clus>
<clus scale="   92.922">  7  8 -1 -1</clus>
<clus scale="  101.070">  1  5  2 -1</clus>
<clus scale="   25.717">  1  5  2 -1</clus>
</clustering>
</event>
<event>
 9    2  0.3791909E-005  0.1043938E+03  0.7546771E-02  0.1276840E+00
          2   -1    0    0  502    0  0.00000000000E+00  0.00000000000E+00  0.61639159141E+03  0.61639159141E+03  0.00000000000E+00 0. -1.
         -1   -1    0    0    0  501 -0.00000000000E+00 -0.00000000000E+00 -0.30674793105E+02  0.30674793105E+02  0.00000000000E+00 0.  1.
         23    2    1    2    0    0  0.14479694552E+02 -0.18847017596E+02  0.14439210818E+03  0.17247552336E+03  0.91289942655E+02 0.  0.
         24    2    1    2    0    0 -0.72704601556E+02 -0.51530064176E+01  0.32478566915E+03  0.34212394317E+03  0.79060413873E+02 0.  0.
        -13    1    4    4    0    0 -0.47198650609E+02  0.28646614837E+02  0.10858340057E+03  0.12181418653E+03  0.00000000000E+00 0.  1.
         14    1    4    4    0    0 -0.25505950947E+02 -0.33799621255E+02  0.21620226858E+03  0.22030975664E+03  0.00000000000E+00 0. -1.
        -11    1    3    3    0    0 -0.20935951918E+02 -0.24015367077E+02  0.99897674624E+01  0.33389330519E+02  0.00000000000E+00 0. -1.
         11    1    3    3    0    0  0.35415646470E+02  0.51683494809E+01  0.13440234071E+03  0.13908619285E+03  0.00000000000E+00 0.  1.
         21    1    1    2  502  501  0.58224907004E+02  0.24000024014E+02  0.11653902098E+03  0.13246691798E+03  0.00000000000E+00 0.  1.
<scales pt_clust_5="13000.00000" pt_clust_6="13000.00000" pt_clust_7="13000.00000" pt_clust_8="13000.00000" pt_clust_9="62.97731"></scales>
<clustering>
<clus scale="   62.977">  2  9  1 -1</clus>
<clus scale="   79.060">  5  6 -1 -1</clus>
<clus scale="   91.290">  7  8 -1 -1</clus>
<clus scale="   93.887">  1  5  2 -1</clus>
<clus scale="   93.887">  1  5  2 -1</clus>
</clustering>
</event>
<event>
 9    2  0.3791909E-005  0.9906357E+02  0.7546771E-02  0.1288251E+00
          2   -1    0    0  502    0  0.00000000000E+00  0.00000000000E+00  0.20845148824E+03  0.20845148824E+03  0.00000000000E+00 0. -1.
         -1   -1    0    0    0  501 -0.00000000000E+00 -0.00000000000E+00 -0.12351240526E+03  0.12351240526E+03  0.00000000000E+00 0.  1.
         24    2    1    2    0    0  0.15199325206E+02  0.61176295769E+02 -0.42146042833E+02  0.11014788609E+03  0.79891859613E+02 0.  0.
         23    2    1    2    0    0 -0.61404462186E+01  0.24025906374E+02  0.53147321015E+02  0.10864234653E+03  0.91452569522E+02 0.  0.
        -11    1    3    3    0    0 -0.12653713915E+02  0.29211132744E+02 -0.56947099760E+02  0.65240929815E+02  0.00000000000E+00 0.  1.
         12    1    3    3    0    0  0.27853039121E+02  0.31965163025E+02  0.14801056927E+02  0.44906956272E+02  0.00000000000E+00 0. -1.
        -11    1    4    4    0    0  0.11803066464E+02 -0.32857737464E+02  0.16288490147E+02  0.38526071698E+02  0.00000000000E+00 0. -1.
         11    1    4    4    0    0 -0.17943512682E+02  0.56883643838E+02  0.36858830868E+02  0.70116274834E+02  0.00000000000E+00 0.  1.
         21    1    1    2  502  501 -0.90588789873E+01 -0.85202202143E+02  0.73937804799E+02  0.11317366088E+03  0.00000000000E+00 0. -1.
<scales pt_clust_5="13000.00000" pt_clust_6="13000.00000" pt_clust_7="13000.00000" pt_clust_8="13000.00000" pt_clust_9="85.68243"></scales>
<clustering>
<clus scale="   79.892">  5  6 -1 -1</clus>
<clus scale="   85.682">  1  9  2 -1</clus>
<clus scale="   88.503">  2  5  1 -1</clus>
<clus scale="   91.453">  7  8 -1 -1</clus>
<clus scale="   85.682">  1  5  2 -1</clus>
</clustering>
</event>
<event>
 9    2  0.3791909E-005  0.1105411E+03  0.7546771E-02  0.1264079E+00
         -1   -1    0    0    0  501 -0.00000000000E+00  0.00000000000E+00  0.69677761379E+02  0.69677761379E+02  0.00000000000E+00 0.  1.
          2   -1    0    0  502    0  0.00000000000E+00 -0.00000000000E+00 -0.32021776858E+03  0.32021776858E+03  0.00000000000E+00 0. -1.
         24    2    1    2    0    0 -0.49473771919E+02 -0.39819737780E+02  0.33596300351E+01  0.10151539904E+03  0.79125365745E+02 0.  0.
         23    2    1    2    0    0  0.62348103222E+02  0.18793468164E+02 -0.19936427079E+03  0.22853066464E+03  0.90772637895E+02 0.  0.
        -11    1    3    3    0    0 -0.50402527959E+02 -0.60997844123E+02  0.88407703536E+01  0.79619790459E+02  0.00000000000E+00 0.  1.
         12    1    3    3    0    0  0.92875604018E+00  0.21178106343E+02 -0.54811403186E+01  0.21895608584E+02  0.00000000000E+00 0. -1.
        -11    1    4    4    0    0  0.16228211707E+02 -0.35334957023E+02 -0.90487125656E+02  0.98487735036E+02  0.00000000000E+00 0.  1.
         11    1    4    4    0    0  0.46119891514E+02  0.54128425187E+02 -0.10887714514E+03  0.13004292960E+03  0.00000000000E+00 0. -1.
         21    1    1    2  502  501 -0.12874331303E+02  0.21026269616E+02 -0.54535366437E+02  0.59849466271E+02  0.00000000000E+00 0. -1.
<scales pt_clust_5="13000.00000" pt_clust_6="13000.00000" pt_clust_7="13000.00000" pt_clust_8="13000.00000" pt_clust_9="24.65466"></scales>
<clustering>
<clus scale="   24.655">  2  9  1 -1</clus>
<clus scale="   79.125">  5  6 -1 -1</clus>
<clus scale="   90.773">  7  8 -1 -1</clus>
<clus scale="  101.195">  1  5  2 -1</clus>
<clus scale="   24.655">  2  5  1 -1</clus>
</clustering>
</event>
<event>
 9    2  0.3791909E-005  0.1533727E+03  0.7546771E-02  0.1197821E+00
         -1   -1    0    0    0  501 -0.00000000000E+00  0.00000000000E+00  0.67402928657E+02  0.67402928657E+02  0.00000000000E+00 0.  1.
          2   -1    0    0  502    0  0.00000000000E+00 -0.00000000000E+00 -0.47078144996E+03  0.47078144996E+03  0.00000000000E+00 0. -1.
         23    2    1    2    0    0  0.92051162937E+02 -0.98782020301E+02 -0.94170728378E+02  0.18773931457E+03  0.90258628493E+02 0.  0.
         24    2    1    2    0    0 -0.70947222712E+02  0.73712194022E+02 -0.26209746661E+03  0.29305817244E+03  0.81981793566E+02 0.  0.
        -13    1    4    4    0    0 -0.41213550492E+01  0.51830742099E+02 -0.61724826771E+02  0.80705425059E+02  0.00000000000E+00 0.  1.
         14    1    4    4    0    0 -0.66825867663E+02  0.21881451923E+02 -0.20037263984E+03  0.21235274739E+03  0.00000000000E+00 0. -1.
        -11    1    3    3    0    0  0.35926158007E+02 -0.91272448159E+02 -0.86148878091E+02  0.13054875648E+03  0.00000000000E+00 0. -1.
         11    1    3    3    0    0  0.56125004930E+02 -0.75095721427E+01 -0.80218502867E+01  0.57190558086E+02  0.00000000000E+00 0.  1.
         21    1    1    2  502  501 -0.21103940225E+02  0.25069826279E+02 -0.47110326318E+02  0.57386891608E+02  0.00000000000E+00 0.  1.
<scales pt_clust_5="13000.00000" pt_clust_6="13000.00000" pt_clust_7="13000.00000" pt_clust_8="13000.00000" pt_clust_9="32.76999"></scales>
<clustering>
<clus scale="   32.770">  2  9  1 -1</clus>
<clus scale="   81.982">  5  6 -1 -1</clus>
<clus scale="   90.259">  7  8 -1 -1</clus>
<clus scale="  148.653">  2  5  1 -1</clus>
<clus scale="   32.770">  2  5  1 -1</clus>
</clustering>
</event>
<event>
 9    2  0.3791909E-005  0.1840749E+03  0.7546771E-02  0.1165318E+00
          2   -1    0    0  502    0  0.00000000000E+00  0.00000000000E+00  0.68953740843E+03  0.68953740843E+03  0.00000000000E+00 0. -1.
         -1   -1    0    0    0  501 -0.00000000000E+00 -0.00000000000E+00 -0.12514270986E+03  0.12514270986E+03  0.00000000000E+00 0.  1.
         23    2    1    2    0    0 -0.13484242454E+03 -0.91059349115E+02 -0.31501651594E+02  0.19003233032E+03  0.92981976725E+02 0.  0.
         24    2    1    2    0    0  0.10852757647E+03  0.80953462682E+02  0.47381452210E+03  0.49935384194E+03  0.80761130066E+02 0.  0.
        -11    1    4    4    0    0  0.63326634624E+02  0.30561759690E+01  0.14155296076E+03  0.15510268716E+03  0.00000000000E+00 0.  1.
         12    1    4    4    0    0  0.45200941845E+02  0.77897286713E+02  0.33226156134E+03  0.34425115477E+03  0.00000000000E+00 0. -1.
        -13    1    3    3    0    0 -0.69155613001E+02 -0.32124822747E+02 -0.60287449215E+02  0.97206376226E+02  0.00000000000E+00 0.  1.
         13    1    3    3    0    0 -0.65686811538E+02 -0.58934526367E+02  0.28785797621E+02  0.92825954091E+02  0.00000000000E+00 0. -1.
         21    1    1    2  502  501  0.26314848071E+02  0.10105886433E+02  0.12208182807E+03  0.12529394604E+03  0.00000000000E+00 0. -1.
<scales pt_clust_5="13000.00000" pt_clust_6="13000.00000" pt_clust_7="13000.00000" pt_clust_8="13000.00000" pt_clust_9="28.18865"></scales>
<clustering>
<clus scale="   28.189">  1  9  2 -1</clus>
<clus scale="   80.761">  5  6 -1 -1</clus>
<clus scale="   92.982">  7  8 -1 -1</clus>
<clus scale="  178.214">  1  5  2 -1</clus>
<clus scale="   28.189">  1  5  2 -1</clus>
</clustering>
</event>
<event>
 9    2  0.3791909E-005  0.1130505E+03  0.7546771E-02  0.1259038E+00
         -3   -1    0    0    0  501 -0.00000000000E+00  0.00000000000E+00  0.66273027946E+02  0.66273027946E+02  0.00000000000E+00 0.  1.
          4   -1    0    0  502    0  0.00000000000E+00 -0.00000000000E+00 -0.76863435339E+03  0.76863435339E+03  0.00000000000E+00 0. -1.
         24    2    1    2    0    0 -0.21069975471E+02 -0.56058312851E+02 -0.10420099124E+02  0.10104098780E+03  0.80710745524E+02 0.  0.
         23    2    1    2    0    0  0.80461880177E+02  0.10614125635E+03 -0.53269532100E+03  0.55668016966E+03  0.91588349740E+02 0.  0.
        -11    1    3    3    0    0 -0.22885007106E+02 -0.68819375946E+02  0.13592705794E+02  0.73787476624E+02  0.00000000000E+00 0.  1.
         12    1    3    3    0    0  0.18150316354E+01  0.12761063094E+02 -0.24012804919E+02  0.27253511172E+02  0.00000000000E+00 0. -1.
        -11    1    4    4    0    0  0.34084771618E+02 -0.10835589060E+02 -0.11266857640E+03  0.11820909337E+03  0.00000000000E+00 0.  1.
         11    1    4    4    0    0  0.46377108558E+02  0.11697684541E+03 -0.42002674460E+03  0.43847107628E+03  0.00000000000E+00 0. -1.
         21    1    1    2  502  501 -0.59391904706E+02 -0.50082943498E+02 -0.15924590531E+03  0.17718622388E+03  0.00000000000E+00 0.  1.
<scales pt_clust_5="13000.00000" pt_clust_6="13000.00000" pt_clust_7="13000.00000" pt_clust_8="13000.00000" pt_clust_9="77.68976"></scales>
<clustering>
<clus scale="   77.690">  2  9  1 -1</clus>
<clus scale="   80.711">  5  6 -1 -1</clus>
<clus scale="   91.588">  7  8 -1 -1</clus>
<clus scale="  104.433">  1  5  2 -1</clus>
<clus scale="   77.690">  2  5  1 -1</clus>
</clustering>
</event>
<event>
 9    2  0.3791909E-005  0.3749217E+03  0.7546771E-02  0.1052978E+00
         -1   -1    0    0    0  501 -0.00000000000E+00  0.00000000000E+00  0.11179490487E+03  0.11179490487E+03  0.00000000000E+00 0.  1.
          2   -1    0    0  502    0  0.00000000000E+00 -0.00000000000E+00 -0.16852423664E+04  0.16852423664E+04  0.00000000000E+00 0. -1.
         24    2    1    2    0    0 -0.37899594795E+03 -0.68688304361E+02 -0.63173068469E+03  0.74445810271E+03  0.82329806208E+02 0.  0.
         23    2    1    2    0    0  0.35336181760E+03 -0.25183218229E+02 -0.81211707096E+03  0.89051419654E+03  0.89345557634E+02 0.  0.
        -13    1    3    3    0    0 -0.14290840989E+03 -0.10812291341E+02 -0.16755517731E+03  0.22048686288E+03  0.00000000000E+00 0.  1.
         14    1    3    3    0    0 -0.23608753806E+03 -0.57876013020E+02 -0.46417550738E+03  0.52397123983E+03  0.00000000000E+00 0. -1.
        -11    1    4    4    0    0  0.10866158669E+03 -0.40317048466E+02 -0.20048901385E+03  0.23157860327E+03  0.00000000000E+00 0.  1.
         11    1    4    4    0    0  0.24470023091E+03  0.15133830237E+02 -0.61162805712E+03  0.65893559327E+03  0.00000000000E+00 0. -1.
         21    1    1    2  502  501  0.25634130347E+02  0.93871522590E+02 -0.12959970583E+03  0.16206497198E+03  0.00000000000E+00 0. -1.
<scales pt_clust_5="13000.00000" pt_clust_6="13000.00000" pt_clust_7="13000.00000" pt_clust_8="13000.00000" pt_clust_9="97.30864"></scales>
<clustering>
<clus scale="   82.330">  5  6 -1 -1</clus>
<clus scale="   89.346">  7  8 -1 -1</clus>
<clus scale="   97.309">  1  9  2 -1</clus>
<clus scale="  373.312">  1  5  2 -1</clus>
<clus scale="  374.922">  2  5  1 -1</clus>
</clustering>
</event>
<event>
 9    2  0.3791909E-005  0.1062995E+03  0.7546771E-02  0.1273337E+00
          2   -1    0    0  502    0  0.00000000000E+00  0.00000000000E+00  0.26197612079E+03  0.26197612079E+03  0.00000000000E+00 0. -1.
         -1   -1    0    0    0  501 -0.00000000000E+00 -0.00000000000E+00 -0.20599804006E+03  0.20599804006E+03  0.00000000000E+00 0.  1.
         23    2    1    2    0    0 -0.48564973895E+02 -0.17924359745E+02 -0.17550713434E+03  0.20515896734E+03  0.92777197153E+02 0.  0.
         24    2    1    2    0    0  0.41023405437E+02  0.41671404745E+02  0.17318248770E+03  0.19941168084E+03  0.79708334839E+02 0.  0.
        -13    1    4    4    0    0  0.46965389941E+02  0.24121833233E+02  0.43492161643E+02  0.68404523354E+02  0.00000000000E+00 0.  1.
         14    1    4    4    0    0 -0.59419845046E+01  0.17549571512E+02  0.12969032606E+03  0.13100715749E+03  0.00000000000E+00 0. -1.
        -11    1    3    3    0    0  0.14674663072E+02 -0.32775704165E+02 -0.95949631230E+02  0.10244961812E+03  0.00000000000E+00 0.  1.
         11    1    3    3    0    0 -0.63239636967E+02  0.14851344420E+02 -0.79557503112E+02  0.10270934922E+03  0.00000000000E+00 0. -1.
         21    1    1    2  502  501  0.75415684583E+01 -0.23747044999E+02  0.58302727368E+02  0.63403512675E+02  0.00000000000E+00 0. -1.
<scales pt_clust_5="13000.00000" pt_clust_6="13000.00000" pt_clust_7="13000.00000" pt_clust_8="13000.00000" pt_clust_9="24.91581"></scales>
<clustering>
<clus scale="   24.916">  1  9  2 -1</clus>
<clus scale="   79.708">  5  6 -1 -1</clus>
<clus scale="   92.777">  7  8 -1 -1</clus>
<clus scale="   95.107">  1  5  2 -1</clus>
<clus scale="   24.916">  1  5  2 -1</clus>
</clustering>
</event>
<event>
 9    2  0.3791909E-005  0.9338919E+02  0.7546771E-02  0.1300474E+00
         -1   -1    0    0    0  501 -0.00000000000E+00  0.00000000000E+00  0.33781518064E+02  0.33781518064E+02  0.00000000000E+00 0.  1.
          2   -1    0    0  502    0  0.00000000000E+00 -0.00000000000E+00 -0.39191075573E+03  0.39191075573E+03  0.00000000000E+00 0. -1.
         24    2    1    2    0    0  0.23091263136E+01 -0.22842840887E+02 -0.68583812671E+02  0.10852055804E+03  0.80906394759E+02 0.  0.
         23    2    1    2    0    0 -0.33124197122E+02  0.14240578870E+02 -0.22259642914E+03  0.24297107191E+03  0.90475217588E+02 0.  0.
        -13    1    3    3    0    0  0.41404313061E+02 -0.13048208200E+02 -0.30365387154E+02  0.52977633151E+02  0.00000000000E+00 0.  1.
         14    1    3    3    0    0 -0.39095186747E+02 -0.97946326875E+01 -0.38218425517E+02  0.55542924890E+02  0.00000000000E+00 0. -1.
        -11    1    4    4    0    0 -0.40102778973E+02  0.45713881186E+02 -0.10818681550E+03  0.12410632080E+03  0.00000000000E+00 0.  1.
         11    1    4    4    0    0  0.69785818504E+01 -0.31473302316E+02 -0.11440961363E+03  0.11886475110E+03  0.00000000000E+00 0. -1.
         21    1    1    2  502  501  0.30815070809E+02  0.86022620178E+01 -0.66948995862E+02  0.74200643849E+02  0.00000000000E+00 0.  1.
<scales pt_clust_5="13000.00000" pt_clust_6="13000.00000" pt_clust_7="13000.00000" pt_clust_8="13000.00000" pt_clust_9="31.99324"></scales>
<clustering>
<clus scale="   31.993">  2  9  1 -1</clus>
<clus scale="   80.906">  5  6 -1 -1</clus>
<clus scale="   84.152">  1  5  2 -1</clus>
<clus scale="   90.475">  7  8 -1 -1</clus>
<clus scale="   31.993">  2  5  1 -1</clus>
</clustering>
</event>
<event>
 9    2  0.3791909E-005  0.1015030E+03  0.7546771E-02  0.1283922E+00
         -1   -1    0    0    0  501 -0.00000000000E+00  0.00000000000E+00  0.39138291754E+03  0.39138291754E+03  0.00000000000E+00 0.  1.
          2   -1    0    0  502    0  0.00000000000E+00 -0.00000000000E+00 -0.31484713500E+02  0.31484713500E+02  0.00000000000E+00 0. -1.
         23    2    1    2    0    0 -0.26164618256E+02  0.29227427222E+01  0.20098592046E+03  0.22416690428E+03  0.95720066238E+02 0.  0.
         24    2    1    2    0    0  0.43799291884E+02  0.14113413459E+02  0.12160082974E+03  0.15405370088E+03  0.82633011281E+02 0.  0.
        -13    1    4    4    0    0  0.34517827397E+02 -0.33796460583E+01  0.12848854331E+03  0.13308722019E+03  0.00000000000E+00 0.  1.
         14    1    4    4    0    0  0.92814644867E+01  0.17493059517E+02 -0.68877135734E+01  0.20966480691E+02  0.00000000000E+00 0. -1.
        -11    1    3    3    0    0 -0.58747255995E+02 -0.26055168998E+01  0.16568195559E+03  0.17580824558E+03  0.00000000000E+00 0.  1.
         11    1    3    3    0    0  0.32582637739E+02  0.55282596220E+01  0.35303964872E+02  0.48358658709E+02  0.00000000000E+00 0. -1.
         21    1    1    2  502  501 -0.17634673628E+02 -0.17036156181E+02  0.37311453843E+02  0.44647025873E+02  0.00000000000E+00 0.  1.
<scales pt_clust_5="13000.00000" pt_clust_6="13000.00000" pt_clust_7="13000.00000" pt_clust_8="13000.00000" pt_clust_9="24.51963"></scales>
<clustering>
<clus scale="   24.520">  2  9  1 -1</clus>
<clus scale="   82.633">  5  6 -1 -1</clus>
<clus scale="   89.268">  2  5  1 -1</clus>
<clus scale="   95.720">  7  8 -1 -1</clus>
<clus scale="   24.520">  2  5  1 -1</clus>
</clustering>
</event>
<event>
 9    2  0.3791909E-005  0.1659911E+03  0.7546771E-02  0.1187973E+00
          2   -1    0    0  502    0  0.00000000000E+00  0.00000000000E+00  0.38240010279E+03  0.38240010279E+03  0.00000000000E+00 0. -1.
         -1   -1    0    0    0  501 -0.00000000000E+00 -0.00000000000E+00 -0.71809907941E+03  0.71809907941E+03  0.00000000000E+00 0.  1.
         24    2    1    2    0    0 -0.70052849699E+02  0.10859034094E+03 -0.66036774016E+03  0.67756803976E+03  0.79458368766E+02 0.  0.
         23    2    1    2    0    0  0.13869472298E+02 -0.48437690921E+02  0.44763835362E+02  0.13117493940E+03  0.11253662340E+03 0.  0.
        -11    1    3    3    0    0  0.62813616593E+01  0.61458967057E+02 -0.25200864901E+03  0.25947065212E+03  0.00000000000E+00 0.  1.
         12    1    3    3    0    0 -0.76334211359E+02  0.47131373878E+02 -0.40835909115E+03  0.41809738764E+03  0.00000000000E+00 0. -1.
        -11    1    4    4    0    0  0.59526661877E+01 -0.22178473134E+02 -0.37770281476E+02  0.44203088898E+02  0.00000000000E+00 0.  1.
         11    1    4    4    0    0  0.79168061108E+01 -0.26259217787E+02  0.82534116838E+02  0.86971850503E+02  0.00000000000E+00 0. -1.
         21    1    1    2  502  501  0.56183377401E+02 -0.60152650015E+02  0.27990492818E+03  0.29175620305E+03  0.00000000000E+00 0. -1.
<scales pt_clust_5="13000.00000" pt_clust_6="13000.00000" pt_clust_7="13000.00000" pt_clust_8="13000.00000" pt_clust_9="82.30986"></scales>
<clustering>
<clus scale="   79.458">  5  6 -1 -1</clus>
<clus scale="   82.310">  1  9  2 -1</clus>
<clus scale="  112.537">  7  8 -1 -1</clus>
<clus scale="  145.610">  2  5  1 -1</clus>
<clus scale="   82.310">  1  5  2 -1</clus>
</clustering>
</event>
<event>
 9    2  0.3791909E-005  0.1201062E+03  0.7546771E-02  0.1248953E+00
         -1   -1    0    0    0  501 -0.00000000000E+00  0.00000000000E+00  0.62151165351E+02  0.62151165351E+02  0.00000000000E+00 0.  1.
          2   -1    0    0  502    0  0.00000000000E+00 -0.00000000000E+00 -0.74398129709E+03  0.74398129709E+03  0.00000000000E+00 0. -1.
         24    2    1    2    0    0 -0.61428464318E+02  0.35759696553E+02 -0.37622512452E+00  0.10752394891E+03  0.80678658383E+02 0.  0.
         23    2    1    2    0    0  0.29242661431E+02 -0.48755478004E+02 -0.58998330393E+03  0.60077351264E+03  0.98062656967E+02 0.  0.
        -13    1    3    3    0    0 -0.57205200807E+02  0.56309375434E+02  0.14811210245E+02  0.81624461469E+02  0.00000000000E+00 0.  1.
         14    1    3    3    0    0 -0.42232635107E+01 -0.20549678881E+02 -0.15187435369E+02  0.25899487445E+02  0.00000000000E+00 0. -1.
        -13    1    4    4    0    0 -0.27797522875E+02  0.11766962978E+02 -0.15699563508E+03  0.15987117667E+03  0.00000000000E+00 0.  1.
         13    1    4    4    0    0  0.57040184306E+02 -0.60522440983E+02 -0.43298766885E+03  0.44090233597E+03  0.00000000000E+00 0. -1.
         21    1    1    2  502  501  0.32185802887E+02  0.12995781451E+02 -0.91470602682E+02  0.97835000884E+02  0.00000000000E+00 0. -1.
<scales pt_clust_5="13000.00000" pt_clust_6="13000.00000" pt_clust_7="13000.00000" pt_clust_8="13000.00000" pt_clust_9="34.71046"></scales>
<clustering>
<clus scale="   34.710">  2  9  1 -1</clus>
<clus scale="   80.679">  5  6 -1 -1</clus>
<clus scale="   98.063">  7  8 -1 -1</clus>
<clus scale="  106.387">  1  5  2 -1</clus>
<clus scale="   34.710">  2  5  1 -1</clus>
</clustering>
</event>
<event>
 9    2  0.3791909E-005  0.1270882E+03  0.7546771E-02  0.1234064E+00
         -1   -1    0    0    0  501 -0.00000000000E+00  0.00000000000E+00  0.19459667931E+03  0.19459667931E+03  0.00000000000E+00 0.  1.
          2   -1    0    0  502    0  0.00000000000E+00 -0.00000000000E+00 -0.51718450679E+03  0.51718450679E+03  0.00000000000E+00 0. -1.
         23    2    1    2    0    0 -0.60937856422E+02 -0.69646794051E+02  0.16095920225E+03  0.20616352074E+03  0.89618269492E+02 0.  0.
         24    2    1    2    0    0  0.25094666353E+02  0.40958705587E+02 -0.39168456909E+03  0.40292174349E+03  0.81374270304E+02 0.  0.
        -13    1    4    4    0    0 -0.24339312123E+02 -0.69146158418E+01 -0.12195879314E+03  0.12455585595E+03  0.00000000000E+00 0.  1.
         14    1    4    4    0    0  0.49433978476E+02  0.47873321429E+02 -0.26972577595E+03  0.27836588754E+03  0.00000000000E+00 0. -1.
        -11    1    3    3    0    0 -0.23269589790E+02  0.15884947902E+02  0.12697934636E+02  0.30903768748E+02  0.00000000000E+00 0. -1.
         11    1    3    3    0    0 -0.37668266632E+02 -0.85531741953E+02  0.14826126762E+03  0.17525975199E+03  0.00000000000E+00 0.  1.
         21    1    1    2  502  501  0.35843190069E+02  0.28688088464E+02 -0.91862460641E+02  0.10269592187E+03  0.00000000000E+00 0. -1.
<scales pt_clust_5="13000.00000" pt_clust_6="13000.00000" pt_clust_7="13000.00000" pt_clust_8="13000.00000" pt_clust_9="45.91014"></scales>
<clustering>
<clus scale="   45.910">  2  9  1 -1</clus>
<clus scale="   81.374">  5  6 -1 -1</clus>
<clus scale="   89.618">  7  8 -1 -1</clus>
<clus scale="  121.416">  2  5  1 -1</clus>
<clus scale="   45.910">  2  5  1 -1</clus>
</clustering>
</event>
<event>
 9    2  0.3791909E-005  0.1379625E+03  0.7546771E-02  0.1218016E+00
          2   -1    0    0  502    0  0.00000000000E+00  0.00000000000E+00  0.29920133486E+03  0.29920133486E+03  0.00000000000E+00 0. -1.
         -1   -1    0    0    0  501 -0.00000000000E+00 -0.00000000000E+00 -0.26285413948E+03  0.26285413948E+03  0.00000000000E+00 0.  1.
         23    2    1    2    0    0 -0.25852300642E+02 -0.10744282138E+03 -0.21855728513E+03  0.26104242691E+03  0.90352423599E+02 0.  0.
         24    2    1    2    0    0  0.29432055942E+02  0.46010837177E+02  0.16482773328E+03  0.19192352582E+03  0.81750933024E+02 0.  0.
        -13    1    4    4    0    0  0.34454058771E+02  0.22574771820E+02  0.21231806629E+02  0.46341041219E+02  0.00000000000E+00 0.  1.
         14    1    4    4    0    0 -0.50220028297E+01  0.23436065357E+02  0.14359592665E+03  0.14558248460E+03  0.00000000000E+00 0. -1.
        -13    1    3    3    0    0 -0.49082737188E+02 -0.78930729930E+02 -0.19842375296E+03  0.21911449280E+03  0.00000000000E+00 0.  1.
         13    1    3    3    0    0  0.23230436546E+02 -0.28512091452E+02 -0.20133532168E+02  0.41927934109E+02  0.00000000000E+00 0. -1.
         21    1    1    2  502  501 -0.35797552997E+01  0.61431984206E+02  0.90076747237E+02  0.10908952161E+03  0.00000000000E+00 0. -1.
<scales pt_clust_5="13000.00000" pt_clust_6="13000.00000" pt_clust_7="13000.00000" pt_clust_8="13000.00000" pt_clust_9="61.53620"></scales>
<clustering>
<clus scale="   61.536">  1  9  2 -1</clus>
<clus scale="   81.751">  5  6 -1 -1</clus>
<clus scale="   90.352">  7  8 -1 -1</clus>
<clus scale="  132.489">  1  5  2 -1</clus>
<clus scale="   61.536">  1  5  2 -1</clus>
</clustering>
</event>
<event>
 9    2  0.3791909E-005  0.1381685E+03  0.7546771E-02  0.1232590E+00
         -1   -1    0    0    0  501 -0.00000000000E+00  0.00000000000E+00  0.28437020830E+03  0.28437020830E+03  0.00000000000E+00 0.  1.
          2   -1    0    0  502    0  0.00000000000E+00 -0.00000000000E+00 -0.20778547514E+03  0.20778547514E+03  0.00000000000E+00 0. -1.
         23    2    1    2    0    0  0.45045070806E+02  0.12183849753E+02  0.16792189623E+03  0.19411937663E+03  0.85481369614E+02 0.  0.
         24    2    1    2    0    0 -0.65637668049E+00 -0.11637083908E+03  0.15459262329E+02  0.14237397550E+03  0.80552821746E+02 0.  0.
        -11    1    4    4    0    0  0.39581135533E+02 -0.66632899214E+02  0.10424163419E+02  0.78200209275E+02  0.00000000000E+00 0.  1.
         12    1    4    4    0    0 -0.40237512213E+02 -0.49737939864E+02  0.50350989102E+01  0.64173766229E+02  0.00000000000E+00 0. -1.
        -11    1    3    3    0    0  0.63955198860E+02 -0.98648023941E+01  0.89132951418E+02  0.11014656062E+03  0.00000000000E+00 0.  1.
         11    1    3    3    0    0 -0.18910128053E+02  0.22048652147E+02  0.78788944812E+02  0.83972816013E+02  0.00000000000E+00 0. -1.
         21    1    1    2  502  501 -0.44388694126E+02  0.10418698932E+03 -0.10679642540E+03  0.15566233131E+03  0.00000000000E+00 0. -1.
<scales pt_clust_5="13000.00000" pt_clust_6="13000.00000" pt_clust_7="13000.00000" pt_clust_8="13000.00000" pt_clust_9="112.25766"></scales>
<clustering>
<clus scale="   80.553">  5  6 -1 -1</clus>
<clus scale="   85.481">  7  8 -1 -1</clus>
<clus scale="   97.389">  1  7  2 -1</clus>
<clus scale="  112.258">  2  9  1 -1</clus>
<clus scale="  112.258">  2  5  1 -1</clus>
</clustering>
</event>
<event>
 9    2  0.3791909E-005  0.1015132E+03  0.7546771E-02  0.1281723E+00
          2   -1    0    0  502    0  0.00000000000E+00  0.00000000000E+00  0.25934771895E+03  0.25934771895E+03  0.00000000000E+00 0. -1.
         -1   -1    0    0    0  501 -0.00000000000E+00 -0.00000000000E+00 -0.88174586445E+02  0.88174586445E+02  0.00000000000E+00 0.  1.
         24    2    1    2    0    0  0.49782244566E+02  0.14276714029E+02 -0.29898765265E+02  0.10057898334E+03  0.80870880349E+02 0.  0.
         23    2    1    2    0    0 -0.24331204741E+02 -0.18064280865E+02  0.84184359271E+02  0.12725707494E+03  0.90493265000E+02 0.  0.
        -11    1    3    3    0    0  0.22768597345E+02  0.15380787882E+02 -0.56389591972E+02  0.62727695189E+02  0.00000000000E+00 0.  1.
         12    1    3    3    0    0  0.27013647220E+02 -0.11040738536E+01  0.26490826708E+02  0.37851288153E+02  0.00000000000E+00 0. -1.
        -13    1    4    4    0    0  0.11122569154E+02 -0.30999964902E+02 -0.21798534968E+01  0.33006986075E+02  0.00000000000E+00 0.  1.
         13    1    4    4    0    0 -0.35453773895E+02  0.12935684037E+02  0.86364212768E+02  0.94250088870E+02  0.00000000000E+00 0. -1.
         21    1    1    2  502  501 -0.25451039824E+02  0.37875668366E+01  0.11688753850E+03  0.11968624711E+03  0.00000000000E+00 0. -1.
<scales pt_clust_5="13000.00000" pt_clust_6="13000.00000" pt_clust_7="13000.00000" pt_clust_8="13000.00000" pt_clust_9="25.73133"></scales>
<clustering>
<clus scale="   25.731">  1  9  2 -1</clus>
<clus scale="   80.871">  5  6 -1 -1</clus>
<clus scale="   90.493">  7  8 -1 -1</clus>
<clus scale="   93.038">  2  5  1 -1</clus>
<clus scale="   25.731">  1  5  2 -1</clus>
</clustering>
</event>
<event>
 9    2  0.3791909E-005  0.1117042E+03  0.7546771E-02  0.1260456E+00
         -1   -1    0    0    0  501 -0.00000000000E+00  0.00000000000E+00  0.22901953500E+03  0.22901953500E+03  0.00000000000E+00 0.  1.
          2   -1    0    0  502    0  0.00000000000E+00 -0.00000000000E+00 -0.12749161419E+03  0.12749161419E+03  0.00000000000E+00 0. -1.
         23    2    1    2    0    0 -0.42356739520E+02  0.49445444453E+02  0.17929060084E+03  0.21247683175E+03  0.93607366812E+02 0.  0.
         24    2    1    2    0    0  0.29852394275E+02 -0.25815916113E+02 -0.61928695846E+02  0.11296297509E+03  0.85836142758E+02 0.  0.
        -11    1    4    4    0    0 -0.17901388737E+02  0.10551167902E+02 -0.46583057234E+02  0.51007529680E+02  0.00000000000E+00 0.  1.
         12    1    4    4    0    0  0.47753783012E+02 -0.36367084015E+02 -0.15345638612E+02  0.61955445411E+02  0.00000000000E+00 0. -1.
        -11    1    3    3    0    0 -0.63166083439E+02  0.59567362501E+02  0.16123588187E+03  0.18312627986E+03  0.00000000000E+00 0.  1.
         11    1    3    3    0    0  0.20809343920E+02 -0.10121918048E+02  0.18054718971E+02  0.29350551893E+02  0.00000000000E+00 0. -1.
         21    1    1    2  502  501  0.12504345245E+02 -0.23629528340E+02 -0.15833984189E+02  0.31071342341E+02  0.00000000000E+00 0. -1.
<scales pt_clust_5="13000.00000" pt_clust_6="13000.00000" pt_clust_7="13000.00000" pt_clust_8="13000.00000" pt_clust_9="26.73412"></scales>
<clustering>
<clus scale="   26.734">  2  9  1 -1</clus>
<clus scale="   85.836">  5  6 -1 -1</clus>
<clus scale="   93.607">  7  8 -1 -1</clus>
<clus scale="  105.277">  2  5  1 -1</clus>
<clus scale="   26.734">  2  5  1 -1</clus>
</clustering>
</event>
<event>
 9    2  0.3791909E-005  0.1052137E+03  0.7546771E-02  0.1274325E+00
          2   -1    0    0  502    0  0.00000000000E+00  0.00000000000E+00  0.15102524576E+03  0.15102524576E+03  0.00000000000E+00 0. -1.
         -1   -1    0    0    0  501 -0.00000000000E+00 -0.00000000000E+00 -0.14307878643E+03  0.14307878643E+03  0.00000000000E+00 0.  1.
         23    2    1    2    0    0 -0.56496991689E+02  0.34843353295E+02 -0.43635751193E+02  0.12063449332E+03  0.90788946783E+02 0.  0.
         24    2    1    2    0    0  0.41857168565E+02 -0.79979004859E+01 -0.22283002617E+02  0.93525355397E+02  0.80215153955E+02 0.  0.
        -13    1    4    4    0    0  0.16731427815E+02  0.35557092280E+02 -0.17494773917E+02  0.43015283360E+02  0.00000000000E+00 0.  1.
         14    1    4    4    0    0  0.25125740750E+02 -0.43554992766E+02 -0.47882286996E+01  0.50510072037E+02  0.00000000000E+00 0. -1.
        -13    1    3    3    0    0 -0.74181278047E+02  0.67864458752E+01 -0.13261988031E+02  0.75662396121E+02  0.00000000000E+00 0. -1.
         13    1    3    3    0    0  0.17684286358E+02  0.28056907419E+02 -0.30373763162E+02  0.44972097200E+02  0.00000000000E+00 0.  1.
         21    1    1    2  502  501  0.14639823124E+02 -0.26845452809E+02  0.73865213147E+02  0.79944183471E+02  0.00000000000E+00 0. -1.
<scales pt_clust_5="13000.00000" pt_clust_6="13000.00000" pt_clust_7="13000.00000" pt_clust_8="13000.00000" pt_clust_9="30.57781"></scales>
<clustering>
<clus scale="   30.578">  1  9  2 -1</clus>
<clus scale="   80.215">  5  6 -1 -1</clus>
<clus scale="   90.789">  7  8 -1 -1</clus>
<clus scale="   96.238">  1  5  2 -1</clus>
<clus scale="   30.578">  1  5  2 -1</clus>
</clustering>
</event>
<event>
 9    2  0.3791909E-005  0.1873648E+03  0.7546771E-02  0.1162622E+00
          2   -1    0    0  502    0  0.00000000000E+00  0.00000000000E+00  0.15546323878E+04  0.15546323878E+04  0.00000000000E+00 0. -1.
         -1   -1    0    0    0  501 -0.00000000000E+00 -0.00000000000E+00 -0.48998374578E+02  0.48998374578E+02  0.00000000000E+00 0.  1.
         24    2    1    2    0    0  0.16318590318E+03 -0.91432087030E+02  0.35259383415E+03  0.40669354109E+03  0.78024092082E+02 0.  0.
         23    2    1    2    0    0 -0.14972613017E+03 -0.22098936327E+02  0.43871594393E+03  0.47352200742E+03  0.94048577925E+02 0.  0.
        -13    1    3    3    0    0  0.98018896436E+02 -0.86318475445E+02  0.18208087234E+03  0.22408040372E+03  0.00000000000E+00 0.  1.
         14    1    3    3    0    0  0.65167006743E+02 -0.51136115850E+01  0.17051296181E+03  0.18261313736E+03  0.00000000000E+00 0. -1.
        -11    1    4    4    0    0 -0.90226735592E+02  0.78574606269E+01  0.13485847649E+03  0.16244818308E+03  0.00000000000E+00 0. -1.
         11    1    4    4    0    0 -0.59499394574E+02 -0.29956396954E+02  0.30385746743E+03  0.31107382434E+03  0.00000000000E+00 0.  1.
         21    1    1    2  502  501 -0.13459773013E+02  0.11353102336E+03  0.71432423515E+03  0.72341521388E+03  0.00000000000E+00 0. -1.
<scales pt_clust_5="13000.00000" pt_clust_6="13000.00000" pt_clust_7="13000.00000" pt_clust_8="13000.00000" pt_clust_9="114.32611"></scales>
<clustering>
<clus scale="   78.024">  5  6 -1 -1</clus>
<clus scale="   94.049">  7  8 -1 -1</clus>
<clus scale="  114.326">  1  9  2 -1</clus>
<clus scale="  179.856">  2  5  1 -1</clus>
<clus scale="  114.326">  1  5  2 -1</clus>
</clustering>
</event>
<event>
 9    2  0.3791909E-005  0.1274157E+03  0.7546771E-02  0.1234812E+00
          2   -1    0    0  502    0  0.00000000000E+00  0.00000000000E+00  0.13064303971E+03  0.13064303971E+03  0.00000000000E+00 0. -1.
         -1   -1    0    0    0  501 -0.00000000000E+00 -0.00000000000E+00 -0.14944012490E+03  0.14944012490E+03  0.00000000000E+00 0.  1.
         24    2    1    2    0    0 -0.50901015168E+02  0.61516103665E+02 -0.34893040293E+02  0.11824116290E+03  0.79926866500E+02 0.  0.
         23    2    1    2    0    0  0.58278365793E+02 -0.83229306812E+02  0.82813306411E+01  0.13761480937E+03  0.92443333392E+02 0.  0.
        -13    1    3    3    0    0 -0.95028259317E+01  0.53323221854E+02 -0.49707473533E+02  0.73515322311E+02  0.00000000000E+00 0.  1.
         14    1    3    3    0    0 -0.41398189236E+02  0.81928818109E+01  0.14814433239E+02  0.44725840591E+02  0.00000000000E+00 0. -1.
        -11    1    4    4    0    0  0.33368346430E+02 -0.72042449638E+02 -0.34737042359E+02  0.86661543981E+02  0.00000000000E+00 0.  1.
         11    1    4    4    0    0  0.24910019364E+02 -0.11186857174E+02  0.43018373000E+02  0.50953265388E+02  0.00000000000E+00 0. -1.
         21    1    1    2  502  501 -0.73773506253E+01  0.21713203147E+02  0.78146244573E+01  0.24227192338E+02  0.00000000000E+00 0.  1.
<scales pt_clust_5="13000.00000" pt_clust_6="13000.00000" pt_clust_7="13000.00000" pt_clust_8="13000.00000" pt_clust_9="22.93226"></scales>
<clustering>
<clus scale="   22.932">  1  9  2 -1</clus>
<clus scale="   79.927">  5  6 -1 -1</clus>
<clus scale="   92.443">  7  8 -1 -1</clus>
<clus scale="  118.648">  2  5  1 -1</clus>
<clus scale="   22.932">  1  5  2 -1</clus>
</clustering>
</event>
<event>
 9    2  0.3791909E-005  0.9540131E+02  0.7546771E-02  0.1295333E+00
         -1   -1    0    0    0  501 -0.00000000000E+00  0.00000000000E+00  0.36168343458E+02  0.36168343458E+02  0.00000000000E+00 0.  1.
          2   -1    0    0  502    0  0.00000000000E+00 -0.00000000000E+00 -0.92229357478E+03  0.92229357478E+03  0.00000000000E+00 0. -1.
         23    2    1    2    0    0 -0.18387840299E+01  0.22628092568E+02 -0.41659363286E+02  0.10360158993E+03  0.92099811004E+02 0.  0.
         24    2    1    2    0    0  0.35348936452E+01 -0.48041083917E+02 -0.77376540552E+03  0.77971212596E+03  0.83172443502E+02 0.  0.
        -11    1    4    4    0    0  0.24046086193E+02  0.24999589886E+01 -0.74538823179E+02  0.78361343896E+02  0.00000000000E+00 0.  1.
         12    1    4    4    0    0 -0.20511192548E+02 -0.50541042906E+02 -0.69922658234E+03  0.70135078206E+03  0.00000000000E+00 0. -1.
        -11    1    3    3    0    0  0.33033106114E+01 -0.27206096765E+02 -0.45755908802E+02  0.53335604923E+02  0.00000000000E+00 0. -1.
         11    1    3    3    0    0 -0.51420946413E+01  0.49834189333E+02  0.40965455163E+01  0.50265985009E+02  0.00000000000E+00 0.  1.
         21    1    1    2  502  501 -0.16961096153E+01  0.25412991349E+02 -0.70700462515E+02  0.75148202353E+02  0.00000000000E+00 0. -1.
<scales pt_clust_5="13000.00000" pt_clust_6="13000.00000" pt_clust_7="13000.00000" pt_clust_8="13000.00000" pt_clust_9="25.46953"></scales>
<clustering>
<clus scale="   25.470">  2  9  1 -1</clus>
<clus scale="   83.172">  5  6 -1 -1</clus>
<clus scale="   86.814">  2  5  1 -1</clus>
<clus scale="   92.100">  7  8 -1 -1</clus>
<clus scale="   25.470">  2  5  1 -1</clus>
</clustering>
</event>
<event>
 9    2  0.3791909E-005  0.1382889E+03  0.7546771E-02  0.1217063E+00
         -1   -1    0    0    0  501 -0.00000000000E+00  0.00000000000E+00  0.13244339310E+03  0.13244339310E+03  0.00000000000E+00 0.  1.
          2   -1    0    0  502    0  0.00000000000E+00 -0.00000000000E+00 -0.39991023733E+03  0.39991023733E+03  0.00000000000E+00 0. -1.
         23    2    1    2    0    0  0.20509914648E+02 -0.10270822128E+03  0.61735978041E+02  0.14983006711E+03  0.87567589363E+02 0.  0.
         24    2    1    2    0    0 -0.63033928585E+02  0.11077810031E+03 -0.26693481551E+03  0.30669006562E+03  0.80990968353E+02 0.  0.
        -13    1    4    4    0    0 -0.40296640949E+02  0.53886154081E+02 -0.57599891202E+02  0.88573609726E+02  0.00000000000E+00 0.  1.
         14    1    4    4    0    0 -0.22737287636E+02  0.56891946230E+02 -0.20933492431E+03  0.21811645589E+03  0.00000000000E+00 0. -1.
        -11    1    3    3    0    0  0.38081706976E+02 -0.51145628914E+02  0.70048169359E+02  0.94725064232E+02  0.00000000000E+00 0.  1.
         11    1    3    3    0    0 -0.17571792328E+02 -0.51562592367E+02 -0.83121913178E+01  0.55105002874E+02  0.00000000000E+00 0. -1.
         21    1    1    2  502  501  0.42524013937E+02 -0.80698790291E+01 -0.62268006758E+02  0.75833497707E+02  0.00000000000E+00 0.  1.
<scales pt_clust_5="13000.00000" pt_clust_6="13000.00000" pt_clust_7="13000.00000" pt_clust_8="13000.00000" pt_clust_9="43.28296"></scales>
<clustering>
<clus scale="   43.283">  2  9  1 -1</clus>
<clus scale="   80.991">  5  6 -1 -1</clus>
<clus scale="   87.568">  7  8 -1 -1</clus>
<clus scale="  134.221">  2  5  1 -1</clus>
<clus scale="   43.283">  2  5  1 -1</clus>
</clustering>
</event>
<event>
 9    2  0.3791909E-005  0.2042356E+03  0.7546771E-02  0.1146739E+00
          2   -1    0    0  502    0  0.00000000000E+00  0.00000000000E+00  0.36817624053E+03  0.36817624053E+03  0.00000000000E+00 0. -1.
         -1   -1    0    0    0  501 -0.00000000000E+00 -0.00000000000E+00 -0.39293074969E+03  0.39293074969E+03  0.00000000000E+00 0.  1.
         24    2    1    2    0    0 -0.49270828657E+02 -0.18125602029E+03 -0.32966965298E+03  0.38768911117E+03  0.79620395456E+02 0.  0.
         23    2    1    2    0    0  0.24905727136E+02  0.15951652918E+03  0.25574087637E+03  0.31438930779E+03  0.85856989712E+02 0.  0.
        -11    1    3    3    0    0 -0.69935701636E+02 -0.14787836666E+03 -0.24825069037E+03  0.29730021688E+03  0.00000000000E+00 0.  1.
         12    1    3    3    0    0  0.20664872979E+02 -0.33377653627E+02 -0.81418962615E+02  0.90388894286E+02  0.00000000000E+00 0. -1.
        -11    1    4    4    0    0 -0.21617104718E+02  0.31159140327E+02  0.22409636257E+02  0.44049779108E+02  0.00000000000E+00 0.  1.
         11    1    4    4    0    0  0.46522831854E+02  0.12835738885E+03  0.23333124011E+03  0.27033952868E+03  0.00000000000E+00 0. -1.
         21    1    1    2  502  501  0.24365101521E+02  0.21739491109E+02  0.49174267457E+02  0.59028571266E+02  0.00000000000E+00 0. -1.
<scales pt_clust_5="13000.00000" pt_clust_6="13000.00000" pt_clust_7="13000.00000" pt_clust_8="13000.00000" pt_clust_9="32.65369"></scales>
<clustering>
<clus scale="   32.654">  1  9  2 -1</clus>
<clus scale="   79.620">  5  6 -1 -1</clus>
<clus scale="   85.857">  7  8 -1 -1</clus>
<clus scale="  201.693">  2  5  1 -1</clus>
<clus scale="   32.654">  1  5  2 -1</clus>
</clustering>
</event>
<event>
 9    2  0.3791909E-005  0.1181461E+03  0.7546771E-02  0.1249651E+00
         -1   -1    0    0    0  501 -0.00000000000E+00  0.00000000000E+00  0.14186402662E+03  0.14186402662E+03  0.00000000000E+00 0.  1.
          2   -1    0    0  502    0  0.00000000000E+00 -0.00000000000E+00 -0.17904219000E+03  0.17904219000E+03  0.00000000000E+00 0. -1.
         24    2    1    2    0    0 -0.71384404836E+02  0.17001615829E+01  0.51551445616E+02  0.11998737231E+03  0.81491068009E+02 0.  0.
         23    2    1    2    0    0  0.78795010670E+02  0.45373050541E+02 -0.46997041736E+02  0.13757524521E+03  0.91928552363E+02 0.  0.
        -11    1    3    3    0    0 -0.59559450775E+02 -0.25030305064E+01  0.73541912917E+02  0.94667873610E+02  0.00000000000E+00 0.  1.
         12    1    3    3    0    0 -0.11824954060E+02  0.42031920893E+01 -0.21990467300E+02  0.25319498699E+02  0.00000000000E+00 0. -1.
        -13    1    4    4    0    0  0.80750062533E+01  0.55251717962E+02 -0.85917166661E+01  0.56495802136E+02  0.00000000000E+00 0.  1.
         13    1    4    4    0    0  0.70720004416E+02 -0.98786674213E+01 -0.38405325070E+02  0.81079443069E+02  0.00000000000E+00 0. -1.
         21    1    1    2  502  501 -0.74106058339E+01 -0.47073212124E+02 -0.41732567254E+02  0.63343599109E+02  0.00000000000E+00 0.  1.
<scales pt_clust_5="13000.00000" pt_clust_6="13000.00000" pt_clust_7="13000.00000" pt_clust_8="13000.00000" pt_clust_9="47.65296"></scales>
<clustering>
<clus scale="   47.653">  2  9  1 -1</clus>
<clus scale="   81.491">  5  6 -1 -1</clus>
<clus scale="   91.929">  7  8 -1 -1</clus>
<clus scale="  110.220">  1  5  2 -1</clus>
<clus scale="   47.653">  2  5  1 -1</clus>
</clustering>
</event>
<event>
 9    2  0.3791909E-005  0.8481785E+02  0.7546771E-02  0.1318638E+00
         -1   -1    0    0    0  501 -0.00000000000E+00  0.00000000000E+00  0.25699431700E+03  0.25699431700E+03  0.00000000000E+00 0.  1.
          2   -1    0    0  502    0  0.00000000000E+00 -0.00000000000E+00 -0.61868593192E+02  0.61868593192E+02  0.00000000000E+00 0. -1.
         24    2    1    2    0    0  0.58007000613E+01  0.23924708713E+01  0.18399703273E+03  0.20103744839E+03  0.80757510881E+02 0.  0.
         23    2    1    2    0    0  0.18377824491E+02  0.65991531874E+01  0.22102010159E+02  0.89792194336E+02  0.84810648240E+02 0.  0.
        -11    1    3    3    0    0  0.32099095785E+02  0.29023215437E+02  0.10722057764E+03  0.11562418110E+03  0.00000000000E+00 0.  1.
         12    1    3    3    0    0 -0.26298395724E+02 -0.26630744566E+02  0.76776455090E+02  0.85413267295E+02  0.00000000000E+00 0. -1.
        -13    1    4    4    0    0  0.43582930387E+02  0.42502509160E+00  0.39278384833E+02  0.58672344273E+02  0.00000000000E+00 0.  1.
         13    1    4    4    0    0 -0.25205105897E+02  0.61741280958E+01 -0.17176374673E+02  0.31119850063E+02  0.00000000000E+00 0. -1.
         21    1    1    2  502  501 -0.24178524552E+02 -0.89916240587E+01 -0.10973319087E+02  0.28033267460E+02  0.00000000000E+00 0.  1.
<scales pt_clust_5="13000.00000" pt_clust_6="13000.00000" pt_clust_7="13000.00000" pt_clust_8="13000.00000" pt_clust_9="25.79632"></scales>
<clustering>
<clus scale="   25.796">  2  9  1 -1</clus>
<clus scale="   80.758">  5  6 -1 -1</clus>
<clus scale="   80.765">  1  5  2 -1</clus>
<clus scale="   84.811">  7  8 -1 -1</clus>
<clus scale="   25.796">  2  5  1 -1</clus>
</clustering>
</event>
<event>
 9    2  0.3791909E-005  0.9723824E+02  0.7546771E-02  0.1294428E+00
          2   -1    0    0  502    0  0.00000000000E+00  0.00000000000E+00  0.56790887081E+03  0.56790887081E+03  0.00000000000E+00 0. -1.
         -1   -1    0    0    0  501 -0.00000000000E+00 -0.00000000000E+00 -0.22080443209E+02  0.22080443209E+02  0.00000000000E+00 0.  1.
         23    2    1    2    0    0 -0.14838524263E+02  0.51452705605E+02  0.21679334407E+03  0.24107965267E+03  0.90843173555E+02 0.  0.
         24    2    1    2    0    0  0.11199447704E+02 -0.13414460088E+02  0.21553599114E+03  0.22915075782E+03  0.75821705110E+02 0.  0.
        -11    1    4    4    0    0 -0.11737621507E+02  0.21457941209E+02  0.14611457506E+03  0.14814750772E+03  0.00000000000E+00 0.  1.
         12    1    4    4    0    0  0.22937069211E+02 -0.34872401297E+02  0.69421416082E+02  0.81003250102E+02  0.00000000000E+00 0. -1.
        -13    1    3    3    0    0 -0.38109359707E+02  0.63308718747E+02  0.12090353840E+03  0.14169679871E+03  0.00000000000E+00 0.  1.
         13    1    3    3    0    0  0.23270835444E+02 -0.11856013142E+02  0.95889805667E+02  0.99382853958E+02  0.00000000000E+00 0. -1.
         21    1    1    2  502  501  0.36390765585E+01 -0.38038245517E+02  0.11349909239E+03  0.11975890353E+03  0.00000000000E+00 0. -1.
<scales pt_clust_5="13000.00000" pt_clust_6="13000.00000" pt_clust_7="13000.00000" pt_clust_8="13000.00000" pt_clust_9="38.21192"></scales>
<clustering>
<clus scale="   38.212">  1  9  2 -1</clus>
<clus scale="   75.822">  5  6 -1 -1</clus>
<clus scale="   83.377">  1  5  2 -1</clus>
<clus scale="   90.843">  7  8 -1 -1</clus>
<clus scale="   38.212">  1  5  2 -1</clus>
</clustering>
</event>
<event>
 9    2  0.3791909E-005  0.1398094E+03  0.7546771E-02  0.1215775E+00
          2   -1    0    0  502    0  0.00000000000E+00  0.00000000000E+00  0.13896976764E+04  0.13896976764E+04  0.00000000000E+00 0. -1.
         -1   -1    0    0    0  501 -0.00000000000E+00 -0.00000000000E+00 -0.52233459019E+02  0.52233459019E+02  0.00000000000E+00 0.  1.
         24    2    1    2    0    0 -0.98406220813E+02 -0.22276304013E+01  0.66357019884E+02  0.14430162574E+03  0.82042418729E+02 0.  0.
         23    2    1    2    0    0  0.16195047848E+03  0.33859973897E+02  0.87978681935E+03  0.89992344210E+03  0.91994015155E+02 0.  0.
        -13    1    3    3    0    0 -0.66216001504E+02  0.26265036320E+02  0.78025446093E+01  0.71660942573E+02  0.00000000000E+00 0.  1.
         14    1    3    3    0    0 -0.32190219309E+02 -0.28492666721E+02  0.58554475275E+02  0.72640683165E+02  0.00000000000E+00 0. -1.
        -13    1    4    4    0    0  0.16727034832E+02  0.35819154632E+02  0.11890970851E+03  0.12530891553E+03  0.00000000000E+00 0.  1.
         13    1    4    4    0    0  0.14522344365E+03 -0.19591807355E+01  0.76087711083E+03  0.77461452657E+03  0.00000000000E+00 0. -1.
         21    1    1    2  502  501 -0.63544257671E+02 -0.31632343496E+02  0.39132037816E+03  0.39770606759E+03  0.00000000000E+00 0.  1.
<scales pt_clust_5="13000.00000" pt_clust_6="13000.00000" pt_clust_7="13000.00000" pt_clust_8="13000.00000" pt_clust_9="70.98224"></scales>
<clustering>
<clus scale="   70.982">  1  9  2 -1</clus>
<clus scale="   82.042">  5  6 -1 -1</clus>
<clus scale="   91.994">  7  8 -1 -1</clus>
<clus scale="  133.472">  2  5  1 -1</clus>
<clus scale="   70.982">  1  5  2 -1</clus>
</clustering>
</event>
<event>
 9    2  0.3791909E-005  0.1013027E+03  0.7546771E-02  0.1284401E+00
         -1   -1    0    0    0  501 -0.00000000000E+00  0.00000000000E+00  0.27653287682E+03  0.27653287682E+03  0.00000000000E+00 0.  1.
          2   -1    0    0  502    0  0.00000000000E+00 -0.00000000000E+00 -0.51984313379E+02  0.51984313379E+02  0.00000000000E+00 0. -1.
         23    2    1    2    0    0 -0.70437927148E+01 -0.27602097746E+02  0.15620989921E+03  0.18455351310E+03  0.94058363640E+02 0.  0.
         24    2    1    2    0    0  0.14529149053E+02  0.54746230147E+02  0.52754931070E+02  0.11178158235E+03  0.80646100417E+02 0.  0.
        -11    1    4    4    0    0 -0.28525728043E+02  0.38549106878E+02  0.10015464450E+02  0.48990410588E+02  0.00000000000E+00 0.  1.
         12    1    4    4    0    0  0.43054877096E+02  0.16197123268E+02  0.42739466620E+02  0.62791171759E+02  0.00000000000E+00 0. -1.
        -11    1    3    3    0    0  0.11553463283E+01  0.31200434272E+02  0.91754127488E+02  0.96920698692E+02  0.00000000000E+00 0. -1.
         11    1    3    3    0    0 -0.81991390432E+01 -0.58802532018E+02  0.64455771724E+02  0.87632814410E+02  0.00000000000E+00 0.  1.
         21    1    1    2  502  501 -0.74853563385E+01 -0.27144132400E+02  0.15583733159E+02  0.32182094749E+02  0.00000000000E+00 0. -1.
<scales pt_clust_5="13000.00000" pt_clust_6="13000.00000" pt_clust_7="13000.00000" pt_clust_8="13000.00000" pt_clust_9="28.15732"></scales>
<clustering>
<clus scale="   28.157">  2  9  1 -1</clus>
<clus scale="   80.646">  5  6 -1 -1</clus>
<clus scale="   88.989">  2  5  1 -1</clus>
<clus scale="   94.058">  7  8 -1 -1</clus>
<clus scale="   28.157">  2  5  1 -1</clus>
</clustering>
</event>
<event>
 9    2  0.3791909E-005  0.1605732E+03  0.7546771E-02  0.1189923E+00
          2   -1    0    0  502    0  0.00000000000E+00  0.00000000000E+00  0.25547825616E+03  0.25547825616E+03  0.00000000000E+00 0. -1.
         -1   -1    0    0    0  501 -0.00000000000E+00 -0.00000000000E+00 -0.62782839189E+03  0.62782839189E+03  0.00000000000E+00 0.  1.
         24    2    1    2    0    0  0.34996367107E+02 -0.11564731170E+03 -0.52681567587E+03  0.55005583783E+03  0.10211572832E+03 0.  0.
         23    2    1    2    0    0  0.13483054570E+02  0.12377108465E+03  0.20894162974E+03  0.25987578483E+03  0.91530021003E+02 0.  0.
        -13    1    3    3    0    0  0.66927197717E+02 -0.92914533931E+02 -0.32801611458E+03  0.34742903137E+03  0.00000000000E+00 0.  1.
         14    1    3    3    0    0 -0.31930830610E+02 -0.22732777766E+02 -0.19879956129E+03  0.20262680646E+03  0.00000000000E+00 0. -1.
        -13    1    4    4    0    0 -0.22973732972E+02  0.69093073312E+02  0.51256167543E+02  0.89044033475E+02  0.00000000000E+00 0.  1.
         13    1    4    4    0    0  0.36456787541E+02  0.54678011342E+02  0.15768546220E+03  0.17083175135E+03  0.00000000000E+00 0. -1.
         21    1    1    2  502  501 -0.48479421677E+02 -0.81237729558E+01 -0.54476089601E+02  0.73375025392E+02  0.00000000000E+00 0.  1.
<scales pt_clust_5="13000.00000" pt_clust_6="13000.00000" pt_clust_7="13000.00000" pt_clust_8="13000.00000" pt_clust_9="49.15537"></scales>
<clustering>
<clus scale="   49.155">  2  9  1 -1</clus>
<clus scale="   91.530">  7  8 -1 -1</clus>
<clus scale="  102.116">  5  6 -1 -1</clus>
<clus scale="  154.058">  1  7  2 -1</clus>
<clus scale="  154.058">  1  5  2 -1</clus>
</clustering>
</event>
<event>
 9    2  0.3791909E-005  0.9771715E+02  0.7546771E-02  0.1292022E+00
          2   -1    0    0  502    0  0.00000000000E+00  0.00000000000E+00  0.20080104193E+03  0.20080104193E+03  0.00000000000E+00 0. -1.
         -1   -1    0    0    0  501 -0.00000000000E+00 -0.00000000000E+00 -0.40811767767E+03  0.40811767767E+03  0.00000000000E+00 0.  1.
         24    2    1    2    0    0 -0.32987774212E+02 -0.23131215113E+00 -0.38130068611E+03  0.39089249197E+03  0.79488869033E+02 0.  0.
         23    2    1    2    0    0  0.22791084973E+02  0.25388816004E+02  0.10444346804E+03  0.14337527277E+03  0.92108660244E+02 0.  0.
        -11    1    3    3    0    0 -0.51392839700E+02 -0.19818155720E+02 -0.30648854860E+03  0.31139880169E+03  0.00000000000E+00 0.  1.
         12    1    3    3    0    0  0.18405065488E+02  0.19586843569E+02 -0.74812137503E+02  0.79493690280E+02  0.00000000000E+00 0. -1.
        -11    1    4    4    0    0  0.88617668256E+01  0.52725012387E+02  0.98572208738E+02  0.11213803181E+03  0.00000000000E+00 0. -1.
         11    1    4    4    0    0  0.13929318147E+02 -0.27336196383E+02  0.58712593019E+01  0.31237240956E+02  0.00000000000E+00 0.  1.
         21    1    1    2  502  501  0.10196689239E+02 -0.25157503853E+02  0.69540582325E+02  0.74650954861E+02  0.00000000000E+00 0.  1.
<scales pt_clust_5="13000.00000" pt_clust_6="13000.00000" pt_clust_7="13000.00000" pt_clust_8="13000.00000" pt_clust_9="27.14540"></scales>
<clustering>
<clus scale="   27.145">  1  9  2 -1</clus>
<clus scale="   79.489">  5  6 -1 -1</clus>
<clus scale="   85.925">  2  5  1 -1</clus>
<clus scale="   92.109">  7  8 -1 -1</clus>
<clus scale="   27.145">  1  5  2 -1</clus>
</clustering>
</event>
<event>
 9    2  0.3791909E-005  0.2287250E+03  0.7546771E-02  0.1128327E+00
         -1   -1    0    0    0  501 -0.00000000000E+00  0.00000000000E+00  0.88079942170E+03  0.88079942170E+03  0.00000000000E+00 0.  1.
          2   -1    0    0  502    0  0.00000000000E+00 -0.00000000000E+00 -0.22985126240E+03  0.22985126240E+03  0.00000000000E+00 0. -1.
         23    2    1    2    0    0 -0.43006328397E+02  0.20826411423E+03  0.65911005322E+03  0.69868960768E+03  0.92290953293E+02 0.  0.
         24    2    1    2    0    0  0.63504933938E+02 -0.19008681321E+03  0.14249054358E+03  0.25883771430E+03  0.80793156565E+02 0.  0.
        -11    1    4    4    0    0  0.43872005772E+02 -0.83583140418E+02  0.11170394625E+03  0.14624864396E+03  0.00000000000E+00 0.  1.
         12    1    4    4    0    0  0.19632928166E+02 -0.10650367279E+03  0.30786597327E+02  0.11258907034E+03  0.00000000000E+00 0. -1.
        -13    1    3    3    0    0 -0.60737538371E+02  0.16022385626E+03  0.40990837108E+03  0.44428099821E+03  0.00000000000E+00 0. -1.
         13    1    3    3    0    0  0.17731209975E+02  0.48040257974E+02  0.24920168214E+03  0.25440860948E+03  0.00000000000E+00 0.  1.
         21    1    1    2  502  501 -0.20498605542E+02 -0.18177301025E+02 -0.15065243750E+03  0.15312336212E+03  0.00000000000E+00 0. -1.
<scales pt_clust_5="13000.00000" pt_clust_6="13000.00000" pt_clust_7="13000.00000" pt_clust_8="13000.00000" pt_clust_9="27.39721"></scales>
<clustering>
<clus scale="   27.397">  2  9  1 -1</clus>
<clus scale="   80.793">  5  6 -1 -1</clus>
<clus scale="   92.291">  7  8 -1 -1</clus>
<clus scale="  224.332">  2  5  1 -1</clus>
<clus scale="   27.397">  2  5  1 -1</clus>
</clustering>
</event>
<event>
 9    2  0.3791909E-005  0.3399669E+03  0.7546771E-02  0.1067110E+00
         -1   -1    0    0    0  501 -0.00000000000E+00  0.00000000000E+00  0.12779672029E+04  0.12779672029E+04  0.00000000000E+00 0.  1.
          2   -1    0    0  502    0  0.00000000000E+00 -0.00000000000E+00 -0.35268494931E+03  0.35268494931E+03  0.00000000000E+00 0. -1.
         23    2    1    2    0    0 -0.14660576686E+02 -0.32408705111E+03  0.11010991823E+04  0.11514491034E+04  0.90378533872E+02 0.  0.
         24    2    1    2    0    0  0.38839090166E+02  0.36724604162E+03 -0.19630324570E+03  0.42565878520E+03  0.79197898543E+02 0.  0.
        -13    1    4    4    0    0  0.24093663617E+02  0.30931181715E+02 -0.82847518609E+01  0.40073429379E+02  0.00000000000E+00 0.  1.
         14    1    4    4    0    0  0.14745426549E+02  0.33631485991E+03 -0.18801849384E+03  0.38558535582E+03  0.00000000000E+00 0. -1.
        -11    1    3    3    0    0 -0.10043952863E+02 -0.26288402609E+03  0.74466020705E+03  0.78976434215E+03  0.00000000000E+00 0.  1.
         11    1    3    3    0    0 -0.46166238237E+01 -0.61203025017E+02  0.35643897524E+03  0.36168476130E+03  0.00000000000E+00 0. -1.
         21    1    1    2  502  501 -0.24178513480E+02 -0.43158990515E+02  0.20486316998E+02  0.53544263563E+02  0.00000000000E+00 0.  1.
<scales pt_clust_5="13000.00000" pt_clust_6="13000.00000" pt_clust_7="13000.00000" pt_clust_8="13000.00000" pt_clust_9="49.47018"></scales>
<clustering>
<clus scale="   49.470">  2  9  1 -1</clus>
<clus scale="   79.198">  5  6 -1 -1</clus>
<clus scale="   90.379">  7  8 -1 -1</clus>
<clus scale="  337.167">  2  5  1 -1</clus>
<clus scale="   49.470">  2  5  1 -1</clus>
</clustering>
</event>
<event>
 9    2  0.4845946E-005  0.1078768E+03  0.7546771E-02  0.1274345E+00
         -1   -1    0    0    0  501 -0.00000000000E+00  0.00000000000E+00  0.19939723035E+03  0.19939723035E+03  0.00000000000E+00 0.  1.
          2   -1    0    0  502    0  0.00000000000E+00 -0.00000000000E+00 -0.42050521196E+03  0.42050521196E+03  0.00000000000E+00 0. -1.
         23    2    1    2    0    0  0.17022054139E+02  0.36008146457E+02  0.17590039538E+03  0.20652096239E+03  0.10061621078E+03 0.  0.
         24    2    1    2    0    0 -0.17417769864E+01 -0.17850332235E+02 -0.36095190694E+03  0.37021595989E+03  0.80323780325E+02 0.  0.
        -11    1    4    4    0    0 -0.22901060499E+02 -0.20277575483E+02 -0.50549665747E+02  0.59083900908E+02  0.00000000000E+00 0.  1.
         12    1    4    4    0    0  0.21159283512E+02  0.24272432477E+01 -0.31040224119E+03  0.31113205898E+03  0.00000000000E+00 0. -1.
        -11    1    3    3    0    0 -0.10620879236E+02 -0.19282361960E+02  0.12361069561E+03  0.12555563160E+03  0.00000000000E+00 0.  1.
         11    1    3    3    0    0  0.27642933375E+02  0.55290508417E+02  0.52289699774E+02  0.80965330785E+02  0.00000000000E+00 0. -1.
         21    1    1    2  502  501 -0.15280277153E+02 -0.18157814222E+02 -0.36056470048E+02  0.43165520031E+02  0.00000000000E+00 0.  1.
<scales pt_clust_5="13000.00000" pt_clust_6="13000.00000" pt_clust_7="13000.00000" pt_clust_8="13000.00000" pt_clust_9="23.73169"></scales>
<clustering>
<clus scale="   23.732">  2  9  1 -1</clus>
<clus scale="   80.324">  5  6 -1 -1</clus>
<clus scale="   89.251">  2  5  1 -1</clus>
<clus scale="  100.616">  7  8 -1 -1</clus>
<clus scale="   23.732">  2  5  1 -1</clus>
</clustering>
</event>
<event>
 9    2  0.3791909E-005  0.1330044E+03  0.7546771E-02  0.1223673E+00
         -1   -1    0    0    0  501 -0.00000000000E+00  0.00000000000E+00  0.42188919282E+03  0.42188919282E+03  0.00000000000E+00 0.  1.
          2   -1    0    0  502    0  0.00000000000E+00 -0.00000000000E+00 -0.65930883960E+02  0.65930883960E+02  0.00000000000E+00 0. -1.
         24    2    1    2    0    0 -0.13242347550E+02 -0.10654159253E+03  0.27418578788E+03  0.30821775776E+03  0.91070682500E+02 0.  0.
         23    2    1    2    0    0  0.12575429345E+02  0.70570713080E+02  0.82169617297E+02  0.14362306620E+03  0.93473911702E+02 0.  0.
        -11    1    3    3    0    0 -0.29196044365E+02 -0.90278220087E+02  0.26845067450E+03  0.28472500886E+03  0.00000000000E+00 0.  1.
         12    1    3    3    0    0  0.15953696816E+02 -0.16263372445E+02  0.57351133841E+01  0.23492748900E+02  0.00000000000E+00 0. -1.
        -13    1    4    4    0    0  0.28004166376E+02  0.55628305940E+02  0.38352889871E+01  0.62397525574E+02  0.00000000000E+00 0. -1.
         13    1    4    4    0    0 -0.15428737030E+02  0.14942407140E+02  0.78334328310E+02  0.81225540621E+02  0.00000000000E+00 0.  1.
         21    1    1    2  502  501  0.66691820449E+00  0.35970879451E+02 -0.39709632364E+00  0.35979252825E+02  0.00000000000E+00 0. -1.
<scales pt_clust_5="13000.00000" pt_clust_6="13000.00000" pt_clust_7="13000.00000" pt_clust_8="13000.00000" pt_clust_9="35.97706"></scales>
<clustering>
<clus scale="   35.977">  2  9  1 -1</clus>
<clus scale="   91.071">  5  6 -1 -1</clus>
<clus scale="   93.474">  7  8 -1 -1</clus>
<clus scale="  131.327">  1  5  2 -1</clus>
<clus scale="   35.977">  2  5  1 -1</clus>
</clustering>
</event>
<event>
 9    2  0.3791909E-005  0.1440339E+03  0.7546771E-02  0.1210779E+00
         -1   -1    0    0    0  501 -0.00000000000E+00  0.00000000000E+00  0.44103099441E+02  0.44103099441E+02  0.00000000000E+00 0.  1.
          2   -1    0    0  502    0  0.00000000000E+00 -0.00000000000E+00 -0.80482629688E+03  0.80482629688E+03  0.00000000000E+00 0. -1.
         24    2    1    2    0    0  0.40022590224E+02 -0.11838855748E+03 -0.14044320811E+03  0.20380822526E+03  0.78713656418E+02 0.  0.
         23    2    1    2    0    0 -0.31894347912E+02  0.74557470916E+02 -0.34428520327E+03  0.36554943715E+03  0.92293141199E+02 0.  0.
        -11    1    3    3    0    0  0.95657790638E+01 -0.42209055973E+02 -0.25502593896E+01  0.43354496401E+02  0.00000000000E+00 0.  1.
         12    1    3    3    0    0  0.30456811160E+02 -0.76179501510E+02 -0.13789294873E+03  0.16045372886E+03  0.00000000000E+00 0. -1.
        -13    1    4    4    0    0 -0.89002499244E+01 -0.21113074697E+02 -0.44875421164E+02  0.50386305645E+02  0.00000000000E+00 0.  1.
         13    1    4    4    0    0 -0.22994097988E+02  0.95670545612E+02 -0.29940978211E+03  0.31516313151E+03  0.00000000000E+00 0. -1.
         21    1    1    2  502  501 -0.81282423119E+01  0.43831086567E+02 -0.27599478606E+03  0.27957173391E+03  0.00000000000E+00 0. -1.
<scales pt_clust_5="13000.00000" pt_clust_6="13000.00000" pt_clust_7="13000.00000" pt_clust_8="13000.00000" pt_clust_9="44.57839"></scales>
<clustering>
<clus scale="   44.578">  2  9  1 -1</clus>
<clus scale="   78.714">  5  6 -1 -1</clus>
<clus scale="   92.293">  7  8 -1 -1</clus>
<clus scale="  135.733">  1  5  2 -1</clus>
<clus scale="   44.578">  2  5  1 -1</clus>
</clustering>
</event>
<event>
 9    2  0.3791909E-005  0.9678814E+02  0.7546771E-02  0.1291006E+00
          2   -1    0    0  502    0  0.00000000000E+00  0.00000000000E+00  0.11412687282E+04  0.11412687282E+04  0.00000000000E+00 0. -1.
         -1   -1    0    0    0  501 -0.00000000000E+00 -0.00000000000E+00 -0.20109466926E+02  0.20109466926E+02  0.00000000000E+00 0.  1.
         23    2    1    2    0    0 -0.32431797952E+02  0.11163479163E+02  0.16589077200E+03  0.19169168909E+03  0.89719065123E+02 0.  0.
         24    2    1    2    0    0  0.13625250766E+02 -0.65979971731E+02  0.68920414964E+03  0.69738379415E+03  0.82479041800E+02 0.  0.
        -11    1    4    4    0    0  0.11453466892E+02 -0.31150831146E+02  0.72982383284E+02  0.80174712066E+02  0.00000000000E+00 0.  1.
         12    1    4    4    0    0  0.21717838740E+01 -0.34829140585E+02  0.61622176636E+03  0.61720908209E+03  0.00000000000E+00 0. -1.
        -13    1    3    3    0    0 -0.30648478637E+02  0.48941092620E+02  0.90640337695E+02  0.10747199918E+03  0.00000000000E+00 0.  1.
         13    1    3    3    0    0 -0.17833193156E+01 -0.37777613456E+02  0.75250434307E+02  0.84219689917E+02  0.00000000000E+00 0. -1.
         21    1    1    2  502  501  0.18806547186E+02  0.54816492568E+02  0.26606433965E+03  0.27230271190E+03  0.00000000000E+00 0.  1.
<scales pt_clust_5="13000.00000" pt_clust_6="13000.00000" pt_clust_7="13000.00000" pt_clust_8="13000.00000" pt_clust_9="57.95286"></scales>
<clustering>
<clus scale="   57.953">  1  9  2 -1</clus>
<clus scale="   82.479">  5  6 -1 -1</clus>
<clus scale="   89.719">  7  8 -1 -1</clus>
<clus scale="   90.118">  1  5  2 -1</clus>
<clus scale="   57.953">  1  5  2 -1</clus>
</clustering>
</event>
<event>
 9    2  0.3791909E-005  0.1087746E+03  0.7546771E-02  0.1264717E+00
          2   -1    0    0  502    0  0.00000000000E+00  0.00000000000E+00  0.93078933321E+03  0.93078933321E+03  0.00000000000E+00 0. -1.
         -1   -1    0    0    0  501 -0.00000000000E+00 -0.00000000000E+00 -0.16903390966E+03  0.16903390966E+03  0.00000000000E+00 0.  1.
         23    2    1    2    0    0 -0.57738656340E+02  0.42069991152E+01 -0.11962789639E+03  0.16110731859E+03  0.91067465274E+02 0.  0.
         24    2    1    2    0    0  0.12307296444E+03  0.77851047518E+02  0.76171139173E+03  0.77958244183E+03  0.79604014594E+02 0.  0.
        -11    1    4    4    0    0  0.27915594467E+02  0.47073372765E+02  0.14839350951E+03  0.15816389128E+03  0.00000000000E+00 0.  1.
         12    1    4    4    0    0  0.95157369978E+02  0.30777674754E+02  0.61331788222E+03  0.62141855055E+03  0.00000000000E+00 0. -1.
        -13    1    3    3    0    0  0.16480891391E+02 -0.15675759274E+02 -0.58997926541E+02  0.63230566548E+02  0.00000000000E+00 0. -1.
         13    1    3    3    0    0 -0.74219547731E+02  0.19882758389E+02 -0.60629969849E+02  0.97876752043E+02  0.00000000000E+00 0.  1.
         21    1    1    2  502  501 -0.65334308105E+02 -0.82058046634E+02  0.11967192822E+03  0.15913348245E+03  0.00000000000E+00 0.  1.
<scales pt_clust_5="13000.00000" pt_clust_6="13000.00000" pt_clust_7="13000.00000" pt_clust_8="13000.00000" pt_clust_9="104.89087"></scales>
<clustering>
<clus scale="   79.604">  5  6 -1 -1</clus>
<clus scale="   91.067">  7  8 -1 -1</clus>
<clus scale="  104.891">  1  9  2 -1</clus>
<clus scale="  104.891">  1  5  2 -1</clus>
<clus scale="  104.891">  1  5  2 -1</clus>
</clustering>
</event>
<event>
 9    2  0.3791909E-005  0.1571658E+03  0.7546771E-02  0.1194079E+00
          2   -1    0    0  502    0  0.00000000000E+00  0.00000000000E+00  0.42827883175E+03  0.42827883175E+03  0.00000000000E+00 0. -1.
         -1   -1    0    0    0  501 -0.00000000000E+00 -0.00000000000E+00 -0.12444307030E+03  0.12444307030E+03  0.00000000000E+00 0.  1.
         24    2    1    2    0    0  0.83209289779E+02  0.78613143599E+02  0.28511885247E+02  0.14156451363E+03  0.78254531284E+02 0.  0.
         23    2    1    2    0    0 -0.11855771207E+03 -0.85461255671E+02  0.45128620486E+02  0.17816326113E+03  0.91356433356E+02 0.  0.
        -11    1    3    3    0    0  0.75832471688E+02  0.40635623874E+02 -0.10440051681E+02  0.86664943138E+02  0.00000000000E+00 0.  1.
         12    1    3    3    0    0  0.73768180912E+01  0.37977519725E+02  0.38951936929E+02  0.54899570491E+02  0.00000000000E+00 0. -1.
        -13    1    4    4    0    0 -0.10092166450E+03 -0.60536963794E+02 -0.68451689257E+01  0.11788453117E+03  0.00000000000E+00 0.  1.
         13    1    4    4    0    0 -0.17636047569E+02 -0.24924291877E+02  0.51973789411E+02  0.60278729957E+02  0.00000000000E+00 0. -1.
         21    1    1    2  502  501  0.35348422291E+02  0.68481120720E+01  0.23019525572E+03  0.23299412729E+03  0.00000000000E+00 0. -1.
<scales pt_clust_5="13000.00000" pt_clust_6="13000.00000" pt_clust_7="13000.00000" pt_clust_8="13000.00000" pt_clust_9="36.00566"></scales>
<clustering>
<clus scale="   36.006">  1  9  2 -1</clus>
<clus scale="   78.255">  5  6 -1 -1</clus>
<clus scale="   91.356">  7  8 -1 -1</clus>
<clus scale="  149.930">  2  5  1 -1</clus>
<clus scale="   36.006">  1  5  2 -1</clus>
</clustering>
</event>
<event>
 9    2  0.3791909E-005  0.1883662E+03  0.7546771E-02  0.1160657E+00
          2   -1    0    0  502    0  0.00000000000E+00  0.00000000000E+00  0.15689945694E+03  0.15689945694E+03  0.00000000000E+00 0. -1.
         -1   -1    0    0    0  501 -0.00000000000E+00 -0.00000000000E+00 -0.52481866841E+03  0.52481866841E+03  0.00000000000E+00 0.  1.
         24    2    1    2    0    0 -0.68014306055E+01 -0.16622601977E+03 -0.31320716302E+03  0.36439418560E+03  0.83708102516E+02 0.  0.
         23    2    1    2    0    0 -0.68463348208E+02  0.16050679946E+03 -0.10865590775E+03  0.22454766925E+03  0.90365296203E+02 0.  0.
        -13    1    3    3    0    0 -0.31769870143E+01 -0.13904060373E+03 -0.30586925513E+03  0.33600354755E+03  0.00000000000E+00 0.  1.
         14    1    3    3    0    0 -0.36244435911E+01 -0.27185416039E+02 -0.73379078829E+01  0.28390638046E+02  0.00000000000E+00 0. -1.
        -13    1    4    4    0    0  0.20834094438E+02  0.42077991536E+02 -0.37236720908E+02  0.59926540420E+02  0.00000000000E+00 0.  1.
         13    1    4    4    0    0 -0.89297442646E+02  0.11842880792E+03 -0.71419186843E+02  0.16462112883E+03  0.00000000000E+00 0. -1.
         21    1    1    2  502  501  0.75264778814E+02  0.57192203111E+01  0.53943859305E+02  0.92776270498E+02  0.00000000000E+00 0. -1.
<scales pt_clust_5="13000.00000" pt_clust_6="13000.00000" pt_clust_7="13000.00000" pt_clust_8="13000.00000" pt_clust_9="75.48176"></scales>
<clustering>
<clus scale="   75.482">  1  9  2 -1</clus>
<clus scale="   83.708">  5  6 -1 -1</clus>
<clus scale="   90.365">  7  8 -1 -1</clus>
<clus scale="  185.265">  2  5  1 -1</clus>
<clus scale="   75.482">  1  5  2 -1</clus>
</clustering>
</event>
<event>
 9    2  0.3791909E-005  0.1514015E+03  0.7546771E-02  0.1200050E+00
          2   -1    0    0  502    0  0.00000000000E+00  0.00000000000E+00  0.26763732234E+03  0.26763732234E+03  0.00000000000E+00 0. -1.
         -1   -1    0    0    0  501 -0.00000000000E+00 -0.00000000000E+00 -0.17906862173E+03  0.17906862173E+03  0.00000000000E+00 0.  1.
         23    2    1    2    0    0 -0.68657644410E+02  0.73730891457E+02 -0.34668658229E+02  0.13805748137E+03  0.87794281181E+02 0.  0.
         24    2    1    2    0    0  0.12317518662E+03 -0.12849513719E+03  0.48688764591E+02  0.20127631583E+03  0.80364374188E+02 0.  0.
        -13    1    4    4    0    0  0.79981889035E+02 -0.75113363068E+02  0.69063966968E+02  0.12964934022E+03  0.00000000000E+00 0.  1.
         14    1    4    4    0    0  0.43193297587E+02 -0.53381774119E+02 -0.20375202376E+02  0.71626975620E+02  0.00000000000E+00 0. -1.
        -11    1    3    3    0    0 -0.55728914717E+02 -0.19007851921E+01 -0.23537485799E+02  0.60525516583E+02  0.00000000000E+00 0. -1.
         11    1    3    3    0    0 -0.12928729693E+02  0.75631676649E+02 -0.11131172430E+02  0.77531964788E+02  0.00000000000E+00 0.  1.
         21    1    1    2  502  501 -0.54517542212E+02  0.54764245730E+02  0.74548594245E+02  0.10737214687E+03  0.00000000000E+00 0. -1.
<scales pt_clust_5="13000.00000" pt_clust_6="13000.00000" pt_clust_7="13000.00000" pt_clust_8="13000.00000" pt_clust_9="77.27409"></scales>
<clustering>
<clus scale="   77.274">  1  9  2 -1</clus>
<clus scale="   80.364">  5  6 -1 -1</clus>
<clus scale="   87.794">  7  8 -1 -1</clus>
<clus scale="  147.218">  1  5  2 -1</clus>
<clus scale="   77.274">  1  5  2 -1</clus>
</clustering>
</event>
<event>
 9    2  0.3791909E-005  0.2951477E+03  0.7546771E-02  0.1111715E+00
          2   -1    0    0  502    0  0.00000000000E+00  0.00000000000E+00  0.23534236250E+04  0.23534236250E+04  0.00000000000E+00 0. -1.
         -1   -1    0    0    0  501 -0.00000000000E+00 -0.00000000000E+00 -0.24626415091E+03  0.24626415091E+03  0.00000000000E+00 0.  1.
         24    2    1    2    0    0  0.93830013909E+02 -0.98884838791E+02 -0.15079337393E+03  0.21853953300E+03  0.80240906098E+02 0.  0.
         23    2    1    2    0    0 -0.27528533745E+03 -0.11838751354E+03  0.43147217952E+03  0.53286121382E+03  0.89304037491E+02 0.  0.
        -13    1    3    3    0    0  0.31638626746E+02  0.94283044224E+01 -0.26495260495E+02  0.42330774330E+02  0.00000000000E+00 0.  1.
         14    1    3    3    0    0  0.62191387163E+02 -0.10831314321E+03 -0.12429811343E+03  0.17620875867E+03  0.00000000000E+00 0. -1.
        -11    1    4    4    0    0 -0.15710563854E+03 -0.11115067483E+03  0.23851286908E+03  0.30647192839E+03  0.00000000000E+00 0. -1.
         11    1    4    4    0    0 -0.11817969891E+03 -0.72368387120E+01  0.19295931044E+03  0.22638928542E+03  0.00000000000E+00 0.  1.
         21    1    1    2  502  501  0.18145532354E+03  0.21727235233E+03  0.18264806685E+04  0.18482870291E+04  0.00000000000E+00 0.  1.
<scales pt_clust_5="13000.00000" pt_clust_6="13000.00000" pt_clust_7="13000.00000" pt_clust_8="13000.00000" pt_clust_9="281.31295"></scales>
<clustering>
<clus scale="   80.241">  5  6 -1 -1</clus>
<clus scale="   89.304">  7  8 -1 -1</clus>
<clus scale="  158.180">  2  5  1 -1</clus>
<clus scale="  281.313">  1  9  2 -1</clus>
<clus scale="  281.313">  1  5  2 -1</clus>
</clustering>
</event>
<event>
 9    2  0.3791909E-005  0.1394022E+03  0.7546771E-02  0.1236121E+00
          2   -1    0    0  502    0  0.00000000000E+00  0.00000000000E+00  0.82584167155E+03  0.82584167155E+03  0.00000000000E+00 0. -1.
         -1   -1    0    0    0  501 -0.00000000000E+00 -0.00000000000E+00 -0.78279968980E+02  0.78279968980E+02  0.00000000000E+00 0.  1.
         24    2    1    2    0    0 -0.31959411535E+02  0.16189984898E+02 -0.25536112732E+02  0.91826198627E+02  0.80600484516E+02 0.  0.
         23    2    1    2    0    0 -0.39659677190E+02  0.81438269170E+02  0.35568144894E+03  0.37767262523E+03  0.89006949451E+02 0.  0.
        -11    1    3    3    0    0 -0.44456505692E+02 -0.15762610539E+02 -0.31885059240E+02  0.56934153125E+02  0.00000000000E+00 0.  1.
         12    1    3    3    0    0  0.12497094157E+02  0.31952595437E+02  0.63489465084E+01  0.34892045502E+02  0.00000000000E+00 0. -1.
        -13    1    4    4    0    0 -0.42847568937E+01  0.84489026625E+02  0.18627510795E+03  0.20458536263E+03  0.00000000000E+00 0. -1.
         13    1    4    4    0    0 -0.35374920296E+02 -0.30507574549E+01  0.16940634100E+03  0.17308726261E+03  0.00000000000E+00 0.  1.
         21    1    1    2  502  501  0.71619088724E+02 -0.97628254069E+02  0.41741636636E+03  0.43462281667E+03  0.00000000000E+00 0.  1.
<scales pt_clust_5="13000.00000" pt_clust_6="13000.00000" pt_clust_7="13000.00000" pt_clust_8="13000.00000" pt_clust_9="107.28806"></scales>
<clustering>
<clus scale="   80.600">  5  6 -1 -1</clus>
<clus scale="   88.204">  2  5  1 -1</clus>
<clus scale="   89.007">  7  8 -1 -1</clus>
<clus scale="  107.288">  2  9  1 -1</clus>
<clus scale="  139.402">  1  5  2 -1</clus>
</clustering>
</event>
<event>
 9    2  0.3791909E-005  0.1866920E+03  0.7546771E-02  0.1163289E+00
         -1   -1    0    0    0  501 -0.00000000000E+00  0.00000000000E+00  0.15515462435E+03  0.15515462435E+03  0.00000000000E+00 0.  1.
          2   -1    0    0  502    0  0.00000000000E+00 -0.00000000000E+00 -0.37261863647E+03  0.37261863647E+03  0.00000000000E+00 0. -1.
         23    2    1    2    0    0  0.39699471046E+02  0.12211416470E+03 -0.42355752942E+02  0.16588420913E+03  0.96102257048E+02 0.  0.
         24    2    1    2    0    0 -0.74566557285E+02 -0.19894752722E+03 -0.97110106638E+02  0.24698565270E+03  0.80195073273E+02 0.  0.
        -13    1    4    4    0    0 -0.22824483190E+02 -0.31335398154E+02  0.11783415840E+02  0.40518058927E+02  0.00000000000E+00 0.  1.
         14    1    4    4    0    0 -0.51742074095E+02 -0.16761212906E+03 -0.10889352248E+03  0.20646759377E+03  0.00000000000E+00 0. -1.
        -13    1    3    3    0    0  0.39261459295E+02  0.10182270897E+03  0.10141562780E+02  0.10960008003E+03  0.00000000000E+00 0.  1.
         13    1    3    3    0    0  0.43801175079E+00  0.20291455727E+02 -0.52497315722E+02  0.56284129094E+02  0.00000000000E+00 0. -1.
         21    1    1    2  502  501  0.34867086239E+02  0.76833362522E+02 -0.77998152541E+02  0.11490339899E+03  0.00000000000E+00 0. -1.
<scales pt_clust_5="13000.00000" pt_clust_6="13000.00000" pt_clust_7="13000.00000" pt_clust_8="13000.00000" pt_clust_9="84.37464"></scales>
<clustering>
<clus scale="   80.195">  5  6 -1 -1</clus>
<clus scale="   84.375">  2  9  1 -1</clus>
<clus scale="   96.102">  7  8 -1 -1</clus>
<clus scale="  179.024">  2  5  1 -1</clus>
<clus scale="   84.375">  2  5  1 -1</clus>
</clustering>
</event>
<event>
 9    2  0.3791909E-005  0.1081053E+03  0.7546771E-02  0.1268267E+00
         -1   -1    0    0    0  501 -0.00000000000E+00  0.00000000000E+00  0.10007517821E+03  0.10007517821E+03  0.00000000000E+00 0.  1.
          2   -1    0    0  502    0  0.00000000000E+00 -0.00000000000E+00 -0.26357085339E+03  0.26357085339E+03  0.00000000000E+00 0. -1.
         23    2    1    2    0    0  0.92528480373E+01  0.66354320258E+02  0.37970575650E+02  0.11956864670E+03  0.91467948726E+02 0.  0.
         24    2    1    2    0    0 -0.28088421508E+02 -0.22630115074E+02 -0.11573674233E+03  0.14601549844E+03  0.81390728772E+02 0.  0.
        -11    1    4    4    0    0 -0.44222968771E+02 -0.43902651250E+02 -0.79932435972E+02  0.10135239550E+03  0.00000000000E+00 0.  1.
         12    1    4    4    0    0  0.16134547263E+02  0.21272536176E+02 -0.35804306355E+02  0.44663102940E+02  0.00000000000E+00 0. -1.
        -11    1    3    3    0    0  0.33038664452E+02  0.55226663127E+02 -0.97604679906E+01  0.65090739774E+02  0.00000000000E+00 0. -1.
         11    1    3    3    0    0 -0.23785816415E+02  0.11127657131E+02  0.47731043640E+02  0.54477906923E+02  0.00000000000E+00 0.  1.
         21    1    1    2  502  501  0.18835573471E+02 -0.43724205184E+02 -0.85729508504E+02  0.98061886456E+02  0.00000000000E+00 0.  1.
<scales pt_clust_5="13000.00000" pt_clust_6="13000.00000" pt_clust_7="13000.00000" pt_clust_8="13000.00000" pt_clust_9="47.60866"></scales>
<clustering>
<clus scale="   47.609">  2  9  1 -1</clus>
<clus scale="   81.391">  5  6 -1 -1</clus>
<clus scale="   91.468">  7  8 -1 -1</clus>
<clus scale="   99.724">  2  5  1 -1</clus>
<clus scale="   47.609">  2  5  1 -1</clus>
</clustering>
</event>
<event>
 9    2  0.3791909E-005  0.1124993E+03  0.7546771E-02  0.1259891E+00
          2   -1    0    0  502    0  0.00000000000E+00  0.00000000000E+00  0.11654468635E+03  0.11654468635E+03  0.00000000000E+00 0. -1.
         -1   -1    0    0    0  501 -0.00000000000E+00 -0.00000000000E+00 -0.23825656772E+03  0.23825656772E+03  0.00000000000E+00 0.  1.
         24    2    1    2    0    0 -0.49274641694E+02  0.38468728395E+02 -0.15050817740E+03  0.18147958114E+03  0.79839172907E+02 0.  0.
         23    2    1    2    0    0  0.61744228495E+02 -0.54707231653E+02 -0.16625654244E+02  0.12349865466E+03  0.90389570064E+02 0.  0.
        -13    1    3    3    0    0 -0.38236541579E+02 -0.14205160265E+02 -0.98615275620E+02  0.10671828464E+03  0.00000000000E+00 0.  1.
         14    1    3    3    0    0 -0.11038100116E+02  0.52673888660E+02 -0.51892901778E+02  0.74761296508E+02  0.00000000000E+00 0. -1.
        -13    1    4    4    0    0  0.27894339142E+02 -0.37815138619E+02  0.35641015662E+02  0.58977630186E+02  0.00000000000E+00 0. -1.
         13    1    4    4    0    0  0.33849889352E+02 -0.16892093034E+02 -0.52266669905E+02  0.64521024474E+02  0.00000000000E+00 0.  1.
         21    1    1    2  502  501 -0.12469586800E+02  0.16238503258E+02  0.45421950269E+02  0.49823018267E+02  0.00000000000E+00 0. -1.
<scales pt_clust_5="13000.00000" pt_clust_6="13000.00000" pt_clust_7="13000.00000" pt_clust_8="13000.00000" pt_clust_9="20.47388"></scales>
<clustering>
<clus scale="   20.474">  1  9  2 -1</clus>
<clus scale="   79.839">  5  6 -1 -1</clus>
<clus scale="   90.390">  7  8 -1 -1</clus>
<clus scale="  104.212">  2  5  1 -1</clus>
<clus scale="   20.474">  1  5  2 -1</clus>
</clustering>
</event>
<event>
 9    2  0.3791909E-005  0.2029486E+03  0.7546771E-02  0.1148461E+00
          2   -1    0    0  502    0  0.00000000000E+00  0.00000000000E+00  0.25797453738E+03  0.25797453738E+03  0.00000000000E+00 0. -1.
         -1   -1    0    0    0  501 -0.00000000000E+00 -0.00000000000E+00 -0.36308465297E+03  0.36308465297E+03  0.00000000000E+00 0.  1.
         23    2    1    2    0    0 -0.15801875479E+03  0.85729411279E+02 -0.26836235376E+03  0.33632693470E+03  0.93690956156E+02 0.  0.
         24    2    1    2    0    0  0.17384833953E+03 -0.59061625209E+02  0.12875175524E+03  0.23834227949E+03  0.80737271357E+02 0.  0.
        -11    1    4    4    0    0  0.51969092547E+02  0.17551708999E+02  0.50150240372E+02  0.74322914894E+02  0.00000000000E+00 0.  1.
         12    1    4    4    0    0  0.12187924698E+03 -0.76613334208E+02  0.78601514871E+02  0.16401936460E+03  0.00000000000E+00 0. -1.
        -11    1    3    3    0    0 -0.40158580444E+02  0.24232558494E+02 -0.15393840672E+03  0.16092532907E+03  0.00000000000E+00 0.  1.
         11    1    3    3    0    0 -0.11786017435E+03  0.61496852785E+02 -0.11442394704E+03  0.17540160562E+03  0.00000000000E+00 0. -1.
         21    1    1    2  502  501 -0.15829584736E+02 -0.26667786070E+02  0.34500482924E+02  0.46389976167E+02  0.00000000000E+00 0.  1.
<scales pt_clust_5="13000.00000" pt_clust_6="13000.00000" pt_clust_7="13000.00000" pt_clust_8="13000.00000" pt_clust_9="31.01204"></scales>
<clustering>
<clus scale="   31.012">  1  9  2 -1</clus>
<clus scale="   80.737">  5  6 -1 -1</clus>
<clus scale="   93.691">  7  8 -1 -1</clus>
<clus scale="  197.303">  1  5  2 -1</clus>
<clus scale="   31.012">  1  5  2 -1</clus>
</clustering>
</event>
<event>
 9    2  0.3791909E-005  0.1103420E+03  0.7546771E-02  0.1264785E+00
         -1   -1    0    0    0  501 -0.00000000000E+00  0.00000000000E+00  0.38078882790E+02  0.38078882790E+02  0.00000000000E+00 0.  1.
          2   -1    0    0  502    0  0.00000000000E+00 -0.00000000000E+00 -0.62223657814E+03  0.62223657814E+03  0.00000000000E+00 0. -1.
         23    2    1    2    0    0 -0.14234002718E+01 -0.70932845533E+02 -0.98422557380E+02  0.15186157312E+03  0.91331500297E+02 0.  0.
         24    2    1    2    0    0 -0.29756537890E+02  0.53983806244E+02 -0.43596275111E+03  0.44732493419E+03  0.78970712975E+02 0.  0.
        -11    1    4    4    0    0  0.25070795556E+02  0.12684929111E+02 -0.79643163643E+02  0.84454045086E+02  0.00000000000E+00 0.  1.
         12    1    4    4    0    0 -0.54827333447E+02  0.41298877133E+02 -0.35631958747E+03  0.36287088911E+03  0.00000000000E+00 0. -1.
        -13    1    3    3    0    0 -0.14552465162E+02 -0.25135526003E+02 -0.10006130049E+03  0.10419132769E+03  0.00000000000E+00 0. -1.
         13    1    3    3    0    0  0.13129064891E+02 -0.45797319529E+02  0.16387431084E+01  0.47670245436E+02  0.00000000000E+00 0.  1.
         21    1    1    2  502  501  0.31179938162E+02  0.16949039288E+02 -0.49772386858E+02  0.61128953616E+02  0.00000000000E+00 0.  1.
<scales pt_clust_5="13000.00000" pt_clust_6="13000.00000" pt_clust_7="13000.00000" pt_clust_8="13000.00000" pt_clust_9="35.48885"></scales>
<clustering>
<clus scale="   35.489">  1  9  2 -1</clus>
<clus scale="   78.971">  5  6 -1 -1</clus>
<clus scale="   91.332">  7  8 -1 -1</clus>
<clus scale="  100.351">  2  5  1 -1</clus>
<clus scale="  100.351">  2  5  1 -1</clus>
</clustering>
</event>
<event>
 9    2  0.3791909E-005  0.1011529E+03  0.7546771E-02  0.1284092E+00
         -1   -1    0    0    0  501 -0.00000000000E+00  0.00000000000E+00  0.15509521381E+03  0.15509521381E+03  0.00000000000E+00 0.  1.
          2   -1    0    0  502    0  0.00000000000E+00 -0.00000000000E+00 -0.14921798325E+03  0.14921798325E+03  0.00000000000E+00 0. -1.
         23    2    1    2    0    0 -0.11202333073E+02 -0.37211985749E+02  0.10001983543E+03  0.14195912229E+03  0.92941921500E+02 0.  0.
         24    2    1    2    0    0 -0.15888944658E+02  0.48015032584E+02 -0.45043822991E+02  0.10524598837E+03  0.80559730400E+02 0.  0.
        -11    1    4    4    0    0 -0.34749567038E+02  0.30302465037E+02  0.74669071430E+01  0.46706814266E+02  0.00000000000E+00 0.  1.
         12    1    4    4    0    0  0.18860622379E+02  0.17712567547E+02 -0.52510730134E+02  0.58539174105E+02  0.00000000000E+00 0. -1.
        -11    1    3    3    0    0 -0.19558438764E+02 -0.76839230663E+01  0.10818246073E+03  0.11020444642E+03  0.00000000000E+00 0.  1.
         11    1    3    3    0    0  0.83561056904E+01 -0.29528062683E+02 -0.81626252976E+01  0.31754675874E+02  0.00000000000E+00 0. -1.
         21    1    1    2  502  501  0.27091277732E+02 -0.10803046835E+02 -0.49098781883E+02  0.57108086401E+02  0.00000000000E+00 0. -1.
<scales pt_clust_5="13000.00000" pt_clust_6="13000.00000" pt_clust_7="13000.00000" pt_clust_8="13000.00000" pt_clust_9="29.16579"></scales>
<clustering>
<clus scale="   29.166">  2  9  1 -1</clus>
<clus scale="   80.560">  5  6 -1 -1</clus>
<clus scale="   89.909">  2  5  1 -1</clus>
<clus scale="   92.942">  7  8 -1 -1</clus>
<clus scale="   29.166">  2  5  1 -1</clus>
</clustering>
</event>
<event>
 9    2  0.3791909E-005  0.1148728E+03  0.7546771E-02  0.1257648E+00
         -1   -1    0    0    0  501 -0.00000000000E+00  0.00000000000E+00  0.30201918682E+02  0.30201918682E+02  0.00000000000E+00 0.  1.
          2   -1    0    0  502    0  0.00000000000E+00 -0.00000000000E+00 -0.10412061830E+04  0.10412061830E+04  0.00000000000E+00 0. -1.
         23    2    1    2    0    0  0.63017859782E+02  0.21809633054E+02 -0.19962334298E+03  0.22958699863E+03  0.91726768897E+02 0.  0.
         24    2    1    2    0    0 -0.27991678621E+02 -0.86088189403E+02 -0.25806653607E+03  0.28368547875E+03  0.75394982498E+02 0.  0.
        -13    1    4    4    0    0 -0.26657675073E+02 -0.90969217192E+02 -0.16356851332E+03  0.18905207924E+03  0.00000000000E+00 0.  1.
         14    1    4    4    0    0 -0.13340035477E+01  0.48810277895E+01 -0.94498022749E+02  0.94633399501E+02  0.00000000000E+00 0. -1.
        -13    1    3    3    0    0  0.15784370066E+02  0.53222346970E+02 -0.11517507407E+03  0.12785563047E+03  0.00000000000E+00 0. -1.
         13    1    3    3    0    0  0.47233489716E+02 -0.31412713916E+02 -0.84448268906E+02  0.10173136816E+03  0.00000000000E+00 0.  1.
         21    1    1    2  502  501 -0.35026181162E+02  0.64278556348E+02 -0.55331438527E+03  0.55813562430E+03  0.00000000000E+00 0. -1.
<scales pt_clust_5="13000.00000" pt_clust_6="13000.00000" pt_clust_7="13000.00000" pt_clust_8="13000.00000" pt_clust_9="73.20223"></scales>
<clustering>
<clus scale="   73.202">  2  9  1 -1</clus>
<clus scale="   75.395">  5  6 -1 -1</clus>
<clus scale="   91.727">  7  8 -1 -1</clus>
<clus scale="  102.305">  2  5  1 -1</clus>
<clus scale="   73.202">  2  5  1 -1</clus>
</clustering>
</event>
<event>
 9    2  0.3791909E-005  0.1050798E+03  0.7546771E-02  0.1275637E+00
          2   -1    0    0  502    0  0.00000000000E+00  0.00000000000E+00  0.16687561800E+03  0.16687561800E+03  0.00000000000E+00 0. -1.
         -1   -1    0    0    0  501 -0.00000000000E+00 -0.00000000000E+00 -0.12921117556E+03  0.12921117556E+03  0.00000000000E+00 0.  1.
         23    2    1    2    0    0 -0.42503934226E+02  0.31722149558E+02 -0.69199597260E+02  0.12791283757E+03  0.93596103328E+02 0.  0.
         24    2    1    2    0    0  0.39656855420E+02  0.70035248769E+01  0.80664046009E+02  0.12133141776E+03  0.81196730682E+02 0.  0.
        -11    1    4    4    0    0  0.19033929941E+01  0.35689982620E+02  0.59494753534E+02  0.69404779823E+02  0.00000000000E+00 0.  1.
         12    1    4    4    0    0  0.37753462426E+02 -0.28686457743E+02  0.21169292476E+02  0.51926637932E+02  0.00000000000E+00 0. -1.
        -13    1    3    3    0    0 -0.19444073713E+02 -0.24151130122E+02  0.58460038180E+01  0.31551938916E+02  0.00000000000E+00 0. -1.
         13    1    3    3    0    0 -0.23059860513E+02  0.55873279680E+02 -0.75045601078E+02  0.96360898658E+02  0.00000000000E+00 0.  1.
         21    1    1    2  502  501  0.28470788059E+01 -0.38725674435E+02  0.26199993689E+02  0.46842538226E+02  0.00000000000E+00 0. -1.
<scales pt_clust_5="13000.00000" pt_clust_6="13000.00000" pt_clust_7="13000.00000" pt_clust_8="13000.00000" pt_clust_9="38.83019"></scales>
<clustering>
<clus scale="   38.830">  1  9  2 -1</clus>
<clus scale="   81.197">  5  6 -1 -1</clus>
<clus scale="   93.596">  7  8 -1 -1</clus>
<clus scale="   94.204">  1  5  2 -1</clus>
<clus scale="   38.830">  1  5  2 -1</clus>
</clustering>
</event>
<event>
 9    2  0.3946258E-005  0.1443988E+03  0.7546771E-02  0.1209705E+00
         -1   -1    0    0    0  501 -0.00000000000E+00  0.00000000000E+00  0.38760572640E+03  0.38760572640E+03  0.00000000000E+00 0.  1.
          2   -1    0    0  502    0  0.00000000000E+00 -0.00000000000E+00 -0.39482928257E+03  0.39482928257E+03  0.00000000000E+00 0. -1.
         23    2    1    2    0    0  0.75161847305E+02  0.87840846192E+02  0.33732098297E+03  0.36812890487E+03  0.91477469872E+02 0.  0.
         24    2    1    2    0    0 -0.12937971459E+02 -0.30623160266E+02 -0.31157733240E+03  0.32357291818E+03  0.80708303551E+02 0.  0.
        -13    1    4    4    0    0  0.29694769022E+02 -0.33071805155E+02 -0.14983661905E+03  0.15628991014E+03  0.00000000000E+00 0.  1.
         14    1    4    4    0    0 -0.42632740482E+02  0.24486448889E+01 -0.16174071335E+03  0.16728300804E+03  0.00000000000E+00 0. -1.
        -13    1    3    3    0    0  0.90551254141E+02  0.48822878704E+02  0.26850566153E+03  0.28753868154E+03  0.00000000000E+00 0.  1.
         13    1    3    3    0    0 -0.15389406836E+02  0.39017967487E+02  0.68815321446E+02  0.80590223323E+02  0.00000000000E+00 0. -1.
         21    1    1    2  502  501 -0.62223875846E+02 -0.57217685926E+02 -0.32967206749E+02  0.90733185929E+02  0.00000000000E+00 0.  1.
<scales pt_clust_5="13000.00000" pt_clust_6="13000.00000" pt_clust_7="13000.00000" pt_clust_8="13000.00000" pt_clust_9="84.53209"></scales>
<clustering>
<clus scale="   80.708">  5  6 -1 -1</clus>
<clus scale="   84.532">  2  9  1 -1</clus>
<clus scale="   91.477">  7  8 -1 -1</clus>
<clus scale="  137.829">  2  5  1 -1</clus>
<clus scale="   84.532">  2  5  1 -1</clus>
</clustering>
</event>
<event>
 9    2  0.3791909E-005  0.2601696E+03  0.7546771E-02  0.1107553E+00
         -1   -1    0    0    0  501 -0.00000000000E+00  0.00000000000E+00  0.29040946653E+03  0.29040946653E+03  0.00000000000E+00 0.  1.
          2   -1    0    0  502    0  0.00000000000E+00 -0.00000000000E+00 -0.50549679565E+03  0.50549679565E+03  0.00000000000E+00 0. -1.
         24    2    1    2    0    0  0.12216738128E+03 -0.18341602084E+03  0.15735450350E+03  0.28239138724E+03  0.80113357587E+02 0.  0.
         23    2    1    2    0    0 -0.85486985111E+02  0.23457607547E+03 -0.36317502345E+03  0.44988566463E+03  0.90371753205E+02 0.  0.
        -13    1    3    3    0    0  0.62545619498E+02 -0.38447939444E+02  0.76448692871E+02  0.10599340172E+03  0.00000000000E+00 0.  1.
         14    1    3    3    0    0  0.59621761780E+02 -0.14496808140E+03  0.80905810633E+02  0.17639798552E+03  0.00000000000E+00 0. -1.
        -11    1    4    4    0    0 -0.97891160856E+02  0.16191503952E+03 -0.23151610382E+03  0.29899643096E+03  0.00000000000E+00 0.  1.
         11    1    4    4    0    0  0.12404175745E+02  0.72661035947E+02 -0.13165891963E+03  0.15088923367E+03  0.00000000000E+00 0. -1.
         21    1    1    2  502  501 -0.36680396167E+02 -0.51160054627E+02 -0.92668091745E+01  0.63629210310E+02  0.00000000000E+00 0.  1.
<scales pt_clust_5="13000.00000" pt_clust_6="13000.00000" pt_clust_7="13000.00000" pt_clust_8="13000.00000" pt_clust_9="62.95080"></scales>
<clustering>
<clus scale="   62.951">  1  9  2 -1</clus>
<clus scale="   80.113">  5  6 -1 -1</clus>
<clus scale="   90.372">  7  8 -1 -1</clus>
<clus scale="  256.786">  1  5  2 -1</clus>
<clus scale="  260.170">  2  5  1 -1</clus>
</clustering>
</event>
<event>
 9    2  0.3791909E-005  0.1130213E+03  0.7546771E-02  0.1259077E+00
          2   -1    0    0  502    0  0.00000000000E+00  0.00000000000E+00  0.68835896705E+02  0.68835896705E+02  0.00000000000E+00 0. -1.
         -1   -1    0    0    0  501 -0.00000000000E+00 -0.00000000000E+00 -0.37735605209E+03  0.37735605209E+03  0.00000000000E+00 0.  1.
         24    2    1    2    0    0  0.27141855195E+02  0.69120665389E+02 -0.23202878149E+03  0.25639397656E+03  0.79913510050E+02 0.  0.
         23    2    1    2    0    0 -0.49586328198E+02 -0.34375841078E+02 -0.94856330878E+02  0.14454061007E+03  0.90850217717E+02 0.  0.
        -11    1    3    3    0    0  0.31493155296E+02  0.83207393330E+02 -0.22019341198E+03  0.23748774245E+03  0.00000000000E+00 0.  1.
         12    1    3    3    0    0 -0.43513001000E+01 -0.14086727941E+02 -0.11835369507E+02  0.18906234104E+02  0.00000000000E+00 0. -1.
        -13    1    4    4    0    0 -0.62307996918E+02 -0.10113248272E+02 -0.22237066134E+02  0.66925715392E+02  0.00000000000E+00 0. -1.
         13    1    4    4    0    0  0.12721668720E+02 -0.24262592805E+02 -0.72619264743E+02  0.77614894682E+02  0.00000000000E+00 0.  1.
         21    1    1    2  502  501  0.22444473002E+02 -0.34744824311E+02  0.18364956983E+02  0.45257362161E+02  0.00000000000E+00 0. -1.
<scales pt_clust_5="13000.00000" pt_clust_6="13000.00000" pt_clust_7="13000.00000" pt_clust_8="13000.00000" pt_clust_9="41.36372"></scales>
<clustering>
<clus scale="   41.364">  1  9  2 -1</clus>
<clus scale="   79.914">  5  6 -1 -1</clus>
<clus scale="   90.850">  7  8 -1 -1</clus>
<clus scale="  104.433">  2  5  1 -1</clus>
<clus scale="   41.364">  1  5  2 -1</clus>
</clustering>
</event>
<event>
 9    2  0.3791909E-005  0.1074401E+03  0.7546771E-02  0.1274486E+00
          2   -1    0    0  502    0  0.00000000000E+00  0.00000000000E+00  0.50175076359E+03  0.50175076359E+03  0.00000000000E+00 0. -1.
         -1   -1    0    0    0  501 -0.00000000000E+00 -0.00000000000E+00 -0.53399308196E+02  0.53399308196E+02  0.00000000000E+00 0.  1.
         23    2    1    2    0    0  0.23177230715E+02  0.14571782863E+02  0.16943587718E+02  0.10869370624E+03  0.10381577786E+03 0.  0.
         24    2    1    2    0    0 -0.34971971577E+02  0.22858717347E+01  0.37897160099E+03  0.39012823319E+03  0.85745553634E+02 0.  0.
        -11    1    4    4    0    0 -0.55344821542E+02  0.42178862874E+01  0.14495453173E+03  0.15521809207E+03  0.00000000000E+00 0.  1.
         12    1    4    4    0    0  0.20372849966E+02 -0.19320145527E+01  0.23401706926E+03  0.23491014112E+03  0.00000000000E+00 0. -1.
        -11    1    3    3    0    0  0.30126755302E+02 -0.33973616131E+02  0.34049547115E+02  0.56755613263E+02  0.00000000000E+00 0. -1.
         11    1    3    3    0    0 -0.69495245876E+01  0.48545398995E+02 -0.17105959397E+02  0.51938092980E+02  0.00000000000E+00 0.  1.
         21    1    1    2  502  501  0.11794740862E+02 -0.16857654598E+02  0.52436266687E+02  0.56328132355E+02  0.00000000000E+00 0. -1.
<scales pt_clust_5="13000.00000" pt_clust_6="13000.00000" pt_clust_7="13000.00000" pt_clust_8="13000.00000" pt_clust_9="20.57417"></scales>
<clustering>
<clus scale="   20.574">  1  9  2 -1</clus>
<clus scale="   85.746">  5  6 -1 -1</clus>
<clus scale="   90.100">  1  5  2 -1</clus>
<clus scale="  103.816">  7  8 -1 -1</clus>
<clus scale="   20.574">  1  5  2 -1</clus>
</clustering>
</event>
<event>
 9    2  0.3791909E-005  0.2244548E+03  0.7546771E-02  0.1131589E+00
         -1   -1    0    0    0  501 -0.00000000000E+00  0.00000000000E+00  0.25191091019E+03  0.25191091019E+03  0.00000000000E+00 0.  1.
          2   -1    0    0  502    0  0.00000000000E+00 -0.00000000000E+00 -0.35906660805E+03  0.35906660805E+03  0.00000000000E+00 0. -1.
         23    2    1    2    0    0 -0.17967874372E+03  0.10054340260E+03  0.14319087622E+03  0.26766946646E+03  0.93540843992E+02 0.  0.
         24    2    1    2    0    0  0.16108956059E+03 -0.11316399018E+03 -0.22558857025E+03  0.30987459977E+03  0.79850669070E+02 0.  0.
        -13    1    4    4    0    0  0.89323875676E+02 -0.10817716774E+03 -0.15564827515E+03  0.20954102210E+03  0.00000000000E+00 0.  1.
         14    1    4    4    0    0  0.71765684914E+02 -0.49868224401E+01 -0.69940295100E+02  0.10033357767E+03  0.00000000000E+00 0. -1.
        -11    1    3    3    0    0 -0.17070517864E+03  0.60035605866E+02  0.13401595881E+03  0.22517728394E+03  0.00000000000E+00 0.  1.
         11    1    3    3    0    0 -0.89735650789E+01  0.40507796731E+02  0.91749174046E+01  0.42492182524E+02  0.00000000000E+00 0. -1.
         21    1    1    2  502  501  0.18589183125E+02  0.12620587583E+02 -0.24758003826E+02  0.33433452015E+02  0.00000000000E+00 0. -1.
<scales pt_clust_5="13000.00000" pt_clust_6="13000.00000" pt_clust_7="13000.00000" pt_clust_8="13000.00000" pt_clust_9="22.46858"></scales>
<clustering>
<clus scale="   22.469">  2  9  1 -1</clus>
<clus scale="   79.851">  5  6 -1 -1</clus>
<clus scale="   93.541">  7  8 -1 -1</clus>
<clus scale="  219.103">  2  5  1 -1</clus>
<clus scale="   22.469">  2  5  1 -1</clus>
</clustering>
</event>
<event>
 9    2  0.3791909E-005  0.1171352E+03  0.7546771E-02  0.1251362E+00
          2   -1    0    0  502    0  0.00000000000E+00  0.00000000000E+00  0.32805192331E+03  0.32805192331E+03  0.00000000000E+00 0. -1.
         -1   -1    0    0    0  501 -0.00000000000E+00 -0.00000000000E+00 -0.80317726609E+02  0.80317726609E+02  0.00000000000E+00 0.  1.
         23    2    1    2    0    0  0.72383432112E+02  0.15030949400E+02 -0.96787507958E+01  0.11821068168E+03  0.91732199159E+02 0.  0.
         24    2    1    2    0    0 -0.71150491788E+02  0.77182522993E+01  0.18727137602E+03  0.21641016235E+03  0.81491264526E+02 0.  0.
        -11    1    4    4    0    0 -0.76417431570E+01 -0.19458730797E+02  0.11324608576E+03  0.11515951712E+03  0.00000000000E+00 0.  1.
         12    1    4    4    0    0 -0.63508748631E+02  0.27176983096E+02  0.74025290255E+02  0.10125064523E+03  0.00000000000E+00 0. -1.
        -11    1    3    3    0    0  0.16239786508E+02  0.28946825510E+02  0.32631555489E+02  0.46545330448E+02  0.00000000000E+00 0. -1.
         11    1    3    3    0    0  0.56143645603E+02 -0.13915876110E+02 -0.42310306284E+02  0.71665351233E+02  0.00000000000E+00 0.  1.
         21    1    1    2  502  501 -0.12329403239E+01 -0.22749201699E+02  0.70141571474E+02  0.73748805880E+02  0.00000000000E+00 0. -1.
<scales pt_clust_5="13000.00000" pt_clust_6="13000.00000" pt_clust_7="13000.00000" pt_clust_8="13000.00000" pt_clust_9="22.78259"></scales>
<clustering>
<clus scale="   22.783">  1  9  2 -1</clus>
<clus scale="   81.491">  5  6 -1 -1</clus>
<clus scale="   91.732">  7  8 -1 -1</clus>
<clus scale="  109.301">  1  5  2 -1</clus>
<clus scale="   22.783">  1  5  2 -1</clus>
</clustering>
</event>
<event>
 9    2  0.4788305E-005  0.1036759E+03  0.7546771E-02  0.1277847E+00
          2   -1    0    0  502    0  0.00000000000E+00  0.00000000000E+00  0.14409969240E+03  0.14409969240E+03  0.00000000000E+00 0. -1.
         -1   -1    0    0    0  501 -0.00000000000E+00 -0.00000000000E+00 -0.50927474509E+03  0.50927474509E+03  0.00000000000E+00 0.  1.
         23    2    1    2    0    0 -0.35994960157E+02 -0.34615359964E+02 -0.48112011633E+03  0.49223315803E+03  0.91230780025E+02 0.  0.
         24    2    1    2    0    0  0.15530364831E+02  0.32777378088E+02  0.10762722290E+03  0.13897454055E+03  0.80092166069E+02 0.  0.
        -13    1    4    4    0    0  0.15128792054E+02 -0.18552431028E+02  0.53362303143E+01  0.24526483646E+02  0.00000000000E+00 0.  1.
         14    1    4    4    0    0  0.40157277745E+00  0.51329809116E+02  0.10229099259E+03  0.11444805691E+03  0.00000000000E+00 0. -1.
        -11    1    3    3    0    0  0.13950963766E+02 -0.49866663586E+02 -0.23883784566E+03  0.24438664048E+03  0.00000000000E+00 0. -1.
         11    1    3    3    0    0 -0.49945923923E+02  0.15251303622E+02 -0.24228227067E+03  0.24784651755E+03  0.00000000000E+00 0.  1.
         21    1    1    2  502  501  0.20464595326E+02  0.18379818757E+01  0.83178407399E+01  0.22166738908E+02  0.00000000000E+00 0.  1.
<scales pt_clust_5="13000.00000" pt_clust_6="13000.00000" pt_clust_7="13000.00000" pt_clust_8="13000.00000" pt_clust_9="20.54697"></scales>
<clustering>
<clus scale="   20.547">  1  9  2 -1</clus>
<clus scale="   80.092">  5  6 -1 -1</clus>
<clus scale="   91.231">  7  8 -1 -1</clus>
<clus scale="   94.023">  1  5  2 -1</clus>
<clus scale="   20.547">  1  5  2 -1</clus>
</clustering>
</event>
<event>
 9    2  0.3791909E-005  0.9635581E+02  0.7546771E-02  0.1294223E+00
          2   -1    0    0  502    0  0.00000000000E+00  0.00000000000E+00  0.65479785015E+03  0.65479785015E+03  0.00000000000E+00 0. -1.
         -1   -1    0    0    0  501 -0.00000000000E+00 -0.00000000000E+00 -0.55716286789E+02  0.55716286789E+02  0.00000000000E+00 0.  1.
         24    2    1    2    0    0  0.87984863260E+02  0.23350092959E+02  0.62696309778E+02  0.13642584052E+03  0.79966366034E+02 0.  0.
         23    2    1    2    0    0 -0.17596840914E+02  0.23192896542E+02  0.41754623563E+03  0.42833701598E+03  0.90995500516E+02 0.  0.
        -11    1    3    3    0    0  0.69239849664E+01 -0.23254391826E+02  0.77016270607E+00  0.24275532077E+02  0.00000000000E+00 0.  1.
         12    1    3    3    0    0  0.81060878293E+02  0.46604484785E+02  0.61926147072E+02  0.11215030844E+03  0.00000000000E+00 0. -1.
        -11    1    4    4    0    0 -0.14508487282E+02 -0.34647995850E+02  0.17126955557E+03  0.17534035612E+03  0.00000000000E+00 0.  1.
         11    1    4    4    0    0 -0.30883536328E+01  0.57840892392E+02  0.24627668006E+03  0.25299665986E+03  0.00000000000E+00 0. -1.
         21    1    1    2  502  501 -0.70388022345E+02 -0.46542989501E+02  0.11883901795E+03  0.14575128044E+03  0.00000000000E+00 0. -1.
<scales pt_clust_5="13000.00000" pt_clust_6="13000.00000" pt_clust_7="13000.00000" pt_clust_8="13000.00000" pt_clust_9="84.38438"></scales>
<clustering>
<clus scale="   79.966">  5  6 -1 -1</clus>
<clus scale="   84.384">  2  9  1 -1</clus>
<clus scale="   86.017">  2  5  1 -1</clus>
<clus scale="   90.996">  7  8 -1 -1</clus>
<clus scale="   96.356">  1  5  2 -1</clus>
</clustering>
</event>
<event>
 9    2  0.3791909E-005  0.1309290E+03  0.7546771E-02  0.1227659E+00
         -1   -1    0    0    0  501 -0.00000000000E+00  0.00000000000E+00  0.39783267121E+03  0.39783267121E+03  0.00000000000E+00 0.  1.
          2   -1    0    0  502    0  0.00000000000E+00 -0.00000000000E+00 -0.56589906593E+02  0.56589906593E+02  0.00000000000E+00 0. -1.
         23    2    1    2    0    0  0.52223286785E+02  0.66283365447E+02  0.19268598984E+03  0.22970812993E+03  0.92288558649E+02 0.  0.
         24    2    1    2    0    0 -0.65532992808E+02 -0.81663439501E+02  0.15240236689E+03  0.20401460413E+03  0.86208971501E+02 0.  0.
        -11    1    4    4    0    0 -0.59213416458E+02 -0.70775832868E+01  0.80848746930E+02  0.10046313132E+03  0.00000000000E+00 0.  1.
         12    1    4    4    0    0 -0.63195763500E+01 -0.74585856214E+02  0.71553619956E+02  0.10355147281E+03  0.00000000000E+00 0. -1.
        -11    1    3    3    0    0  0.63629948011E+02  0.84057966559E+01  0.80469383097E+02  0.10293079868E+03  0.00000000000E+00 0. -1.
         11    1    3    3    0    0 -0.11406661226E+02  0.57877568791E+02  0.11221660674E+03  0.12677733124E+03  0.00000000000E+00 0.  1.
         21    1    1    2  502  501  0.13309706023E+02  0.15380074055E+02 -0.38455921096E+01  0.20699843744E+02  0.00000000000E+00 0.  1.
<scales pt_clust_5="13000.00000" pt_clust_6="13000.00000" pt_clust_7="13000.00000" pt_clust_8="13000.00000" pt_clust_9="20.33949"></scales>
<clustering>
<clus scale="   20.339">  2  9  1 -1</clus>
<clus scale="   86.209">  5  6 -1 -1</clus>
<clus scale="   92.289">  7  8 -1 -1</clus>
<clus scale="  126.717">  2  5  1 -1</clus>
<clus scale="   20.339">  2  5  1 -1</clus>
</clustering>
</event>
<event>
 9    2  0.3791909E-005  0.1082114E+03  0.7546771E-02  0.1267487E+00
          2   -1    0    0  502    0  0.00000000000E+00  0.00000000000E+00  0.88116391259E+03  0.88116391259E+03  0.00000000000E+00 0. -1.
         -1   -1    0    0    0  501 -0.00000000000E+00 -0.00000000000E+00 -0.71633568120E+02  0.71633568120E+02  0.00000000000E+00 0.  1.
         23    2    1    2    0    0  0.88610820339E+01 -0.13077993149E+02  0.63485876211E+02  0.11167820199E+03  0.90509732308E+02 0.  0.
         24    2    1    2    0    0 -0.58233397925E+02  0.30995344350E+02  0.77436275965E+03  0.78144866050E+03  0.81685283039E+02 0.  0.
        -13    1    4    4    0    0 -0.12478275878E+02  0.40040406348E+02  0.16298876177E+03  0.16829818173E+03  0.00000000000E+00 0.  1.
         14    1    4    4    0    0 -0.45755122046E+02 -0.90450619980E+01  0.61137399788E+03  0.61315047878E+03  0.00000000000E+00 0. -1.
        -11    1    3    3    0    0  0.36859055670E+02 -0.19540577051E+02  0.70665034337E+02  0.82060777563E+02  0.00000000000E+00 0.  1.
         11    1    3    3    0    0 -0.27997973636E+02  0.64625839021E+01 -0.71791581267E+01  0.29617424429E+02  0.00000000000E+00 0. -1.
         21    1    1    2  502  501  0.49372315891E+02 -0.17917351201E+02 -0.28318291392E+02  0.59670618213E+02  0.00000000000E+00 0.  1.
<scales pt_clust_5="13000.00000" pt_clust_6="13000.00000" pt_clust_7="13000.00000" pt_clust_8="13000.00000" pt_clust_9="52.52292"></scales>
<clustering>
<clus scale="   52.523">  2  9  1 -1</clus>
<clus scale="   81.685">  5  6 -1 -1</clus>
<clus scale="   90.510">  7  8 -1 -1</clus>
<clus scale="  100.946">  1  5  2 -1</clus>
<clus scale="  100.946">  1  5  2 -1</clus>
</clustering>
</event>
<event>
 9    2  0.3791909E-005  0.1132294E+03  0.7546771E-02  0.1259425E+00
          2   -1    0    0  502    0  0.00000000000E+00  0.00000000000E+00  0.18009128586E+03  0.18009128586E+03  0.00000000000E+00 0. -1.
         -1   -1    0    0    0  501 -0.00000000000E+00 -0.00000000000E+00 -0.19392917542E+03  0.19392917542E+03  0.00000000000E+00 0.  1.
         24    2    1    2    0    0  0.80825947476E+02 -0.15108325843E+02 -0.11815336003E+03  0.16389374134E+03  0.78357173703E+02 0.  0.
         23    2    1    2    0    0 -0.17807673166E+01  0.39803295646E+02  0.54474258418E+02  0.11347203325E+03  0.91219427878E+02 0.  0.
        -13    1    3    3    0    0  0.75732933240E+02  0.19812695501E+02 -0.80419720182E+02  0.11222901351E+03  0.00000000000E+00 0.  1.
         14    1    3    3    0    0  0.50930142358E+01 -0.34921021344E+02 -0.37733639845E+02  0.51664727830E+02  0.00000000000E+00 0. -1.
        -11    1    4    4    0    0  0.37924919283E+02  0.50581464468E+01  0.88863089996E+00  0.38271059731E+02  0.00000000000E+00 0.  1.
         11    1    4    4    0    0 -0.39705686599E+02  0.34745149199E+02  0.53585627518E+02  0.75200973515E+02  0.00000000000E+00 0. -1.
         21    1    1    2  502  501 -0.79045180159E+02 -0.24694969803E+02  0.49841212054E+02  0.96654686689E+02  0.00000000000E+00 0. -1.
<scales pt_clust_5="13000.00000" pt_clust_6="13000.00000" pt_clust_7="13000.00000" pt_clust_8="13000.00000" pt_clust_9="82.81293"></scales>
<clustering>
<clus scale="   78.357">  5  6 -1 -1</clus>
<clus scale="   82.813">  1  9  2 -1</clus>
<clus scale="   91.219">  7  8 -1 -1</clus>
<clus scale="  103.149">  2  5  1 -1</clus>
<clus scale="   82.813">  1  5  2 -1</clus>
</clustering>
</event>
<event>
 9    2  0.3791909E-005  0.9996247E+02  0.7546771E-02  0.1290675E+00
         -1   -1    0    0    0  501 -0.00000000000E+00  0.00000000000E+00  0.23858404403E+03  0.23858404403E+03  0.00000000000E+00 0.  1.
          2   -1    0    0  502    0  0.00000000000E+00 -0.00000000000E+00 -0.81846872547E+02  0.81846872547E+02  0.00000000000E+00 0. -1.
         24    2    1    2    0    0 -0.13454496207E+02  0.23846043726E+02  0.10023065644E+03  0.12645781720E+03  0.72081466211E+02 0.  0.
         23    2    1    2    0    0  0.16766687336E+01 -0.81015078409E+02  0.58319036811E+02  0.13557531704E+03  0.91724055662E+02 0.  0.
        -13    1    3    3    0    0  0.16630768345E+02  0.37707268874E+02  0.71884322142E+02  0.82859980398E+02  0.00000000000E+00 0.  1.
         14    1    3    3    0    0 -0.30085264552E+02 -0.13861225148E+02  0.28346334297E+02  0.43597836803E+02  0.00000000000E+00 0. -1.
        -13    1    4    4    0    0  0.45385075543E+02 -0.55310987467E+02  0.37276559701E+02  0.80676219047E+02  0.00000000000E+00 0.  1.
         13    1    4    4    0    0 -0.43708406810E+02 -0.25704090943E+02  0.21042477110E+02  0.54899097989E+02  0.00000000000E+00 0. -1.
         21    1    1    2  502  501  0.11777827474E+02  0.57169034683E+02 -0.18125217719E+01  0.58397782336E+02  0.00000000000E+00 0.  1.
<scales pt_clust_5="13000.00000" pt_clust_6="13000.00000" pt_clust_7="13000.00000" pt_clust_8="13000.00000" pt_clust_9="58.36965"></scales>
<clustering>
<clus scale="   58.370">  2  9  1 -1</clus>
<clus scale="   72.081">  5  6 -1 -1</clus>
<clus scale="   82.310">  1  5  2 -1</clus>
<clus scale="   91.724">  7  8 -1 -1</clus>
<clus scale="   58.370">  2  5  1 -1</clus>
</clustering>
</event>
<event>
 9    2  0.3791909E-005  0.2172491E+03  0.7546771E-02  0.1147369E+00
         -1   -1    0    0    0  501 -0.00000000000E+00  0.00000000000E+00  0.27852365645E+03  0.27852365645E+03  0.00000000000E+00 0.  1.
          2   -1    0    0  502    0  0.00000000000E+00 -0.00000000000E+00 -0.42215133254E+03  0.42215133254E+03  0.00000000000E+00 0. -1.
         23    2    1    2    0    0 -0.10912196917E+03  0.83276980689E+02  0.10479078155E+03  0.19553143242E+03  0.91699364765E+02 0.  0.
         24    2    1    2    0    0 -0.11672160717E+03 -0.47657052828E+02  0.16363810795E+01  0.16631982275E+03  0.10846417580E+03 0.  0.
        -11    1    4    4    0    0 -0.82149039752E+02  0.87060329647E+01  0.37920785549E+02  0.90896896090E+02  0.00000000000E+00 0.  1.
         12    1    4    4    0    0 -0.34572567421E+02 -0.56363085793E+02 -0.36284404470E+02  0.75422926659E+02  0.00000000000E+00 0. -1.
        -13    1    3    3    0    0 -0.40874875163E+02  0.81554294464E+02  0.34460097133E+02  0.97515930286E+02  0.00000000000E+00 0. -1.
         13    1    3    3    0    0 -0.68247094002E+02  0.17226862252E+01  0.70330684420E+02  0.98015502134E+02  0.00000000000E+00 0.  1.
         21    1    1    2  502  501  0.22584357634E+03 -0.35619927861E+02 -0.25005483872E+03  0.33882373382E+03  0.00000000000E+00 0. -1.
<scales pt_clust_5="13000.00000" pt_clust_6="13000.00000" pt_clust_7="13000.00000" pt_clust_8="13000.00000" pt_clust_9="188.23579"></scales>
<clustering>
<clus scale="   91.699">  7  8 -1 -1</clus>
<clus scale="  108.464">  5  6 -1 -1</clus>
<clus scale="  165.080">  1  7  2 -1</clus>
<clus scale="  188.236">  2  9  1 -1</clus>
<clus scale="  188.236">  2  5  1 -1</clus>
</clustering>
</event>
<event>
 9    2  0.3791909E-005  0.1035215E+03  0.7546771E-02  0.1279313E+00
          2   -1    0    0  502    0  0.00000000000E+00  0.00000000000E+00  0.99519389232E+02  0.99519389232E+02  0.00000000000E+00 0. -1.
         -1   -1    0    0    0  501 -0.00000000000E+00 -0.00000000000E+00 -0.30179812272E+03  0.30179812272E+03  0.00000000000E+00 0.  1.
         23    2    1    2    0    0  0.20014008801E+02 -0.51334619020E+02 -0.25463643917E+03  0.27537298110E+03  0.89189455146E+02 0.  0.
         24    2    1    2    0    0  0.52806201421E+01  0.38915231265E+02  0.47590348980E+02  0.97365042831E+02  0.75318192198E+02 0.  0.
        -13    1    4    4    0    0  0.59972584734E+01  0.25883733767E+02 -0.16951751332E+02  0.31516609211E+02  0.00000000000E+00 0.  1.
         14    1    4    4    0    0 -0.71663833125E+00  0.13031497499E+02  0.64542100312E+02  0.65848433621E+02  0.00000000000E+00 0. -1.
        -11    1    3    3    0    0  0.31730210187E+02  0.86047776753E+01 -0.37785919894E+02  0.50086167547E+02  0.00000000000E+00 0. -1.
         11    1    3    3    0    0 -0.11716201386E+02 -0.59939396695E+02 -0.21685051927E+03  0.22528681355E+03  0.00000000000E+00 0.  1.
         21    1    1    2  502  501 -0.25294628943E+02  0.12419387754E+02  0.47673567005E+01  0.28579488020E+02  0.00000000000E+00 0.  1.
<scales pt_clust_5="13000.00000" pt_clust_6="13000.00000" pt_clust_7="13000.00000" pt_clust_8="13000.00000" pt_clust_9="28.17906"></scales>
<clustering>
<clus scale="   28.179">  1  9  2 -1</clus>
<clus scale="   75.318">  5  6 -1 -1</clus>
<clus scale="   89.189">  7  8 -1 -1</clus>
<clus scale="   91.841">  1  5  2 -1</clus>
<clus scale="   28.179">  1  5  2 -1</clus>
</clustering>
</event>
<event>
 9    2  0.3791909E-005  0.1063521E+03  0.7546771E-02  0.1268675E+00
         -1   -1    0    0    0  501 -0.00000000000E+00  0.00000000000E+00  0.82387390200E+02  0.82387390200E+02  0.00000000000E+00 0.  1.
          2   -1    0    0  502    0  0.00000000000E+00 -0.00000000000E+00 -0.36339591159E+03  0.36339591159E+03  0.00000000000E+00 0. -1.
         23    2    1    2    0    0 -0.22658280623E+02 -0.77246233928E+02 -0.86407251524E+01  0.12180398536E+03  0.91000936157E+02 0.  0.
         24    2    1    2    0    0 -0.13320720453E+02  0.16971549423E+02 -0.86762856817E+02  0.12554363504E+03  0.88135894466E+02 0.  0.
        -13    1    4    4    0    0 -0.37744579857E+02  0.32934151506E+02 -0.81840120138E+02  0.95953722743E+02  0.00000000000E+00 0.  1.
         14    1    4    4    0    0  0.24423859404E+02 -0.15962602083E+02 -0.49227366788E+01  0.29589912299E+02  0.00000000000E+00 0. -1.
        -13    1    3    3    0    0 -0.48540159198E+02 -0.10457153653E+02  0.19349428891E-01  0.49653796349E+02  0.00000000000E+00 0.  1.
         13    1    3    3    0    0  0.25881878575E+02 -0.66789080275E+02 -0.86600745813E+01  0.72150189011E+02  0.00000000000E+00 0. -1.
         21    1    1    2  502  501  0.35979001076E+02  0.60274684504E+02 -0.18560493942E+03  0.19843568139E+03  0.00000000000E+00 0. -1.
<scales pt_clust_5="13000.00000" pt_clust_6="13000.00000" pt_clust_7="13000.00000" pt_clust_8="13000.00000" pt_clust_9="70.19634"></scales>
<clustering>
<clus scale="   70.196">  2  9  1 -1</clus>
<clus scale="   88.136">  5  6 -1 -1</clus>
<clus scale="   91.001">  7  8 -1 -1</clus>
<clus scale="  103.911">  2  5  1 -1</clus>
<clus scale="   70.196">  2  5  1 -1</clus>
</clustering>
</event>
<event>
 9    2  0.3791909E-005  0.9269459E+02  0.7546771E-02  0.1297167E+00
          2   -1    0    0  502    0  0.00000000000E+00  0.00000000000E+00  0.14836429143E+03  0.14836429143E+03  0.00000000000E+00 0. -1.
         -1   -1    0    0    0  501 -0.00000000000E+00 -0.00000000000E+00 -0.84922056113E+02  0.84922056113E+02  0.00000000000E+00 0.  1.
         23    2    1    2    0    0  0.33474738620E+02 -0.20659991927E+02 -0.97769151095E+01  0.90284326439E+02  0.80673899989E+02 0.  0.
         24    2    1    2    0    0 -0.42375861692E+02  0.41104096820E+02  0.49847013493E+02  0.11069957225E+03  0.79274271447E+02 0.  0.
        -11    1    4    4    0    0 -0.17923419851E+02  0.16286472779E+02 -0.20803126755E+02  0.31925980917E+02  0.00000000000E+00 0.  1.
         12    1    4    4    0    0 -0.24452441841E+02  0.24817624041E+02  0.70650140248E+02  0.78773591336E+02  0.00000000000E+00 0. -1.
        -11    1    3    3    0    0  0.13978755118E+02  0.20584893524E+02  0.23178448597E+02  0.34005645346E+02  0.00000000000E+00 0. -1.
         11    1    3    3    0    0  0.19495983502E+02 -0.41244885450E+02 -0.32955363707E+02  0.56278681093E+02  0.00000000000E+00 0.  1.
         21    1    1    2  502  501  0.89011230726E+01 -0.20444104893E+02  0.23372136929E+02  0.32302448846E+02  0.00000000000E+00 0. -1.
<scales pt_clust_5="13000.00000" pt_clust_6="13000.00000" pt_clust_7="13000.00000" pt_clust_8="13000.00000" pt_clust_9="22.29779"></scales>
<clustering>
<clus scale="   22.298">  1  9  2 -1</clus>
<clus scale="   79.274">  5  6 -1 -1</clus>
<clus scale="   80.674">  7  8 -1 -1</clus>
<clus scale="   91.479">  1  5  2 -1</clus>
<clus scale="   22.298">  1  5  2 -1</clus>
</clustering>
</event>
<event>
 9    2  0.3791909E-005  0.1108008E+03  0.7546771E-02  0.1262347E+00
          2   -1    0    0  502    0  0.00000000000E+00  0.00000000000E+00  0.18726310354E+03  0.18726310354E+03  0.00000000000E+00 0. -1.
         -1   -1    0    0    0  501 -0.00000000000E+00 -0.00000000000E+00 -0.83792366916E+02  0.83792366916E+02  0.00000000000E+00 0.  1.
         23    2    1    2    0    0 -0.50620375230E+01 -0.71685835269E+02  0.51091600067E+01  0.11449345368E+03  0.88984067208E+02 0.  0.
         24    2    1    2    0    0 -0.10547563925E+02  0.56857687679E+02  0.71184513931E+02  0.12189032293E+03  0.80286786253E+02 0.  0.
        -11    1    4    4    0    0  0.27798368411E+02  0.31012018223E+02  0.61614817582E+01  0.42100575032E+02  0.00000000000E+00 0.  1.
         12    1    4    4    0    0 -0.38345932336E+02  0.25845669456E+02  0.65023032172E+02  0.79789747895E+02  0.00000000000E+00 0. -1.
        -11    1    3    3    0    0 -0.36460687903E+02 -0.73859244831E+02  0.86484971408E+01  0.82821291418E+02  0.00000000000E+00 0.  1.
         11    1    3    3    0    0  0.31398650380E+02  0.21734095624E+01 -0.35393371341E+01  0.31672162259E+02  0.00000000000E+00 0. -1.
         21    1    1    2  502  501  0.15609601448E+02  0.14828147590E+02  0.27177062689E+02  0.34671693854E+02  0.00000000000E+00 0.  1.
<scales pt_clust_5="13000.00000" pt_clust_6="13000.00000" pt_clust_7="13000.00000" pt_clust_8="13000.00000" pt_clust_9="21.52983"></scales>
<clustering>
<clus scale="   21.530">  1  9  2 -1</clus>
<clus scale="   80.287">  5  6 -1 -1</clus>
<clus scale="   88.984">  7  8 -1 -1</clus>
<clus scale="  103.945">  1  5  2 -1</clus>
<clus scale="   21.530">  1  5  2 -1</clus>
</clustering>
</event>
<event>
 9    2  0.3791909E-005  0.9741047E+02  0.7546771E-02  0.1294006E+00
         -1   -1    0    0    0  501 -0.00000000000E+00  0.00000000000E+00  0.10522890191E+03  0.10522890191E+03  0.00000000000E+00 0.  1.
          2   -1    0    0  502    0  0.00000000000E+00 -0.00000000000E+00 -0.19557722405E+03  0.19557722405E+03  0.00000000000E+00 0. -1.
         23    2    1    2    0    0  0.33372098844E+02 -0.11931957213E+02  0.48681537181E+02  0.11174428329E+03  0.94131951008E+02 0.  0.
         24    2    1    2    0    0  0.96878059256E+01  0.12704674607E+02 -0.68074894641E+02  0.10605967701E+03  0.79744601494E+02 0.  0.
        -11    1    4    4    0    0  0.12539316483E+02  0.43706912791E+02 -0.22153886973E+02  0.50579871408E+02  0.00000000000E+00 0.  1.
         12    1    4    4    0    0 -0.28515105570E+01 -0.31002238184E+02 -0.45921007668E+02  0.55479805606E+02  0.00000000000E+00 0. -1.
        -13    1    3    3    0    0  0.42715527230E+02 -0.30844330633E+02  0.66000141640E+02  0.84451214883E+02  0.00000000000E+00 0.  1.
         13    1    3    3    0    0 -0.93434283862E+01  0.18912373420E+02 -0.17318604459E+02  0.27293068402E+02  0.00000000000E+00 0. -1.
         21    1    1    2  502  501 -0.43059904769E+02 -0.77271739481E+00 -0.70954964684E+02  0.83002165660E+02  0.00000000000E+00 0. -1.
<scales pt_clust_5="13000.00000" pt_clust_6="13000.00000" pt_clust_7="13000.00000" pt_clust_8="13000.00000" pt_clust_9="43.06684"></scales>
<clustering>
<clus scale="   43.067">  2  9  1 -1</clus>
<clus scale="   79.745">  5  6 -1 -1</clus>
<clus scale="   83.589">  2  5  1 -1</clus>
<clus scale="   94.132">  7  8 -1 -1</clus>
<clus scale="   43.067">  2  5  1 -1</clus>
</clustering>
</event>
<event>
 9    2  0.3791909E-005  0.1260227E+03  0.7546771E-02  0.1234603E+00
         -1   -1    0    0    0  501 -0.00000000000E+00  0.00000000000E+00  0.46672832559E+02  0.46672832559E+02  0.00000000000E+00 0.  1.
          2   -1    0    0  502    0  0.00000000000E+00 -0.00000000000E+00 -0.72400277050E+03  0.72400277050E+03  0.00000000000E+00 0. -1.
         23    2    1    2    0    0  0.52354435004E+02 -0.82196778193E+02 -0.10717366108E+03  0.17160275603E+03  0.92000081725E+02 0.  0.
         24    2    1    2    0    0 -0.31906476015E-02  0.37343175974E+02 -0.43922404848E+03  0.45110073193E+03  0.95810191452E+02 0.  0.
        -13    1    4    4    0    0  0.22492525908E+02  0.27214243843E+02 -0.50631527512E+02  0.61725848458E+02  0.00000000000E+00 0.  1.
         14    1    4    4    0    0 -0.22495716556E+02  0.10128932131E+02 -0.38859252097E+03  0.38937488348E+03  0.00000000000E+00 0. -1.
        -13    1    3    3    0    0 -0.26473754128E+02 -0.26802988000E+02 -0.29730668519E+02  0.47991379162E+02  0.00000000000E+00 0. -1.
         13    1    3    3    0    0  0.78828189132E+02 -0.55393790193E+02 -0.77442992565E+02  0.12361137687E+03  0.00000000000E+00 0.  1.
         21    1    1    2  502  501 -0.52351244357E+02  0.44853602219E+02 -0.13093222837E+03  0.14797211509E+03  0.00000000000E+00 0.  1.
<scales pt_clust_5="13000.00000" pt_clust_6="13000.00000" pt_clust_7="13000.00000" pt_clust_8="13000.00000" pt_clust_9="68.93837"></scales>
<clustering>
<clus scale="   68.938">  2  9  1 -1</clus>
<clus scale="   92.000">  7  8 -1 -1</clus>
<clus scale="   95.810">  5  6 -1 -1</clus>
<clus scale="  123.151">  1  7  2 -1</clus>
<clus scale="   68.938">  2  5  1 -1</clus>
</clustering>
</event>
<event>
 9    2  0.3791909E-005  0.1090287E+03  0.7546771E-02  0.1267591E+00
          2   -1    0    0  502    0  0.00000000000E+00  0.00000000000E+00  0.32808050213E+03  0.32808050213E+03  0.00000000000E+00 0. -1.
         -1   -1    0    0    0  501 -0.00000000000E+00 -0.00000000000E+00 -0.93128817032E+02  0.93128817032E+02  0.00000000000E+00 0.  1.
         24    2    1    2    0    0  0.62077591707E+02  0.10511962805E+02 -0.47135367088E+02  0.11024463631E+03  0.77252885063E+02 0.  0.
         23    2    1    2    0    0 -0.42181449410E+02 -0.28655150649E+02  0.23119131590E+03  0.25338510561E+03  0.90300580637E+02 0.  0.
        -11    1    3    3    0    0  0.37077053859E+02 -0.19664532285E+02 -0.56083873098E+02  0.70048572966E+02  0.00000000000E+00 0.  1.
         12    1    3    3    0    0  0.25000537848E+02  0.30176495090E+02  0.89485060097E+01  0.40196063345E+02  0.00000000000E+00 0. -1.
        -11    1    4    4    0    0 -0.20611999987E+02  0.32434910366E+02  0.74481833502E+02  0.83811821814E+02  0.00000000000E+00 0.  1.
         11    1    4    4    0    0 -0.21569449423E+02 -0.61090061015E+02  0.15670948240E+03  0.16957328380E+03  0.00000000000E+00 0. -1.
         21    1    1    2  502  501 -0.19896142297E+02  0.18143187844E+02  0.50895736287E+02  0.57579577244E+02  0.00000000000E+00 0.  1.
<scales pt_clust_5="13000.00000" pt_clust_6="13000.00000" pt_clust_7="13000.00000" pt_clust_8="13000.00000" pt_clust_9="26.92641"></scales>
<clustering>
<clus scale="   26.926">  1  9  2 -1</clus>
<clus scale="   77.253">  5  6 -1 -1</clus>
<clus scale="   90.301">  7  8 -1 -1</clus>
<clus scale="   98.494">  2  5  1 -1</clus>
<clus scale="   26.926">  1  5  2 -1</clus>
</clustering>
</event>
<event>
 9    2  0.3791909E-005  0.1770040E+03  0.7546771E-02  0.1172247E+00
         -1   -1    0    0    0  501 -0.00000000000E+00  0.00000000000E+00  0.16783271166E+03  0.16783271166E+03  0.00000000000E+00 0.  1.
          2   -1    0    0  502    0  0.00000000000E+00 -0.00000000000E+00 -0.47093823940E+03  0.47093823940E+03  0.00000000000E+00 0. -1.
         23    2    1    2    0    0 -0.62257239157E+02  0.14362297776E+03  0.68199851740E+02  0.19388438926E+03  0.91849948577E+02 0.  0.
         24    2    1    2    0    0  0.76803644750E+00 -0.14299046724E+03 -0.17702386837E+03  0.24110572933E+03  0.79672198052E+02 0.  0.
        -11    1    4    4    0    0 -0.33016398432E+02 -0.29639080247E+02 -0.36678434456E+02  0.57566181022E+02  0.00000000000E+00 0.  1.
         12    1    4    4    0    0  0.33784434879E+02 -0.11335138699E+03 -0.14034543391E+03  0.18353954831E+03  0.00000000000E+00 0. -1.
        -11    1    3    3    0    0  0.12621289858E+02  0.34617066991E+02  0.47361716551E+02  0.60006420318E+02  0.00000000000E+00 0.  1.
         11    1    3    3    0    0 -0.74878529015E+02  0.10900591077E+03  0.20838135189E+02  0.13387796894E+03  0.00000000000E+00 0. -1.
         21    1    1    2  502  501  0.61489202710E+02 -0.63251052109E+00 -0.19428151111E+03  0.20378083246E+03  0.00000000000E+00 0. -1.
<scales pt_clust_5="13000.00000" pt_clust_6="13000.00000" pt_clust_7="13000.00000" pt_clust_8="13000.00000" pt_clust_9="61.49246"></scales>
<clustering>
<clus scale="   61.492">  2  9  1 -1</clus>
<clus scale="   79.672">  5  6 -1 -1</clus>
<clus scale="   91.850">  7  8 -1 -1</clus>
<clus scale="  171.002">  2  5  1 -1</clus>
<clus scale="   61.492">  2  5  1 -1</clus>
</clustering>
</event>
<event>
 9    2  0.3791909E-005  0.1077484E+03  0.7546771E-02  0.1267936E+00
         -1   -1    0    0    0  501 -0.00000000000E+00  0.00000000000E+00  0.18907165393E+03  0.18907165393E+03  0.00000000000E+00 0.  1.
          2   -1    0    0  502    0  0.00000000000E+00 -0.00000000000E+00 -0.11418328881E+03  0.11418328881E+03  0.00000000000E+00 0. -1.
         23    2    1    2    0    0 -0.45375838619E+02 -0.34523683301E+02  0.94181784981E+02  0.14243525975E+03  0.90370034629E+02 0.  0.
         24    2    1    2    0    0  0.31321015793E+02  0.15725217588E+01  0.23454173758E+02  0.10504626771E+03  0.97473797698E+02 0.  0.
        -13    1    4    4    0    0 -0.47295833209E+00 -0.29226673743E+02  0.46665283250E+02  0.55064242558E+02  0.00000000000E+00 0.  1.
         14    1    4    4    0    0  0.31793974125E+02  0.30799195502E+02 -0.23211109492E+02  0.49982025150E+02  0.00000000000E+00 0. -1.
        -11    1    3    3    0    0 -0.46075352012E+02  0.18489664500E+02  0.65397531744E+02  0.82107508272E+02  0.00000000000E+00 0.  1.
         11    1    3    3    0    0  0.69951339344E+00 -0.53013347801E+02  0.28784253237E+02  0.60327751479E+02  0.00000000000E+00 0. -1.
         21    1    1    2  502  501  0.14054822826E+02  0.32951161542E+02 -0.42747593627E+02  0.55773415284E+02  0.00000000000E+00 0. -1.
<scales pt_clust_5="13000.00000" pt_clust_6="13000.00000" pt_clust_7="13000.00000" pt_clust_8="13000.00000" pt_clust_9="35.82342"></scales>
<clustering>
<clus scale="   35.823">  2  9  1 -1</clus>
<clus scale="   90.370">  7  8 -1 -1</clus>
<clus scale="   97.474">  5  6 -1 -1</clus>
<clus scale="  101.367">  1  7  2 -1</clus>
<clus scale="   35.823">  2  5  1 -1</clus>
</clustering>
</event>
<event>
 9    2  0.3791909E-005  0.1378782E+03  0.7546771E-02  0.1219623E+00
          2   -1    0    0  502    0  0.00000000000E+00  0.00000000000E+00  0.17376972058E+03  0.17376972058E+03  0.00000000000E+00 0. -1.
         -1   -1    0    0    0  501 -0.00000000000E+00 -0.00000000000E+00 -0.54997961581E+03  0.54997961581E+03  0.00000000000E+00 0.  1.
         23    2    1    2    0    0 -0.74421743224E+02 -0.97654106052E+02 -0.41681067634E+03  0.44488390667E+03  0.95475809556E+02 0.  0.
         24    2    1    2    0    0 -0.67170818779E+01  0.68938811320E+02 -0.78154179669E+02  0.13219976298E+03  0.81061844520E+02 0.  0.
        -11    1    4    4    0    0 -0.38930538871E+02  0.11683107642E+02 -0.34595726339E+02  0.53375520062E+02  0.00000000000E+00 0.  1.
         12    1    4    4    0    0  0.32213456993E+02  0.57255703678E+02 -0.43558453331E+02  0.78824242918E+02  0.00000000000E+00 0. -1.
        -13    1    3    3    0    0 -0.25634638788E+02 -0.75797473743E+02 -0.35145811853E+03  0.36045138481E+03  0.00000000000E+00 0.  1.
         13    1    3    3    0    0 -0.48787104437E+02 -0.21856632309E+02 -0.65352557807E+02  0.84432521857E+02  0.00000000000E+00 0. -1.
         21    1    1    2  502  501  0.81138825102E+02  0.28715294732E+02  0.11875496078E+03  0.14666566674E+03  0.00000000000E+00 0. -1.
<scales pt_clust_5="13000.00000" pt_clust_6="13000.00000" pt_clust_7="13000.00000" pt_clust_8="13000.00000" pt_clust_9="86.07019"></scales>
<clustering>
<clus scale="   81.062">  5  6 -1 -1</clus>
<clus scale="   86.070">  1  9  2 -1</clus>
<clus scale="   95.476">  7  8 -1 -1</clus>
<clus scale="  128.319">  1  5  2 -1</clus>
<clus scale="   86.070">  1  5  2 -1</clus>
</clustering>
</event>
<event>
 9    2  0.3791909E-005  0.1039965E+03  0.7546771E-02  0.1275679E+00
         -1   -1    0    0    0  501 -0.00000000000E+00  0.00000000000E+00  0.13939770454E+03  0.13939770454E+03  0.00000000000E+00 0.  1.
          2   -1    0    0  502    0  0.00000000000E+00 -0.00000000000E+00 -0.46770772837E+03  0.46770772837E+03  0.00000000000E+00 0. -1.
         24    2    1    2    0    0  0.48227836239E+02  0.19301683359E+02  0.10948044218E+03  0.14592428251E+03  0.81298522972E+02 0.  0.
         23    2    1    2    0    0 -0.74572589488E+02 -0.14915401436E+02 -0.33472476767E+03  0.35471132526E+03  0.89419874054E+02 0.  0.
        -11    1    3    3    0    0  0.28435972092E+02  0.21900888480E+02  0.11864794931E+03  0.12395801426E+03  0.00000000000E+00 0.  1.
         12    1    3    3    0    0  0.19791864147E+02 -0.25992051211E+01 -0.91675071300E+01  0.21966268246E+02  0.00000000000E+00 0. -1.
        -11    1    4    4    0    0 -0.90843657085E+02 -0.27646805262E+02 -0.29544029636E+03  0.31032544947E+03  0.00000000000E+00 0. -1.
         11    1    4    4    0    0  0.16271067596E+02  0.12731403827E+02 -0.39284471306E+02  0.44385875793E+02  0.00000000000E+00 0.  1.
         21    1    1    2  502  501  0.26344753249E+02 -0.43862819232E+01 -0.10306569834E+03  0.10646982514E+03  0.00000000000E+00 0. -1.
<scales pt_clust_5="13000.00000" pt_clust_6="13000.00000" pt_clust_7="13000.00000" pt_clust_8="13000.00000" pt_clust_9="26.70741"></scales>
<clustering>
<clus scale="   26.707">  2  9  1 -1</clus>
<clus scale="   81.299">  5  6 -1 -1</clus>
<clus scale="   89.420">  7  8 -1 -1</clus>
<clus scale="   97.102">  1  5  2 -1</clus>
<clus scale="   26.707">  2  5  1 -1</clus>
</clustering>
</event>
<event>
 9    2  0.3791909E-005  0.9348143E+02  0.7546771E-02  0.1298244E+00
          2   -1    0    0  502    0  0.00000000000E+00  0.00000000000E+00  0.80374375426E+03  0.80374375426E+03  0.00000000000E+00 0. -1.
         -1   -1    0    0    0  501 -0.00000000000E+00 -0.00000000000E+00 -0.18266294551E+02  0.18266294551E+02  0.00000000000E+00 0.  1.
         23    2    1    2    0    0  0.31876688774E+02 -0.14124978487E+02  0.17407772793E+03  0.19916483903E+03  0.90265937315E+02 0.  0.
         24    2    1    2    0    0 -0.23960537429E+01 -0.35274959813E+01  0.40989727382E+03  0.41843396190E+03  0.83982266500E+02 0.  0.
        -13    1    4    4    0    0 -0.23953881899E+02  0.32156837671E+02  0.15256606540E+03  0.15774744048E+03  0.00000000000E+00 0.  1.
         14    1    4    4    0    0  0.21557828156E+02 -0.35684333652E+02  0.25733120842E+03  0.26068652142E+03  0.00000000000E+00 0. -1.
        -13    1    3    3    0    0  0.80365514265E+01  0.36264038680E+02  0.43591419668E+02  0.57270223755E+02  0.00000000000E+00 0.  1.
         13    1    3    3    0    0  0.23840137347E+02 -0.50389017167E+02  0.13048630826E+03  0.14189461527E+03  0.00000000000E+00 0. -1.
         21    1    1    2  502  501 -0.29480635031E+02  0.17652474468E+02  0.20150245796E+03  0.20441124788E+03  0.00000000000E+00 0.  1.
<scales pt_clust_5="13000.00000" pt_clust_6="13000.00000" pt_clust_7="13000.00000" pt_clust_8="13000.00000" pt_clust_9="34.36157"></scales>
<clustering>
<clus scale="   34.362">  1  9  2 -1</clus>
<clus scale="   83.982">  5  6 -1 -1</clus>
<clus scale="   87.429">  1  5  2 -1</clus>
<clus scale="   90.266">  7  8 -1 -1</clus>
<clus scale="   34.362">  1  5  2 -1</clus>
</clustering>
</event>
<event>
 9    2  0.3791909E-005  0.1153939E+03  0.7546771E-02  0.1253858E+00
         -1   -1    0    0    0  501 -0.00000000000E+00  0.00000000000E+00  0.32020072047E+03  0.32020072047E+03  0.00000000000E+00 0.  1.
          2   -1    0    0  502    0  0.00000000000E+00 -0.00000000000E+00 -0.19282765678E+03  0.19282765678E+03  0.00000000000E+00 0. -1.
         23    2    1    2    0    0  0.73334297891E+02  0.24731770051E+02  0.27197813427E+03  0.29700400833E+03  0.90827835759E+02 0.  0.
         24    2    1    2    0    0 -0.13493311081E+02  0.10612996484E+02 -0.10986929074E+03  0.13832771117E+03  0.82271437881E+02 0.  0.
        -11    1    4    4    0    0 -0.33523927232E+02 -0.16208998780E+02 -0.19661852860E+02  0.42109070239E+02  0.00000000000E+00 0.  1.
         12    1    4    4    0    0  0.20030616152E+02  0.26821995264E+02 -0.90207437880E+02  0.96218640929E+02  0.00000000000E+00 0. -1.
        -11    1    3    3    0    0  0.63825737376E+02  0.56535136796E+02  0.21100219000E+03  0.22757827363E+03  0.00000000000E+00 0.  1.
         11    1    3    3    0    0  0.95085605154E+01 -0.31803366745E+02  0.60975944265E+02  0.69425734699E+02  0.00000000000E+00 0. -1.
         21    1    1    2  502  501 -0.59840986811E+02 -0.35344766535E+02 -0.34735779834E+02  0.77696657744E+02  0.00000000000E+00 0.  1.
<scales pt_clust_5="13000.00000" pt_clust_6="13000.00000" pt_clust_7="13000.00000" pt_clust_8="13000.00000" pt_clust_9="69.49961"></scales>
<clustering>
<clus scale="   69.500">  2  9  1 -1</clus>
<clus scale="   82.271">  5  6 -1 -1</clus>
<clus scale="   90.828">  7  8 -1 -1</clus>
<clus scale="  108.787">  2  5  1 -1</clus>
<clus scale="   69.500">  2  5  1 -1</clus>
</clustering>
</event>
<event>
 9    2  0.3791909E-005  0.1236105E+03  0.7546771E-02  0.1240167E+00
          2   -1    0    0  502    0  0.00000000000E+00  0.00000000000E+00  0.51483600829E+03  0.51483600829E+03  0.00000000000E+00 0. -1.
         -1   -1    0    0    0  501 -0.00000000000E+00 -0.00000000000E+00 -0.17194217748E+03  0.17194217748E+03  0.00000000000E+00 0.  1.
         23    2    1    2    0    0 -0.25388217991E+02 -0.77530996436E+02 -0.13168813122E+03  0.17982305293E+03  0.91317848416E+02 0.  0.
         24    2    1    2    0    0  0.44855315191E+02  0.10537223810E+03  0.41765630374E+03  0.44066310330E+03  0.81436322941E+02 0.  0.
        -11    1    4    4    0    0 -0.16774495263E+02  0.47225199961E+02  0.21955462788E+03  0.22520177136E+03  0.00000000000E+00 0.  1.
         12    1    4    4    0    0  0.61629810454E+02  0.58147038137E+02  0.19810167586E+03  0.21546133193E+03  0.00000000000E+00 0. -1.
        -11    1    3    3    0    0  0.88857719087E+01 -0.63222846372E+02 -0.12731462376E+03  0.14242576547E+03  0.00000000000E+00 0.  1.
         11    1    3    3    0    0 -0.34273989900E+02 -0.14308150064E+02 -0.43735074581E+01  0.37397287460E+02  0.00000000000E+00 0. -1.
         21    1    1    2  502  501 -0.19467097200E+02 -0.27841241662E+02  0.56925658286E+02  0.66292029551E+02  0.00000000000E+00 0.  1.
<scales pt_clust_5="13000.00000" pt_clust_6="13000.00000" pt_clust_7="13000.00000" pt_clust_8="13000.00000" pt_clust_9="33.97209"></scales>
<clustering>
<clus scale="   33.972">  1  9  2 -1</clus>
<clus scale="   81.436">  5  6 -1 -1</clus>
<clus scale="   91.318">  7  8 -1 -1</clus>
<clus scale="  116.501">  1  5  2 -1</clus>
<clus scale="   33.972">  1  5  2 -1</clus>
</clustering>
</event>
<event>
 9    2  0.3791909E-005  0.9485777E+02  0.7546771E-02  0.1300653E+00
          2   -1    0    0  502    0  0.00000000000E+00  0.00000000000E+00  0.37447953790E+03  0.37447953790E+03  0.00000000000E+00 0. -1.
         -1   -1    0    0    0  501 -0.00000000000E+00 -0.00000000000E+00 -0.77403258962E+02  0.77403258962E+02  0.00000000000E+00 0.  1.
         23    2    1    2    0    0 -0.20952906176E+01 -0.10313882846E+02 -0.27781637564E+02  0.98888736048E+02  0.94320709865E+02 0.  0.
         24    2    1    2    0    0  0.35121579499E+02 -0.12983863345E+02  0.15252414135E+03  0.17598431307E+03  0.79402510673E+02 0.  0.
        -13    1    4    4    0    0  0.26367124832E+02 -0.31887095239E+02  0.28545969963E+02  0.50268126241E+02  0.00000000000E+00 0.  1.
         14    1    4    4    0    0  0.87544546668E+01  0.18903231894E+02  0.12397817138E+03  0.12571618683E+03  0.00000000000E+00 0. -1.
        -11    1    3    3    0    0  0.17291961184E+02  0.14259095339E+02  0.27429847043E+02  0.35422171451E+02  0.00000000000E+00 0. -1.
         11    1    3    3    0    0 -0.19387251801E+02 -0.24572978185E+02 -0.55211484607E+02  0.63466564598E+02  0.00000000000E+00 0.  1.
         21    1    1    2  502  501 -0.33026288881E+02  0.23297746191E+02  0.17233377516E+03  0.17700974774E+03  0.00000000000E+00 0. -1.
<scales pt_clust_5="13000.00000" pt_clust_6="13000.00000" pt_clust_7="13000.00000" pt_clust_8="13000.00000" pt_clust_9="40.41684"></scales>
<clustering>
<clus scale="   40.417">  1  9  2 -1</clus>
<clus scale="   79.403">  5  6 -1 -1</clus>
<clus scale="   80.040">  1  5  2 -1</clus>
<clus scale="   94.321">  7  8 -1 -1</clus>
<clus scale="   40.417">  1  5  2 -1</clus>
</clustering>
</event>
<event>
 9    2  0.3791909E-005  0.1120299E+03  0.7546771E-02  0.1265672E+00
         -1   -1    0    0    0  501 -0.00000000000E+00  0.00000000000E+00  0.49636155352E+03  0.49636155352E+03  0.00000000000E+00 0.  1.
          2   -1    0    0  502    0  0.00000000000E+00 -0.00000000000E+00 -0.82254516344E+02  0.82254516344E+02  0.00000000000E+00 0. -1.
         23    2    1    2    0    0  0.36887744713E+02 -0.40972336933E+02  0.36004791294E+03  0.37575972848E+03  0.92311623518E+02 0.  0.
         24    2    1    2    0    0  0.41224018693E+02 -0.19857263623E+02  0.10950152800E+02  0.94874531317E+02  0.82386529303E+02 0.  0.
        -11    1    4    4    0    0  0.51937492464E+01 -0.36000823422E+02  0.33463551572E+02  0.49425131281E+02  0.00000000000E+00 0.  1.
         12    1    4    4    0    0  0.36030269447E+02  0.16143559799E+02 -0.22513398773E+02  0.45449400037E+02  0.00000000000E+00 0. -1.
        -13    1    3    3    0    0 -0.15519385923E+02 -0.51582192829E+02  0.16967181587E+03  0.17801713136E+03  0.00000000000E+00 0.  1.
         13    1    3    3    0    0  0.52407130636E+02  0.10609855896E+02  0.19037609706E+03  0.19774259712E+03  0.00000000000E+00 0. -1.
         21    1    1    2  502  501 -0.78111763406E+02  0.60829600556E+02  0.43108971443E+02  0.10798181007E+03  0.00000000000E+00 0. -1.
<scales pt_clust_5="13000.00000" pt_clust_6="13000.00000" pt_clust_7="13000.00000" pt_clust_8="13000.00000" pt_clust_9="63.47649"></scales>
<clustering>
<clus scale="   82.387">  5  6 -1 -1</clus>
<clus scale="   92.312">  7  8 -1 -1</clus>
<clus scale="   94.240">  2  5  1 -1</clus>
<clus scale="   63.476">  2  9  1 -1</clus>
<clus scale="   94.240">  2  5  1 -1</clus>
</clustering>
</event>
<event>
 9    2  0.3791909E-005  0.9605019E+02  0.7546771E-02  0.1293922E+00
          2   -1    0    0  502    0  0.00000000000E+00  0.00000000000E+00  0.27637398065E+03  0.27637398065E+03  0.00000000000E+00 0. -1.
         -1   -1    0    0    0  501 -0.00000000000E+00 -0.00000000000E+00 -0.53231673517E+02  0.53231673517E+02  0.00000000000E+00 0.  1.
         24    2    1    2    0    0  0.37086274828E+01 -0.17126405706E+02  0.24566843101E+02  0.90705566752E+02  0.85538893900E+02 0.  0.
         23    2    1    2    0    0 -0.30804667376E+02  0.39216166055E+01  0.12728733181E+03  0.16150138181E+03  0.94426293371E+02 0.  0.
        -11    1    3    3    0    0 -0.25910213755E+02  0.19668897020E+01 -0.20782866050E+02  0.33273643522E+02  0.00000000000E+00 0.  1.
         12    1    3    3    0    0  0.29618841238E+02 -0.19093295408E+02  0.45349709152E+02  0.57431923230E+02  0.00000000000E+00 0. -1.
        -13    1    4    4    0    0 -0.60258487602E+02 -0.13337641649E+02  0.60133785422E+02  0.86168730767E+02  0.00000000000E+00 0.  1.
         13    1    4    4    0    0  0.29453820226E+02  0.17259258254E+02  0.67153546385E+02  0.75332651045E+02  0.00000000000E+00 0. -1.
         21    1    1    2  502  501  0.27096039893E+02  0.13204789101E+02  0.71288132225E+02  0.77398705605E+02  0.00000000000E+00 0. -1.
<scales pt_clust_5="13000.00000" pt_clust_6="13000.00000" pt_clust_7="13000.00000" pt_clust_8="13000.00000" pt_clust_9="30.14236"></scales>
<clustering>
<clus scale="   30.142">  1  9  2 -1</clus>
<clus scale="   85.539">  5  6 -1 -1</clus>
<clus scale="   87.328">  2  5  1 -1</clus>
<clus scale="   94.426">  7  8 -1 -1</clus>
<clus scale="   30.142">  1  5  2 -1</clus>
</clustering>
</event>
<event>
 9    2  0.3791909E-005  0.1166708E+03  0.7546771E-02  0.1252847E+00
         -1   -1    0    0    0  501 -0.00000000000E+00  0.00000000000E+00  0.94022581049E+02  0.94022581049E+02  0.00000000000E+00 0.  1.
          2   -1    0    0  502    0  0.00000000000E+00 -0.00000000000E+00 -0.34945507901E+03  0.34945507901E+03  0.00000000000E+00 0. -1.
         24    2    1    2    0    0 -0.57200995661E+02 -0.76718034939E+02  0.20671158545E+02  0.12673706546E+03  0.80482148178E+02 0.  0.
         23    2    1    2    0    0  0.36529116238E+02  0.56290145101E+02 -0.25882035928E+03  0.28292731844E+03  0.92503688427E+02 0.  0.
        -13    1    3    3    0    0 -0.43595754789E+02 -0.89298959751E+02  0.53766629426E+00  0.99373956011E+02  0.00000000000E+00 0.  1.
         14    1    3    3    0    0 -0.13605240872E+02  0.12580924812E+02  0.20133492251E+02  0.27363109445E+02  0.00000000000E+00 0. -1.
        -11    1    4    4    0    0 -0.68532623653E+01  0.40222677708E+02 -0.33171537476E+02  0.52584996963E+02  0.00000000000E+00 0.  1.
         11    1    4    4    0    0  0.43382378603E+02  0.16067467393E+02 -0.22564882180E+03  0.23034232147E+03  0.00000000000E+00 0. -1.
         21    1    1    2  502  501  0.20671879423E+02  0.20427889838E+02 -0.17283297234E+02  0.33813276171E+02  0.00000000000E+00 0. -1.
<scales pt_clust_5="13000.00000" pt_clust_6="13000.00000" pt_clust_7="13000.00000" pt_clust_8="13000.00000" pt_clust_9="29.06244"></scales>
<clustering>
<clus scale="   29.062">  1  9  2 -1</clus>
<clus scale="   80.482">  5  6 -1 -1</clus>
<clus scale="   92.504">  7  8 -1 -1</clus>
<clus scale="  107.390">  1  5  2 -1</clus>
<clus scale="  116.671">  2  5  1 -1</clus>
</clustering>
</event>
<event>
 9    2  0.3791909E-005  0.1118661E+03  0.7546771E-02  0.1270039E+00
          2   -1    0    0  502    0  0.00000000000E+00  0.00000000000E+00  0.69699278992E+02  0.69699278992E+02  0.00000000000E+00 0. -1.
         -1   -1    0    0    0  501 -0.00000000000E+00 -0.00000000000E+00 -0.18006569083E+03  0.18006569083E+03  0.00000000000E+00 0.  1.
         24    2    1    2    0    0 -0.39710344929E+02 -0.44405856307E+02 -0.69643295292E+02  0.11527428316E+03  0.69922673080E+02 0.  0.
         23    2    1    2    0    0  0.23756470400E+02  0.29648359896E+02 -0.30807961294E+02  0.11060303051E+03  0.99199318282E+02 0.  0.
        -13    1    3    3    0    0 -0.37916605885E+02 -0.23714176085E+02 -0.80312716895E+02  0.91924771657E+02  0.00000000000E+00 0.  1.
         14    1    3    3    0    0 -0.17937390438E+01 -0.20691680222E+02  0.10669421603E+02  0.23349511505E+02  0.00000000000E+00 0. -1.
        -13    1    4    4    0    0  0.51795092855E+02 -0.90379433523E+01  0.20480450143E+01  0.52617587861E+02  0.00000000000E+00 0. -1.
         13    1    4    4    0    0 -0.28038622455E+02  0.38686303248E+02 -0.32856006309E+02  0.57985442645E+02  0.00000000000E+00 0.  1.
         21    1    1    2  502  501  0.15953874529E+02  0.14757496411E+02 -0.99151552510E+01  0.23887656153E+02  0.00000000000E+00 0. -1.
<scales pt_clust_5="13000.00000" pt_clust_6="13000.00000" pt_clust_7="13000.00000" pt_clust_8="13000.00000" pt_clust_9="21.73269"></scales>
<clustering>
<clus scale="   21.733">  1  9  2 -1</clus>
<clus scale="   69.923">  5  6 -1 -1</clus>
<clus scale="   86.964">  2  5  1 -1</clus>
<clus scale="   99.199">  7  8 -1 -1</clus>
<clus scale="   21.733">  1  5  2 -1</clus>
</clustering>
</event>
<event>
 9    2  0.3791909E-005  0.1043651E+03  0.7546771E-02  0.1274650E+00
         -1   -1    0    0    0  501 -0.00000000000E+00  0.00000000000E+00  0.25954637644E+03  0.25954637644E+03  0.00000000000E+00 0.  1.
          2   -1    0    0  502    0  0.00000000000E+00 -0.00000000000E+00 -0.20845410947E+03  0.20845410947E+03  0.00000000000E+00 0. -1.
         23    2    1    2    0    0 -0.33184128727E+02  0.47931929935E+02  0.21113866157E+03  0.23602632594E+03  0.87921759656E+02 0.  0.
         24    2    1    2    0    0 -0.25841181941E+02 -0.53608784394E+02 -0.13415340829E+03  0.16726974964E+03  0.80251876863E+02 0.  0.
        -11    1    4    4    0    0 -0.12432650455E+02 -0.71497601309E+02 -0.12165797242E+03  0.14165853325E+03  0.00000000000E+00 0.  1.
         12    1    4    4    0    0 -0.13408531487E+02  0.17888816915E+02 -0.12495435876E+02  0.25611216390E+02  0.00000000000E+00 0. -1.
        -11    1    3    3    0    0 -0.15184138732E+02 -0.19724559948E+02  0.18365503829E+02  0.30933930644E+02  0.00000000000E+00 0. -1.
         11    1    3    3    0    0 -0.17999989995E+02  0.67656489884E+02  0.19277315774E+03  0.20509239529E+03  0.00000000000E+00 0.  1.
         21    1    1    2  502  501  0.59025310668E+02  0.56768544587E+01 -0.25892986307E+02  0.64704410328E+02  0.00000000000E+00 0. -1.
<scales pt_clust_5="13000.00000" pt_clust_6="13000.00000" pt_clust_7="13000.00000" pt_clust_8="13000.00000" pt_clust_9="59.29767"></scales>
<clustering>
<clus scale="   59.298">  2  9  1 -1</clus>
<clus scale="   80.252">  5  6 -1 -1</clus>
<clus scale="   87.922">  7  8 -1 -1</clus>
<clus scale="   97.991">  2  5  1 -1</clus>
<clus scale="   59.298">  2  5  1 -1</clus>
</clustering>
</event>
<event>
 9    2  0.3791909E-005  0.1201541E+03  0.7546771E-02  0.1245779E+00
          2   -1    0    0  502    0  0.00000000000E+00  0.00000000000E+00  0.88878945873E+03  0.88878945873E+03  0.00000000000E+00 0. -1.
         -1   -1    0    0    0  501 -0.00000000000E+00 -0.00000000000E+00 -0.21730558802E+02  0.21730558802E+02  0.00000000000E+00 0.  1.
         24    2    1    2    0    0 -0.51867047196E+02 -0.86034923284E+02  0.41080429601E+03  0.43060707323E+03  0.81056050284E+02 0.  0.
         23    2    1    2    0    0  0.31972867704E+02  0.51302681450E+02  0.33404269560E+03  0.35131334269E+03  0.90456137839E+02 0.  0.
        -11    1    3    3    0    0 -0.45904922380E+02 -0.56799648581E+02  0.13760963196E+03  0.15578790963E+03  0.00000000000E+00 0.  1.
         12    1    3    3    0    0 -0.59621248159E+01 -0.29235274703E+02  0.27319466405E+03  0.27481916360E+03  0.00000000000E+00 0. -1.
        -11    1    4    4    0    0  0.31690336738E+02  0.76857382864E+02  0.26188062782E+03  0.27475952754E+03  0.00000000000E+00 0.  1.
         11    1    4    4    0    0  0.28253096615E+00 -0.25554701414E+02  0.72162067781E+02  0.76553815153E+02  0.00000000000E+00 0. -1.
         21    1    1    2  502  501  0.19894179492E+02  0.34732241834E+02  0.12221190831E+03  0.12859960161E+03  0.00000000000E+00 0.  1.
<scales pt_clust_5="13000.00000" pt_clust_6="13000.00000" pt_clust_7="13000.00000" pt_clust_8="13000.00000" pt_clust_9="40.02633"></scales>
<clustering>
<clus scale="   40.026">  2  9  1 -1</clus>
<clus scale="   81.056">  5  6 -1 -1</clus>
<clus scale="   90.456">  7  8 -1 -1</clus>
<clus scale="  113.247">  2  5  1 -1</clus>
<clus scale="  120.154">  1  5  2 -1</clus>
</clustering>
</event>
<event>
 9    2  0.3791909E-005  0.9299903E+02  0.7546771E-02  0.1302847E+00
         -1   -1    0    0    0  501 -0.00000000000E+00  0.00000000000E+00  0.50002274691E+03  0.50002274691E+03  0.00000000000E+00 0.  1.
          2   -1    0    0  502    0  0.00000000000E+00 -0.00000000000E+00 -0.21542560868E+02  0.21542560868E+02  0.00000000000E+00 0. -1.
         23    2    1    2    0    0 -0.56643723163E+01 -0.17402554811E+02  0.29657202324E+03  0.31069535412E+03  0.90783831580E+02 0.  0.
         24    2    1    2    0    0 -0.14943732335E+02  0.24677440736E+02  0.13425650903E+03  0.15844574122E+03  0.79043984440E+02 0.  0.
        -13    1    4    4    0    0 -0.35542413281E+02  0.21922403783E+00  0.22177821629E+02  0.41894712951E+02  0.00000000000E+00 0.  1.
         14    1    4    4    0    0  0.20598680946E+02  0.24458216698E+02  0.11207868740E+03  0.11655102827E+03  0.00000000000E+00 0. -1.
        -13    1    3    3    0    0  0.18675609707E+02 -0.46521335015E+02  0.11926570335E+03  0.12937279855E+03  0.00000000000E+00 0. -1.
         13    1    3    3    0    0 -0.24339982023E+02  0.29118780204E+02  0.17730631990E+03  0.18132255558E+03  0.00000000000E+00 0.  1.
         21    1    1    2  502  501  0.20608104652E+02 -0.72748859255E+01  0.47651653771E+02  0.52424212437E+02  0.00000000000E+00 0. -1.
<scales pt_clust_5="13000.00000" pt_clust_6="13000.00000" pt_clust_7="13000.00000" pt_clust_8="13000.00000" pt_clust_9="21.85447"></scales>
<clustering>
<clus scale="   21.854">  2  9  1 -1</clus>
<clus scale="   79.044">  5  6 -1 -1</clus>
<clus scale="   81.579">  2  5  1 -1</clus>
<clus scale="   90.784">  7  8 -1 -1</clus>
<clus scale="   21.854">  2  5  1 -1</clus>
</clustering>
</event>
<event>
 9    2  0.3791909E-005  0.9529708E+02  0.7546771E-02  0.1298473E+00
         -1   -1    0    0    0  501 -0.00000000000E+00  0.00000000000E+00  0.24284173331E+02  0.24284173331E+02  0.00000000000E+00 0.  1.
          2   -1    0    0  502    0  0.00000000000E+00 -0.00000000000E+00 -0.70112759012E+03  0.70112759012E+03  0.00000000000E+00 0. -1.
         23    2    1    2    0    0 -0.22131096512E+02 -0.14345139658E+02 -0.11090272938E+03  0.14612678452E+03  0.91422389516E+02 0.  0.
         24    2    1    2    0    0  0.71230005239E-02  0.41805716717E+02 -0.39029442430E+03  0.40013374885E+03  0.77650250021E+02 0.  0.
        -13    1    4    4    0    0 -0.91104943653E+01  0.23609620549E+02 -0.29928291448E+02  0.39193340238E+02  0.00000000000E+00 0.  1.
         14    1    4    4    0    0  0.91176173658E+01  0.18196096168E+02 -0.36036613285E+03  0.36094040861E+03  0.00000000000E+00 0. -1.
        -13    1    3    3    0    0 -0.54433996391E+02 -0.24327992845E+02 -0.83522836540E+02  0.10262054094E+03  0.00000000000E+00 0.  1.
         13    1    3    3    0    0  0.32302899879E+02  0.99828531870E+01 -0.27379892842E+02  0.43506243579E+02  0.00000000000E+00 0. -1.
         21    1    1    2  502  501  0.22123973511E+02 -0.27460577059E+02 -0.17564626311E+03  0.17915123008E+03  0.00000000000E+00 0.  1.
<scales pt_clust_5="13000.00000" pt_clust_6="13000.00000" pt_clust_7="13000.00000" pt_clust_8="13000.00000" pt_clust_9="35.26405"></scales>
<clustering>
<clus scale="   35.264">  2  9  1 -1</clus>
<clus scale="   77.650">  5  6 -1 -1</clus>
<clus scale="   82.177">  2  5  1 -1</clus>
<clus scale="   91.422">  7  8 -1 -1</clus>
<clus scale="   35.264">  2  5  1 -1</clus>
</clustering>
</event>
<event>
 9    2  0.3791909E-005  0.9517819E+02  0.7546771E-02  0.1299055E+00
         -1   -1    0    0    0  501 -0.00000000000E+00  0.00000000000E+00  0.25196990149E+03  0.25196990149E+03  0.00000000000E+00 0.  1.
          2   -1    0    0  502    0  0.00000000000E+00 -0.00000000000E+00 -0.99840756145E+02  0.99840756145E+02  0.00000000000E+00 0. -1.
         23    2    1    2    0    0  0.10813104886E+02  0.18752515138E+02  0.18448102492E+03  0.20780490969E+03  0.93172162554E+02 0.  0.
         24    2    1    2    0    0  0.37731164669E+02 -0.21983451022E+02 -0.12048686620E+02  0.91287585056E+02  0.79254901615E+02 0.  0.
        -11    1    4    4    0    0  0.53075725476E+02 -0.17690096456E+02  0.16728474162E+02  0.58393612623E+02  0.00000000000E+00 0.  1.
         12    1    4    4    0    0 -0.15344560807E+02 -0.42933545658E+01 -0.28777160781E+02  0.32893972433E+02  0.00000000000E+00 0. -1.
        -13    1    3    3    0    0 -0.23395083074E+02 -0.96703638290E+01  0.91451021067E+01  0.26916142762E+02  0.00000000000E+00 0. -1.
         13    1    3    3    0    0  0.34208187961E+02  0.28422878967E+02  0.17533592282E+03  0.18088876693E+03  0.00000000000E+00 0.  1.
         21    1    1    2  502  501 -0.48544269555E+02  0.32309358844E+01 -0.20303192961E+02  0.52718162883E+02  0.00000000000E+00 0. -1.
<scales pt_clust_5="13000.00000" pt_clust_6="13000.00000" pt_clust_7="13000.00000" pt_clust_8="13000.00000" pt_clust_9="48.65167"></scales>
<clustering>
<clus scale="   48.652">  2  9  1 -1</clus>
<clus scale="   79.255">  5  6 -1 -1</clus>
<clus scale="   81.604">  2  5  1 -1</clus>
<clus scale="   93.172">  7  8 -1 -1</clus>
<clus scale="   48.652">  2  5  1 -1</clus>
</clustering>
</event>
<event>
 9    2  0.3791909E-005  0.1401909E+03  0.7546771E-02  0.1233347E+00
          2   -1    0    0  502    0  0.00000000000E+00  0.00000000000E+00  0.77835177804E+03  0.77835177804E+03  0.00000000000E+00 0. -1.
         -1   -1    0    0    0  501 -0.00000000000E+00 -0.00000000000E+00 -0.75253747098E+02  0.75253747098E+02  0.00000000000E+00 0.  1.
         23    2    1    2    0    0 -0.12720006489E+03 -0.53065748925E+02  0.97626986119E+02  0.19022880221E+03  0.87522217497E+02 0.  0.
         24    2    1    2    0    0  0.46380855581E+02  0.72063873996E+01  0.54461962729E+03  0.55230143022E+03  0.78887360269E+02 0.  0.
        -11    1    4    4    0    0  0.59437595871E+02  0.16882932985E+02  0.26090645922E+03  0.26812318380E+03  0.00000000000E+00 0.  1.
         12    1    4    4    0    0 -0.13056740290E+02 -0.96765455850E+01  0.28371316807E+03  0.28417824642E+03  0.00000000000E+00 0. -1.
        -11    1    3    3    0    0 -0.34874881873E+02 -0.39114657718E+02  0.79335619853E+02  0.95080778349E+02  0.00000000000E+00 0. -1.
         11    1    3    3    0    0 -0.92325183020E+02 -0.13951091207E+02  0.18291366266E+02  0.95148023865E+02  0.00000000000E+00 0.  1.
         21    1    1    2  502  501  0.80819209312E+02  0.45859361526E+02  0.60851417532E+02  0.11107529270E+03  0.00000000000E+00 0. -1.
<scales pt_clust_5="13000.00000" pt_clust_6="13000.00000" pt_clust_7="13000.00000" pt_clust_8="13000.00000" pt_clust_9="109.51419"></scales>
<clustering>
<clus scale="   78.887">  5  6 -1 -1</clus>
<clus scale="   87.522">  7  8 -1 -1</clus>
<clus scale="   91.795">  1  5  2 -1</clus>
<clus scale="  109.514">  2  9  1 -1</clus>
<clus scale="   91.795">  1  5  2 -1</clus>
</clustering>
</event>
<event>
 9    2  0.3791909E-005  0.9220518E+02  0.7546771E-02  0.1301827E+00
          2   -1    0    0  502    0  0.00000000000E+00  0.00000000000E+00  0.41554886035E+03  0.41554886035E+03  0.00000000000E+00 0. -1.
         -1   -1    0    0    0  501 -0.00000000000E+00 -0.00000000000E+00 -0.30300361948E+02  0.30300361948E+02  0.00000000000E+00 0.  1.
         23    2    1    2    0    0 -0.25272827598E+01  0.84226871794E+01  0.79792538859E+02  0.12220463831E+03  0.92140086555E+02 0.  0.
         24    2    1    2    0    0  0.24050677628E+01  0.12023852181E+02  0.23463489782E+03  0.24993095775E+03  0.85214969323E+02 0.  0.
        -11    1    4    4    0    0  0.39652580545E+02  0.23383501431E+02  0.10685506286E+03  0.11634912866E+03  0.00000000000E+00 0.  1.
         12    1    4    4    0    0 -0.37247512782E+02 -0.11359649250E+02  0.12777983496E+03  0.13358182909E+03  0.00000000000E+00 0. -1.
        -13    1    3    3    0    0 -0.36552594042E+02 -0.21154953958E+02  0.58998139469E+02  0.72556217301E+02  0.00000000000E+00 0. -1.
         13    1    3    3    0    0  0.34025311282E+02  0.29577641137E+02  0.20794399390E+02  0.49648421013E+02  0.00000000000E+00 0.  1.
         21    1    1    2  502  501  0.12221499703E+00 -0.20446539360E+02  0.70821061731E+02  0.73713626237E+02  0.00000000000E+00 0. -1.
<scales pt_clust_5="13000.00000" pt_clust_6="13000.00000" pt_clust_7="13000.00000" pt_clust_8="13000.00000" pt_clust_9="20.44690"></scales>
<clustering>
<clus scale="   20.447">  1  9  2 -1</clus>
<clus scale="   85.215">  5  6 -1 -1</clus>
<clus scale="   85.285">  1  5  2 -1</clus>
<clus scale="   92.140">  7  8 -1 -1</clus>
<clus scale="   20.447">  1  5  2 -1</clus>
</clustering>
</event>
<event>
 9    2  0.3791909E-005  0.1069358E+03  0.7546771E-02  0.1269478E+00
         -1   -1    0    0    0  501 -0.00000000000E+00  0.00000000000E+00  0.17019838689E+03  0.17019838689E+03  0.00000000000E+00 0.  1.
          2   -1    0    0  502    0  0.00000000000E+00 -0.00000000000E+00 -0.25379422962E+03  0.25379422962E+03  0.00000000000E+00 0. -1.
         23    2    1    2    0    0 -0.67981613793E+02 -0.51557398542E+01  0.10351427798E+03  0.15307610351E+03  0.89827647476E+02 0.  0.
         24    2    1    2    0    0 -0.13243075923E+02 -0.10142327406E+02 -0.16538919705E+03  0.18545728526E+03  0.82234860553E+02 0.  0.
        -13    1    4    4    0    0  0.25709634903E+02  0.18997622228E+02 -0.92124555544E+02  0.97513223264E+02  0.00000000000E+00 0.  1.
         14    1    4    4    0    0 -0.38952710827E+02 -0.29139949634E+02 -0.73264641511E+02  0.87944062001E+02  0.00000000000E+00 0. -1.
        -11    1    3    3    0    0 -0.36803614503E+02  0.42249176760E+02  0.51469102113E+02  0.76082635665E+02  0.00000000000E+00 0. -1.
         11    1    3    3    0    0 -0.31177999290E+02 -0.47404916615E+02  0.52045175870E+02  0.76993467842E+02  0.00000000000E+00 0.  1.
         21    1    1    2  502  501  0.81224689716E+02  0.15298067260E+02 -0.21720923658E+02  0.85459227740E+02  0.00000000000E+00 0.  1.
<scales pt_clust_5="13000.00000" pt_clust_6="13000.00000" pt_clust_7="13000.00000" pt_clust_8="13000.00000" pt_clust_9="82.65277"></scales>
<clustering>
<clus scale="   82.235">  5  6 -1 -1</clus>
<clus scale="   82.653">  2  9  1 -1</clus>
<clus scale="   89.828">  7  8 -1 -1</clus>
<clus scale="  100.642">  2  5  1 -1</clus>
<clus scale="   82.653">  2  5  1 -1</clus>
</clustering>
</event>
<event>
 9    2  0.3791909E-005  0.9176925E+02  0.7546771E-02  0.1304073E+00
          2   -1    0    0  502    0  0.00000000000E+00  0.00000000000E+00  0.49598496805E+02  0.49598496805E+02  0.00000000000E+00 0. -1.
         -1   -1    0    0    0  501 -0.00000000000E+00 -0.00000000000E+00 -0.39933422318E+03  0.39933422318E+03  0.00000000000E+00 0.  1.
         24    2    1    2    0    0 -0.79613397415E+01 -0.22140104983E+02 -0.31619216697E+03  0.32701776810E+03  0.80059771522E+02 0.  0.
         23    2    1    2    0    0 -0.15819075226E+02  0.17399943900E+02 -0.32235768847E+02  0.97631468219E+02  0.89105317489E+02 0.  0.
        -11    1    3    3    0    0  0.21958010961E+02  0.21239991631E+02 -0.10537282598E+03  0.10971200456E+03  0.00000000000E+00 0.  1.
         12    1    3    3    0    0 -0.29919350702E+02 -0.43380096614E+02 -0.21081934099E+03  0.21730576353E+03  0.00000000000E+00 0. -1.
        -13    1    4    4    0    0  0.22245156936E+02  0.39677287753E+02 -0.27787563433E+02  0.53303685164E+02  0.00000000000E+00 0.  1.
         13    1    4    4    0    0 -0.38064232161E+02 -0.22277343853E+02 -0.44482054141E+01  0.44327783055E+02  0.00000000000E+00 0. -1.
         21    1    1    2  502  501  0.23780414967E+02  0.47401610825E+01 -0.13077905574E+01  0.24283483672E+02  0.00000000000E+00 0.  1.
<scales pt_clust_5="13000.00000" pt_clust_6="13000.00000" pt_clust_7="13000.00000" pt_clust_8="13000.00000" pt_clust_9="24.24824"></scales>
<clustering>
<clus scale="   24.248">  1  9  2 -1</clus>
<clus scale="   80.060">  5  6 -1 -1</clus>
<clus scale="   83.014">  2  5  1 -1</clus>
<clus scale="   89.105">  7  8 -1 -1</clus>
<clus scale="   24.248">  1  5  2 -1</clus>
</clustering>
</event>
<event>
 9    2  0.3791909E-005  0.1689470E+03  0.7546771E-02  0.1180909E+00
         -1   -1    0    0    0  501 -0.00000000000E+00  0.00000000000E+00  0.18355952295E+03  0.18355952295E+03  0.00000000000E+00 0.  1.
          2   -1    0    0  502    0  0.00000000000E+00 -0.00000000000E+00 -0.21445908762E+03  0.21445908762E+03  0.00000000000E+00 0. -1.
         23    2    1    2    0    0  0.12046811059E+03 -0.24804803278E+02  0.66420647425E+02  0.16804173267E+03  0.93265629147E+02 0.  0.
         24    2    1    2    0    0 -0.14785136150E+03  0.11155032171E+02 -0.10523526909E+03  0.19837297294E+03  0.79327893543E+02 0.  0.
        -11    1    4    4    0    0 -0.12845710288E+03  0.34241613870E+02 -0.10293268642E+03  0.16813343907E+03  0.00000000000E+00 0.  1.
         12    1    4    4    0    0 -0.19394258615E+02 -0.23086581698E+02 -0.23025826751E+01  0.30239533871E+02  0.00000000000E+00 0. -1.
        -13    1    3    3    0    0  0.40654926470E+02 -0.13958236857E+01  0.74080557669E+02  0.84514498132E+02  0.00000000000E+00 0.  1.
         13    1    3    3    0    0  0.79813184118E+02 -0.23408979592E+02 -0.76599102440E+01  0.83527234538E+02  0.00000000000E+00 0. -1.
         21    1    1    2  502  501  0.27383250907E+02  0.13649771106E+02  0.79150569994E+01  0.31603904961E+02  0.00000000000E+00 0. -1.
<scales pt_clust_5="13000.00000" pt_clust_6="13000.00000" pt_clust_7="13000.00000" pt_clust_8="13000.00000" pt_clust_9="30.59671"></scales>
<clustering>
<clus scale="   30.597">  1  9  2 -1</clus>
<clus scale="   79.328">  5  6 -1 -1</clus>
<clus scale="   93.266">  7  8 -1 -1</clus>
<clus scale="  161.671">  2  5  1 -1</clus>
<clus scale="  161.671">  2  5  1 -1</clus>
</clustering>
</event>
<event>
 9    2  0.3791909E-005  0.1530794E+03  0.7546771E-02  0.1199667E+00
          2   -1    0    0  502    0  0.00000000000E+00  0.00000000000E+00  0.18707376336E+03  0.18707376336E+03  0.00000000000E+00 0. -1.
         -1   -1    0    0    0  501 -0.00000000000E+00 -0.00000000000E+00 -0.41620455769E+03  0.41620455769E+03  0.00000000000E+00 0.  1.
         23    2    1    2    0    0 -0.12170512636E+03  0.10280436400E+02 -0.30868885237E+03  0.34496066452E+03  0.93761545040E+02 0.  0.
         24    2    1    2    0    0  0.11411308596E+03 -0.35790119137E+02 -0.30011053223E+02  0.14556228799E+03  0.77362700020E+02 0.  0.
        -11    1    4    4    0    0  0.94711018620E+02 -0.91234282921E+01  0.77061620499E+01  0.95460981167E+02  0.00000000000E+00 0.  1.
         12    1    4    4    0    0  0.19402067344E+02 -0.26666690845E+02 -0.37717215273E+02  0.50101306827E+02  0.00000000000E+00 0. -1.
        -13    1    3    3    0    0 -0.41261017933E+02  0.46175577938E+01 -0.22477866868E+03  0.22858093388E+03  0.00000000000E+00 0.  1.
         13    1    3    3    0    0 -0.80444108427E+02  0.56628786058E+01 -0.83910183693E+02  0.11637973063E+03  0.00000000000E+00 0. -1.
         21    1    1    2  502  501  0.75920403952E+01  0.25509682737E+02  0.10956911126E+03  0.11275536854E+03  0.00000000000E+00 0. -1.
<scales pt_clust_5="13000.00000" pt_clust_6="13000.00000" pt_clust_7="13000.00000" pt_clust_8="13000.00000" pt_clust_9="26.61547"></scales>
<clustering>
<clus scale="   26.615">  1  9  2 -1</clus>
<clus scale="   77.363">  5  6 -1 -1</clus>
<clus scale="   93.762">  7  8 -1 -1</clus>
<clus scale="  143.621">  1  5  2 -1</clus>
<clus scale="   26.615">  1  5  2 -1</clus>
</clustering>
</event>
<event>
 9    2  0.3791909E-005  0.1063594E+03  0.7546771E-02  0.1274547E+00
          2   -1    0    0  502    0  0.00000000000E+00  0.00000000000E+00  0.77296553127E+03  0.77296553127E+03  0.00000000000E+00 0. -1.
         -1   -1    0    0    0  501 -0.00000000000E+00 -0.00000000000E+00 -0.22718991305E+02  0.22718991305E+02  0.00000000000E+00 0.  1.
         23    2    1    2    0    0  0.53942353257E+02 -0.37656795218E+02  0.20157310235E+03  0.23232101933E+03  0.94939605702E+02 0.  0.
         24    2    1    2    0    0 -0.17507710334E+02  0.11173742568E+02  0.32556140560E+03  0.33575020373E+03  0.79414092254E+02 0.  0.
        -13    1    4    4    0    0 -0.31316409154E+02  0.32358847337E+02  0.11226047394E+03  0.12095547318E+03  0.00000000000E+00 0.  1.
         14    1    4    4    0    0  0.13808698820E+02 -0.21185104769E+02  0.21330093166E+03  0.21479473055E+03  0.00000000000E+00 0. -1.
        -13    1    3    3    0    0 -0.88039005903E+01 -0.47245460633E+02  0.11772507242E+03  0.12715673357E+03  0.00000000000E+00 0.  1.
         13    1    3    3    0    0  0.62746253847E+02  0.95886654152E+01  0.83848029927E+02  0.10516428576E+03  0.00000000000E+00 0. -1.
         21    1    1    2  502  501 -0.36434642923E+02  0.26483052649E+02  0.22311203202E+03  0.22761329951E+03  0.00000000000E+00 0.  1.
<scales pt_clust_5="13000.00000" pt_clust_6="13000.00000" pt_clust_7="13000.00000" pt_clust_8="13000.00000" pt_clust_9="45.04259"></scales>
<clustering>
<clus scale="   45.043">  1  9  2 -1</clus>
<clus scale="   79.414">  5  6 -1 -1</clus>
<clus scale="   92.765">  1  5  2 -1</clus>
<clus scale="   94.940">  7  8 -1 -1</clus>
<clus scale="   45.043">  1  5  2 -1</clus>
</clustering>
</event>
<event>
 9    2  0.3791909E-005  0.1326672E+03  0.7546771E-02  0.1226883E+00
          2   -1    0    0  502    0  0.00000000000E+00  0.00000000000E+00  0.17365390382E+03  0.17365390382E+03  0.00000000000E+00 0. -1.
         -1   -1    0    0    0  501 -0.00000000000E+00 -0.00000000000E+00 -0.51031678571E+03  0.51031678571E+03  0.00000000000E+00 0.  1.
         23    2    1    2    0    0  0.97311546634E+02  0.10397464542E+02 -0.40291727607E+03  0.42436973401E+03  0.90386367372E+02 0.  0.
         24    2    1    2    0    0 -0.17003675151E+01 -0.94094123640E+02  0.37262404682E+02  0.12926614140E+03  0.80403066840E+02 0.  0.
        -11    1    4    4    0    0  0.29627151787E+02 -0.79490913962E+02  0.10352603276E+02  0.85461979383E+02  0.00000000000E+00 0.  1.
         12    1    4    4    0    0 -0.31327519302E+02 -0.14603209678E+02  0.26909801407E+02  0.43804162020E+02  0.00000000000E+00 0. -1.
        -13    1    3    3    0    0  0.52603928582E+02 -0.39725651507E+02 -0.20914524081E+03  0.21928755652E+03  0.00000000000E+00 0.  1.
         13    1    3    3    0    0  0.44707618053E+02  0.50123116049E+02 -0.19377203526E+03  0.20508217749E+03  0.00000000000E+00 0. -1.
         21    1    1    2  502  501 -0.95611179119E+02  0.83696659098E+02  0.28991989497E+02  0.13033481412E+03  0.00000000000E+00 0. -1.
<scales pt_clust_5="13000.00000" pt_clust_6="13000.00000" pt_clust_7="13000.00000" pt_clust_8="13000.00000" pt_clust_9="97.11281"></scales>
<clustering>
<clus scale="   80.403">  5  6 -1 -1</clus>
<clus scale="   90.386">  7  8 -1 -1</clus>
<clus scale="  123.779">  1  5  2 -1</clus>
<clus scale="   97.113">  1  9  2 -1</clus>
<clus scale="  123.779">  1  5  2 -1</clus>
</clustering>
</event>
<event>
 9    2  0.3791909E-005  0.1059144E+03  0.7546771E-02  0.1273757E+00
          2   -1    0    0  502    0  0.00000000000E+00  0.00000000000E+00  0.21022915903E+03  0.21022915903E+03  0.00000000000E+00 0. -1.
         -1   -1    0    0    0  501 -0.00000000000E+00 -0.00000000000E+00 -0.66991075947E+03  0.66991075947E+03  0.00000000000E+00 0.  1.
         24    2    1    2    0    0 -0.37429756369E+02 -0.32673864347E+02 -0.63306307023E+03  0.64021931989E+03  0.81506800930E+02 0.  0.
         23    2    1    2    0    0  0.40876820575E+01  0.58240177139E+02  0.16267561444E+03  0.19656225906E+03  0.93620183594E+02 0.  0.
        -13    1    3    3    0    0 -0.32598034890E+02 -0.23653260456E+02 -0.11141922929E+03  0.11847511665E+03  0.00000000000E+00 0.  1.
         14    1    3    3    0    0 -0.48317214790E+01 -0.90206038910E+01 -0.52164384094E+03  0.52174420324E+03  0.00000000000E+00 0. -1.
        -11    1    4    4    0    0  0.39293243158E+02  0.63461718883E+02  0.11402884944E+03  0.13628619602E+03  0.00000000000E+00 0. -1.
         11    1    4    4    0    0 -0.35205561100E+02 -0.52215417444E+01  0.48646765003E+02  0.60276063042E+02  0.00000000000E+00 0.  1.
         21    1    1    2  502  501  0.33342074311E+02 -0.25566312792E+02  0.10705855346E+02  0.43358339542E+02  0.00000000000E+00 0.  1.
<scales pt_clust_5="13000.00000" pt_clust_6="13000.00000" pt_clust_7="13000.00000" pt_clust_8="13000.00000" pt_clust_9="42.01583"></scales>
<clustering>
<clus scale="   42.016">  1  9  2 -1</clus>
<clus scale="   81.507">  5  6 -1 -1</clus>
<clus scale="   93.620">  7  8 -1 -1</clus>
<clus scale="   95.375">  2  5  1 -1</clus>
<clus scale="   42.016">  1  5  2 -1</clus>
</clustering>
</event>
<event>
 9    2  0.3791909E-005  0.9276243E+02  0.7546771E-02  0.1302966E+00
          2   -1    0    0  502    0  0.00000000000E+00  0.00000000000E+00  0.11423009383E+03  0.11423009383E+03  0.00000000000E+00 0. -1.
         -1   -1    0    0    0  501 -0.00000000000E+00 -0.00000000000E+00 -0.16251714957E+03  0.16251714957E+03  0.00000000000E+00 0.  1.
         23    2    1    2    0    0 -0.11210776726E+02 -0.17933935947E+01 -0.11098360019E+03  0.14488812368E+03  0.92446260578E+02 0.  0.
         24    2    1    2    0    0 -0.10238723804E+02 -0.17599174815E+02  0.58823404231E+02  0.10268457607E+03  0.81666191641E+02 0.  0.
        -11    1    4    4    0    0 -0.19514861850E+01 -0.32203412913E+02 -0.84471146884E+01  0.33349990227E+02  0.00000000000E+00 0.  1.
         12    1    4    4    0    0 -0.82872376195E+01  0.14604238098E+02  0.67270518919E+02  0.69334585839E+02  0.00000000000E+00 0. -1.
        -13    1    3    3    0    0 -0.38019133389E+02 -0.11593904848E+02 -0.11481197515E+02  0.41372587902E+02  0.00000000000E+00 0.  1.
         13    1    3    3    0    0  0.26808356663E+02  0.98005112533E+01 -0.99502402679E+02  0.10351553577E+03  0.00000000000E+00 0. -1.
         21    1    1    2  502  501  0.21449500531E+02  0.19392568410E+02  0.38731402308E+01  0.29174543660E+02  0.00000000000E+00 0. -1.
<scales pt_clust_5="13000.00000" pt_clust_6="13000.00000" pt_clust_7="13000.00000" pt_clust_8="13000.00000" pt_clust_9="28.91631"></scales>
<clustering>
<clus scale="   28.916">  1  9  2 -1</clus>
<clus scale="   81.666">  5  6 -1 -1</clus>
<clus scale="   82.024">  1  5  2 -1</clus>
<clus scale="   92.446">  7  8 -1 -1</clus>
<clus scale="   28.916">  1  5  2 -1</clus>
</clustering>
</event>
<event>
 9    2  0.3791909E-005  0.1262020E+03  0.7546771E-02  0.1236421E+00
         -1   -1    0    0    0  501 -0.00000000000E+00  0.00000000000E+00  0.26063975393E+02  0.26063975393E+02  0.00000000000E+00 0.  1.
          2   -1    0    0  502    0  0.00000000000E+00 -0.00000000000E+00 -0.71994964152E+03  0.71994964152E+03  0.00000000000E+00 0. -1.
         23    2    1    2    0    0  0.61901665081E+02  0.48771792694E+02 -0.24788155236E+03  0.27639203482E+03  0.93470792267E+02 0.  0.
         24    2    1    2    0    0 -0.81959252174E+02 -0.45473933939E+02 -0.35190991464E+03  0.37335683787E+03  0.82277230597E+02 0.  0.
        -13    1    4    4    0    0 -0.54104529462E+02 -0.10734674692E+02 -0.76169211669E+02  0.94044043700E+02  0.00000000000E+00 0.  1.
         14    1    4    4    0    0 -0.27854722712E+02 -0.34739259248E+02 -0.27574070297E+03  0.27931279417E+03  0.00000000000E+00 0. -1.
        -13    1    3    3    0    0  0.24023957962E+02  0.59700810482E+02 -0.73866831762E+02  0.97967577100E+02  0.00000000000E+00 0.  1.
         13    1    3    3    0    0  0.37877707119E+02 -0.10929017788E+02 -0.17401472060E+03  0.17842445772E+03  0.00000000000E+00 0. -1.
         21    1    1    2  502  501  0.20057587092E+02 -0.32978587549E+01 -0.94094199125E+02  0.96264744228E+02  0.00000000000E+00 0.  1.
<scales pt_clust_5="13000.00000" pt_clust_6="13000.00000" pt_clust_7="13000.00000" pt_clust_8="13000.00000" pt_clust_9="20.32690"></scales>
<clustering>
<clus scale="   20.327">  2  9  1 -1</clus>
<clus scale="   82.277">  5  6 -1 -1</clus>
<clus scale="   93.471">  7  8 -1 -1</clus>
<clus scale="  118.151">  2  5  1 -1</clus>
<clus scale="   20.327">  2  5  1 -1</clus>
</clustering>
</event>
<event>
 9    2  0.3791909E-005  0.1006972E+03  0.7546771E-02  0.1281774E+00
         -1   -1    0    0    0  501 -0.00000000000E+00  0.00000000000E+00  0.72704797793E+02  0.72704797793E+02  0.00000000000E+00 0.  1.
          2   -1    0    0  502    0  0.00000000000E+00 -0.00000000000E+00 -0.20619916995E+03  0.20619916995E+03  0.00000000000E+00 0. -1.
         24    2    1    2    0    0  0.19675876211E+02 -0.58010960568E+02 -0.25336624054E+02  0.10629054068E+03  0.83086237538E+02 0.  0.
         23    2    1    2    0    0 -0.18459406166E+02  0.17375599030E+02 -0.84764496484E+02  0.12570973182E+03  0.89304287082E+02 0.  0.
        -13    1    3    3    0    0 -0.24985077759E+01 -0.47945001726E+02  0.22188577801E+02  0.52889495332E+02  0.00000000000E+00 0.  1.
         14    1    3    3    0    0  0.22174383987E+02 -0.10065958842E+02 -0.47525201855E+02  0.53401045345E+02  0.00000000000E+00 0. -1.
        -11    1    4    4    0    0  0.28488632391E+02  0.19258780670E+02 -0.67312458124E+02  0.75587497823E+02  0.00000000000E+00 0.  1.
         11    1    4    4    0    0 -0.46948038557E+02 -0.18831816398E+01 -0.17452038360E+02  0.50122233993E+02  0.00000000000E+00 0. -1.
         21    1    1    2  502  501 -0.12164700445E+01  0.40635361538E+02 -0.23393251615E+02  0.46903695247E+02  0.00000000000E+00 0. -1.
<scales pt_clust_5="13000.00000" pt_clust_6="13000.00000" pt_clust_7="13000.00000" pt_clust_8="13000.00000" pt_clust_9="40.65357"></scales>
<clustering>
<clus scale="   40.654">  2  9  1 -1</clus>
<clus scale="   83.086">  5  6 -1 -1</clus>
<clus scale="   89.304">  7  8 -1 -1</clus>
<clus scale="   95.226">  1  5  2 -1</clus>
<clus scale="   40.654">  2  5  1 -1</clus>
</clustering>
</event>
<event>
 9    2  0.3791909E-005  0.9061336E+02  0.7546771E-02  0.1306777E+00
         -1   -1    0    0    0  501 -0.00000000000E+00  0.00000000000E+00  0.69178838447E+02  0.69178838447E+02  0.00000000000E+00 0.  1.
          2   -1    0    0  502    0  0.00000000000E+00 -0.00000000000E+00 -0.43537413080E+03  0.43537413080E+03  0.00000000000E+00 0. -1.
         23    2    1    2    0    0 -0.10966833243E+02 -0.96327926198E+01  0.23884995403E+02  0.94189522994E+02  0.89933926365E+02 0.  0.
         24    2    1    2    0    0 -0.27130876735E+02  0.73952981721E+01 -0.22408862651E+03  0.24004118261E+03  0.81322087484E+02 0.  0.
        -13    1    4    4    0    0  0.24216310314E+02  0.54862218574E-01 -0.13328637528E+03  0.13546841156E+03  0.00000000000E+00 0.  1.
         14    1    4    4    0    0 -0.51347187049E+02  0.73404359535E+01 -0.90802251226E+02  0.10457277105E+03  0.00000000000E+00 0. -1.
        -11    1    3    3    0    0 -0.61424161065E+01 -0.42461934346E+02 -0.12752887620E+02  0.44759147519E+02  0.00000000000E+00 0. -1.
         11    1    3    3    0    0 -0.48244171363E+01  0.32829141726E+02  0.36637883023E+02  0.49430375475E+02  0.00000000000E+00 0.  1.
         21    1    1    2  502  501  0.38097709977E+02  0.22374944477E+01 -0.16599166125E+03  0.17032226364E+03  0.00000000000E+00 0. -1.
<scales pt_clust_5="13000.00000" pt_clust_6="13000.00000" pt_clust_7="13000.00000" pt_clust_8="13000.00000" pt_clust_9="38.16336"></scales>
<clustering>
<clus scale="   38.163">  2  9  1 -1</clus>
<clus scale="   81.322">  5  6 -1 -1</clus>
<clus scale="   82.073">  2  5  1 -1</clus>
<clus scale="   89.934">  7  8 -1 -1</clus>
<clus scale="   38.163">  2  5  1 -1</clus>
</clustering>
</event>
<event>
 9    2  0.3791909E-005  0.9091999E+02  0.7546771E-02  0.1307069E+00
         -1   -1    0    0    0  501 -0.00000000000E+00  0.00000000000E+00  0.12985570232E+03  0.12985570232E+03  0.00000000000E+00 0.  1.
          2   -1    0    0  502    0  0.00000000000E+00 -0.00000000000E+00 -0.25986428715E+03  0.25986428715E+03  0.00000000000E+00 0. -1.
         24    2    1    2    0    0 -0.42877659259E+01  0.37491108417E+01  0.71517863110E+02  0.10771505947E+03  0.80344810186E+02 0.  0.
         23    2    1    2    0    0 -0.51088964835E+02 -0.16930869777E+02 -0.43304358941E+02  0.11385448984E+03  0.90503263333E+02 0.  0.
        -11    1    3    3    0    0 -0.12063213871E+01 -0.37101570066E+02  0.47293672183E+02  0.60122151834E+02  0.00000000000E+00 0.  1.
         12    1    3    3    0    0 -0.30814445387E+01  0.40850680908E+02  0.24224190927E+02  0.47592907635E+02  0.00000000000E+00 0. -1.
        -13    1    4    4    0    0  0.25300134907E+02 -0.12392815674E+02 -0.17164070520E+02  0.32989150087E+02  0.00000000000E+00 0. -1.
         13    1    4    4    0    0 -0.76389099742E+02 -0.45380541021E+01 -0.26140288422E+02  0.80865339752E+02  0.00000000000E+00 0.  1.
         21    1    1    2  502  501  0.55376730761E+02  0.13181758935E+02 -0.15822208900E+03  0.16815044016E+03  0.00000000000E+00 0. -1.
<scales pt_clust_5="13000.00000" pt_clust_6="13000.00000" pt_clust_7="13000.00000" pt_clust_8="13000.00000" pt_clust_9="56.92399"></scales>
<clustering>
<clus scale="   56.924">  2  9  1 -1</clus>
<clus scale="   80.345">  5  6 -1 -1</clus>
<clus scale="   80.814">  1  5  2 -1</clus>
<clus scale="   90.503">  7  8 -1 -1</clus>
<clus scale="   56.924">  2  5  1 -1</clus>
</clustering>
</event>
<event>
 9    2  0.3791909E-005  0.1003036E+03  0.7546771E-02  0.1283055E+00
          2   -1    0    0  502    0  0.00000000000E+00  0.00000000000E+00  0.36700234896E+03  0.36700234896E+03  0.00000000000E+00 0. -1.
         -1   -1    0    0    0  501 -0.00000000000E+00 -0.00000000000E+00 -0.73281488347E+02  0.73281488347E+02  0.00000000000E+00 0.  1.
         23    2    1    2    0    0  0.30795832020E+02 -0.59767721468E+02  0.58632175337E+02  0.12602494908E+03  0.89016807445E+02 0.  0.
         24    2    1    2    0    0 -0.56214712057E+02 -0.29026797390E+02  0.69510574252E+02  0.12466274667E+03  0.81892805887E+02 0.  0.
        -11    1    4    4    0    0 -0.52125972050E+02 -0.55196829561E+02  0.43302801571E+02  0.87401027338E+02  0.00000000000E+00 0.  1.
         12    1    4    4    0    0 -0.40887400065E+01  0.26170032171E+02  0.26207772681E+02  0.37261719332E+02  0.00000000000E+00 0. -1.
        -11    1    3    3    0    0  0.31696845856E+02  0.76839442501E+01  0.47553770247E+02  0.57663628929E+02  0.00000000000E+00 0. -1.
         11    1    3    3    0    0 -0.90101383681E+00 -0.67451665718E+02  0.11078405089E+02  0.68361320156E+02  0.00000000000E+00 0.  1.
         21    1    1    2  502  501  0.25418880037E+02  0.88794518858E+02  0.16557811102E+03  0.18959614155E+03  0.00000000000E+00 0. -1.
<scales pt_clust_5="13000.00000" pt_clust_6="13000.00000" pt_clust_7="13000.00000" pt_clust_8="13000.00000" pt_clust_9="92.36117"></scales>
<clustering>
<clus scale="   81.893">  5  6 -1 -1</clus>
<clus scale="   89.017">  7  8 -1 -1</clus>
<clus scale="   92.361">  1  9  2 -1</clus>
<clus scale="   94.039">  1  5  2 -1</clus>
<clus scale="   92.361">  1  5  2 -1</clus>
</clustering>
</event>
<event>
 9    2  0.3791909E-005  0.9239719E+02  0.7546771E-02  0.1303804E+00
          2   -1    0    0  502    0  0.00000000000E+00  0.00000000000E+00  0.49766663316E+03  0.49766663316E+03  0.00000000000E+00 0. -1.
         -1   -1    0    0    0  501 -0.00000000000E+00 -0.00000000000E+00 -0.41337179178E+02  0.41337179178E+02  0.00000000000E+00 0.  1.
         23    2    1    2    0    0 -0.13548555569E+02  0.24090810671E+02  0.31020567194E+02  0.98739760798E+02  0.89573066581E+02 0.  0.
         24    2    1    2    0    0 -0.14664160409E+02 -0.58176632767E+01  0.30626391140E+03  0.31656453083E+03  0.78527930998E+02 0.  0.
        -13    1    4    4    0    0  0.15208836025E+02 -0.35068341634E+02  0.15258222711E+03  0.15729727686E+03  0.00000000000E+00 0.  1.
         14    1    4    4    0    0 -0.29872996434E+02  0.29250678358E+02  0.15368168429E+03  0.15926725397E+03  0.00000000000E+00 0. -1.
        -11    1    3    3    0    0 -0.45519646144E+02 -0.67248807701E+01  0.27420049843E+01  0.46095344644E+02  0.00000000000E+00 0.  1.
         11    1    3    3    0    0  0.31971090576E+02  0.30815691441E+02  0.28278562210E+02  0.52644416155E+02  0.00000000000E+00 0. -1.
         21    1    1    2  502  501  0.28212715977E+02 -0.18273147395E+02  0.11904497538E+03  0.12369952070E+03  0.00000000000E+00 0. -1.
<scales pt_clust_5="13000.00000" pt_clust_6="13000.00000" pt_clust_7="13000.00000" pt_clust_8="13000.00000" pt_clust_9="33.61347"></scales>
<clustering>
<clus scale="   33.613">  1  9  2 -1</clus>
<clus scale="   78.528">  5  6 -1 -1</clus>
<clus scale="   81.735">  1  5  2 -1</clus>
<clus scale="   89.573">  7  8 -1 -1</clus>
<clus scale="   33.613">  1  5  2 -1</clus>
</clustering>
</event>
<event>
 9    2  0.4020650E-005  0.1818649E+03  0.7546771E-02  0.1167933E+00
         -1   -1    0    0    0  501 -0.00000000000E+00  0.00000000000E+00  0.34869775405E+03  0.34869775405E+03  0.00000000000E+00 0.  1.
          2   -1    0    0  502    0  0.00000000000E+00 -0.00000000000E+00 -0.54213914507E+03  0.54213914507E+03  0.00000000000E+00 0. -1.
         23    2    1    2    0    0 -0.15075749162E+03  0.31261054951E+02  0.28865426239E+03  0.34076395970E+03  0.95360988842E+02 0.  0.
         24    2    1    2    0    0  0.17730573251E+03  0.17365131243E+02 -0.43733753367E+03  0.47885072126E+03  0.79341189360E+02 0.  0.
        -13    1    4    4    0    0  0.32017056936E+02  0.13318885588E+02 -0.28304892094E+02  0.44762166665E+02  0.00000000000E+00 0.  1.
         14    1    4    4    0    0  0.14528867558E+03  0.40462456557E+01 -0.40903264158E+03  0.43408855459E+03  0.00000000000E+00 0. -1.
        -11    1    3    3    0    0 -0.47938052322E+02 -0.11260420288E+01  0.21250757874E+02  0.52449209158E+02  0.00000000000E+00 0. -1.
         11    1    3    3    0    0 -0.10281943930E+03  0.32387096980E+02  0.26740350452E+03  0.28831475054E+03  0.00000000000E+00 0.  1.
         21    1    1    2  502  501 -0.26548240889E+02 -0.48626186194E+02 -0.44758119735E+02  0.71222218164E+02  0.00000000000E+00 0. -1.
<scales pt_clust_5="13000.00000" pt_clust_6="13000.00000" pt_clust_7="13000.00000" pt_clust_8="13000.00000" pt_clust_9="55.40140"></scales>
<clustering>
<clus scale="   55.401">  2  9  1 -1</clus>
<clus scale="   79.341">  5  6 -1 -1</clus>
<clus scale="   95.361">  7  8 -1 -1</clus>
<clus scale="  174.000">  2  5  1 -1</clus>
<clus scale="   55.401">  2  5  1 -1</clus>
</clustering>
</event>
<event>
 9    2  0.3791909E-005  0.1161374E+03  0.7546771E-02  0.1253244E+00
          4   -1    0    0  502    0  0.00000000000E+00  0.00000000000E+00  0.21985655230E+03  0.21985655230E+03  0.00000000000E+00 0. -1.
         -3   -1    0    0    0  501 -0.00000000000E+00 -0.00000000000E+00 -0.24174649366E+03  0.24174649366E+03  0.00000000000E+00 0.  1.
         24    2    1    2    0    0 -0.21561702201E+02  0.75839036936E+02 -0.17472176817E+03  0.20806856156E+03  0.80921959389E+02 0.  0.
         23    2    1    2    0    0 -0.19161166714E+02 -0.70397646440E+01  0.14573437184E+03  0.17327200383E+03  0.91476617676E+02 0.  0.
        -11    1    3    3    0    0 -0.19508718202E+02  0.33339738270E+02 -0.15749799562E+03  0.16216580051E+03  0.00000000000E+00 0.  1.
         12    1    3    3    0    0 -0.20529839988E+01  0.42499298666E+02 -0.17223772555E+02  0.45902761044E+02  0.00000000000E+00 0. -1.
        -11    1    4    4    0    0 -0.16979455995E+01  0.35500751003E+02  0.10827933992E+03  0.11396315981E+03  0.00000000000E+00 0.  1.
         11    1    4    4    0    0 -0.17463221115E+02 -0.42540515647E+02  0.37455031922E+02  0.59308844024E+02  0.00000000000E+00 0. -1.
         21    1    1    2  502  501  0.40722868915E+02 -0.68799272292E+02  0.70974549723E+01  0.80262480572E+02  0.00000000000E+00 0. -1.
<scales pt_clust_5="13000.00000" pt_clust_6="13000.00000" pt_clust_7="13000.00000" pt_clust_8="13000.00000" pt_clust_9="79.94806"></scales>
<clustering>
<clus scale="   79.948">  1  9  2 -1</clus>
<clus scale="   80.922">  5  6 -1 -1</clus>
<clus scale="   91.477">  7  8 -1 -1</clus>
<clus scale="  108.020">  2  5  1 -1</clus>
<clus scale="   79.948">  1  5  2 -1</clus>
</clustering>
</event>
<event>
 9    2  0.3791909E-005  0.3569223E+03  0.7546771E-02  0.1070560E+00
          2   -1    0    0  502    0  0.00000000000E+00  0.00000000000E+00  0.22976666459E+04  0.22976666459E+04  0.00000000000E+00 0. -1.
         -1   -1    0    0    0  501 -0.00000000000E+00 -0.00000000000E+00 -0.14115855490E+03  0.14115855490E+03  0.00000000000E+00 0.  1.
         24    2    1    2    0    0  0.16401707036E+03  0.47205341681E+03  0.74150708234E+03  0.89768836195E+03  0.79218775100E+02 0.  0.
         23    2    1    2    0    0 -0.17272632189E+00 -0.24820173576E+03  0.10486433372E+04  0.10816017612E+04  0.92765239367E+02 0.  0.
        -13    1    3    3    0    0  0.11568746805E+03  0.21734797139E+03  0.38129526190E+03  0.45388303304E+03  0.00000000000E+00 0.  1.
         14    1    3    3    0    0  0.48329602305E+02  0.25470544542E+03  0.36021182044E+03  0.44380532891E+03  0.00000000000E+00 0. -1.
        -13    1    4    4    0    0  0.13796219612E+01 -0.77046696273E+02  0.17299121025E+03  0.18937807578E+03  0.00000000000E+00 0.  1.
         13    1    4    4    0    0 -0.15523482831E+01 -0.17115503949E+03  0.87565212696E+03  0.89222368540E+03  0.00000000000E+00 0. -1.
         21    1    1    2  502  501 -0.16384434404E+03 -0.22385168105E+03  0.36635767145E+03  0.45953507767E+03  0.00000000000E+00 0. -1.
<scales pt_clust_5="13000.00000" pt_clust_6="13000.00000" pt_clust_7="13000.00000" pt_clust_8="13000.00000" pt_clust_9="348.02002"></scales>
<clustering>
<clus scale="   79.219">  5  6 -1 -1</clus>
<clus scale="   92.765">  7  8 -1 -1</clus>
<clus scale="  264.971">  1  7  2 -1</clus>
<clus scale="  348.020">  2  9  1 -1</clus>
<clus scale="  264.971">  1  5  2 -1</clus>
</clustering>
</event>
<event>
 9    2  0.3791909E-005  0.1236746E+03  0.7546771E-02  0.1250398E+00
         -1   -1    0    0    0  501 -0.00000000000E+00  0.00000000000E+00  0.37381767789E+03  0.37381767789E+03  0.00000000000E+00 0.  1.
          2   -1    0    0  502    0  0.00000000000E+00 -0.00000000000E+00 -0.11013764873E+03  0.11013764873E+03  0.00000000000E+00 0. -1.
         23    2    1    2    0    0 -0.13944559912E+02  0.35568059357E+02  0.24540502341E+03  0.26303156803E+03  0.86616641989E+02 0.  0.
         24    2    1    2    0    0 -0.84256309120E+02 -0.58611742177E+01  0.14817238573E+02  0.11826965074E+03  0.81453549567E+02 0.  0.
        -13    1    4    4    0    0  0.47262357138E+01 -0.24677427822E+02 -0.38621722268E+01  0.25421037002E+02  0.00000000000E+00 0.  1.
         14    1    4    4    0    0 -0.88982544834E+02  0.18816253605E+02  0.18679410799E+02  0.92848613736E+02  0.00000000000E+00 0. -1.
        -13    1    3    3    0    0  0.31757100164E+02  0.16380984401E+02  0.50115451338E+02  0.61550048933E+02  0.00000000000E+00 0.  1.
         13    1    3    3    0    0 -0.45701660076E+02  0.19187074956E+02  0.19528957207E+03  0.20148151910E+03  0.00000000000E+00 0. -1.
         21    1    1    2  502  501  0.98200869032E+02 -0.29706885139E+02  0.34577671808E+01  0.10265410784E+03  0.00000000000E+00 0.  1.
<scales pt_clust_5="13000.00000" pt_clust_6="13000.00000" pt_clust_7="13000.00000" pt_clust_8="13000.00000" pt_clust_9="93.06308"></scales>
<clustering>
<clus scale="   81.454">  5  6 -1 -1</clus>
<clus scale="   86.617">  7  8 -1 -1</clus>
<clus scale="   94.668">  1  7  2 -1</clus>
<clus scale="   93.063">  1  9  2 -1</clus>
<clus scale="  123.675">  2  5  1 -1</clus>
</clustering>
</event>
<event>
 9    2  0.3791909E-005  0.1893085E+03  0.7546771E-02  0.1159574E+00
          2   -1    0    0  502    0  0.00000000000E+00  0.00000000000E+00  0.20328309619E+04  0.20328309619E+04  0.00000000000E+00 0. -1.
         -1   -1    0    0    0  501 -0.00000000000E+00 -0.00000000000E+00 -0.46143305841E+02  0.46143305841E+02  0.00000000000E+00 0.  1.
         23    2    1    2    0    0 -0.71447438965E+02  0.16709379184E+03  0.25178617745E+03  0.32234180758E+03  0.86503699053E+02 0.  0.
         24    2    1    2    0    0  0.12418661360E+03 -0.69695600908E+02  0.10874644352E+04  0.10997895921E+04  0.81721828786E+02 0.  0.
        -13    1    4    4    0    0  0.49826950633E+02 -0.21684304469E+02  0.18013320891E+03  0.18815128759E+03  0.00000000000E+00 0.  1.
         14    1    4    4    0    0  0.74359662966E+02 -0.48011296439E+02  0.90733122626E+03  0.91163830449E+03  0.00000000000E+00 0. -1.
        -13    1    3    3    0    0  0.23306188163E+01  0.41117139474E+02  0.11550504246E+03  0.12262734514E+03  0.00000000000E+00 0. -1.
         13    1    3    3    0    0 -0.73778057782E+02  0.12597665237E+03  0.13628113499E+03  0.19971446244E+03  0.00000000000E+00 0.  1.
         21    1    1    2  502  501 -0.52739174634E+02 -0.97398190933E+02  0.64743704342E+03  0.65684286806E+03  0.00000000000E+00 0. -1.
<scales pt_clust_5="13000.00000" pt_clust_6="13000.00000" pt_clust_7="13000.00000" pt_clust_8="13000.00000" pt_clust_9="110.76023"></scales>
<clustering>
<clus scale="   81.722">  5  6 -1 -1</clus>
<clus scale="   86.504">  7  8 -1 -1</clus>
<clus scale="  110.760">  1  9  2 -1</clus>
<clus scale="  187.172">  1  5  2 -1</clus>
<clus scale="  110.760">  1  5  2 -1</clus>
</clustering>
</event>
<event>
 9    2  0.3791909E-005  0.1102199E+03  0.7546771E-02  0.1268512E+00
          4   -1    0    0  502    0  0.00000000000E+00  0.00000000000E+00  0.92666740798E+02  0.92666740798E+02  0.00000000000E+00 0. -1.
         -3   -1    0    0    0  501 -0.00000000000E+00 -0.00000000000E+00 -0.40239347823E+03  0.40239347823E+03  0.00000000000E+00 0.  1.
         23    2    1    2    0    0 -0.23405539571E+02 -0.51657970458E+02 -0.31516902616E+03  0.33317517270E+03  0.91966382210E+02 0.  0.
         24    2    1    2    0    0  0.23249224613E+01  0.90943071837E+02 -0.64422979137E+01  0.11574444591E+03  0.71268688616E+02 0.  0.
        -11    1    4    4    0    0 -0.30008382952E+02  0.43883161631E+02 -0.20440341432E+02  0.56956496381E+02  0.00000000000E+00 0.  1.
         12    1    4    4    0    0  0.32333305413E+02  0.47059910206E+02  0.13998043519E+02  0.58787949530E+02  0.00000000000E+00 0. -1.
        -13    1    3    3    0    0 -0.53086442259E+02 -0.36635321019E+02 -0.26669749268E+03  0.27438635115E+03  0.00000000000E+00 0.  1.
         13    1    3    3    0    0  0.29680902688E+02 -0.15022649439E+02 -0.48471533481E+02  0.58788821544E+02  0.00000000000E+00 0. -1.
         21    1    1    2  502  501  0.21080617109E+02 -0.39285101379E+02  0.11884586637E+02  0.46140600425E+02  0.00000000000E+00 0. -1.
<scales pt_clust_5="13000.00000" pt_clust_6="13000.00000" pt_clust_7="13000.00000" pt_clust_8="13000.00000" pt_clust_9="44.58376"></scales>
<clustering>
<clus scale="   44.584">  1  9  2 -1</clus>
<clus scale="   71.269">  5  6 -1 -1</clus>
<clus scale="   91.966">  7  8 -1 -1</clus>
<clus scale="   93.647">  1  5  2 -1</clus>
<clus scale="   44.584">  1  5  2 -1</clus>
</clustering>
</event>
<event>
 9    2  0.3791909E-005  0.1177834E+03  0.7546771E-02  0.1250927E+00
          2   -1    0    0  502    0  0.00000000000E+00  0.00000000000E+00  0.19306828280E+03  0.19306828280E+03  0.00000000000E+00 0. -1.
         -1   -1    0    0    0  501 -0.00000000000E+00 -0.00000000000E+00 -0.26474640633E+03  0.26474640633E+03  0.00000000000E+00 0.  1.
         23    2    1    2    0    0  0.22412125436E+02 -0.71401450832E+02 -0.22924295817E+03  0.25818579962E+03  0.92233956380E+02 0.  0.
         24    2    1    2    0    0 -0.24280536864E+02  0.50628535312E+02  0.14629184182E+03  0.17592055031E+03  0.79962140908E+02 0.  0.
        -13    1    4    4    0    0 -0.19392516871E+02  0.22912056715E+02  0.33146224099E+01  0.30199648594E+02  0.00000000000E+00 0.  1.
         14    1    4    4    0    0 -0.48880199924E+01  0.27716478597E+02  0.14297721941E+03  0.14572090171E+03  0.00000000000E+00 0. -1.
        -13    1    3    3    0    0  0.40277880203E+02 -0.35683415276E+02 -0.46465577982E+02  0.71096158100E+02  0.00000000000E+00 0. -1.
         13    1    3    3    0    0 -0.17865754767E+02 -0.35718035556E+02 -0.18277738018E+03  0.18708964152E+03  0.00000000000E+00 0.  1.
         21    1    1    2  502  501  0.18684114280E+01  0.20772915520E+02  0.11272992820E+02  0.23708339199E+02  0.00000000000E+00 0. -1.
<scales pt_clust_5="13000.00000" pt_clust_6="13000.00000" pt_clust_7="13000.00000" pt_clust_8="13000.00000" pt_clust_9="20.85677"></scales>
<clustering>
<clus scale="   20.857">  1  9  2 -1</clus>
<clus scale="   79.962">  5  6 -1 -1</clus>
<clus scale="   92.234">  7  8 -1 -1</clus>
<clus scale="  108.442">  1  5  2 -1</clus>
<clus scale="   20.857">  1  5  2 -1</clus>
</clustering>
</event>
<event>
 9    2  0.3791909E-005  0.1115385E+03  0.7546771E-02  0.1258116E+00
          2   -1    0    0  502    0  0.00000000000E+00  0.00000000000E+00  0.48780669938E+03  0.48780669938E+03  0.00000000000E+00 0. -1.
         -1   -1    0    0    0  501 -0.00000000000E+00 -0.00000000000E+00 -0.12696817943E+03  0.12696817943E+03  0.00000000000E+00 0.  1.
         23    2    1    2    0    0  0.65199646933E+02  0.74468193085E+02 -0.49799585605E+02  0.13627524848E+03  0.79337499842E+02 0.  0.
         24    2    1    2    0    0  0.55268724650E+01 -0.51962233903E+02  0.46026183602E+02  0.10641010834E+03  0.80461677266E+02 0.  0.
        -11    1    4    4    0    0 -0.35956907676E+02 -0.37460275395E+02  0.22887310975E+02  0.56745047766E+02  0.00000000000E+00 0.  1.
         12    1    4    4    0    0  0.41483780141E+02 -0.14501958508E+02  0.23138872627E+02  0.49665060573E+02  0.00000000000E+00 0. -1.
        -11    1    3    3    0    0  0.49082456660E+02  0.20491326423E+02 -0.58735513577E+02  0.79239147935E+02  0.00000000000E+00 0.  1.
         11    1    3    3    0    0  0.16117190273E+02  0.53976866662E+02  0.89359279721E+01  0.57036100548E+02  0.00000000000E+00 0. -1.
         21    1    1    2  502  501 -0.70726519398E+02 -0.22505959182E+02  0.36461192196E+03  0.37208952199E+03  0.00000000000E+00 0. -1.
<scales pt_clust_5="13000.00000" pt_clust_6="13000.00000" pt_clust_7="13000.00000" pt_clust_8="13000.00000" pt_clust_9="74.22101"></scales>
<clustering>
<clus scale="   74.221">  1  9  2 -1</clus>
<clus scale="   79.337">  7  8 -1 -1</clus>
<clus scale="   80.462">  5  6 -1 -1</clus>
<clus scale="  110.730">  2  7  1 -1</clus>
<clus scale="   74.221">  1  5  2 -1</clus>
</clustering>
</event>
<event>
 9    2  0.3791909E-005  0.1961212E+03  0.7546771E-02  0.1154202E+00
          2   -1    0    0  502    0  0.00000000000E+00  0.00000000000E+00  0.24315325150E+03  0.24315325150E+03  0.00000000000E+00 0. -1.
         -1   -1    0    0    0  501 -0.00000000000E+00 -0.00000000000E+00 -0.51023940824E+03  0.51023940824E+03  0.00000000000E+00 0.  1.
         23    2    1    2    0    0  0.93127507704E+02 -0.14510249088E+03 -0.39092490217E+03  0.43688252461E+03  0.91195370627E+02 0.  0.
         24    2    1    2    0    0 -0.71053802410E+02  0.16664234993E+03  0.93953108236E+01  0.19798370890E+03  0.79315581671E+02 0.  0.
        -13    1    4    4    0    0 -0.29086130336E+02  0.89478726612E+02 -0.33960025933E+02  0.10002864018E+03  0.00000000000E+00 0.  1.
         14    1    4    4    0    0 -0.41967672074E+02  0.77163623319E+02  0.43355336756E+02  0.97955068721E+02  0.00000000000E+00 0. -1.
        -11    1    3    3    0    0  0.74798220140E+02 -0.63913836240E+02 -0.28901936925E+03  0.30530631831E+03  0.00000000000E+00 0.  1.
         11    1    3    3    0    0  0.18329287564E+02 -0.81188654638E+02 -0.10190553292E+03  0.13157620630E+03  0.00000000000E+00 0. -1.
         21    1    1    2  502  501 -0.22073705294E+02 -0.21539859053E+02  0.11444343460E+03  0.11852642624E+03  0.00000000000E+00 0. -1.
<scales pt_clust_5="13000.00000" pt_clust_6="13000.00000" pt_clust_7="13000.00000" pt_clust_8="13000.00000" pt_clust_9="30.84176"></scales>
<clustering>
<clus scale="   30.842">  1  9  2 -1</clus>
<clus scale="   79.316">  5  6 -1 -1</clus>
<clus scale="   91.195">  7  8 -1 -1</clus>
<clus scale="  190.887">  1  5  2 -1</clus>
<clus scale="   30.842">  1  5  2 -1</clus>
</clustering>
</event>
<event>
 9    2  0.3791909E-005  0.1313191E+03  0.7546771E-02  0.1229635E+00
         -1   -1    0    0    0  501 -0.00000000000E+00  0.00000000000E+00  0.73196812921E+02  0.73196812921E+02  0.00000000000E+00 0.  1.
          2   -1    0    0  502    0  0.00000000000E+00 -0.00000000000E+00 -0.61132941881E+03  0.61132941881E+03  0.00000000000E+00 0. -1.
         24    2    1    2    0    0  0.32447406818E+02  0.85584616073E+02  0.22774549726E+01  0.12071072323E+03  0.78665946793E+02 0.  0.
         23    2    1    2    0    0 -0.56449936248E+02 -0.74333020124E+02 -0.47628302911E+03  0.49442533606E+03  0.94333959587E+02 0.  0.
        -13    1    3    3    0    0  0.57868500632E+02  0.68792537556E+02  0.55646371681E+01  0.90067429050E+02  0.00000000000E+00 0.  1.
         14    1    3    3    0    0 -0.25421093815E+02  0.16792078517E+02 -0.32871821955E+01  0.30643294184E+02  0.00000000000E+00 0. -1.
        -11    1    4    4    0    0 -0.72797021125E+02 -0.85961254629E+02 -0.40369869053E+03  0.41911976369E+03  0.00000000000E+00 0. -1.
         11    1    4    4    0    0  0.16347084877E+02  0.11628234505E+02 -0.72584338587E+02  0.75305572368E+02  0.00000000000E+00 0.  1.
         21    1    1    2  502  501  0.24002529430E+02 -0.11251595948E+02 -0.64127031746E+02  0.69390172438E+02  0.00000000000E+00 0.  1.
<scales pt_clust_5="13000.00000" pt_clust_6="13000.00000" pt_clust_7="13000.00000" pt_clust_8="13000.00000" pt_clust_9="26.50886"></scales>
<clustering>
<clus scale="   26.509">  2  9  1 -1</clus>
<clus scale="   78.666">  5  6 -1 -1</clus>
<clus scale="   94.334">  7  8 -1 -1</clus>
<clus scale="  120.558">  1  5  2 -1</clus>
<clus scale="   26.509">  2  5  1 -1</clus>
</clustering>
</event>
<event>
 9    2  0.3791909E-005  0.2433704E+03  0.7546771E-02  0.1119319E+00
         -1   -1    0    0    0  501 -0.00000000000E+00  0.00000000000E+00  0.33138516447E+03  0.33138516447E+03  0.00000000000E+00 0.  1.
          2   -1    0    0  502    0  0.00000000000E+00 -0.00000000000E+00 -0.60100103273E+03  0.60100103273E+03  0.00000000000E+00 0. -1.
         24    2    1    2    0    0 -0.22614105035E+03  0.29692696183E+02  0.24510472026E+03  0.33873958044E+03  0.51446560654E+02 0.  0.
         23    2    1    2    0    0  0.20856722687E+03 -0.79256868334E+02 -0.45377907312E+03  0.51315242608E+03  0.87338570483E+02 0.  0.
        -13    1    3    3    0    0 -0.14355933090E+03  0.11574177345E+02  0.18751645799E+03  0.23644378843E+03  0.00000000000E+00 0.  1.
         14    1    3    3    0    0 -0.82581719448E+02  0.18118518838E+02  0.57588262275E+02  0.10229579201E+03  0.00000000000E+00 0. -1.
        -13    1    4    4    0    0  0.10620904866E+03 -0.70738482048E+02 -0.17921394266E+03  0.22000439110E+03  0.00000000000E+00 0.  1.
         13    1    4    4    0    0  0.10235817821E+03 -0.85183862858E+01 -0.27456513046E+03  0.29314803499E+03  0.00000000000E+00 0. -1.
         21    1    1    2  502  501  0.17573823483E+02  0.49564172151E+02 -0.60941515407E+02  0.80494190678E+02  0.00000000000E+00 0.  1.
<scales pt_clust_5="13000.00000" pt_clust_6="13000.00000" pt_clust_7="13000.00000" pt_clust_8="13000.00000" pt_clust_9="52.58751"></scales>
<clustering>
<clus scale="   51.447">  5  6 -1 -1</clus>
<clus scale="   52.588">  2  9  1 -1</clus>
<clus scale="   87.339">  7  8 -1 -1</clus>
<clus scale="  232.912">  1  5  2 -1</clus>
<clus scale="   52.588">  2  5  1 -1</clus>
</clustering>
</event>
<event>
 9    2  0.3791909E-005  0.1384339E+03  0.7546771E-02  0.1218173E+00
          2   -1    0    0  502    0  0.00000000000E+00  0.00000000000E+00  0.63314450496E+03  0.63314450496E+03  0.00000000000E+00 0. -1.
         -1   -1    0    0    0  501 -0.00000000000E+00 -0.00000000000E+00 -0.43685370206E+02  0.43685370206E+02  0.00000000000E+00 0.  1.
         23    2    1    2    0    0 -0.46416360737E+02 -0.96018249568E+02  0.13433753526E+03  0.19447626514E+03  0.91654031708E+02 0.  0.
         24    2    1    2    0    0  0.68474990646E+02  0.73207285430E+02  0.37153627282E+03  0.39294762548E+03  0.79501593462E+02 0.  0.
        -13    1    4    4    0    0  0.69024858400E+02  0.51282065448E+02  0.17288559016E+03  0.19308989771E+03  0.00000000000E+00 0.  1.
         14    1    4    4    0    0 -0.54986775348E+00  0.21925219983E+02  0.19865068266E+03  0.19985772777E+03  0.00000000000E+00 0. -1.
        -11    1    3    3    0    0 -0.45472102003E+02 -0.45667667803E+01  0.66135635235E+02  0.80389611688E+02  0.00000000000E+00 0. -1.
         11    1    3    3    0    0 -0.94425873434E+00 -0.91451482787E+02  0.68201900025E+02  0.11408665345E+03  0.00000000000E+00 0.  1.
         21    1    1    2  502  501 -0.22058629909E+02  0.22810964137E+02  0.83585326666E+02  0.89405984544E+02  0.00000000000E+00 0. -1.
<scales pt_clust_5="13000.00000" pt_clust_6="13000.00000" pt_clust_7="13000.00000" pt_clust_8="13000.00000" pt_clust_9="31.73205"></scales>
<clustering>
<clus scale="   31.732">  1  9  2 -1</clus>
<clus scale="   79.502">  5  6 -1 -1</clus>
<clus scale="   91.654">  7  8 -1 -1</clus>
<clus scale="  130.706">  1  5  2 -1</clus>
<clus scale="   31.732">  1  5  2 -1</clus>
</clustering>
</event>
<event>
 9    2  0.3791909E-005  0.1096279E+03  0.7546771E-02  0.1263822E+00
         -3   -1    0    0    0  501 -0.00000000000E+00  0.00000000000E+00  0.46499590587E+02  0.46499590587E+02  0.00000000000E+00 0.  1.
          4   -1    0    0  502    0  0.00000000000E+00 -0.00000000000E+00 -0.30978286618E+03  0.30978286618E+03  0.00000000000E+00 0. -1.
         24    2    1    2    0    0 -0.62469942636E+02  0.24463909505E+01 -0.77295233883E+02  0.12729342556E+03  0.79502103422E+02 0.  0.
         23    2    1    2    0    0  0.84092420759E+02 -0.43934220009E+01 -0.16551378051E+03  0.19914748530E+03  0.71931022362E+02 0.  0.
        -13    1    3    3    0    0 -0.64388925674E+02  0.14707153590E+02 -0.20496079649E+02  0.69154344745E+02  0.00000000000E+00 0.  1.
         14    1    3    3    0    0  0.19189830385E+01 -0.12260762639E+02 -0.56799154234E+02  0.58139080816E+02  0.00000000000E+00 0. -1.
        -11    1    4    4    0    0  0.75679319492E+02  0.18105583499E+02 -0.85513664177E+02  0.11561902228E+03  0.00000000000E+00 0.  1.
         11    1    4    4    0    0  0.84131012673E+01 -0.22499005500E+02 -0.80000116331E+02  0.83528463020E+02  0.00000000000E+00 0. -1.
         21    1    1    2  502  501 -0.21622478123E+02  0.19470310503E+01 -0.20474261200E+02  0.29841545901E+02  0.00000000000E+00 0.  1.
<scales pt_clust_5="13000.00000" pt_clust_6="13000.00000" pt_clust_7="13000.00000" pt_clust_8="13000.00000" pt_clust_9="21.70996"></scales>
<clustering>
<clus scale="   21.710">  1  9  2 -1</clus>
<clus scale="   71.931">  7  8 -1 -1</clus>
<clus scale="   79.502">  5  6 -1 -1</clus>
<clus scale="  104.268">  2  7  1 -1</clus>
<clus scale="  104.268">  2  5  1 -1</clus>
</clustering>
</event>
<event>
 9    2  0.3791909E-005  0.2290940E+03  0.7546771E-02  0.1128062E+00
          2   -1    0    0  502    0  0.00000000000E+00  0.00000000000E+00  0.47427881000E+03  0.47427881000E+03  0.00000000000E+00 0. -1.
         -1   -1    0    0    0  501 -0.00000000000E+00 -0.00000000000E+00 -0.16950877763E+03  0.16950877763E+03  0.00000000000E+00 0.  1.
         23    2    1    2    0    0  0.17231223495E+03  0.11125300867E+03 -0.15376670644E+02  0.22506966448E+03  0.91384755939E+02 0.  0.
         24    2    1    2    0    0 -0.19789655180E+03 -0.10715641104E+03  0.25875335722E+03  0.35208097928E+03  0.79763240016E+02 0.  0.
        -13    1    4    4    0    0 -0.16712999288E+03 -0.51160623868E+02  0.19363694025E+03  0.26085457363E+03  0.00000000000E+00 0.  1.
         14    1    4    4    0    0 -0.30766558917E+02 -0.55995787172E+02  0.65116416965E+02  0.91226405645E+02  0.00000000000E+00 0. -1.
        -11    1    3    3    0    0  0.18602172436E+02  0.58712331112E+02 -0.11037624323E+02  0.62570023131E+02  0.00000000000E+00 0.  1.
         11    1    3    3    0    0  0.15371006251E+03  0.52540677562E+02 -0.43390463217E+01  0.16249964135E+03  0.00000000000E+00 0. -1.
         21    1    1    2  502  501  0.25584316853E+02 -0.40965976330E+01  0.61393345791E+02  0.66636943871E+02  0.00000000000E+00 0. -1.
<scales pt_clust_5="13000.00000" pt_clust_6="13000.00000" pt_clust_7="13000.00000" pt_clust_8="13000.00000" pt_clust_9="25.91022"></scales>
<clustering>
<clus scale="   25.910">  1  9  2 -1</clus>
<clus scale="   79.763">  5  6 -1 -1</clus>
<clus scale="   91.385">  7  8 -1 -1</clus>
<clus scale="  224.711">  1  5  2 -1</clus>
<clus scale="   25.910">  1  5  2 -1</clus>
</clustering>
</event>
<event>
 9    2  0.3791909E-005  0.1299845E+03  0.7546771E-02  0.1229659E+00
          2   -1    0    0  502    0  0.00000000000E+00  0.00000000000E+00  0.20358452556E+03  0.20358452556E+03  0.00000000000E+00 0. -1.
         -1   -1    0    0    0  501 -0.00000000000E+00 -0.00000000000E+00 -0.20801553029E+03  0.20801553029E+03  0.00000000000E+00 0.  1.
         24    2    1    2    0    0  0.93332235527E+02 -0.20147478725E+02 -0.14146614775E+03  0.18917793008E+03  0.81601416554E+02 0.  0.
         23    2    1    2    0    0 -0.79766598088E+02  0.38104983929E+02  0.55582150867E+02  0.13791716471E+03  0.90094777080E+02 0.  0.
        -13    1    3    3    0    0  0.10816370822E+03 -0.19204507790E+02 -0.13118279052E+03  0.17110559729E+03  0.00000000000E+00 0.  1.
         14    1    3    3    0    0 -0.14831472697E+02 -0.94297093545E+00 -0.10283357230E+02  0.18072332790E+02  0.00000000000E+00 0. -1.
        -13    1    4    4    0    0 -0.61642949845E+02 -0.15862782414E+02  0.88503434630E+01  0.64263595534E+02  0.00000000000E+00 0.  1.
         13    1    4    4    0    0 -0.18123648243E+02  0.53967766344E+02  0.46731807404E+02  0.73653569180E+02  0.00000000000E+00 0. -1.
         21    1    1    2  502  501 -0.13565637439E+02 -0.17957505204E+02  0.81452992153E+02  0.84504961055E+02  0.00000000000E+00 0. -1.
<scales pt_clust_5="13000.00000" pt_clust_6="13000.00000" pt_clust_7="13000.00000" pt_clust_8="13000.00000" pt_clust_9="22.50552"></scales>
<clustering>
<clus scale="   22.506">  1  9  2 -1</clus>
<clus scale="   81.601">  5  6 -1 -1</clus>
<clus scale="   90.095">  7  8 -1 -1</clus>
<clus scale="  124.248">  2  5  1 -1</clus>
<clus scale="   22.506">  1  5  2 -1</clus>
</clustering>
</event>
<event>
 9    2  0.3791909E-005  0.1352659E+03  0.7546771E-02  0.1221652E+00
         -1   -1    0    0    0  501 -0.00000000000E+00  0.00000000000E+00  0.86879424481E+02  0.86879424481E+02  0.00000000000E+00 0.  1.
          2   -1    0    0  502    0  0.00000000000E+00 -0.00000000000E+00 -0.37840483299E+03  0.37840483299E+03  0.00000000000E+00 0. -1.
         23    2    1    2    0    0  0.68580941096E+02  0.67244651636E+02 -0.79661641375E+02  0.15379263549E+03  0.89894432351E+02 0.  0.
         24    2    1    2    0    0 -0.18383164902E+02 -0.11622493967E+03 -0.85692506620E+02  0.16713763926E+03  0.82131646835E+02 0.  0.
        -11    1    4    4    0    0  0.16184493140E+02 -0.63750947591E+02 -0.65723565044E+01  0.66100809428E+02  0.00000000000E+00 0.  1.
         12    1    4    4    0    0 -0.34567658042E+02 -0.52473992078E+02 -0.79120150116E+02  0.10103682983E+03  0.00000000000E+00 0. -1.
        -11    1    3    3    0    0  0.76006962580E+02  0.47231031051E+02 -0.92646378939E+02  0.12880675520E+03  0.00000000000E+00 0. -1.
         11    1    3    3    0    0 -0.74260214836E+01  0.20013620586E+02  0.12984737564E+02  0.24985880285E+02  0.00000000000E+00 0.  1.
         21    1    1    2  502  501 -0.50197776194E+02  0.48980288033E+02 -0.12617126051E+03  0.14435398273E+03  0.00000000000E+00 0. -1.
<scales pt_clust_5="13000.00000" pt_clust_6="13000.00000" pt_clust_7="13000.00000" pt_clust_8="13000.00000" pt_clust_9="70.13477"></scales>
<clustering>
<clus scale="   70.135">  2  9  1 -1</clus>
<clus scale="   82.132">  5  6 -1 -1</clus>
<clus scale="   89.894">  7  8 -1 -1</clus>
<clus scale="  130.236">  2  5  1 -1</clus>
<clus scale="   70.135">  2  5  1 -1</clus>
</clustering>
</event>
<event>
 9    2  0.3791909E-005  0.9520975E+02  0.7546771E-02  0.1296577E+00
          2   -1    0    0  502    0  0.00000000000E+00  0.00000000000E+00  0.54169675542E+03  0.54169675542E+03  0.00000000000E+00 0. -1.
         -1   -1    0    0    0  501 -0.00000000000E+00 -0.00000000000E+00 -0.46115422145E+02  0.46115422145E+02  0.00000000000E+00 0.  1.
         23    2    1    2    0    0  0.29701760551E+02 -0.94126521064E+01  0.16911739274E+02  0.97653495230E+02  0.90991239171E+02 0.  0.
         24    2    1    2    0    0 -0.62987978952E+01  0.90854090975E+01  0.34587723115E+03  0.35531945443E+03  0.80614118854E+02 0.  0.
        -11    1    4    4    0    0 -0.17759344523E+02 -0.18987660779E+02  0.38535763111E+02  0.46485810935E+02  0.00000000000E+00 0.  1.
         12    1    4    4    0    0  0.11460546628E+02  0.28073069876E+02  0.30734146804E+03  0.30883364350E+03  0.00000000000E+00 0. -1.
        -11    1    3    3    0    0 -0.13360010242E+02 -0.38431726319E+02  0.20581310414E+02  0.45596905596E+02  0.00000000000E+00 0. -1.
         11    1    3    3    0    0  0.43061770793E+02  0.29019074213E+02 -0.36695711400E+01  0.52056589634E+02  0.00000000000E+00 0.  1.
         21    1    1    2  502  501 -0.23402962656E+02  0.32724300887E+00  0.13279236285E+03  0.13483922790E+03  0.00000000000E+00 0. -1.
<scales pt_clust_5="13000.00000" pt_clust_6="13000.00000" pt_clust_7="13000.00000" pt_clust_8="13000.00000" pt_clust_9="23.40525"></scales>
<clustering>
<clus scale="   23.405">  1  9  2 -1</clus>
<clus scale="   80.614">  5  6 -1 -1</clus>
<clus scale="   85.347">  1  5  2 -1</clus>
<clus scale="   90.991">  7  8 -1 -1</clus>
<clus scale="   23.405">  1  5  2 -1</clus>
</clustering>
</event>
<event>
 9    2  0.3791909E-005  0.1936511E+03  0.7546771E-02  0.1180978E+00
          2   -1    0    0  502    0  0.00000000000E+00  0.00000000000E+00  0.26844389102E+03  0.26844389102E+03  0.00000000000E+00 0. -1.
         -1   -1    0    0    0  501 -0.00000000000E+00 -0.00000000000E+00 -0.29454184813E+03  0.29454184813E+03  0.00000000000E+00 0.  1.
         24    2    1    2    0    0 -0.19245172434E+02  0.69256756390E+02 -0.13808091354E+03  0.17480149033E+03  0.79513189926E+02 0.  0.
         23    2    1    2    0    0  0.13340488579E+03  0.79289717642E+02  0.27110115882E+02  0.18251000599E+03  0.92147821605E+02 0.  0.
        -11    1    3    3    0    0  0.15672233290E+02  0.66118569719E+02 -0.11240163352E+03  0.13134462827E+03  0.00000000000E+00 0.  1.
         12    1    3    3    0    0 -0.34917405724E+02  0.31381866710E+01 -0.25679280016E+02  0.43456862061E+02  0.00000000000E+00 0. -1.
        -13    1    4    4    0    0  0.12711988870E+03  0.46959775657E+02 -0.62114030117E+01  0.13565864572E+03  0.00000000000E+00 0. -1.
         13    1    4    4    0    0  0.62849970903E+01  0.32329941985E+02  0.33321518894E+02  0.46851360264E+02  0.00000000000E+00 0.  1.
         21    1    1    2  502  501 -0.11415971335E+03 -0.14854647403E+03  0.84872840551E+02  0.20567424283E+03  0.00000000000E+00 0. -1.
<scales pt_clust_5="13000.00000" pt_clust_6="13000.00000" pt_clust_7="13000.00000" pt_clust_8="13000.00000" pt_clust_9="170.32189"></scales>
<clustering>
<clus scale="   79.513">  5  6 -1 -1</clus>
<clus scale="   92.148">  7  8 -1 -1</clus>
<clus scale="  107.188">  2  5  1 -1</clus>
<clus scale="  170.322">  1  9  2 -1</clus>
<clus scale="  170.322">  1  5  2 -1</clus>
</clustering>
</event>
<event>
 9    2  0.3791909E-005  0.1329784E+03  0.7546771E-02  0.1226000E+00
          4   -1    0    0  502    0  0.00000000000E+00  0.00000000000E+00  0.89038043566E+02  0.89038043566E+02  0.00000000000E+00 0. -1.
         -3   -1    0    0    0  501 -0.00000000000E+00 -0.00000000000E+00 -0.25496107541E+03  0.25496107541E+03  0.00000000000E+00 0.  1.
         23    2    1    2    0    0 -0.11627700762E+03 -0.16458775366E+00 -0.68507026581E+02  0.16307803345E+03  0.91547051911E+02 0.  0.
         24    2    1    2    0    0  0.78442165042E+02 -0.12403755871E+02 -0.71900547128E+02  0.13358740641E+03  0.79805263354E+02 0.  0.
        -13    1    4    4    0    0  0.45287196687E+02 -0.41962163044E+02 -0.63149943478E+02  0.88315732870E+02  0.00000000000E+00 0.  1.
         14    1    4    4    0    0  0.33154968355E+02  0.29558407173E+02 -0.87506036497E+01  0.45271673544E+02  0.00000000000E+00 0. -1.
        -11    1    3    3    0    0 -0.57938775231E+02 -0.10762657858E+02  0.14861181317E+02  0.60774922374E+02  0.00000000000E+00 0. -1.
         11    1    3    3    0    0 -0.58338232387E+02  0.10598070104E+02 -0.83368207898E+02  0.10230311108E+03  0.00000000000E+00 0.  1.
         21    1    1    2  502  501  0.37834842576E+02  0.12568343625E+02 -0.25515458131E+02  0.47333679108E+02  0.00000000000E+00 0.  1.
<scales pt_clust_5="13000.00000" pt_clust_6="13000.00000" pt_clust_7="13000.00000" pt_clust_8="13000.00000" pt_clust_9="39.86776"></scales>
<clustering>
<clus scale="   39.868">  2  9  1 -1</clus>
<clus scale="   79.805">  5  6 -1 -1</clus>
<clus scale="   91.547">  7  8 -1 -1</clus>
<clus scale="  125.185">  1  5  2 -1</clus>
<clus scale="  125.185">  1  5  2 -1</clus>
</clustering>
</event>
<event>
 9    2  0.3791909E-005  0.2137019E+03  0.7546771E-02  0.1139512E+00
          2   -1    0    0  502    0  0.00000000000E+00  0.00000000000E+00  0.79817150386E+03  0.79817150386E+03  0.00000000000E+00 0. -1.
         -1   -1    0    0    0  501 -0.00000000000E+00 -0.00000000000E+00 -0.16383810299E+03  0.16383810299E+03  0.00000000000E+00 0.  1.
         23    2    1    2    0    0  0.15505243515E+03  0.11814635823E+03 -0.64094157727E+02  0.22437805865E+03  0.90761404444E+02 0.  0.
         24    2    1    2    0    0 -0.12649372620E+03 -0.13529726803E+03  0.55979736685E+03  0.59505495957E+03  0.80070590539E+02 0.  0.
        -11    1    4    4    0    0 -0.46979123584E+02 -0.10600706229E+03  0.29235011957E+03  0.31450457504E+03  0.00000000000E+00 0.  1.
         12    1    4    4    0    0 -0.79514602613E+02 -0.29290205743E+02  0.26744724728E+03  0.28055038453E+03  0.00000000000E+00 0. -1.
        -13    1    3    3    0    0  0.14634361176E+03  0.95509121466E+02 -0.83156615664E+02  0.19352898417E+03  0.00000000000E+00 0.  1.
         13    1    3    3    0    0  0.87088233934E+01  0.22637236765E+02  0.19062457937E+02  0.30849074473E+02  0.00000000000E+00 0. -1.
         21    1    1    2  502  501 -0.28558708958E+02  0.17150909803E+02  0.13863019175E+03  0.14257658864E+03  0.00000000000E+00 0. -1.
<scales pt_clust_5="13000.00000" pt_clust_6="13000.00000" pt_clust_7="13000.00000" pt_clust_8="13000.00000" pt_clust_9="33.31296"></scales>
<clustering>
<clus scale="   33.313">  1  9  2 -1</clus>
<clus scale="   80.071">  5  6 -1 -1</clus>
<clus scale="   90.761">  7  8 -1 -1</clus>
<clus scale="  209.385">  1  5  2 -1</clus>
<clus scale="   33.313">  1  5  2 -1</clus>
</clustering>
</event>
<event>
 9    2  0.3791909E-005  0.9112483E+02  0.7546771E-02  0.1304197E+00
         -1   -1    0    0    0  501 -0.00000000000E+00  0.00000000000E+00  0.90314204245E+02  0.90314204245E+02  0.00000000000E+00 0.  1.
          2   -1    0    0  502    0  0.00000000000E+00 -0.00000000000E+00 -0.48683381849E+03  0.48683381849E+03  0.00000000000E+00 0. -1.
         23    2    1    2    0    0 -0.40745212906E+00 -0.15088485526E+02  0.47167915602E+02  0.10258331777E+03  0.89837054771E+02 0.  0.
         24    2    1    2    0    0  0.52985528866E+02  0.99587993967E+01 -0.37515072861E+03  0.38803112213E+03  0.83207202910E+02 0.  0.
        -11    1    4    4    0    0 -0.90356414847E+01 -0.20668593833E+02 -0.40996163996E+02  0.46792296913E+02  0.00000000000E+00 0.  1.
         12    1    4    4    0    0  0.62021170351E+02  0.30627393230E+02 -0.33415456461E+03  0.34123882522E+03  0.00000000000E+00 0. -1.
        -13    1    3    3    0    0 -0.44060763425E+02 -0.61981152376E+01  0.34396040950E+02  0.56239266879E+02  0.00000000000E+00 0.  1.
         13    1    3    3    0    0  0.43653311296E+02 -0.88903702881E+01  0.12771874652E+02  0.46344050892E+02  0.00000000000E+00 0. -1.
         21    1    1    2  502  501 -0.52578076737E+02  0.51296861290E+01 -0.68536801245E+02  0.86533582833E+02  0.00000000000E+00 0.  1.
<scales pt_clust_5="13000.00000" pt_clust_6="13000.00000" pt_clust_7="13000.00000" pt_clust_8="13000.00000" pt_clust_9="52.82772"></scales>
<clustering>
<clus scale="   52.828">  2  9  1 -1</clus>
<clus scale="   83.207">  5  6 -1 -1</clus>
<clus scale="   84.596">  2  5  1 -1</clus>
<clus scale="   89.837">  7  8 -1 -1</clus>
<clus scale="   52.828">  2  5  1 -1</clus>
</clustering>
</event>
<event>
 9    2  0.3791909E-005  0.1218231E+03  0.7546771E-02  0.1243109E+00
          2   -1    0    0  502    0  0.00000000000E+00  0.00000000000E+00  0.78117078026E+03  0.78117078026E+03  0.00000000000E+00 0. -1.
         -1   -1    0    0    0  501 -0.00000000000E+00 -0.00000000000E+00 -0.34073723496E+02  0.34073723496E+02  0.00000000000E+00 0.  1.
         24    2    1    2    0    0 -0.31172531266E+01  0.71327789077E+02  0.10269392849E+03  0.14908982081E+03  0.81144075325E+02 0.  0.
         23    2    1    2    0    0 -0.16787813413E+02 -0.82310322367E+02  0.62210881679E+03  0.63431345124E+03  0.90979968431E+02 0.  0.
        -11    1    3    3    0    0  0.17310513679E+02  0.82840046250E+02  0.80962346538E+02  0.11711971953E+03  0.00000000000E+00 0.  1.
         12    1    3    3    0    0 -0.20427766805E+02 -0.11512257173E+02  0.21731581949E+02  0.31970101280E+02  0.00000000000E+00 0. -1.
        -13    1    4    4    0    0 -0.48466738643E+02 -0.77930537881E+02  0.45126702345E+03  0.46050420187E+03  0.00000000000E+00 0. -1.
         13    1    4    4    0    0  0.31678925230E+02 -0.43797844867E+01  0.17084179334E+03  0.17380924937E+03  0.00000000000E+00 0.  1.
         21    1    1    2  502  501  0.19905066539E+02  0.10982533291E+02  0.22294311490E+02  0.31841231701E+02  0.00000000000E+00 0. -1.
<scales pt_clust_5="13000.00000" pt_clust_6="13000.00000" pt_clust_7="13000.00000" pt_clust_8="13000.00000" pt_clust_9="22.73385"></scales>
<clustering>
<clus scale="   22.734">  2  9  1 -1</clus>
<clus scale="   81.144">  5  6 -1 -1</clus>
<clus scale="   90.980">  7  8 -1 -1</clus>
<clus scale="  114.664">  2  5  1 -1</clus>
<clus scale="  121.823">  1  5  2 -1</clus>
</clustering>
</event>
<event>
 9    2  0.3791909E-005  0.9715409E+02  0.7546771E-02  0.1289145E+00
          2   -1    0    0  502    0  0.00000000000E+00  0.00000000000E+00  0.14641361939E+03  0.14641361939E+03  0.00000000000E+00 0. -1.
         -1   -1    0    0    0  501 -0.00000000000E+00 -0.00000000000E+00 -0.14575858892E+03  0.14575858892E+03  0.00000000000E+00 0.  1.
         24    2    1    2    0    0  0.22826502106E+01 -0.29569489462E+02 -0.68960694621E+02  0.11427321807E+03  0.86158143933E+02 0.  0.
         23    2    1    2    0    0 -0.54690583680E+02  0.32036587179E+02  0.45474205157E+02  0.12014528000E+03  0.91376047793E+02 0.  0.
        -11    1    3    3    0    0  0.14810640042E+01 -0.38626858149E+02 -0.86373769068E+02  0.94629042604E+02  0.00000000000E+00 0.  1.
         12    1    3    3    0    0  0.80158620634E+00  0.90573686866E+01  0.17413074447E+02  0.19644175465E+02  0.00000000000E+00 0. -1.
        -11    1    4    4    0    0  0.14866116893E+02 -0.15206235433E+02 -0.53060900697E+01  0.21917701051E+02  0.00000000000E+00 0.  1.
         11    1    4    4    0    0 -0.69556700573E+02  0.47242822612E+02  0.50780295227E+02  0.98227578949E+02  0.00000000000E+00 0. -1.
         21    1    1    2  502  501  0.52407933469E+02 -0.24670977167E+01  0.24141519929E+02  0.57753710237E+02  0.00000000000E+00 0.  1.
<scales pt_clust_5="13000.00000" pt_clust_6="13000.00000" pt_clust_7="13000.00000" pt_clust_8="13000.00000" pt_clust_9="52.46597"></scales>
<clustering>
<clus scale="   52.466">  1  9  2 -1</clus>
<clus scale="   86.158">  5  6 -1 -1</clus>
<clus scale="   91.376">  7  8 -1 -1</clus>
<clus scale="   92.264">  2  5  1 -1</clus>
<clus scale="   52.466">  1  5  2 -1</clus>
</clustering>
</event>
<event>
 9    2  0.3791909E-005  0.1183348E+03  0.7546771E-02  0.1249492E+00
         -1   -1    0    0    0  501 -0.00000000000E+00  0.00000000000E+00  0.11733934111E+03  0.11733934111E+03  0.00000000000E+00 0.  1.
          2   -1    0    0  502    0  0.00000000000E+00 -0.00000000000E+00 -0.39960560290E+03  0.39960560290E+03  0.00000000000E+00 0. -1.
         24    2    1    2    0    0 -0.15464767731E+01  0.78446576466E+02  0.70716986816E+02  0.13278207956E+03  0.80460744953E+02 0.  0.
         23    2    1    2    0    0  0.16514231771E+02 -0.52694220364E+02 -0.18567912062E+03  0.21422790991E+03  0.91473825981E+02 0.  0.
        -11    1    3    3    0    0 -0.24186667916E+02  0.58862426458E+02  0.79265324630E+02  0.10165024271E+03  0.00000000000E+00 0.  1.
         12    1    3    3    0    0  0.22640191143E+02  0.19584150008E+02 -0.85483378142E+01  0.31131836854E+02  0.00000000000E+00 0. -1.
        -13    1    4    4    0    0  0.39773073726E+02  0.55819276738E-01 -0.35307153803E+02  0.53183602916E+02  0.00000000000E+00 0.  1.
         13    1    4    4    0    0 -0.23258841955E+02 -0.52750039640E+02 -0.15037196682E+03  0.16104430699E+03  0.00000000000E+00 0. -1.
         21    1    1    2  502  501 -0.14967754998E+02 -0.25752356102E+02 -0.16730412798E+03  0.16993495454E+03  0.00000000000E+00 0. -1.
<scales pt_clust_5="13000.00000" pt_clust_6="13000.00000" pt_clust_7="13000.00000" pt_clust_8="13000.00000" pt_clust_9="29.78620"></scales>
<clustering>
<clus scale="   29.786">  2  9  1 -1</clus>
<clus scale="   80.461">  5  6 -1 -1</clus>
<clus scale="   91.474">  7  8 -1 -1</clus>
<clus scale="  110.044">  1  5  2 -1</clus>
<clus scale="   29.786">  2  5  1 -1</clus>
</clustering>
</event>
<event>
 9    2  0.3791909E-005  0.1159778E+03  0.7546771E-02  0.1256957E+00
         -1   -1    0    0    0  501 -0.00000000000E+00  0.00000000000E+00  0.55455027226E+02  0.55455027226E+02  0.00000000000E+00 0.  1.
          2   -1    0    0  502    0  0.00000000000E+00 -0.00000000000E+00 -0.36461952078E+03  0.36461952078E+03  0.00000000000E+00 0. -1.
         23    2    1    2    0    0 -0.30002814298E+02  0.52317237560E+02 -0.36808756938E+02  0.12299237243E+03  0.10067262228E+03 0.  0.
         24    2    1    2    0    0  0.93181057247E+01 -0.51267237321E+02 -0.21787593924E+03  0.23879831854E+03  0.82701604096E+02 0.  0.
        -13    1    4    4    0    0  0.45894339386E+02 -0.25193816555E+02 -0.10545965962E+03  0.11774021652E+03  0.00000000000E+00 0.  1.
         14    1    4    4    0    0 -0.36576233661E+02 -0.26073420766E+02 -0.11241627963E+03  0.12105810202E+03  0.00000000000E+00 0. -1.
        -11    1    3    3    0    0  0.20447728003E+01 -0.29435513743E+02 -0.10638634724E+02  0.31365763404E+02  0.00000000000E+00 0. -1.
         11    1    3    3    0    0 -0.32047587099E+02  0.81752751304E+02 -0.26170122215E+02  0.91626609024E+02  0.00000000000E+00 0.  1.
         21    1    1    2  502  501  0.20684708574E+02 -0.10500002397E+01 -0.54479797371E+02  0.58283857035E+02  0.00000000000E+00 0.  1.
<scales pt_clust_5="13000.00000" pt_clust_6="13000.00000" pt_clust_7="13000.00000" pt_clust_8="13000.00000" pt_clust_9="20.71134"></scales>
<clustering>
<clus scale="   20.711">  2  9  1 -1</clus>
<clus scale="   82.702">  5  6 -1 -1</clus>
<clus scale="  100.673">  7  8 -1 -1</clus>
<clus scale="  100.774">  2  5  1 -1</clus>
<clus scale="   20.711">  2  5  1 -1</clus>
</clustering>
</event>
<event>
 9    2  0.3791909E-005  0.2822801E+03  0.7546771E-02  0.1129820E+00
          2   -1    0    0  502    0  0.00000000000E+00  0.00000000000E+00  0.71764969809E+03  0.71764969809E+03  0.00000000000E+00 0. -1.
         -1   -1    0    0    0  501 -0.00000000000E+00 -0.00000000000E+00 -0.70910474082E+03  0.70910474082E+03  0.00000000000E+00 0.  1.
         23    2    1    2    0    0 -0.50199744516E+02 -0.47978419939E+02 -0.54575113681E+03  0.55774371946E+03  0.91715920818E+02 0.  0.
         24    2    1    2    0    0  0.24448172920E+03 -0.12612656686E+03  0.53546492852E+03  0.60745260201E+03  0.81220362182E+02 0.  0.
        -11    1    4    4    0    0  0.10748948965E+03 -0.19088812006E+02  0.16005702031E+03  0.19374370410E+03  0.00000000000E+00 0.  1.
         12    1    4    4    0    0  0.13699223956E+03 -0.10703775486E+03  0.37540790821E+03  0.41370889791E+03  0.00000000000E+00 0. -1.
        -13    1    3    3    0    0  0.18884222741E+02 -0.38830771050E+02 -0.15870293833E+03  0.16447208056E+03  0.00000000000E+00 0. -1.
         13    1    3    3    0    0 -0.69083967258E+02 -0.91476488889E+01 -0.38704819848E+03  0.39327163890E+03  0.00000000000E+00 0.  1.
         21    1    1    2  502  501 -0.19428198469E+03  0.17410498680E+03  0.18831165556E+02  0.26155811744E+03  0.00000000000E+00 0.  1.
<scales pt_clust_5="13000.00000" pt_clust_6="13000.00000" pt_clust_7="13000.00000" pt_clust_8="13000.00000" pt_clust_9="270.34290"></scales>
<clustering>
<clus scale="   81.220">  5  6 -1 -1</clus>
<clus scale="   91.716">  7  8 -1 -1</clus>
<clus scale="  115.038">  2  7  1 -1</clus>
<clus scale="  270.343">  2  9  1 -1</clus>
<clus scale="  282.280">  1  5  2 -1</clus>
</clustering>
</event>
<event>
 9    2  0.3791909E-005  0.9332893E+02  0.7546771E-02  0.1300858E+00
         -1   -1    0    0    0  501 -0.00000000000E+00  0.00000000000E+00  0.31125327477E+03  0.31125327477E+03  0.00000000000E+00 0.  1.
          2   -1    0    0  502    0  0.00000000000E+00 -0.00000000000E+00 -0.26564535059E+03  0.26564535059E+03  0.00000000000E+00 0. -1.
         23    2    1    2    0    0 -0.93790724153E-01 -0.20368785285E+01  0.29150760264E+03  0.30608721328E+03  0.93319569559E+02 0.  0.
         24    2    1    2    0    0  0.11933162191E+02 -0.19155810335E+02 -0.16560355473E+03  0.18692596479E+03  0.83710414799E+02 0.  0.
        -13    1    4    4    0    0 -0.17929925942E+02 -0.41403308838E+02 -0.11903411693E+03  0.12729822160E+03  0.00000000000E+00 0.  1.
         14    1    4    4    0    0  0.29863088132E+02  0.22247498503E+02 -0.46569437796E+02  0.59627743199E+02  0.00000000000E+00 0. -1.
        -11    1    3    3    0    0 -0.34602853935E+02  0.16739271290E+02  0.22939335317E+03  0.23259164039E+03  0.00000000000E+00 0.  1.
         11    1    3    3    0    0  0.34509063210E+02 -0.18776149819E+02  0.62114249479E+02  0.73495572887E+02  0.00000000000E+00 0. -1.
         21    1    1    2  502  501 -0.11839371467E+02  0.21192688863E+02 -0.80296123738E+02  0.83885447280E+02  0.00000000000E+00 0. -1.
<scales pt_clust_5="13000.00000" pt_clust_6="13000.00000" pt_clust_7="13000.00000" pt_clust_8="13000.00000" pt_clust_9="24.27552"></scales>
<clustering>
<clus scale="   24.276">  2  9  1 -1</clus>
<clus scale="   83.710">  5  6 -1 -1</clus>
<clus scale="   83.721">  2  5  1 -1</clus>
<clus scale="   93.320">  7  8 -1 -1</clus>
<clus scale="   24.276">  2  5  1 -1</clus>
</clustering>
</event>
<event>
 9    2  0.3791909E-005  0.9986915E+02  0.7546771E-02  0.1288045E+00
         -1   -1    0    0    0  501 -0.00000000000E+00  0.00000000000E+00  0.13855796162E+03  0.13855796162E+03  0.00000000000E+00 0.  1.
          2   -1    0    0  502    0  0.00000000000E+00 -0.00000000000E+00 -0.24167767891E+03  0.24167767891E+03  0.00000000000E+00 0. -1.
         23    2    1    2    0    0 -0.40456876163E+02  0.14754333230E+02  0.77776412470E+02  0.13028663026E+03  0.95241726728E+02 0.  0.
         24    2    1    2    0    0 -0.25383763051E+01 -0.13779997600E+02 -0.22119064527E+02  0.85450689574E+02  0.81340246158E+02 0.  0.
        -13    1    4    4    0    0 -0.38834923693E+02 -0.51834008813E+01 -0.27355377935E+02  0.47784261477E+02  0.00000000000E+00 0.  1.
         14    1    4    4    0    0  0.36296547388E+02 -0.85965967182E+01  0.52363134080E+01  0.37666428096E+02  0.00000000000E+00 0. -1.
        -13    1    3    3    0    0 -0.66088643567E+02 -0.62884728754E+01  0.69488550727E+02  0.96103654362E+02  0.00000000000E+00 0.  1.
         13    1    3    3    0    0  0.25631767404E+02  0.21042806105E+02  0.82878617430E+01  0.34182975899E+02  0.00000000000E+00 0. -1.
         21    1    1    2  502  501  0.42995252468E+02 -0.97433563041E+00 -0.15877706524E+03  0.16449832069E+03  0.00000000000E+00 0. -1.
<scales pt_clust_5="13000.00000" pt_clust_6="13000.00000" pt_clust_7="13000.00000" pt_clust_8="13000.00000" pt_clust_9="43.00629"></scales>
<clustering>
<clus scale="   43.006">  2  9  1 -1</clus>
<clus scale="   81.340">  5  6 -1 -1</clus>
<clus scale="   86.713">  2  5  1 -1</clus>
<clus scale="   95.242">  7  8 -1 -1</clus>
<clus scale="   43.006">  2  5  1 -1</clus>
</clustering>
</event>
<event>
 9    2  0.3791909E-005  0.1447675E+03  0.7546771E-02  0.1209126E+00
         -1   -1    0    0    0  501 -0.00000000000E+00  0.00000000000E+00  0.63409507671E+03  0.63409507671E+03  0.00000000000E+00 0.  1.
          2   -1    0    0  502    0  0.00000000000E+00 -0.00000000000E+00 -0.23017270802E+03  0.23017270802E+03  0.00000000000E+00 0. -1.
         24    2    1    2    0    0  0.48015507263E+02 -0.10175040980E+03  0.59623619826E+03  0.61220104159E+03  0.81448611891E+02 0.  0.
         23    2    1    2    0    0 -0.60893668430E+02  0.80890754863E+02 -0.17518458590E+03  0.22216050253E+03  0.91729475469E+02 0.  0.
        -13    1    3    3    0    0  0.65969449381E+02 -0.46398941452E+02  0.35477135764E+03  0.36382350971E+03  0.00000000000E+00 0.  1.
         14    1    3    3    0    0 -0.17953942118E+02 -0.55351468350E+02  0.24146484062E+03  0.24837753188E+03  0.00000000000E+00 0. -1.
        -11    1    4    4    0    0  0.22387941464E+02  0.30711888188E+02 -0.35784094467E+02  0.52200971408E+02  0.00000000000E+00 0.  1.
         11    1    4    4    0    0 -0.83281609894E+02  0.50178866675E+02 -0.13940049143E+03  0.16995953112E+03  0.00000000000E+00 0. -1.
         21    1    1    2  502  501  0.12878161166E+02  0.20859654939E+02 -0.17129243670E+02  0.29906240618E+02  0.00000000000E+00 0. -1.
<scales pt_clust_5="13000.00000" pt_clust_6="13000.00000" pt_clust_7="13000.00000" pt_clust_8="13000.00000" pt_clust_9="24.51474"></scales>
<clustering>
<clus scale="   24.515">  2  9  1 -1</clus>
<clus scale="   81.449">  5  6 -1 -1</clus>
<clus scale="   91.729">  7  8 -1 -1</clus>
<clus scale="  138.482">  1  5  2 -1</clus>
<clus scale="   24.515">  2  5  1 -1</clus>
</clustering>
</event>
<event>
 9    2  0.3791909E-005  0.9586217E+02  0.7546771E-02  0.1296949E+00
         -1   -1    0    0    0  501 -0.00000000000E+00  0.00000000000E+00  0.37968350895E+03  0.37968350895E+03  0.00000000000E+00 0.  1.
          2   -1    0    0  502    0  0.00000000000E+00 -0.00000000000E+00 -0.54550953288E+02  0.54550953288E+02  0.00000000000E+00 0. -1.
         24    2    1    2    0    0  0.18402839193E+02 -0.36300497051E+02  0.16610974179E+03  0.18882792791E+03  0.80044671688E+02 0.  0.
         23    2    1    2    0    0  0.48336799172E+02 -0.99474701956E+01  0.84422198705E+02  0.13514182743E+03  0.93278119458E+02 0.  0.
        -11    1    3    3    0    0  0.90681168304E+01 -0.60436057699E+02  0.13616807860E+03  0.14925311870E+03  0.00000000000E+00 0.  1.
         12    1    3    3    0    0  0.93347223628E+01  0.24135560648E+02  0.29941663192E+02  0.39574809211E+02  0.00000000000E+00 0. -1.
        -11    1    4    4    0    0  0.16600864413E+02  0.41701147908E+02  0.37358038169E+02  0.58396895911E+02  0.00000000000E+00 0.  1.
         11    1    4    4    0    0  0.31735934759E+02 -0.51648618104E+02  0.47064160536E+02  0.76744931520E+02  0.00000000000E+00 0. -1.
         21    1    1    2  502  501 -0.66739638365E+02  0.46247967247E+02  0.74600615170E+02  0.11026470690E+03  0.00000000000E+00 0.  1.
<scales pt_clust_5="13000.00000" pt_clust_6="13000.00000" pt_clust_7="13000.00000" pt_clust_8="13000.00000" pt_clust_9="81.19762"></scales>
<clustering>
<clus scale="   80.045">  5  6 -1 -1</clus>
<clus scale="   81.198">  2  9  1 -1</clus>
<clus scale="   83.042">  1  5  2 -1</clus>
<clus scale="   93.278">  7  8 -1 -1</clus>
<clus scale="   81.198">  2  5  1 -1</clus>
</clustering>
</event>
<event>
 9    2  0.3791909E-005  0.9573563E+02  0.7546771E-02  0.1293240E+00
          2   -1    0    0  502    0  0.00000000000E+00  0.00000000000E+00  0.56814398709E+03  0.56814398709E+03  0.00000000000E+00 0. -1.
         -1   -1    0    0    0  501 -0.00000000000E+00 -0.00000000000E+00 -0.72653769219E+02  0.72653769219E+02  0.00000000000E+00 0.  1.
         24    2    1    2    0    0 -0.27068517463E+02 -0.17079089682E+00 -0.35220865125E+02  0.96394837080E+02  0.85549526406E+02 0.  0.
         23    2    1    2    0    0  0.62419487571E+01 -0.17409044257E+02  0.41404489438E+03  0.42459559002E+03  0.92229082989E+02 0.  0.
        -13    1    3    3    0    0 -0.43596204826E+02  0.31516775864E+02 -0.24263030850E+02  0.59013819587E+02  0.00000000000E+00 0.  1.
         14    1    3    3    0    0  0.16527687364E+02 -0.31687566761E+02 -0.10957834275E+02  0.37381017493E+02  0.00000000000E+00 0. -1.
        -11    1    4    4    0    0  0.42790855727E+02  0.13285544134E+02  0.23882469945E+03  0.24299135805E+03  0.00000000000E+00 0. -1.
         11    1    4    4    0    0 -0.36548906970E+02 -0.30694588391E+02  0.17522019493E+03  0.18160423197E+03  0.00000000000E+00 0.  1.
         21    1    1    2  502  501  0.20826568706E+02  0.17579835154E+02  0.11666618861E+03  0.11980732921E+03  0.00000000000E+00 0. -1.
<scales pt_clust_5="13000.00000" pt_clust_6="13000.00000" pt_clust_7="13000.00000" pt_clust_8="13000.00000" pt_clust_9="27.25429"></scales>
<clustering>
<clus scale="   27.254">  1  9  2 -1</clus>
<clus scale="   85.550">  5  6 -1 -1</clus>
<clus scale="   89.319">  2  5  1 -1</clus>
<clus scale="   92.229">  7  8 -1 -1</clus>
<clus scale="   27.254">  1  5  2 -1</clus>
</clustering>
</event>
<event>
 9    2  0.3791909E-005  0.1006333E+03  0.7546771E-02  0.1283994E+00
         -1   -1    0    0    0  501 -0.00000000000E+00  0.00000000000E+00  0.27153796543E+02  0.27153796543E+02  0.00000000000E+00 0.  1.
          2   -1    0    0  502    0  0.00000000000E+00 -0.00000000000E+00 -0.12441202353E+04  0.12441202353E+04  0.00000000000E+00 0. -1.
         23    2    1    2    0    0  0.38888165604E+02  0.26180245869E+02 -0.84024057606E+02  0.13154208425E+03  0.89697173731E+02 0.  0.
         24    2    1    2    0    0 -0.41017347723E+02  0.12341415186E+01 -0.99989532202E+03  0.10038731901E+04  0.79289222580E+02 0.  0.
        -11    1    4    4    0    0 -0.70861193406E+00 -0.25427502909E+02 -0.12073699028E+03  0.12338752310E+03  0.00000000000E+00 0.  1.
         12    1    4    4    0    0 -0.40308735788E+02  0.26661644428E+02 -0.87915833174E+03  0.88048566697E+03  0.00000000000E+00 0. -1.
        -13    1    3    3    0    0 -0.79672552395E+01  0.48607890966E+02 -0.40170573874E+02  0.63560044254E+02  0.00000000000E+00 0. -1.
         13    1    3    3    0    0  0.46855420844E+02 -0.22427645097E+02 -0.43853483732E+02  0.67982039999E+02  0.00000000000E+00 0.  1.
         21    1    1    2  502  501  0.21291821185E+01 -0.27414387388E+02 -0.13304705918E+03  0.13585875757E+03  0.00000000000E+00 0. -1.
<scales pt_clust_5="13000.00000" pt_clust_6="13000.00000" pt_clust_7="13000.00000" pt_clust_8="13000.00000" pt_clust_9="27.49695"></scales>
<clustering>
<clus scale="   27.497">  2  9  1 -1</clus>
<clus scale="   79.289">  5  6 -1 -1</clus>
<clus scale="   89.697">  7  8 -1 -1</clus>
<clus scale="   91.478">  2  5  1 -1</clus>
<clus scale="   27.497">  2  5  1 -1</clus>
</clustering>
</event>
<event>
 9    2  0.3791909E-005  0.1086257E+03  0.7546771E-02  0.1274233E+00
         -1   -1    0    0    0  501 -0.00000000000E+00  0.00000000000E+00  0.97680315831E+02  0.97680315831E+02  0.00000000000E+00 0.  1.
          2   -1    0    0  502    0  0.00000000000E+00 -0.00000000000E+00 -0.52907152703E+03  0.52907152703E+03  0.00000000000E+00 0. -1.
         23    2    1    2    0    0 -0.59034097981E+02 -0.26004959685E+02  0.54329317316E+02  0.12294589812E+03  0.89458015252E+02 0.  0.
         24    2    1    2    0    0  0.34998965157E+02 -0.12476036503E+02 -0.40288698293E+03  0.40936087630E+03  0.62272200730E+02 0.  0.
        -11    1    4    4    0    0  0.50995645087E+02 -0.99907092705E+01 -0.23404124710E+03  0.23974085057E+03  0.00000000000E+00 0.  1.
         12    1    4    4    0    0 -0.15996679930E+02 -0.24853272320E+01 -0.16884573583E+03  0.16962002573E+03  0.00000000000E+00 0. -1.
        -11    1    3    3    0    0 -0.63984826858E+02  0.33965478177E+01  0.65006142532E+02  0.91276465598E+02  0.00000000000E+00 0.  1.
         11    1    3    3    0    0  0.49507288771E+01 -0.29401507502E+02 -0.10676825216E+02  0.31669432526E+02  0.00000000000E+00 0. -1.
         21    1    1    2  502  501  0.24035132825E+02  0.38480996187E+02 -0.82833545590E+02  0.94445068439E+02  0.00000000000E+00 0.  1.
<scales pt_clust_5="13000.00000" pt_clust_6="13000.00000" pt_clust_7="13000.00000" pt_clust_8="13000.00000" pt_clust_9="45.37042"></scales>
<clustering>
<clus scale="   45.370">  2  9  1 -1</clus>
<clus scale="   62.272">  5  6 -1 -1</clus>
<clus scale="   87.605">  2  5  1 -1</clus>
<clus scale="   89.458">  7  8 -1 -1</clus>
<clus scale="   45.370">  2  5  1 -1</clus>
</clustering>
</event>
<event>
 9    2  0.3791909E-005  0.1009030E+03  0.7546771E-02  0.1283810E+00
          2   -1    0    0  502    0  0.00000000000E+00  0.00000000000E+00  0.26490586584E+03  0.26490586584E+03  0.00000000000E+00 0. -1.
         -1   -1    0    0    0  501 -0.00000000000E+00 -0.00000000000E+00 -0.76771516060E+02  0.76771516060E+02  0.00000000000E+00 0.  1.
         24    2    1    2    0    0  0.52105866572E+02 -0.29104017353E+02 -0.13618347100E+02  0.10117073215E+03  0.80548075756E+02 0.  0.
         23    2    1    2    0    0 -0.36786229732E+02  0.12906137177E+02  0.19185493829E+03  0.21611344947E+03  0.91525464325E+02 0.  0.
        -13    1    3    3    0    0  0.37060359813E+02  0.10927084442E+02  0.22918064892E+02  0.44923369667E+02  0.00000000000E+00 0.  1.
         14    1    3    3    0    0  0.15045506759E+02 -0.40031101795E+02 -0.36536411992E+02  0.56247362479E+02  0.00000000000E+00 0. -1.
        -13    1    4    4    0    0 -0.36648850375E+02 -0.35521733903E+02  0.10035649412E+03  0.11258933220E+03  0.00000000000E+00 0.  1.
         13    1    4    4    0    0 -0.13737935724E+00  0.48427871080E+02  0.91498444170E+02  0.10352411727E+03  0.00000000000E+00 0. -1.
         21    1    1    2  502  501 -0.15319636839E+02  0.16197880176E+02  0.98977585882E+01  0.24393200285E+02  0.00000000000E+00 0. -1.
<scales pt_clust_5="13000.00000" pt_clust_6="13000.00000" pt_clust_7="13000.00000" pt_clust_8="13000.00000" pt_clust_9="22.29490"></scales>
<clustering>
<clus scale="   22.295">  2  9  1 -1</clus>
<clus scale="   80.548">  5  6 -1 -1</clus>
<clus scale="   91.063">  2  5  1 -1</clus>
<clus scale="   91.525">  7  8 -1 -1</clus>
<clus scale="  100.903">  1  5  2 -1</clus>
</clustering>
</event>
<event>
 9    2  0.3791909E-005  0.1029282E+03  0.7546771E-02  0.1279117E+00
         -1   -1    0    0    0  501 -0.00000000000E+00  0.00000000000E+00  0.68568294985E+02  0.68568294985E+02  0.00000000000E+00 0.  1.
          2   -1    0    0  502    0  0.00000000000E+00 -0.00000000000E+00 -0.63987549895E+03  0.63987549895E+03  0.00000000000E+00 0. -1.
         23    2    1    2    0    0  0.27284545770E+02  0.40852583400E+02  0.14194326841E+02  0.10380739431E+03  0.90338896330E+02 0.  0.
         24    2    1    2    0    0  0.83885787381E+01 -0.64137687447E+02 -0.33009758777E+03  0.34570408800E+03  0.79767711566E+02 0.  0.
        -13    1    4    4    0    0  0.42924420342E+02 -0.43476835311E+02 -0.22554804196E+03  0.23367640082E+03  0.00000000000E+00 0.  1.
         14    1    4    4    0    0 -0.34535841603E+02 -0.20660852136E+02 -0.10454954581E+03  0.11202768718E+03  0.00000000000E+00 0. -1.
        -11    1    3    3    0    0  0.50079227057E+02  0.35776203308E+02  0.36465251958E+02  0.71537265157E+02  0.00000000000E+00 0.  1.
         11    1    3    3    0    0 -0.22794681287E+02  0.50763800920E+01 -0.22270925117E+02  0.32270129150E+02  0.00000000000E+00 0. -1.
         21    1    1    2  502  501 -0.35673124508E+02  0.23285104047E+02 -0.25540394304E+03  0.25893231162E+03  0.00000000000E+00 0. -1.
<scales pt_clust_5="13000.00000" pt_clust_6="13000.00000" pt_clust_7="13000.00000" pt_clust_8="13000.00000" pt_clust_9="42.60009"></scales>
<clustering>
<clus scale="   42.600">  2  9  1 -1</clus>
<clus scale="   79.768">  5  6 -1 -1</clus>
<clus scale="   90.339">  7  8 -1 -1</clus>
<clus scale="   93.787">  2  5  1 -1</clus>
<clus scale="   42.600">  2  5  1 -1</clus>
</clustering>
</event>
<event>
 9    2  0.3791909E-005  0.1541074E+03  0.7546771E-02  0.1197866E+00
         -1   -1    0    0    0  501 -0.00000000000E+00  0.00000000000E+00  0.79893223918E+02  0.79893223918E+02  0.00000000000E+00 0.  1.
          2   -1    0    0  502    0  0.00000000000E+00 -0.00000000000E+00 -0.81174800838E+03  0.81174800838E+03  0.00000000000E+00 0. -1.
         23    2    1    2    0    0 -0.95705092889E+02 -0.89984772994E+02 -0.20196836076E+02  0.15614997690E+03  0.81964497935E+02 0.  0.
         24    2    1    2    0    0  0.11660033987E+03  0.57719647876E+02 -0.52605973045E+03  0.54595406077E+03  0.66330984225E+02 0.  0.
        -11    1    4    4    0    0  0.30708326376E+02  0.50363936359E+02 -0.24307643049E+03  0.25013132242E+03  0.00000000000E+00 0.  1.
         12    1    4    4    0    0  0.85892013496E+02  0.73557115171E+01 -0.28298329996E+03  0.29582273836E+03  0.00000000000E+00 0. -1.
        -13    1    3    3    0    0 -0.94856112650E+02 -0.58576172858E+02 -0.40644071451E+02  0.11866250746E+03  0.00000000000E+00 0.  1.
         13    1    3    3    0    0 -0.84898023873E+00 -0.31408600136E+02  0.20447235375E+02  0.37487469432E+02  0.00000000000E+00 0. -1.
         21    1    1    2  502  501 -0.20895246982E+02  0.32265125118E+02 -0.18559821794E+03  0.18953719463E+03  0.00000000000E+00 0. -1.
<scales pt_clust_5="13000.00000" pt_clust_6="13000.00000" pt_clust_7="13000.00000" pt_clust_8="13000.00000" pt_clust_9="38.44021"></scales>
<clustering>
<clus scale="   38.440">  2  9  1 -1</clus>
<clus scale="   66.331">  5  6 -1 -1</clus>
<clus scale="   81.964">  7  8 -1 -1</clus>
<clus scale="  146.392">  2  5  1 -1</clus>
<clus scale="   38.440">  2  5  1 -1</clus>
</clustering>
</event>
<event>
 9    2  0.3791909E-005  0.1097219E+03  0.7546771E-02  0.1266701E+00
          2   -1    0    0  502    0  0.00000000000E+00  0.00000000000E+00  0.35136096381E+03  0.35136096381E+03  0.00000000000E+00 0. -1.
         -1   -1    0    0    0  501 -0.00000000000E+00 -0.00000000000E+00 -0.48774847627E+02  0.48774847627E+02  0.00000000000E+00 0.  1.
         23    2    1    2    0    0 -0.37970928813E+02 -0.54131663385E+02  0.55501029934E+02  0.12648014135E+03  0.92438268143E+02 0.  0.
         24    2    1    2    0    0  0.30015255733E+02  0.34898594785E+02  0.15982372571E+03  0.18394642471E+03  0.78573763879E+02 0.  0.
        -11    1    4    4    0    0  0.39724930268E+02  0.11555014018E+02  0.28564362466E+02  0.50274359637E+02  0.00000000000E+00 0.  1.
         12    1    4    4    0    0 -0.97096745354E+01  0.23343580767E+02  0.13125936324E+03  0.13367206508E+03  0.00000000000E+00 0. -1.
        -11    1    3    3    0    0 -0.58775082923E+02 -0.28023090219E+02  0.41686077283E+01  0.65247078466E+02  0.00000000000E+00 0.  1.
         11    1    3    3    0    0  0.20804154110E+02 -0.26108573166E+02  0.51332422206E+02  0.61233062887E+02  0.00000000000E+00 0. -1.
         21    1    1    2  502  501  0.79556730799E+01  0.19233068600E+02  0.87261360539E+02  0.89709245371E+02  0.00000000000E+00 0. -1.
<scales pt_clust_5="13000.00000" pt_clust_6="13000.00000" pt_clust_7="13000.00000" pt_clust_8="13000.00000" pt_clust_9="20.81355"></scales>
<clustering>
<clus scale="   20.814">  1  9  2 -1</clus>
<clus scale="   78.574">  5  6 -1 -1</clus>
<clus scale="   92.438">  7  8 -1 -1</clus>
<clus scale="   98.326">  1  5  2 -1</clus>
<clus scale="   20.814">  1  5  2 -1</clus>
</clustering>
</event>
<event>
 9    2  0.3791909E-005  0.9137503E+02  0.7546771E-02  0.1306207E+00
          2   -1    0    0  502    0  0.00000000000E+00  0.00000000000E+00  0.31016065965E+03  0.31016065965E+03  0.00000000000E+00 0. -1.
         -1   -1    0    0    0  501 -0.00000000000E+00 -0.00000000000E+00 -0.14734956772E+03  0.14734956772E+03  0.00000000000E+00 0.  1.
         23    2    1    2    0    0 -0.79486862351E+01 -0.35978942489E+02 -0.10481108004E+03  0.14380912627E+03  0.91312848958E+02 0.  0.
         24    2    1    2    0    0 -0.38408486596E+01 -0.25653389108E+01  0.26048184086E+03  0.27276653026E+03  0.80805058813E+02 0.  0.
        -13    1    4    4    0    0  0.26182601476E+02  0.23030566053E+02  0.69559759691E+02  0.77810640410E+02  0.00000000000E+00 0.  1.
         14    1    4    4    0    0 -0.30023450136E+02 -0.25595904964E+02  0.19092208117E+03  0.19495588985E+03  0.00000000000E+00 0. -1.
        -11    1    3    3    0    0  0.27368168060E+02  0.12360888294E+02 -0.65868391161E+02  0.72390974137E+02  0.00000000000E+00 0.  1.
         11    1    3    3    0    0 -0.35316854295E+02 -0.48339830784E+02 -0.38942688879E+02  0.71418152137E+02  0.00000000000E+00 0. -1.
         21    1    1    2  502  501  0.11789534895E+02  0.38544281400E+02  0.71403311051E+01  0.40934570841E+02  0.00000000000E+00 0.  1.
<scales pt_clust_5="13000.00000" pt_clust_6="13000.00000" pt_clust_7="13000.00000" pt_clust_8="13000.00000" pt_clust_9="40.30701"></scales>
<clustering>
<clus scale="   40.307">  2  9  1 -1</clus>
<clus scale="   80.805">  5  6 -1 -1</clus>
<clus scale="   80.875">  1  5  2 -1</clus>
<clus scale="   91.313">  7  8 -1 -1</clus>
<clus scale="   80.875">  1  5  2 -1</clus>
</clustering>
</event>
<event>
 9    2  0.3791909E-005  0.9026081E+02  0.7546771E-02  0.1308400E+00
         -1   -1    0    0    0  501 -0.00000000000E+00  0.00000000000E+00  0.48769315764E+02  0.48769315764E+02  0.00000000000E+00 0.  1.
          2   -1    0    0  502    0  0.00000000000E+00 -0.00000000000E+00 -0.60496307301E+03  0.60496307301E+03  0.00000000000E+00 0. -1.
         23    2    1    2    0    0  0.16928372250E+02  0.26358537727E+01 -0.30150045893E+02  0.96569129595E+02  0.90127986837E+02 0.  0.
         24    2    1    2    0    0  0.48393981743E+02  0.28292664594E+02 -0.19441297788E+03  0.21774828225E+03  0.80470218815E+02 0.  0.
        -13    1    4    4    0    0 -0.10908534592E+02  0.19799182948E+02 -0.12051929436E+03  0.12262097734E+03  0.00000000000E+00 0.  1.
         14    1    4    4    0    0  0.59302516335E+02  0.84934816455E+01 -0.73893683518E+02  0.95127304902E+02  0.00000000000E+00 0. -1.
        -13    1    3    3    0    0  0.24473733539E+02 -0.37518415458E+02 -0.32961841043E+02  0.55615448364E+02  0.00000000000E+00 0. -1.
         13    1    3    3    0    0 -0.75453612892E+01  0.40154269231E+02  0.28117951496E+01  0.40953681231E+02  0.00000000000E+00 0.  1.
         21    1    1    2  502  501 -0.65322353992E+02 -0.30928518366E+02 -0.33163073348E+03  0.33941497693E+03  0.00000000000E+00 0.  1.
<scales pt_clust_5="13000.00000" pt_clust_6="13000.00000" pt_clust_7="13000.00000" pt_clust_8="13000.00000" pt_clust_9="72.27436"></scales>
<clustering>
<clus scale="   72.274">  2  9  1 -1</clus>
<clus scale="   80.470">  5  6 -1 -1</clus>
<clus scale="   80.619">  2  5  1 -1</clus>
<clus scale="   90.128">  7  8 -1 -1</clus>
<clus scale="   72.274">  2  5  1 -1</clus>
</clustering>
</event>
<event>
 9    2  0.3791909E-005  0.3895514E+03  0.7546771E-02  0.1096348E+00
          2   -1    0    0  502    0  0.00000000000E+00  0.00000000000E+00  0.82505370389E+03  0.82505370389E+03  0.00000000000E+00 0. -1.
         -1   -1    0    0    0  501 -0.00000000000E+00 -0.00000000000E+00 -0.23629006018E+03  0.23629006018E+03  0.00000000000E+00 0.  1.
         24    2    1    2    0    0 -0.26648917650E+02 -0.56379432924E+02  0.28672477082E+02  0.10614625831E+03  0.80969821184E+02 0.  0.
         23    2    1    2    0    0 -0.24016705803E+03 -0.25589377174E+03  0.27030521891E+03  0.45252344166E+03  0.92470080041E+02 0.  0.
        -13    1    3    3    0    0 -0.45610437254E+02 -0.63189745958E+02  0.98082059800E+01  0.78545890314E+02  0.00000000000E+00 0.  1.
         14    1    3    3    0    0  0.18961519605E+02  0.68103130336E+01  0.18864271102E+02  0.27600367996E+02  0.00000000000E+00 0. -1.
        -11    1    4    4    0    0 -0.22929328921E+03 -0.20244624937E+03  0.24724494634E+03  0.39330644522E+03  0.00000000000E+00 0.  1.
         11    1    4    4    0    0 -0.10873768815E+02 -0.53447522375E+02  0.23060272571E+02  0.59216996440E+02  0.00000000000E+00 0. -1.
         21    1    1    2  502  501  0.26681597568E+03  0.31227320467E+03  0.28978594772E+03  0.50267406411E+03  0.00000000000E+00 0. -1.
<scales pt_clust_5="13000.00000" pt_clust_6="13000.00000" pt_clust_7="13000.00000" pt_clust_8="13000.00000" pt_clust_9="378.41722"></scales>
<clustering>
<clus scale="   80.970">  5  6 -1 -1</clus>
<clus scale="   92.470">  7  8 -1 -1</clus>
<clus scale="  102.200">  2  5  1 -1</clus>
<clus scale="  378.417">  2  9  1 -1</clus>
<clus scale="  389.551">  1  5  2 -1</clus>
</clustering>
</event>
<event>
 9    2  0.3791909E-005  0.1061985E+03  0.7546771E-02  0.1275562E+00
          2   -1    0    0  502    0  0.00000000000E+00  0.00000000000E+00  0.39703253786E+03  0.39703253786E+03  0.00000000000E+00 0. -1.
         -1   -1    0    0    0  501 -0.00000000000E+00 -0.00000000000E+00 -0.48917511322E+02  0.48917511322E+02  0.00000000000E+00 0.  1.
         24    2    1    2    0    0 -0.27959566381E+02 -0.32118057459E+01  0.21379820229E+02  0.88815356714E+02  0.81480168304E+02 0.  0.
         23    2    1    2    0    0  0.42434492266E+02 -0.17358302453E+02  0.30610691555E+03  0.32460502585E+03  0.97800727306E+02 0.  0.
        -11    1    3    3    0    0 -0.54003843740E+02 -0.14169775462E+02  0.23290905984E+02  0.60495156640E+02  0.00000000000E+00 0.  1.
         12    1    3    3    0    0  0.26044277359E+02  0.10957969716E+02 -0.19110857546E+01  0.28320200074E+02  0.00000000000E+00 0. -1.
        -13    1    4    4    0    0 -0.10852936721E+02 -0.32341881832E+02  0.38965289839E+02  0.51788776469E+02  0.00000000000E+00 0.  1.
         13    1    4    4    0    0  0.53287428987E+02  0.14983579379E+02  0.26714162571E+03  0.27281624938E+03  0.00000000000E+00 0. -1.
         21    1    1    2  502  501 -0.14474925885E+02  0.20570108199E+02  0.20628290758E+02  0.32529666619E+02  0.00000000000E+00 0.  1.
<scales pt_clust_5="13000.00000" pt_clust_6="13000.00000" pt_clust_7="13000.00000" pt_clust_8="13000.00000" pt_clust_9="25.15259"></scales>
<clustering>
<clus scale="   25.153">  2  9  1 -1</clus>
<clus scale="   81.480">  5  6 -1 -1</clus>
<clus scale="   91.390">  2  5  1 -1</clus>
<clus scale="   97.801">  7  8 -1 -1</clus>
<clus scale="  106.199">  1  5  2 -1</clus>
</clustering>
</event>
<event>
 9    2  0.3791909E-005  0.1007393E+03  0.7546771E-02  0.1283728E+00
         -1   -1    0    0    0  501 -0.00000000000E+00  0.00000000000E+00  0.29598306207E+02  0.29598306207E+02  0.00000000000E+00 0.  1.
          2   -1    0    0  502    0  0.00000000000E+00 -0.00000000000E+00 -0.44928833792E+03  0.44928833792E+03  0.00000000000E+00 0. -1.
         24    2    1    2    0    0 -0.38225728144E+02  0.25047538031E+02 -0.16120000518E+03  0.18613638615E+03  0.81072357338E+02 0.  0.
         23    2    1    2    0    0  0.99654985621E+01 -0.45601858094E+02 -0.19132169775E+03  0.21703562901E+03  0.91222977394E+02 0.  0.
        -13    1    3    3    0    0  0.15535517522E+01  0.47403699143E+02 -0.83215003287E+02  0.95782362612E+02  0.00000000000E+00 0.  1.
         14    1    3    3    0    0 -0.39779279896E+02 -0.22356161112E+02 -0.77985001896E+02  0.90354023537E+02  0.00000000000E+00 0. -1.
        -11    1    4    4    0    0 -0.31275901531E+02 -0.51750158719E+02 -0.12139046966E+03  0.13561676544E+03  0.00000000000E+00 0. -1.
         11    1    4    4    0    0  0.41241400093E+02  0.61483006252E+01 -0.69931228097E+02  0.81418863572E+02  0.00000000000E+00 0.  1.
         21    1    1    2  502  501  0.28260229582E+02  0.20554320063E+02 -0.67168328773E+02  0.75714628966E+02  0.00000000000E+00 0. -1.
<scales pt_clust_5="13000.00000" pt_clust_6="13000.00000" pt_clust_7="13000.00000" pt_clust_8="13000.00000" pt_clust_9="34.94454"></scales>
<clustering>
<clus scale="   34.945">  2  9  1 -1</clus>
<clus scale="   81.072">  5  6 -1 -1</clus>
<clus scale="   91.223">  7  8 -1 -1</clus>
<clus scale="   91.649">  1  5  2 -1</clus>
<clus scale="   34.945">  2  5  1 -1</clus>
</clustering>
</event>
<event>
 9    2  0.3791909E-005  0.1320889E+03  0.7546771E-02  0.1228441E+00
         -1   -1    0    0    0  501 -0.00000000000E+00  0.00000000000E+00  0.17343177520E+03  0.17343177520E+03  0.00000000000E+00 0.  1.
          2   -1    0    0  502    0  0.00000000000E+00 -0.00000000000E+00 -0.27977061478E+03  0.27977061478E+03  0.00000000000E+00 0. -1.
         24    2    1    2    0    0 -0.62250865735E+02  0.64959656290E+02  0.10917324771E+03  0.16205846419E+03  0.79052011803E+02 0.  0.
         23    2    1    2    0    0  0.10498041652E+03 -0.48685748927E+02 -0.17395923854E+03  0.22935967366E+03  0.94619518216E+02 0.  0.
        -11    1    3    3    0    0 -0.38948890335E+02  0.30417252547E+02  0.10977599702E+03  0.12038685490E+03  0.00000000000E+00 0.  1.
         12    1    3    3    0    0 -0.23301975400E+02  0.34542403743E+02 -0.60274931316E+00  0.41671609288E+02  0.00000000000E+00 0. -1.
        -13    1    4    4    0    0  0.55708370492E+02  0.13543874661E+02 -0.29369873373E+02  0.64416213376E+02  0.00000000000E+00 0.  1.
         13    1    4    4    0    0  0.49272046025E+02 -0.62229623588E+02 -0.14458936516E+03  0.16494346028E+03  0.00000000000E+00 0. -1.
         21    1    1    2  502  501 -0.42729550783E+02 -0.16273907363E+02 -0.41552848757E+02  0.61784252126E+02  0.00000000000E+00 0.  1.
<scales pt_clust_5="13000.00000" pt_clust_6="13000.00000" pt_clust_7="13000.00000" pt_clust_8="13000.00000" pt_clust_9="45.72368"></scales>
<clustering>
<clus scale="   45.724">  2  9  1 -1</clus>
<clus scale="   79.052">  5  6 -1 -1</clus>
<clus scale="   94.620">  7  8 -1 -1</clus>
<clus scale="  121.424">  1  5  2 -1</clus>
<clus scale="   45.724">  2  5  1 -1</clus>
</clustering>
</event>
<event>
 9    2  0.3791909E-005  0.3439106E+03  0.7546771E-02  0.1065650E+00
         -1   -1    0    0    0  501 -0.00000000000E+00  0.00000000000E+00  0.91428891490E+02  0.91428891490E+02  0.00000000000E+00 0.  1.
          2   -1    0    0  502    0  0.00000000000E+00 -0.00000000000E+00 -0.18840964409E+04  0.18840964409E+04  0.00000000000E+00 0. -1.
         23    2    1    2    0    0  0.19813581664E+02 -0.30084771601E+03 -0.36385654419E+03  0.48116600441E+03  0.90703984470E+02 0.  0.
         24    2    1    2    0    0 -0.50508551314E+02  0.33953614374E+03 -0.13840129069E+04  0.14276821563E+04  0.70347042999E+02 0.  0.
        -13    1    4    4    0    0 -0.14229793787E+02  0.41544633492E+02 -0.10308912991E+03  0.11205272111E+03  0.00000000000E+00 0.  1.
         14    1    4    4    0    0 -0.36278757526E+02  0.29799151025E+03 -0.12809237770E+04  0.13156294352E+04  0.00000000000E+00 0. -1.
        -13    1    3    3    0    0  0.40492939301E+02 -0.73814863784E+02 -0.12743768680E+03  0.15273727857E+03  0.00000000000E+00 0. -1.
         13    1    3    3    0    0 -0.20679357637E+02 -0.22703285223E+03 -0.23641885738E+03  0.32842872583E+03  0.00000000000E+00 0.  1.
         21    1    1    2  502  501  0.30694969650E+02 -0.38688427724E+02 -0.44798098300E+02  0.66677171602E+02  0.00000000000E+00 0.  1.
<scales pt_clust_5="13000.00000" pt_clust_6="13000.00000" pt_clust_7="13000.00000" pt_clust_8="13000.00000" pt_clust_9="49.38599"></scales>
<clustering>
<clus scale="   49.386">  1  9  2 -1</clus>
<clus scale="   70.347">  5  6 -1 -1</clus>
<clus scale="   90.704">  7  8 -1 -1</clus>
<clus scale="  339.111">  2  5  1 -1</clus>
<clus scale="  339.111">  2  5  1 -1</clus>
</clustering>
</event>
<event>
 9    2  0.3791909E-005  0.1019584E+03  0.7546771E-02  0.1278748E+00
         -1   -1    0    0    0  501 -0.00000000000E+00  0.00000000000E+00  0.14039134677E+03  0.14039134677E+03  0.00000000000E+00 0.  1.
          2   -1    0    0  502    0  0.00000000000E+00 -0.00000000000E+00 -0.60759507421E+03  0.60759507421E+03  0.00000000000E+00 0. -1.
         24    2    1    2    0    0 -0.57163256453E+02  0.20900045310E+02  0.10272922513E+03  0.14427702759E+03  0.80982203047E+02 0.  0.
         23    2    1    2    0    0 -0.34055481091E+02 -0.30823718912E+02 -0.20268537224E+03  0.22517257533E+03  0.86668628237E+02 0.  0.
        -11    1    3    3    0    0 -0.43150322869E+02  0.26206236973E+02  0.11455663389E+03  0.12518761755E+03  0.00000000000E+00 0.  1.
         12    1    3    3    0    0 -0.14012933584E+02 -0.53061916625E+01 -0.11827408757E+02  0.19089410035E+02  0.00000000000E+00 0. -1.
        -11    1    4    4    0    0 -0.69393272056E+01  0.28733691992E+02 -0.91527947417E+02  0.96182869971E+02  0.00000000000E+00 0.  1.
         11    1    4    4    0    0 -0.27116153886E+02 -0.59557410904E+02 -0.11115742483E+03  0.12898970536E+03  0.00000000000E+00 0. -1.
         21    1    1    2  502  501  0.91218737544E+02  0.99236736019E+01 -0.36724758033E+03  0.37853681807E+03  0.00000000000E+00 0. -1.
<scales pt_clust_5="13000.00000" pt_clust_6="13000.00000" pt_clust_7="13000.00000" pt_clust_8="13000.00000" pt_clust_9="91.75695"></scales>
<clustering>
<clus scale="   80.982">  5  6 -1 -1</clus>
<clus scale="   86.669">  7  8 -1 -1</clus>
<clus scale="   91.757">  2  9  1 -1</clus>
<clus scale="   97.171">  1  5  2 -1</clus>
<clus scale="   91.757">  2  5  1 -1</clus>
</clustering>
</event>
<event>
 9    2  0.3791909E-005  0.1231348E+03  0.7546771E-02  0.1260099E+00
         -1   -1    0    0    0  501 -0.00000000000E+00  0.00000000000E+00  0.11793917390E+03  0.11793917390E+03  0.00000000000E+00 0.  1.
          2   -1    0    0  502    0  0.00000000000E+00 -0.00000000000E+00 -0.79557856610E+03  0.79557856610E+03  0.00000000000E+00 0. -1.
         24    2    1    2    0    0 -0.11228639832E+02  0.10309787995E+02  0.87769192473E+02  0.11818659493E+03  0.77667663750E+02 0.  0.
         23    2    1    2    0    0 -0.27922456025E+02  0.67544477706E+02 -0.29959481461E+03  0.32143604764E+03  0.90676125641E+02 0.  0.
        -13    1    3    3    0    0  0.28198656474E+02  0.21227943891E+02  0.56809986198E+02  0.66881719181E+02  0.00000000000E+00 0.  1.
         14    1    3    3    0    0 -0.39427296307E+02 -0.10918155897E+02  0.30959206275E+02  0.51304875747E+02  0.00000000000E+00 0. -1.
        -13    1    4    4    0    0 -0.48135038543E+02  0.66070394809E+01 -0.90645605841E+02  0.10284581063E+03  0.00000000000E+00 0. -1.
         13    1    4    4    0    0  0.20212582518E+02  0.60937438225E+02 -0.20894920877E+03  0.21859023701E+03  0.00000000000E+00 0.  1.
         21    1    1    2  502  501  0.39151095857E+02 -0.77854265701E+02 -0.46581377006E+03  0.47389509743E+03  0.00000000000E+00 0. -1.
<scales pt_clust_5="13000.00000" pt_clust_6="13000.00000" pt_clust_7="13000.00000" pt_clust_8="13000.00000" pt_clust_9="83.30685"></scales>
<clustering>
<clus scale="   77.668">  5  6 -1 -1</clus>
<clus scale="   79.149">  1  5  2 -1</clus>
<clus scale="   83.307">  2  9  1 -1</clus>
<clus scale="   90.676">  7  8 -1 -1</clus>
<clus scale="   83.307">  2  5  1 -1</clus>
</clustering>
</event>
<event>
 9    2  0.3791909E-005  0.2009904E+03  0.7546771E-02  0.1178461E+00
          2   -1    0    0  502    0  0.00000000000E+00  0.00000000000E+00  0.97525791484E+03  0.97525791484E+03  0.00000000000E+00 0. -1.
         -1   -1    0    0    0  501 -0.00000000000E+00 -0.00000000000E+00 -0.21354447831E+03  0.21354447831E+03  0.00000000000E+00 0.  1.
         23    2    1    2    0    0 -0.17004782947E+03  0.31847115083E+02 -0.10120421452E+03  0.21967847945E+03  0.89921289186E+02 0.  0.
         24    2    1    2    0    0 -0.21446999386E+02  0.51893129333E+02  0.69125383626E+03  0.69865919636E+03  0.84498141201E+02 0.  0.
        -13    1    4    4    0    0  0.48935470326E+01 -0.20711629221E+02  0.90924806044E+02  0.93382218552E+02  0.00000000000E+00 0.  1.
         14    1    4    4    0    0 -0.26340546418E+02  0.72604758554E+02  0.60032903021E+03  0.60527697781E+03  0.00000000000E+00 0. -1.
        -11    1    3    3    0    0 -0.13861827662E+03 -0.13788135660E+02 -0.67183355746E+02  0.15465685432E+03  0.00000000000E+00 0.  1.
         11    1    3    3    0    0 -0.31429552850E+02  0.45635250743E+02 -0.34020858778E+02  0.65021625132E+02  0.00000000000E+00 0. -1.
         21    1    1    2  502  501  0.19149482886E+03 -0.83740244416E+02  0.17166381480E+03  0.27046471734E+03  0.00000000000E+00 0. -1.
<scales pt_clust_5="13000.00000" pt_clust_6="13000.00000" pt_clust_7="13000.00000" pt_clust_8="13000.00000" pt_clust_9="179.75347"></scales>
<clustering>
<clus scale="   84.498">  5  6 -1 -1</clus>
<clus scale="   89.921">  7  8 -1 -1</clus>
<clus scale="  101.453">  1  5  2 -1</clus>
<clus scale="  179.753">  1  9  2 -1</clus>
<clus scale="  101.453">  1  5  2 -1</clus>
</clustering>
</event>
<event>
 9    2  0.3791909E-005  0.1499247E+03  0.7546771E-02  0.1202394E+00
          4   -1    0    0  502    0  0.00000000000E+00  0.00000000000E+00  0.16339589805E+03  0.16339589805E+03  0.00000000000E+00 0. -1.
         -3   -1    0    0    0  501 -0.00000000000E+00 -0.00000000000E+00 -0.22118155504E+03  0.22118155504E+03  0.00000000000E+00 0.  1.
         23    2    1    2    0    0 -0.29734509616E+02 -0.11592894919E+03 -0.13485258257E+03  0.20224167054E+03  0.91612291491E+02 0.  0.
         24    2    1    2    0    0  0.72480241401E+01  0.11669338135E+03  0.68621115056E+02  0.15830334403E+03  0.81738682380E+02 0.  0.
        -11    1    4    4    0    0 -0.28112377581E+01  0.73904928439E+02 -0.32800311524E+01  0.74031075298E+02  0.00000000000E+00 0.  1.
         12    1    4    4    0    0  0.10059261898E+02  0.42788452906E+02  0.71901146208E+02  0.84272268737E+02  0.00000000000E+00 0. -1.
        -13    1    3    3    0    0 -0.55505328962E+02 -0.98459176400E+02 -0.12723842915E+03  0.17019009610E+03  0.00000000000E+00 0. -1.
         13    1    3    3    0    0  0.25770819346E+02 -0.17469772791E+02 -0.76141534264E+01  0.32051574431E+02  0.00000000000E+00 0.  1.
         21    1    1    2  502  501  0.22486485476E+02 -0.76443215428E+00  0.84458105218E+01  0.24032438514E+02  0.00000000000E+00 0.  1.
<scales pt_clust_5="13000.00000" pt_clust_6="13000.00000" pt_clust_7="13000.00000" pt_clust_8="13000.00000" pt_clust_9="22.49948"></scales>
<clustering>
<clus scale="   22.499">  1  9  2 -1</clus>
<clus scale="   81.739">  5  6 -1 -1</clus>
<clus scale="   91.612">  7  8 -1 -1</clus>
<clus scale="  144.103">  1  5  2 -1</clus>
<clus scale="   22.499">  1  5  2 -1</clus>
</clustering>
</event>
<event>
 9    2  0.3791909E-005  0.1203557E+03  0.7546771E-02  0.1248294E+00
          2   -1    0    0  502    0  0.00000000000E+00  0.00000000000E+00  0.44499185777E+03  0.44499185777E+03  0.00000000000E+00 0. -1.
         -1   -1    0    0    0  501 -0.00000000000E+00 -0.00000000000E+00 -0.76644985458E+02  0.76644985458E+02  0.00000000000E+00 0.  1.
         24    2    1    2    0    0 -0.28620926363E+02  0.67796992294E+02 -0.12826482876E+02  0.11154535038E+03  0.82838740560E+02 0.  0.
         23    2    1    2    0    0 -0.74530174103E+00 -0.43332196909E+02  0.23156239977E+03  0.25567536822E+03  0.99350461305E+02 0.  0.
        -13    1    3    3    0    0 -0.59009619193E+01  0.28420959952E+02 -0.46607637573E+02  0.54907596890E+02  0.00000000000E+00 0.  1.
         14    1    3    3    0    0 -0.22719964444E+02  0.39376032342E+02  0.33781154696E+02  0.56637753486E+02  0.00000000000E+00 0. -1.
        -13    1    4    4    0    0  0.44790897627E+02 -0.23829402163E+02  0.16550815088E+03  0.17310982908E+03  0.00000000000E+00 0. -1.
         13    1    4    4    0    0 -0.45536199368E+02 -0.19502794746E+02  0.66054248892E+02  0.82565539134E+02  0.00000000000E+00 0.  1.
         21    1    1    2  502  501  0.29366228104E+02 -0.24464795385E+02  0.14961095541E+03  0.15441612463E+03  0.00000000000E+00 0. -1.
<scales pt_clust_5="13000.00000" pt_clust_6="13000.00000" pt_clust_7="13000.00000" pt_clust_8="13000.00000" pt_clust_9="38.22174"></scales>
<clustering>
<clus scale="   38.222">  1  9  2 -1</clus>
<clus scale="   82.839">  5  6 -1 -1</clus>
<clus scale="   99.350">  7  8 -1 -1</clus>
<clus scale="  107.132">  2  5  1 -1</clus>
<clus scale="   38.222">  1  5  2 -1</clus>
</clustering>
</event>
<event>
 9    2  0.3791909E-005  0.1029841E+03  0.7546771E-02  0.1279347E+00
          2   -1    0    0  502    0  0.00000000000E+00  0.00000000000E+00  0.54002516218E+03  0.54002516218E+03  0.00000000000E+00 0. -1.
         -1   -1    0    0    0  501 -0.00000000000E+00 -0.00000000000E+00 -0.34448310867E+02  0.34448310867E+02  0.00000000000E+00 0.  1.
         23    2    1    2    0    0  0.50714527710E+02 -0.29264390760E+02  0.86077109515E+02  0.13791996685E+03  0.90467013804E+02 0.  0.
         24    2    1    2    0    0 -0.26112370320E+02  0.12770252876E+02  0.23472465884E+03  0.24941945260E+03  0.79179938277E+02 0.  0.
        -13    1    4    4    0    0 -0.30931150041E+02 -0.22511304597E+02  0.60405894124E+02  0.71500817635E+02  0.00000000000E+00 0.  1.
         14    1    4    4    0    0  0.48187797210E+01  0.35281557473E+02  0.17431876472E+03  0.17791863496E+03  0.00000000000E+00 0. -1.
        -11    1    3    3    0    0  0.32681998088E+02  0.12980217515E+02 -0.53819509660E+01  0.35574772549E+02  0.00000000000E+00 0.  1.
         11    1    3    3    0    0  0.18032529622E+02 -0.42244608274E+02  0.91459060481E+02  0.10234519430E+03  0.00000000000E+00 0. -1.
         21    1    1    2  502  501 -0.24602157390E+02  0.16494137884E+02  0.18477508296E+03  0.18713405359E+03  0.00000000000E+00 0. -1.
<scales pt_clust_5="13000.00000" pt_clust_6="13000.00000" pt_clust_7="13000.00000" pt_clust_8="13000.00000" pt_clust_9="29.61963"></scales>
<clustering>
<clus scale="   29.620">  1  9  2 -1</clus>
<clus scale="   79.180">  5  6 -1 -1</clus>
<clus scale="   90.467">  7  8 -1 -1</clus>
<clus scale="   93.225">  1  5  2 -1</clus>
<clus scale="   29.620">  1  5  2 -1</clus>
</clustering>
</event>
<event>
 9    2  0.3791909E-005  0.2969405E+03  0.7546771E-02  0.1087184E+00
         -1   -1    0    0    0  501 -0.00000000000E+00  0.00000000000E+00  0.46114847872E+03  0.46114847872E+03  0.00000000000E+00 0.  1.
          2   -1    0    0  502    0  0.00000000000E+00 -0.00000000000E+00 -0.67175375660E+03  0.67175375660E+03  0.00000000000E+00 0. -1.
         23    2    1    2    0    0 -0.56459625032E+02  0.27490566453E+03  0.35106527618E+03  0.45855547714E+03  0.90914706350E+02 0.  0.
         24    2    1    2    0    0  0.98683907974E+01 -0.30563328960E+03 -0.45577593976E+03  0.55464463043E+03  0.79936637120E+02 0.  0.
        -13    1    4    4    0    0 -0.16444656443E+02 -0.37199581768E+02 -0.29656196901E+02  0.50336126429E+02  0.00000000000E+00 0.  1.
         14    1    4    4    0    0  0.26313047241E+02 -0.26843370784E+03 -0.42611974286E+03  0.50430850400E+03  0.00000000000E+00 0. -1.
        -11    1    3    3    0    0 -0.17165747216E+02  0.23410359588E+03  0.30875755971E+03  0.38785356407E+03  0.00000000000E+00 0.  1.
         11    1    3    3    0    0 -0.39293877816E+02  0.40802068650E+02  0.42307716469E+02  0.70701913077E+02  0.00000000000E+00 0. -1.
         21    1    1    2  502  501  0.46591234235E+02  0.30727625070E+02 -0.10589461430E+03  0.11970212775E+03  0.00000000000E+00 0.  1.
<scales pt_clust_5="13000.00000" pt_clust_6="13000.00000" pt_clust_7="13000.00000" pt_clust_8="13000.00000" pt_clust_9="55.81156"></scales>
<clustering>
<clus scale="   55.812">  2  9  1 -1</clus>
<clus scale="   79.937">  5  6 -1 -1</clus>
<clus scale="   90.915">  7  8 -1 -1</clus>
<clus scale="  293.765">  2  5  1 -1</clus>
<clus scale="   55.812">  2  5  1 -1</clus>
</clustering>
</event>
<event>
 9    2  0.3791909E-005  0.1133265E+03  0.7546771E-02  0.1259108E+00
         -1   -1    0    0    0  501 -0.00000000000E+00  0.00000000000E+00  0.30454738375E+03  0.30454738375E+03  0.00000000000E+00 0.  1.
          2   -1    0    0  502    0  0.00000000000E+00 -0.00000000000E+00 -0.19248290565E+03  0.19248290565E+03  0.00000000000E+00 0. -1.
         24    2    1    2    0    0  0.32261881948E+02  0.77979320109E+02  0.23848704984E+03  0.26532756529E+03  0.80006503283E+02 0.  0.
         23    2    1    2    0    0 -0.54521816065E+02 -0.35907775270E+02 -0.14208675909E+03  0.18159397919E+03  0.92334876500E+02 0.  0.
        -11    1    3    3    0    0  0.25576128356E+02  0.85909559719E+02  0.23867682731E+03  0.25495336571E+03  0.00000000000E+00 0.  1.
         12    1    3    3    0    0  0.66857535919E+01 -0.79302396098E+01 -0.18977746791E+00  0.10374199576E+02  0.00000000000E+00 0. -1.
        -13    1    4    4    0    0 -0.55244839868E+02  0.10815519766E+01 -0.28578127268E+02  0.62208290805E+02  0.00000000000E+00 0.  1.
         13    1    4    4    0    0  0.72302380311E+00 -0.36989327247E+02 -0.11350863182E+03  0.11938568839E+03  0.00000000000E+00 0. -1.
         21    1    1    2  502  501  0.22259934116E+02 -0.42071544839E+02  0.15664187345E+02  0.50108744917E+02  0.00000000000E+00 0. -1.
<scales pt_clust_5="13000.00000" pt_clust_6="13000.00000" pt_clust_7="13000.00000" pt_clust_8="13000.00000" pt_clust_9="47.59747"></scales>
<clustering>
<clus scale="   47.597">  1  9  2 -1</clus>
<clus scale="   80.007">  5  6 -1 -1</clus>
<clus scale="   92.335">  7  8 -1 -1</clus>
<clus scale="  103.529">  1  5  2 -1</clus>
<clus scale="  113.327">  2  5  1 -1</clus>
</clustering>
</event>
<event>
 9    2  0.3791909E-005  0.9233570E+02  0.7546771E-02  0.1304408E+00
          2   -1    0    0  502    0  0.00000000000E+00  0.00000000000E+00  0.78032750811E+02  0.78032750811E+02  0.00000000000E+00 0. -1.
         -1   -1    0    0    0  501 -0.00000000000E+00 -0.00000000000E+00 -0.27531099962E+03  0.27531099962E+03  0.00000000000E+00 0.  1.
         24    2    1    2    0    0  0.20039020949E+02  0.78199005405E+01 -0.15200996750E+03  0.17310472893E+03  0.79971893525E+02 0.  0.
         23    2    1    2    0    0  0.46215288863E+02 -0.20981642380E+02 -0.13020425831E+02  0.10538723996E+03  0.91437719876E+02 0.  0.
        -13    1    3    3    0    0 -0.30023741217E+02 -0.65465174205E+01 -0.55849102214E+02  0.63744836223E+02  0.00000000000E+00 0.  1.
         14    1    3    3    0    0  0.50062762165E+02  0.14366417961E+02 -0.96160865281E+02  0.10935989270E+03  0.00000000000E+00 0. -1.
        -11    1    4    4    0    0  0.72590792813E+02 -0.21424170816E+02 -0.19634197845E+02  0.78191559784E+02  0.00000000000E+00 0. -1.
         11    1    4    4    0    0 -0.26375503950E+02  0.44252843589E+00  0.66137720144E+01  0.27195680177E+02  0.00000000000E+00 0.  1.
         21    1    1    2  502  501 -0.66254309811E+02  0.13161741839E+02 -0.32247855482E+02  0.74851781542E+02  0.00000000000E+00 0.  1.
<scales pt_clust_5="13000.00000" pt_clust_6="13000.00000" pt_clust_7="13000.00000" pt_clust_8="13000.00000" pt_clust_9="67.54898"></scales>
<clustering>
<clus scale="   67.549">  1  9  2 -1</clus>
<clus scale="   79.972">  5  6 -1 -1</clus>
<clus scale="   80.997">  2  5  1 -1</clus>
<clus scale="   91.438">  7  8 -1 -1</clus>
<clus scale="   67.549">  1  5  2 -1</clus>
</clustering>
</event>
<event>
 9    2  0.3791909E-005  0.9113849E+02  0.7546771E-02  0.1306605E+00
          2   -1    0    0  502    0  0.00000000000E+00  0.00000000000E+00  0.17349370784E+03  0.17349370784E+03  0.00000000000E+00 0. -1.
         -1   -1    0    0    0  501 -0.00000000000E+00 -0.00000000000E+00 -0.11649760090E+03  0.11649760090E+03  0.00000000000E+00 0.  1.
         23    2    1    2    0    0  0.11103268166E+02  0.86775448894E+01 -0.66611362761E+02  0.11353186486E+03  0.90850582493E+02 0.  0.
         24    2    1    2    0    0  0.10288917931E+02  0.77448754400E+01  0.44665215029E+02  0.93037617669E+02  0.80592629565E+02 0.  0.
        -13    1    4    4    0    0  0.96275567004E+01  0.37577342651E+02 -0.63069052461E+00  0.38796189236E+02  0.00000000000E+00 0.  1.
         14    1    4    4    0    0  0.66136123031E+00 -0.29832467211E+02  0.45295905554E+02  0.54241428433E+02  0.00000000000E+00 0. -1.
        -13    1    3    3    0    0  0.85394249406E+01  0.42077569695E+02 -0.67527231946E+02  0.80021064127E+02  0.00000000000E+00 0.  1.
         13    1    3    3    0    0  0.25638432254E+01 -0.33400024805E+02  0.91586918544E+00  0.33510800728E+02  0.00000000000E+00 0. -1.
         21    1    1    2  502  501 -0.21392186097E+02 -0.16422420329E+02  0.78942254672E+02  0.83421826209E+02  0.00000000000E+00 0.  1.
<scales pt_clust_5="13000.00000" pt_clust_6="13000.00000" pt_clust_7="13000.00000" pt_clust_8="13000.00000" pt_clust_9="26.96890"></scales>
<clustering>
<clus scale="   26.969">  1  9  2 -1</clus>
<clus scale="   80.593">  5  6 -1 -1</clus>
<clus scale="   80.917">  1  5  2 -1</clus>
<clus scale="   90.851">  7  8 -1 -1</clus>
<clus scale="   26.969">  1  5  2 -1</clus>
</clustering>
</event>
<event>
 9    2  0.3791909E-005  0.1083036E+03  0.7546771E-02  0.1270301E+00
         -3   -1    0    0    0  501 -0.00000000000E+00  0.00000000000E+00  0.58484911110E+03  0.58484911110E+03  0.00000000000E+00 0.  1.
          4   -1    0    0  502    0  0.00000000000E+00 -0.00000000000E+00 -0.28608477367E+02  0.28608477367E+02  0.00000000000E+00 0. -1.
         23    2    1    2    0    0 -0.54721316844E+02 -0.10747716463E+02  0.43051526916E+03  0.44440742053E+03  0.95103220283E+02 0.  0.
         24    2    1    2    0    0  0.43577124176E+02 -0.76522397875E+01  0.10363711307E+03  0.13821768062E+03  0.80037200754E+02 0.  0.
        -13    1    4    4    0    0  0.46561559316E+02  0.55366266937E+01  0.11261472996E+03  0.12198651747E+03  0.00000000000E+00 0.  1.
         14    1    4    4    0    0 -0.29844351397E+01 -0.13188866481E+02 -0.89776168864E+01  0.16231163147E+02  0.00000000000E+00 0. -1.
        -13    1    3    3    0    0 -0.35333368033E+02 -0.51875682715E+02  0.20666532106E+03  0.21598631504E+03  0.00000000000E+00 0. -1.
         13    1    3    3    0    0 -0.19387948812E+02  0.41127966252E+02  0.22384994810E+03  0.22842110549E+03  0.00000000000E+00 0.  1.
         21    1    1    2  502  501  0.11144192668E+02  0.18399956250E+02  0.22088251493E+02  0.30832487318E+02  0.00000000000E+00 0. -1.
<scales pt_clust_5="13000.00000" pt_clust_6="13000.00000" pt_clust_7="13000.00000" pt_clust_8="13000.00000" pt_clust_9="21.51166"></scales>
<clustering>
<clus scale="   21.512">  2  9  1 -1</clus>
<clus scale="   80.037">  5  6 -1 -1</clus>
<clus scale="   95.103">  7  8 -1 -1</clus>
<clus scale="   95.347">  2  5  1 -1</clus>
<clus scale="   21.512">  2  5  1 -1</clus>
</clustering>
</event>
<event>
 9    2  0.3791909E-005  0.9116403E+02  0.7546771E-02  0.1307322E+00
         -1   -1    0    0    0  501 -0.00000000000E+00  0.00000000000E+00  0.40629038654E+03  0.40629038654E+03  0.00000000000E+00 0.  1.
          2   -1    0    0  502    0  0.00000000000E+00 -0.00000000000E+00 -0.11672645542E+03  0.11672645542E+03  0.00000000000E+00 0. -1.
         24    2    1    2    0    0  0.56120974715E+00  0.18911542454E+01  0.32961113758E+03  0.33912243077E+03  0.79728474275E+02 0.  0.
         23    2    1    2    0    0  0.48473041927E+02 -0.21542684170E+02 -0.66676051677E+02  0.12473669095E+03  0.91103365296E+02 0.  0.
        -11    1    3    3    0    0 -0.36801542065E+02  0.14656939850E+02  0.14335797635E+03  0.14873025505E+03  0.00000000000E+00 0.  1.
         12    1    3    3    0    0  0.37362751813E+02 -0.12765785604E+02  0.18625316124E+03  0.19039217572E+03  0.00000000000E+00 0. -1.
        -11    1    4    4    0    0  0.25724304901E+01  0.21581498879E+02  0.11305276452E+02  0.24498729929E+02  0.00000000000E+00 0.  1.
         11    1    4    4    0    0  0.45900611436E+02 -0.43124183049E+02 -0.77981328129E+02  0.10023796103E+03  0.00000000000E+00 0. -1.
         21    1    1    2  502  501 -0.49034251674E+02  0.19651529925E+02  0.26628845217E+02  0.59157720233E+02  0.00000000000E+00 0.  1.
<scales pt_clust_5="13000.00000" pt_clust_6="13000.00000" pt_clust_7="13000.00000" pt_clust_8="13000.00000" pt_clust_9="52.82557"></scales>
<clustering>
<clus scale="   52.826">  2  9  1 -1</clus>
<clus scale="   79.728">  5  6 -1 -1</clus>
<clus scale="   79.798">  1  5  2 -1</clus>
<clus scale="   91.103">  7  8 -1 -1</clus>
<clus scale="   52.826">  2  5  1 -1</clus>
</clustering>
</event>
<event>
 9    2  0.3791909E-005  0.1497839E+03  0.7546771E-02  0.1202753E+00
          2   -1    0    0  502    0  0.00000000000E+00  0.00000000000E+00  0.28759804689E+03  0.28759804689E+03  0.00000000000E+00 0. -1.
         -1   -1    0    0    0  501 -0.00000000000E+00 -0.00000000000E+00 -0.21061279626E+03  0.21061279626E+03  0.00000000000E+00 0.  1.
         24    2    1    2    0    0  0.95552527913E+02  0.56737420791E+02 -0.11303510560E+03  0.17810300479E+03  0.81205447518E+02 0.  0.
         23    2    1    2    0    0 -0.13463113723E+03 -0.54270704018E+02  0.56427714358E+02  0.18089499283E+03  0.92022057444E+02 0.  0.
        -11    1    3    3    0    0  0.81654654093E+02  0.85422444070E+01 -0.93095994854E+02  0.12412621291E+03  0.00000000000E+00 0.  1.
         12    1    3    3    0    0  0.13897873820E+02  0.48195176384E+02 -0.19939110751E+02  0.53976791873E+02  0.00000000000E+00 0. -1.
        -13    1    4    4    0    0 -0.37768117860E+02  0.14789703334E+02  0.46224570531E+02  0.61496967179E+02  0.00000000000E+00 0. -1.
         13    1    4    4    0    0 -0.96863019374E+02 -0.69060407351E+02  0.10203143827E+02  0.11939802565E+03  0.00000000000E+00 0.  1.
         21    1    1    2  502  501  0.39078609321E+02 -0.24667167734E+01  0.13359264188E+03  0.13921284554E+03  0.00000000000E+00 0. -1.
<scales pt_clust_5="13000.00000" pt_clust_6="13000.00000" pt_clust_7="13000.00000" pt_clust_8="13000.00000" pt_clust_9="39.15638"></scales>
<clustering>
<clus scale="   39.156">  1  9  2 -1</clus>
<clus scale="   81.205">  5  6 -1 -1</clus>
<clus scale="   92.022">  7  8 -1 -1</clus>
<clus scale="  143.393">  2  5  1 -1</clus>
<clus scale="   39.156">  1  5  2 -1</clus>
</clustering>
</event>
<event>
 9    2  0.3791909E-005  0.2904481E+03  0.7546771E-02  0.1090471E+00
         -1   -1    0    0    0  501 -0.00000000000E+00  0.00000000000E+00  0.10022686175E+04  0.10022686175E+04  0.00000000000E+00 0.  1.
          2   -1    0    0  502    0  0.00000000000E+00 -0.00000000000E+00 -0.29707681243E+03  0.29707681243E+03  0.00000000000E+00 0. -1.
         23    2    1    2    0    0  0.97382800783E+02 -0.26691461181E+03  0.87765962048E+03  0.92682937372E+03  0.89439693000E+02 0.  0.
         24    2    1    2    0    0 -0.49888474200E+02  0.22160852983E+03 -0.70052612733E+02  0.25087220777E+03  0.80189124750E+02 0.  0.
        -11    1    4    4    0    0 -0.90569239900E+01  0.23466739139E+02 -0.38693671451E+02  0.46151012214E+02  0.00000000000E+00 0.  1.
         12    1    4    4    0    0 -0.40831550210E+02  0.19814179069E+03 -0.31358941282E+02  0.20472119555E+03  0.00000000000E+00 0. -1.
        -11    1    3    3    0    0  0.27645040958E+02 -0.12159471676E+02  0.54196226204E+02  0.62042984904E+02  0.00000000000E+00 0. -1.
         11    1    3    3    0    0  0.69737759824E+02 -0.25475514013E+03  0.82346339428E+03  0.86478638882E+03  0.00000000000E+00 0.  1.
         21    1    1    2  502  501 -0.47494326583E+02  0.45306081976E+02 -0.10241520269E+03  0.12164384844E+03  0.00000000000E+00 0.  1.
<scales pt_clust_5="13000.00000" pt_clust_6="13000.00000" pt_clust_7="13000.00000" pt_clust_8="13000.00000" pt_clust_9="65.63804"></scales>
<clustering>
<clus scale="   65.638">  2  9  1 -1</clus>
<clus scale="   80.189">  5  6 -1 -1</clus>
<clus scale="   89.440">  7  8 -1 -1</clus>
<clus scale="  287.734">  2  5  1 -1</clus>
<clus scale="   65.638">  2  5  1 -1</clus>
</clustering>
</event>
<event>
 9    2  0.3791909E-005  0.1137393E+03  0.7546771E-02  0.1258089E+00
         -1   -1    0    0    0  501 -0.00000000000E+00  0.00000000000E+00  0.11614167106E+03  0.11614167106E+03  0.00000000000E+00 0.  1.
          2   -1    0    0  502    0  0.00000000000E+00 -0.00000000000E+00 -0.15413977061E+03  0.15413977061E+03  0.00000000000E+00 0. -1.
         23    2    1    2    0    0  0.57532401224E+02 -0.46419825525E+02  0.39558612465E+02  0.12502638736E+03  0.92746624331E+02 0.  0.
         24    2    1    2    0    0 -0.36533184326E+02  0.30862632445E+02 -0.71978658140E+02  0.11853225408E+03  0.81128246571E+02 0.  0.
        -11    1    4    4    0    0 -0.37754982189E+02 -0.16135640876E+02 -0.12915473701E+02  0.43041921977E+02  0.00000000000E+00 0.  1.
         12    1    4    4    0    0  0.12217978624E+01  0.46998273322E+02 -0.59063184439E+02  0.75490332105E+02  0.00000000000E+00 0. -1.
        -11    1    3    3    0    0  0.15384319605E+02 -0.62991363510E+02 -0.76997886425E-01  0.64842849222E+02  0.00000000000E+00 0.  1.
         11    1    3    3    0    0  0.42148081619E+02  0.16571537985E+02  0.39635610351E+02  0.60183538141E+02  0.00000000000E+00 0. -1.
         21    1    1    2  502  501 -0.20999216897E+02  0.15557193080E+02 -0.55780538687E+01  0.26722800224E+02  0.00000000000E+00 0.  1.
<scales pt_clust_5="13000.00000" pt_clust_6="13000.00000" pt_clust_7="13000.00000" pt_clust_8="13000.00000" pt_clust_9="26.13414"></scales>
<clustering>
<clus scale="   26.134">  2  9  1 -1</clus>
<clus scale="   81.128">  5  6 -1 -1</clus>
<clus scale="   92.747">  7  8 -1 -1</clus>
<clus scale="  104.482">  2  5  1 -1</clus>
<clus scale="   26.134">  2  5  1 -1</clus>
</clustering>
</event>
<event>
 9    2  0.3791909E-005  0.2102303E+03  0.7546771E-02  0.1141703E+00
         -1   -1    0    0    0  501 -0.00000000000E+00  0.00000000000E+00  0.56035724869E+03  0.56035724869E+03  0.00000000000E+00 0.  1.
          2   -1    0    0  502    0  0.00000000000E+00 -0.00000000000E+00 -0.37291380378E+03  0.37291380378E+03  0.00000000000E+00 0. -1.
         23    2    1    2    0    0 -0.18696551060E+03 -0.28418590023E+02  0.49163135536E+03  0.53439165417E+03  0.90051829807E+02 0.  0.
         24    2    1    2    0    0  0.20111271845E+03  0.10022257308E+02 -0.21579299916E+03  0.30748886875E+03  0.86232330124E+02 0.  0.
        -13    1    4    4    0    0  0.27675770741E+02 -0.28592723396E+02 -0.26173690341E+02  0.47629341622E+02  0.00000000000E+00 0.  1.
         14    1    4    4    0    0  0.17343694771E+03  0.38614980704E+02 -0.18961930882E+03  0.25985952713E+03  0.00000000000E+00 0. -1.
        -11    1    3    3    0    0 -0.52592553775E+02 -0.19408334909E+02  0.59448783709E+02  0.81711798787E+02  0.00000000000E+00 0. -1.
         11    1    3    3    0    0 -0.13437295683E+03 -0.90102551143E+01  0.43218257165E+03  0.45267985538E+03  0.00000000000E+00 0.  1.
         21    1    1    2  502  501 -0.14147207845E+02  0.18396332715E+02 -0.88394911294E+02  0.91390529542E+02  0.00000000000E+00 0.  1.
<scales pt_clust_5="13000.00000" pt_clust_6="13000.00000" pt_clust_7="13000.00000" pt_clust_8="13000.00000" pt_clust_9="23.20708"></scales>
<clustering>
<clus scale="   23.207">  2  9  1 -1</clus>
<clus scale="   86.232">  5  6 -1 -1</clus>
<clus scale="   90.052">  7  8 -1 -1</clus>
<clus scale="  208.623">  2  5  1 -1</clus>
<clus scale="   23.207">  2  5  1 -1</clus>
</clustering>
</event>
<event>
 9    2  0.3791909E-005  0.9546292E+02  0.7546771E-02  0.1297615E+00
          2   -1    0    0  502    0  0.00000000000E+00  0.00000000000E+00  0.25638405544E+03  0.25638405544E+03  0.00000000000E+00 0. -1.
         -1   -1    0    0    0  501 -0.00000000000E+00 -0.00000000000E+00 -0.20300710231E+03  0.20300710231E+03  0.00000000000E+00 0.  1.
         24    2    1    2    0    0  0.14242542236E+02  0.12470595272E+02 -0.17822498258E+03  0.19654173793E+03  0.80660675528E+02 0.  0.
         23    2    1    2    0    0 -0.22960679731E+02 -0.33256468483E+02  0.19048824708E+03  0.21596238708E+03  0.93385196087E+02 0.  0.
        -11    1    3    3    0    0 -0.17848672895E+02  0.33993559361E+02 -0.12503994633E+03  0.13080185542E+03  0.00000000000E+00 0.  1.
         12    1    3    3    0    0  0.32091215131E+02 -0.21522964090E+02 -0.53185036251E+02  0.65739882513E+02  0.00000000000E+00 0. -1.
        -11    1    4    4    0    0  0.34680855436E+02 -0.14277297166E+02  0.46722628518E+02  0.59913328766E+02  0.00000000000E+00 0.  1.
         11    1    4    4    0    0 -0.57641535168E+02 -0.18979171317E+02  0.14376561856E+03  0.15604905831E+03  0.00000000000E+00 0. -1.
         21    1    1    2  502  501  0.87181374952E+01  0.20785873212E+02  0.41113688631E+02  0.46887032743E+02  0.00000000000E+00 0. -1.
<scales pt_clust_5="13000.00000" pt_clust_6="13000.00000" pt_clust_7="13000.00000" pt_clust_8="13000.00000" pt_clust_9="22.54015"></scales>
<clustering>
<clus scale="   22.540">  1  9  2 -1</clus>
<clus scale="   80.661">  5  6 -1 -1</clus>
<clus scale="   83.057">  2  5  1 -1</clus>
<clus scale="   93.385">  7  8 -1 -1</clus>
<clus scale="   22.540">  1  5  2 -1</clus>
</clustering>
</event>
<event>
 9    2  0.3791909E-005  0.1303397E+03  0.7546771E-02  0.1229766E+00
         -1   -1    0    0    0  501 -0.00000000000E+00  0.00000000000E+00  0.24179490013E+03  0.24179490013E+03  0.00000000000E+00 0.  1.
          2   -1    0    0  502    0  0.00000000000E+00 -0.00000000000E+00 -0.26592722419E+03  0.26592722419E+03  0.00000000000E+00 0. -1.
         24    2    1    2    0    0 -0.11915518618E+02 -0.92730523150E+02  0.20036901310E+03  0.23579601231E+03  0.81921233519E+02 0.  0.
         23    2    1    2    0    0  0.22170891021E+02  0.73049899330E+02 -0.13928569139E+03  0.18386814302E+03  0.92623722620E+02 0.  0.
        -13    1    3    3    0    0  0.30480412917E+01 -0.10493398288E+03  0.17071396624E+03  0.20040880616E+03  0.00000000000E+00 0.  1.
         14    1    3    3    0    0 -0.14963559910E+02  0.12203459725E+02  0.29655046864E+02  0.35387206148E+02  0.00000000000E+00 0. -1.
        -11    1    4    4    0    0  0.48625393635E+02  0.76249302436E+02 -0.12289668702E+03  0.15258433966E+03  0.00000000000E+00 0. -1.
         11    1    4    4    0    0 -0.26454502614E+02 -0.31994031057E+01 -0.16389004369E+02  0.31283803365E+02  0.00000000000E+00 0.  1.
         21    1    1    2  502  501 -0.10255372403E+02  0.19680623819E+02 -0.85215645781E+02  0.88057968992E+02  0.00000000000E+00 0. -1.
<scales pt_clust_5="13000.00000" pt_clust_6="13000.00000" pt_clust_7="13000.00000" pt_clust_8="13000.00000" pt_clust_9="22.19233"></scales>
<clustering>
<clus scale="   22.192">  2  9  1 -1</clus>
<clus scale="   81.921">  5  6 -1 -1</clus>
<clus scale="   92.624">  7  8 -1 -1</clus>
<clus scale="  122.965">  1  5  2 -1</clus>
<clus scale="   22.192">  2  5  1 -1</clus>
</clustering>
</event>
<event>
 9    2  0.3791909E-005  0.1277564E+03  0.7546771E-02  0.1233560E+00
          2   -1    0    0  502    0  0.00000000000E+00  0.00000000000E+00  0.18180829124E+03  0.18180829124E+03  0.00000000000E+00 0. -1.
         -1   -1    0    0    0  501 -0.00000000000E+00 -0.00000000000E+00 -0.17776007857E+03  0.17776007857E+03  0.00000000000E+00 0.  1.
         23    2    1    2    0    0 -0.61685453107E+01 -0.10197278074E+03 -0.10810392482E+03  0.17402917232E+03  0.90350402846E+02 0.  0.
         24    2    1    2    0    0 -0.99224133553E+01  0.58272125256E+02  0.63094596039E+02  0.11789816990E+03  0.80155820426E+02 0.  0.
        -13    1    4    4    0    0 -0.26265598357E+02 -0.79878917864E+01  0.42385032846E+01  0.27778642557E+02  0.00000000000E+00 0.  1.
         14    1    4    4    0    0  0.16343185002E+02  0.66260017042E+02  0.58856092755E+02  0.90119527344E+02  0.00000000000E+00 0. -1.
        -11    1    3    3    0    0 -0.64494333500E+00 -0.65851262631E+02 -0.66430554393E+01  0.66188631408E+02  0.00000000000E+00 0. -1.
         11    1    3    3    0    0 -0.55236019757E+01 -0.36121518107E+02 -0.10146086938E+03  0.10784054091E+03  0.00000000000E+00 0.  1.
         21    1    1    2  502  501  0.16090958666E+02  0.43700655483E+02  0.49057541451E+02  0.67641027591E+02  0.00000000000E+00 0. -1.
<scales pt_clust_5="13000.00000" pt_clust_6="13000.00000" pt_clust_7="13000.00000" pt_clust_8="13000.00000" pt_clust_9="46.56894"></scales>
<clustering>
<clus scale="   46.569">  1  9  2 -1</clus>
<clus scale="   80.156">  5  6 -1 -1</clus>
<clus scale="   90.350">  7  8 -1 -1</clus>
<clus scale="  120.762">  1  5  2 -1</clus>
<clus scale="   46.569">  1  5  2 -1</clus>
</clustering>
</event>
<event>
 9    2  0.3791909E-005  0.1018504E+03  0.7546771E-02  0.1285208E+00
          2   -1    0    0  502    0  0.00000000000E+00  0.00000000000E+00  0.14520823148E+03  0.14520823148E+03  0.00000000000E+00 0. -1.
         -1   -1    0    0    0  501 -0.00000000000E+00 -0.00000000000E+00 -0.12233831308E+03  0.12233831308E+03  0.00000000000E+00 0.  1.
         23    2    1    2    0    0 -0.19897139526E+02  0.21319645951E+02 -0.66492648927E+02  0.12124345763E+03  0.97099331574E+02 0.  0.
         24    2    1    2    0    0  0.40910074126E+02 -0.78021299259E+01  0.66861761239E+02  0.11267939090E+03  0.80570730552E+02 0.  0.
        -11    1    4    4    0    0 -0.20240270188E+02 -0.57353914851E+01 -0.13086571897E+01  0.21077851798E+02  0.00000000000E+00 0.  1.
         12    1    4    4    0    0  0.61150344314E+02 -0.20667384407E+01  0.68170418429E+02  0.91601539104E+02  0.00000000000E+00 0. -1.
        -11    1    3    3    0    0  0.15875901754E+02 -0.18797611816E+02 -0.62705241002E+02  0.67359793019E+02  0.00000000000E+00 0.  1.
         11    1    3    3    0    0 -0.35773041279E+02  0.40117257767E+02 -0.37874079246E+01  0.53883664611E+02  0.00000000000E+00 0. -1.
         21    1    1    2  502  501 -0.21012934601E+02 -0.13517516025E+02  0.22500806092E+02  0.33623696032E+02  0.00000000000E+00 0.  1.
<scales pt_clust_5="13000.00000" pt_clust_6="13000.00000" pt_clust_7="13000.00000" pt_clust_8="13000.00000" pt_clust_9="24.98533"></scales>
<clustering>
<clus scale="   24.985">  1  9  2 -1</clus>
<clus scale="   80.571">  5  6 -1 -1</clus>
<clus scale="   86.237">  1  5  2 -1</clus>
<clus scale="   97.099">  7  8 -1 -1</clus>
<clus scale="   24.985">  1  5  2 -1</clus>
</clustering>
</event>
<event>
 9    2  0.4252623E-005  0.9306472E+02  0.7546771E-02  0.1307946E+00
         -1   -1    0    0    0  501 -0.00000000000E+00  0.00000000000E+00  0.64328439912E+02  0.64328439912E+02  0.00000000000E+00 0.  1.
          2   -1    0    0  502    0  0.00000000000E+00 -0.00000000000E+00 -0.11067158926E+04  0.11067158926E+04  0.00000000000E+00 0. -1.
         23    2    1    2    0    0 -0.15749624322E+02 -0.45199575682E+01  0.26483393357E+02  0.96893855691E+02  0.91752757257E+02 0.  0.
         24    2    1    2    0    0 -0.10062352509E+02  0.17274735465E+02 -0.86381498140E+03  0.86708321690E+03  0.72507347983E+02 0.  0.
        -13    1    4    4    0    0 -0.28429024192E+02  0.10496318171E+02 -0.15160452978E+03  0.15460373722E+03  0.00000000000E+00 0.  1.
         14    1    4    4    0    0  0.18366671683E+02  0.67784172933E+01 -0.71221045161E+03  0.71247947967E+03  0.00000000000E+00 0. -1.
        -13    1    3    3    0    0 -0.50508244880E+02 -0.20780580592E+02  0.18776294029E+02  0.57753480830E+02  0.00000000000E+00 0.  1.
         13    1    3    3    0    0  0.34758620557E+02  0.16260623023E+02  0.77070993280E+01  0.39140374860E+02  0.00000000000E+00 0. -1.
         21    1    1    2  502  501  0.25811976832E+02 -0.12754777896E+02 -0.20505586469E+03  0.20706725997E+03  0.00000000000E+00 0. -1.
<scales pt_clust_5="13000.00000" pt_clust_6="13000.00000" pt_clust_7="13000.00000" pt_clust_8="13000.00000" pt_clust_9="28.79136"></scales>
<clustering>
<clus scale="   28.791">  2  9  1 -1</clus>
<clus scale="   72.507">  5  6 -1 -1</clus>
<clus scale="   74.161">  2  5  1 -1</clus>
<clus scale="   91.753">  7  8 -1 -1</clus>
<clus scale="   28.791">  2  5  1 -1</clus>
</clustering>
</event>
<event>
 9    2  0.3791909E-005  0.1624895E+03  0.7546771E-02  0.1187066E+00
         -1   -1    0    0    0  501 -0.00000000000E+00  0.00000000000E+00  0.46406704759E+03  0.46406704759E+03  0.00000000000E+00 0.  1.
          2   -1    0    0  502    0  0.00000000000E+00 -0.00000000000E+00 -0.12736990984E+03  0.12736990984E+03  0.00000000000E+00 0. -1.
         23    2    1    2    0    0  0.84525138137E+02 -0.10321404021E+03  0.34207961941E+03  0.37824063162E+03  0.90828807752E+02 0.  0.
         24    2    1    2    0    0 -0.11024543676E+03  0.89552764922E+02  0.30021049856E+02  0.16735339563E+03  0.83259483316E+02 0.  0.
        -11    1    4    4    0    0 -0.45515473486E+02  0.82639442025E+02  0.38116950444E+02  0.10175380885E+03  0.00000000000E+00 0.  1.
         12    1    4    4    0    0 -0.64729963271E+02  0.69133228971E+01 -0.80959005880E+01  0.65599586773E+02  0.00000000000E+00 0. -1.
        -11    1    3    3    0    0  0.33675163713E+02  0.94824568820E+01  0.49545861027E+02  0.60652501882E+02  0.00000000000E+00 0.  1.
         11    1    3    3    0    0  0.50849974424E+02 -0.11269649709E+03  0.29253375839E+03  0.31758812974E+03  0.00000000000E+00 0. -1.
         21    1    1    2  502  501  0.25720298620E+02  0.13661275289E+02 -0.35403531517E+02  0.45842930180E+02  0.00000000000E+00 0.  1.
<scales pt_clust_5="13000.00000" pt_clust_6="13000.00000" pt_clust_7="13000.00000" pt_clust_8="13000.00000" pt_clust_9="29.12326"></scales>
<clustering>
<clus scale="   29.123">  2  9  1 -1</clus>
<clus scale="   83.259">  5  6 -1 -1</clus>
<clus scale="   90.829">  7  8 -1 -1</clus>
<clus scale="  158.383">  2  5  1 -1</clus>
<clus scale="   29.123">  2  5  1 -1</clus>
</clustering>
</event>
<event>
 9    2  0.3791909E-005  0.1146939E+03  0.7546771E-02  0.1254678E+00
          2   -1    0    0  502    0  0.00000000000E+00  0.00000000000E+00  0.95656517674E+02  0.95656517674E+02  0.00000000000E+00 0. -1.
         -1   -1    0    0    0  501 -0.00000000000E+00 -0.00000000000E+00 -0.54477013286E+03  0.54477013286E+03  0.00000000000E+00 0.  1.
         24    2    1    2    0    0 -0.20929036438E+02  0.18876463756E+01 -0.39597247521E+03  0.40510232747E+03  0.82898171440E+02 0.  0.
         23    2    1    2    0    0  0.12352869467E+02 -0.77440554888E+02  0.29373900282E+02  0.12311681665E+03  0.90251269240E+02 0.  0.
        -11    1    3    3    0    0 -0.41566273149E+02 -0.13813849391E+02 -0.11705140795E+03  0.12497843655E+03  0.00000000000E+00 0.  1.
         12    1    3    3    0    0  0.20637236711E+02  0.15701495767E+02 -0.27892106726E+03  0.28012389093E+03  0.00000000000E+00 0. -1.
        -13    1    4    4    0    0 -0.26417106332E+02 -0.76312003085E+02  0.20892937702E+02  0.83414028603E+02  0.00000000000E+00 0.  1.
         13    1    4    4    0    0  0.38769975800E+02 -0.11285518028E+01  0.84809625796E+01  0.39702788050E+02  0.00000000000E+00 0. -1.
         21    1    1    2  502  501  0.85761669707E+01  0.75552908513E+02 -0.82515040258E+02  0.11220750640E+03  0.00000000000E+00 0.  1.
<scales pt_clust_5="13000.00000" pt_clust_6="13000.00000" pt_clust_7="13000.00000" pt_clust_8="13000.00000" pt_clust_9="76.03810"></scales>
<clustering>
<clus scale="   76.038">  2  9  1 -1</clus>
<clus scale="   82.898">  5  6 -1 -1</clus>
<clus scale="   90.251">  7  8 -1 -1</clus>
<clus scale="  109.002">  2  5  1 -1</clus>
<clus scale="  114.694">  1  5  2 -1</clus>
</clustering>
</event>
<event>
 9    2  0.3791909E-005  0.1056442E+03  0.7546771E-02  0.1272846E+00
         -1   -1    0    0    0  501 -0.00000000000E+00  0.00000000000E+00  0.29301999078E+03  0.29301999078E+03  0.00000000000E+00 0.  1.
          2   -1    0    0  502    0  0.00000000000E+00 -0.00000000000E+00 -0.51608508615E+02  0.51608508615E+02  0.00000000000E+00 0. -1.
         24    2    1    2    0    0  0.59329986808E+02 -0.83344133628E+01  0.16551854808E+03  0.19810135393E+03  0.90874896905E+02 0.  0.
         23    2    1    2    0    0 -0.39990001473E+02  0.27265843738E+02  0.72128362940E+02  0.11920305199E+03  0.81634799016E+02 0.  0.
        -11    1    3    3    0    0  0.46112055298E+02 -0.28492980826E+02  0.16533632246E+03  0.17399503190E+03  0.00000000000E+00 0.  1.
         12    1    3    3    0    0  0.13217931509E+02  0.20158567464E+02  0.18222562172E+00  0.24106322029E+02  0.00000000000E+00 0. -1.
        -11    1    4    4    0    0 -0.56021107753E+02 -0.40838518643E+01  0.59426372972E+02  0.81771242894E+02  0.00000000000E+00 0.  1.
         11    1    4    4    0    0  0.16031106279E+02  0.31349695603E+02  0.12701989968E+02  0.37431809094E+02  0.00000000000E+00 0. -1.
         21    1    1    2  502  501 -0.19339985334E+02 -0.18931430376E+02  0.37645711455E+01  0.27324093484E+02  0.00000000000E+00 0.  1.
<scales pt_clust_5="13000.00000" pt_clust_6="13000.00000" pt_clust_7="13000.00000" pt_clust_8="13000.00000" pt_clust_9="27.06352"></scales>
<clustering>
<clus scale="   27.064">  2  9  1 -1</clus>
<clus scale="   81.635">  7  8 -1 -1</clus>
<clus scale="   90.875">  5  6 -1 -1</clus>
<clus scale="   97.809">  2  7  1 -1</clus>
<clus scale="   27.064">  2  5  1 -1</clus>
</clustering>
</event>
<event>
 9    2  0.3791909E-005  0.1353060E+03  0.7546771E-02  0.1222001E+00
          2   -1    0    0  502    0  0.00000000000E+00  0.00000000000E+00  0.49078815133E+03  0.49078815133E+03  0.00000000000E+00 0. -1.
         -1   -1    0    0    0  501 -0.00000000000E+00 -0.00000000000E+00 -0.96886622830E+02  0.96886622830E+02  0.00000000000E+00 0.  1.
         23    2    1    2    0    0  0.10346313012E+03 -0.43166726069E+02 -0.10635105074E+02  0.14412253748E+03  0.89945621431E+02 0.  0.
         24    2    1    2    0    0 -0.63375863341E+02 -0.18572683425E+02  0.28220162800E+03  0.30077759877E+03  0.80423631183E+02 0.  0.
        -13    1    4    4    0    0 -0.54929869457E+02  0.22544830726E+02  0.13044982297E+03  0.14332730467E+03  0.00000000000E+00 0.  1.
         14    1    4    4    0    0 -0.84459938840E+01 -0.41117514151E+02  0.15175180503E+03  0.15745029410E+03  0.00000000000E+00 0. -1.
        -11    1    3    3    0    0  0.24170132674E+02 -0.87317057759E+01 -0.44411436304E+02  0.51310950817E+02  0.00000000000E+00 0.  1.
         11    1    3    3    0    0  0.79292997447E+02 -0.34435020293E+02  0.33776331230E+02  0.92811586658E+02  0.00000000000E+00 0. -1.
         21    1    1    2  502  501 -0.40087266779E+02  0.61739409494E+02  0.12233500557E+03  0.14277463791E+03  0.00000000000E+00 0. -1.
<scales pt_clust_5="13000.00000" pt_clust_6="13000.00000" pt_clust_7="13000.00000" pt_clust_8="13000.00000" pt_clust_9="73.61212"></scales>
<clustering>
<clus scale="   73.612">  1  9  2 -1</clus>
<clus scale="   80.424">  5  6 -1 -1</clus>
<clus scale="   89.946">  7  8 -1 -1</clus>
<clus scale="  129.172">  1  5  2 -1</clus>
<clus scale="   73.612">  1  5  2 -1</clus>
</clustering>
</event>
<event>
 9    2  0.3791909E-005  0.9203959E+02  0.7546771E-02  0.1305590E+00
          2   -1    0    0  502    0  0.00000000000E+00  0.00000000000E+00  0.14860692525E+03  0.14860692525E+03  0.00000000000E+00 0. -1.
         -1   -1    0    0    0  501 -0.00000000000E+00 -0.00000000000E+00 -0.20186862831E+03  0.20186862831E+03  0.00000000000E+00 0.  1.
         23    2    1    2    0    0  0.13119667767E+02  0.15158858031E+02 -0.13209105844E+03  0.16171733348E+03  0.91118228520E+02 0.  0.
         24    2    1    2    0    0  0.31539824240E+02 -0.76119369994E+01 -0.13006038707E+02  0.86361121253E+02  0.78970780187E+02 0.  0.
        -11    1    4    4    0    0  0.52344113501E+02 -0.23723575308E+02 -0.16562568326E+02  0.59808301373E+02  0.00000000000E+00 0.  1.
         12    1    4    4    0    0 -0.20804289261E+02  0.16111638309E+02  0.35565296188E+01  0.26552819880E+02  0.00000000000E+00 0. -1.
        -11    1    3    3    0    0  0.23232173794E+02  0.45821467525E+02 -0.43130661399E+02  0.67079018613E+02  0.00000000000E+00 0. -1.
         11    1    3    3    0    0 -0.10112506027E+02 -0.30662609494E+02 -0.88960397037E+02  0.94638314863E+02  0.00000000000E+00 0.  1.
         21    1    1    2  502  501 -0.44659492007E+02 -0.75469210318E+01  0.91835394080E+02  0.10239709883E+03  0.00000000000E+00 0. -1.
<scales pt_clust_5="13000.00000" pt_clust_6="13000.00000" pt_clust_7="13000.00000" pt_clust_8="13000.00000" pt_clust_9="45.29267"></scales>
<clustering>
<clus scale="   45.293">  1  9  2 -1</clus>
<clus scale="   78.971">  5  6 -1 -1</clus>
<clus scale="   80.032">  1  5  2 -1</clus>
<clus scale="   91.118">  7  8 -1 -1</clus>
<clus scale="   45.293">  1  5  2 -1</clus>
</clustering>
</event>
<event>
 9    2  0.3791909E-005  0.1228587E+03  0.7546771E-02  0.1241232E+00
         -1   -1    0    0    0  501 -0.00000000000E+00  0.00000000000E+00  0.36317377185E+03  0.36317377185E+03  0.00000000000E+00 0.  1.
          2   -1    0    0  502    0  0.00000000000E+00 -0.00000000000E+00 -0.20509420711E+03  0.20509420711E+03  0.00000000000E+00 0. -1.
         23    2    1    2    0    0  0.18540487826E+02  0.81425261275E+02  0.32506080543E+03  0.34790242473E+03  0.91639222182E+02 0.  0.
         24    2    1    2    0    0  0.14779224895E+02 -0.64131403094E+02 -0.13302592417E+03  0.16974693803E+03  0.82382426017E+02 0.  0.
        -13    1    4    4    0    0 -0.22360684383E+02 -0.24395559363E+02 -0.89632957735E+01  0.34285334968E+02  0.00000000000E+00 0.  1.
         14    1    4    4    0    0  0.37139909279E+02 -0.39735843730E+02 -0.12406262840E+03  0.13546160306E+03  0.00000000000E+00 0. -1.
        -13    1    3    3    0    0 -0.22222158573E+02 -0.57739214062E+01  0.10866286113E+03  0.11106205423E+03  0.00000000000E+00 0.  1.
         13    1    3    3    0    0  0.40762646400E+02  0.87199182681E+02  0.21639794429E+03  0.23684037050E+03  0.00000000000E+00 0. -1.
         21    1    1    2  502  501 -0.33319712722E+02 -0.17293858182E+02 -0.33955316513E+02  0.50618616202E+02  0.00000000000E+00 0. -1.
<scales pt_clust_5="13000.00000" pt_clust_6="13000.00000" pt_clust_7="13000.00000" pt_clust_8="13000.00000" pt_clust_9="37.54039"></scales>
<clustering>
<clus scale="   37.540">  2  9  1 -1</clus>
<clus scale="   82.382">  5  6 -1 -1</clus>
<clus scale="   91.639">  7  8 -1 -1</clus>
<clus scale="  116.118">  2  5  1 -1</clus>
<clus scale="   37.540">  2  5  1 -1</clus>
</clustering>
</event>
<event>
 9    2  0.3791909E-005  0.1238995E+03  0.7546771E-02  0.1244215E+00
          2   -1    0    0  502    0  0.00000000000E+00  0.00000000000E+00  0.50655825353E+03  0.50655825353E+03  0.00000000000E+00 0. -1.
         -1   -1    0    0    0  501 -0.00000000000E+00 -0.00000000000E+00 -0.77154108651E+02  0.77154108651E+02  0.00000000000E+00 0.  1.
         24    2    1    2    0    0  0.37076012865E+02  0.49467284644E+02 -0.14860024502E+02  0.11040887886E+03  0.90264374051E+02 0.  0.
         23    2    1    2    0    0  0.78699688338E+01 -0.32000983198E+02  0.31643677535E+03  0.33668336905E+03  0.11017013602E+03 0.  0.
        -11    1    3    3    0    0  0.60928723471E+02  0.52778176416E+02 -0.24827742966E+02  0.84346085092E+02  0.00000000000E+00 0.  1.
         12    1    3    3    0    0 -0.23852710606E+02 -0.33108917717E+01  0.99677184641E+01  0.26062793768E+02  0.00000000000E+00 0. -1.
        -11    1    4    4    0    0 -0.28281539540E+01  0.34341244809E+02  0.42960923388E+02  0.55072320526E+02  0.00000000000E+00 0.  1.
         11    1    4    4    0    0  0.10698122788E+02 -0.66342228007E+02  0.27347585196E+03  0.28161104853E+03  0.00000000000E+00 0. -1.
         21    1    1    2  502  501 -0.44945981698E+02 -0.17466301446E+02  0.12782739403E+03  0.13662011427E+03  0.00000000000E+00 0.  1.
<scales pt_clust_5="13000.00000" pt_clust_6="13000.00000" pt_clust_7="13000.00000" pt_clust_8="13000.00000" pt_clust_9="48.22046"></scales>
<clustering>
<clus scale="   48.220">  1  9  2 -1</clus>
<clus scale="   90.264">  5  6 -1 -1</clus>
<clus scale="  106.589">  2  5  1 -1</clus>
<clus scale="  110.170">  7  8 -1 -1</clus>
<clus scale="   48.220">  1  5  2 -1</clus>
</clustering>
</event>
<event>
 9    2  0.3791909E-005  0.9827975E+02  0.7546771E-02  0.1290428E+00
          2   -1    0    0  502    0  0.00000000000E+00  0.00000000000E+00  0.87491273405E+02  0.87491273405E+02  0.00000000000E+00 0. -1.
         -1   -1    0    0    0  501 -0.00000000000E+00 -0.00000000000E+00 -0.53635418189E+03  0.53635418189E+03  0.00000000000E+00 0.  1.
         23    2    1    2    0    0 -0.96946897153E+01  0.31259876823E+02 -0.49204476310E+03  0.50180990158E+03  0.92919112791E+02 0.  0.
         24    2    1    2    0    0  0.29961878058E+02 -0.14104499215E+02  0.30316226761E+02  0.92529786743E+02  0.80907581813E+02 0.  0.
        -11    1    4    4    0    0 -0.23118231639E+02 -0.99156604295E+01 -0.85939440614E+01  0.26582491050E+02  0.00000000000E+00 0.  1.
         12    1    4    4    0    0  0.53080109697E+02 -0.41888387855E+01  0.38910170822E+02  0.65947295693E+02  0.00000000000E+00 0. -1.
        -11    1    3    3    0    0  0.83132207797E+01 -0.31577529400E+02 -0.14105857913E+03  0.14478871761E+03  0.00000000000E+00 0. -1.
         11    1    3    3    0    0 -0.18007910495E+02  0.62837406223E+02 -0.35098618398E+03  0.35702118397E+03  0.00000000000E+00 0.  1.
         21    1    1    2  502  501 -0.20267188343E+02 -0.17155377608E+02  0.12865627858E+02  0.29505766969E+02  0.00000000000E+00 0. -1.
<scales pt_clust_5="13000.00000" pt_clust_6="13000.00000" pt_clust_7="13000.00000" pt_clust_8="13000.00000" pt_clust_9="26.55308"></scales>
<clustering>
<clus scale="   26.553">  1  9  2 -1</clus>
<clus scale="   80.908">  5  6 -1 -1</clus>
<clus scale="   87.011">  1  5  2 -1</clus>
<clus scale="   92.919">  7  8 -1 -1</clus>
<clus scale="   26.553">  1  5  2 -1</clus>
</clustering>
</event>
<event>
 9    2  0.4510911E-005  0.1157563E+03  0.7546771E-02  0.1253672E+00
          2   -1    0    0  502    0  0.00000000000E+00  0.00000000000E+00  0.26724891626E+03  0.26724891626E+03  0.00000000000E+00 0. -1.
         -1   -1    0    0    0  501 -0.00000000000E+00 -0.00000000000E+00 -0.21902072612E+03  0.21902072612E+03  0.00000000000E+00 0.  1.
         24    2    1    2    0    0 -0.47049092709E+02  0.54704129405E+02 -0.18742121331E+03  0.21677863913E+03  0.81609486499E+02 0.  0.
         23    2    1    2    0    0  0.39464134929E+02 -0.35612259998E+02  0.21842432384E+03  0.24268178040E+03  0.91430904435E+02 0.  0.
        -11    1    3    3    0    0 -0.61810440856E+02  0.12128055517E+02 -0.12257684433E+03  0.13781401632E+03  0.00000000000E+00 0.  1.
         12    1    3    3    0    0  0.14761348147E+02  0.42576073889E+02 -0.64844368984E+02  0.78964622812E+02  0.00000000000E+00 0. -1.
        -11    1    4    4    0    0 -0.25788261619E+02 -0.22905633111E+00  0.26847505279E+02  0.37227348064E+02  0.00000000000E+00 0.  1.
         11    1    4    4    0    0  0.65252396549E+02 -0.35383203667E+02  0.19157681856E+03  0.20545443233E+03  0.00000000000E+00 0. -1.
         21    1    1    2  502  501  0.75849577795E+01 -0.19091869407E+02  0.17225079618E+02  0.26809222850E+02  0.00000000000E+00 0.  1.
<scales pt_clust_5="13000.00000" pt_clust_6="13000.00000" pt_clust_7="13000.00000" pt_clust_8="13000.00000" pt_clust_9="20.54339"></scales>
<clustering>
<clus scale="   20.543">  1  9  2 -1</clus>
<clus scale="   81.609">  5  6 -1 -1</clus>
<clus scale="   91.431">  7  8 -1 -1</clus>
<clus scale="  108.167">  2  5  1 -1</clus>
<clus scale="   20.543">  1  5  2 -1</clus>
</clustering>
</event>
<event>
 9    2  0.3791909E-005  0.9613255E+02  0.7546771E-02  0.1297131E+00
         -1   -1    0    0    0  501 -0.00000000000E+00  0.00000000000E+00  0.21556996279E+03  0.21556996279E+03  0.00000000000E+00 0.  1.
          2   -1    0    0  502    0  0.00000000000E+00 -0.00000000000E+00 -0.45190718700E+03  0.45190718700E+03  0.00000000000E+00 0. -1.
         23    2    1    2    0    0 -0.62707000584E+01  0.22261496549E+02  0.17461150785E+03  0.19937634524E+03  0.93417623907E+02 0.  0.
         24    2    1    2    0    0  0.60485237475E+02  0.66863388379E+01 -0.70230636820E+02  0.12188408967E+03  0.78868357954E+02 0.  0.
        -11    1    4    4    0    0  0.42240344532E+02  0.39923073593E+02 -0.57835810802E+02  0.81994387140E+02  0.00000000000E+00 0.  1.
         12    1    4    4    0    0  0.18244892943E+02 -0.33236734755E+02 -0.12394826019E+02  0.39889702527E+02  0.00000000000E+00 0. -1.
        -13    1    3    3    0    0  0.21494055096E+02  0.23469679879E+02  0.16776164360E+03  0.17075359247E+03  0.00000000000E+00 0.  1.
         13    1    3    3    0    0 -0.27764755154E+02 -0.12081833295E+01  0.68498642581E+01  0.28622752769E+02  0.00000000000E+00 0. -1.
         21    1    1    2  502  501 -0.54214537417E+02 -0.28947835387E+02 -0.34071809524E+03  0.34621671489E+03  0.00000000000E+00 0. -1.
<scales pt_clust_5="13000.00000" pt_clust_6="13000.00000" pt_clust_7="13000.00000" pt_clust_8="13000.00000" pt_clust_9="61.45887"></scales>
<clustering>
<clus scale="   61.459">  2  9  1 -1</clus>
<clus scale="   78.868">  5  6 -1 -1</clus>
<clus scale="   82.066">  2  5  1 -1</clus>
<clus scale="   93.418">  7  8 -1 -1</clus>
<clus scale="   61.459">  2  5  1 -1</clus>
</clustering>
</event>
<event>
 9    2  0.3791909E-005  0.1610636E+03  0.7546771E-02  0.1190295E+00
          2   -1    0    0  502    0  0.00000000000E+00  0.00000000000E+00  0.49885702167E+03  0.49885702167E+03  0.00000000000E+00 0. -1.
         -1   -1    0    0    0  501 -0.00000000000E+00 -0.00000000000E+00 -0.81804147533E+02  0.81804147533E+02  0.00000000000E+00 0.  1.
         24    2    1    2    0    0  0.10070543744E+03  0.81888926747E+02  0.50011328495E+02  0.15937807104E+03  0.77800097032E+02 0.  0.
         23    2    1    2    0    0 -0.86605344413E+02 -0.98823837140E+02  0.22432400525E+03  0.27687430290E+03  0.95244337398E+02 0.  0.
        -13    1    3    3    0    0  0.89627832024E+02  0.83449191502E+02  0.15912907503E+02  0.12349144287E+03  0.00000000000E+00 0.  1.
         14    1    3    3    0    0  0.11077605412E+02 -0.15602647549E+01  0.34098420992E+02  0.35886628177E+02  0.00000000000E+00 0. -1.
        -13    1    4    4    0    0 -0.57454781213E+02 -0.52826185932E+02  0.46392752848E+02  0.90796174596E+02  0.00000000000E+00 0.  1.
         13    1    4    4    0    0 -0.29150563199E+02 -0.45997651208E+02  0.17793125240E+03  0.18607812830E+03  0.00000000000E+00 0. -1.
         21    1    1    2  502  501 -0.14100093023E+02  0.16934910393E+02  0.14271754039E+03  0.14440879526E+03  0.00000000000E+00 0. -1.
<scales pt_clust_5="13000.00000" pt_clust_6="13000.00000" pt_clust_7="13000.00000" pt_clust_8="13000.00000" pt_clust_9="22.03642"></scales>
<clustering>
<clus scale="   22.036">  1  9  2 -1</clus>
<clus scale="   77.800">  5  6 -1 -1</clus>
<clus scale="   95.244">  7  8 -1 -1</clus>
<clus scale="  151.403">  2  5  1 -1</clus>
<clus scale="   22.036">  1  5  2 -1</clus>
</clustering>
</event>
<event>
 9    2  0.3791909E-005  0.1748764E+03  0.7546771E-02  0.1174346E+00
          2   -1    0    0  502    0  0.00000000000E+00  0.00000000000E+00  0.15040469170E+04  0.15040469170E+04  0.00000000000E+00 0. -1.
         -1   -1    0    0    0  501 -0.00000000000E+00 -0.00000000000E+00 -0.37471824427E+02  0.37471824427E+02  0.00000000000E+00 0.  1.
         23    2    1    2    0    0 -0.45383658653E+02 -0.13336885713E+03  0.24270612827E+03  0.29540093032E+03  0.92241619709E+02 0.  0.
         24    2    1    2    0    0  0.51343622252E+02  0.17113342466E+03  0.10405817123E+04  0.10588856011E+04  0.80657297354E+02 0.  0.
        -13    1    4    4    0    0 -0.86899600401E+01  0.87987092353E+02  0.36450124895E+03  0.37507119899E+03  0.00000000000E+00 0.  1.
         14    1    4    4    0    0  0.60033582292E+02  0.83146332304E+02  0.67608046337E+03  0.68381440211E+03  0.00000000000E+00 0. -1.
        -13    1    3    3    0    0 -0.38895194215E+02 -0.10756295679E+03  0.10538969249E+03  0.15553010348E+03  0.00000000000E+00 0.  1.
         13    1    3    3    0    0 -0.64884644383E+01 -0.25805900343E+02  0.13731643579E+03  0.13987082684E+03  0.00000000000E+00 0. -1.
         21    1    1    2  502  501 -0.59599635984E+01 -0.37764567523E+02  0.18328725197E+03  0.18723221000E+03  0.00000000000E+00 0.  1.
<scales pt_clust_5="13000.00000" pt_clust_6="13000.00000" pt_clust_7="13000.00000" pt_clust_8="13000.00000" pt_clust_9="38.23197"></scales>
<clustering>
<clus scale="   38.232">  1  9  2 -1</clus>
<clus scale="   80.657">  5  6 -1 -1</clus>
<clus scale="   92.242">  7  8 -1 -1</clus>
<clus scale="  169.053">  1  5  2 -1</clus>
<clus scale="   38.232">  1  5  2 -1</clus>
</clustering>
</event>
<event>
 9    2  0.3791909E-005  0.9988689E+02  0.7546771E-02  0.1286576E+00
         -1   -1    0    0    0  501 -0.00000000000E+00  0.00000000000E+00  0.29199296572E+02  0.29199296572E+02  0.00000000000E+00 0.  1.
          2   -1    0    0  502    0  0.00000000000E+00 -0.00000000000E+00 -0.52558613400E+03  0.52558613400E+03  0.00000000000E+00 0. -1.
         23    2    1    2    0    0 -0.51566900872E+01  0.29472594942E+02 -0.93214667350E+02  0.13409766288E+03  0.91640513286E+02 0.  0.
         24    2    1    2    0    0  0.28384340941E+02 -0.32853697932E+02 -0.36279450608E+03  0.37398325643E+03  0.79740743510E+02 0.  0.
        -13    1    4    4    0    0 -0.20526274529E+02 -0.20032008374E+02 -0.54661044298E+02  0.61728753991E+02  0.00000000000E+00 0.  1.
         14    1    4    4    0    0  0.48910615469E+02 -0.12821689558E+02 -0.30813346178E+03  0.31225450244E+03  0.00000000000E+00 0. -1.
        -11    1    3    3    0    0 -0.30733877532E+02 -0.22759172386E+02 -0.36968051960E+02  0.53190112066E+02  0.00000000000E+00 0.  1.
         11    1    3    3    0    0  0.25577187445E+02  0.52231767328E+02 -0.56246615390E+02  0.80907550813E+02  0.00000000000E+00 0. -1.
         21    1    1    2  502  501 -0.23227650853E+02  0.33811029898E+01 -0.40377664000E+02  0.46704511256E+02  0.00000000000E+00 0.  1.
<scales pt_clust_5="13000.00000" pt_clust_6="13000.00000" pt_clust_7="13000.00000" pt_clust_8="13000.00000" pt_clust_9="23.47244"></scales>
<clustering>
<clus scale="   23.472">  1  9  2 -1</clus>
<clus scale="   79.741">  5  6 -1 -1</clus>
<clus scale="   89.095">  2  5  1 -1</clus>
<clus scale="   91.641">  7  8 -1 -1</clus>
<clus scale="   89.095">  2  5  1 -1</clus>
</clustering>
</event>
<event>
 9    2  0.3791909E-005  0.1215752E+03  0.7546771E-02  0.1244056E+00
          2   -1    0    0  502    0  0.00000000000E+00  0.00000000000E+00  0.49082380347E+03  0.49082380347E+03  0.00000000000E+00 0. -1.
         -1   -1    0    0    0  501 -0.00000000000E+00 -0.00000000000E+00 -0.51877854166E+02  0.51877854166E+02  0.00000000000E+00 0.  1.
         24    2    1    2    0    0  0.38479090829E+02 -0.76787055889E+02  0.83146146772E+02  0.14381610452E+03  0.79955599011E+02 0.  0.
         23    2    1    2    0    0 -0.12483037731E+02  0.72578070124E+02  0.14561175666E+03  0.18705419339E+03  0.91449904820E+02 0.  0.
        -13    1    3    3    0    0  0.81405513697E+01 -0.28136901851E+02  0.81339812223E+02  0.86452986501E+02  0.00000000000E+00 0.  1.
         14    1    3    3    0    0  0.30338539460E+02 -0.48650154038E+02  0.18063345492E+01  0.57363118020E+02  0.00000000000E+00 0. -1.
        -13    1    4    4    0    0 -0.13260605004E+02  0.47170530210E+02  0.15294165365E+03  0.16059904105E+03  0.00000000000E+00 0. -1.
         13    1    4    4    0    0  0.77756727291E+00  0.25407539915E+02 -0.73298969864E+01  0.26455152338E+02  0.00000000000E+00 0.  1.
         21    1    1    2  502  501 -0.25996053098E+02  0.42089857645E+01  0.21018804587E+03  0.21183135972E+03  0.00000000000E+00 0. -1.
<scales pt_clust_5="13000.00000" pt_clust_6="13000.00000" pt_clust_7="13000.00000" pt_clust_8="13000.00000" pt_clust_9="26.33458"></scales>
<clustering>
<clus scale="   26.335">  1  9  2 -1</clus>
<clus scale="   79.956">  5  6 -1 -1</clus>
<clus scale="   91.450">  7  8 -1 -1</clus>
<clus scale="  113.183">  2  5  1 -1</clus>
<clus scale="   26.335">  1  5  2 -1</clus>
</clustering>
</event>
<event>
 9    2  0.3791909E-005  0.1280072E+03  0.7546771E-02  0.1233781E+00
         -3   -1    0    0    0  501 -0.00000000000E+00  0.00000000000E+00  0.72860825876E+02  0.72860825876E+02  0.00000000000E+00 0.  1.
          4   -1    0    0  502    0  0.00000000000E+00 -0.00000000000E+00 -0.37275641335E+03  0.37275641335E+03  0.00000000000E+00 0. -1.
         24    2    1    2    0    0 -0.47651966729E+01 -0.86769716581E+02 -0.15448923780E+02  0.11935267227E+03  0.80341149588E+02 0.  0.
         23    2    1    2    0    0  0.27613407638E+02  0.92956036584E+02 -0.25827442647E+03  0.29097579677E+03  0.92508972123E+02 0.  0.
        -13    1    3    3    0    0 -0.13587357205E+02 -0.96379697016E+02  0.22582031704E+01  0.97358932586E+02  0.00000000000E+00 0.  1.
         14    1    3    3    0    0  0.88221605322E+01  0.96099804353E+01 -0.17707126950E+02  0.21993739683E+02  0.00000000000E+00 0. -1.
        -11    1    4    4    0    0 -0.31443017404E+01  0.90749945644E+02 -0.23619797062E+03  0.25305122128E+03  0.00000000000E+00 0. -1.
         11    1    4    4    0    0  0.30757709378E+02  0.22060909401E+01 -0.22076455845E+02  0.37924575490E+02  0.00000000000E+00 0.  1.
         21    1    1    2  502  501 -0.22848210965E+02 -0.61863200033E+01 -0.26172237225E+02  0.35288770181E+02  0.00000000000E+00 0.  1.
<scales pt_clust_5="13000.00000" pt_clust_6="13000.00000" pt_clust_7="13000.00000" pt_clust_8="13000.00000" pt_clust_9="23.67090"></scales>
<clustering>
<clus scale="   23.671">  2  9  1 -1</clus>
<clus scale="   80.341">  5  6 -1 -1</clus>
<clus scale="   92.509">  7  8 -1 -1</clus>
<clus scale="  119.510">  1  5  2 -1</clus>
<clus scale="   23.671">  2  5  1 -1</clus>
</clustering>
</event>
<event>
 9    2  0.3791909E-005  0.1339799E+03  0.7546771E-02  0.1224778E+00
          2   -1    0    0  502    0  0.00000000000E+00  0.00000000000E+00  0.56168128338E+03  0.56168128338E+03  0.00000000000E+00 0. -1.
         -1   -1    0    0    0  501 -0.00000000000E+00 -0.00000000000E+00 -0.82466290320E+02  0.82466290320E+02  0.00000000000E+00 0.  1.
         24    2    1    2    0    0 -0.63359441183E+02 -0.77865799022E+02 -0.13845715301E+02  0.12830632270E+03  0.78697567740E+02 0.  0.
         23    2    1    2    0    0  0.41094986217E+02  0.71552758882E+02  0.35333342514E+03  0.37421048419E+03  0.91544426164E+02 0.  0.
        -11    1    3    3    0    0 -0.48647361097E+02 -0.84630224423E+02  0.11436160326E+02  0.98283398347E+02  0.00000000000E+00 0.  1.
         12    1    3    3    0    0 -0.14712080086E+02  0.67644254012E+01 -0.25281875627E+02  0.30022924353E+02  0.00000000000E+00 0. -1.
        -13    1    4    4    0    0  0.53769105442E+01 -0.21882272127E+02  0.50919028082E+02  0.55682065526E+02  0.00000000000E+00 0.  1.
         13    1    4    4    0    0  0.35718075672E+02  0.93435031009E+02  0.30241439706E+03  0.31852841866E+03  0.00000000000E+00 0. -1.
         21    1    1    2  502  501  0.22264454966E+02  0.63130401397E+01  0.13972728322E+03  0.14163076681E+03  0.00000000000E+00 0.  1.
<scales pt_clust_5="13000.00000" pt_clust_6="13000.00000" pt_clust_7="13000.00000" pt_clust_8="13000.00000" pt_clust_9="23.14218"></scales>
<clustering>
<clus scale="   23.142">  1  9  2 -1</clus>
<clus scale="   78.698">  5  6 -1 -1</clus>
<clus scale="   91.544">  7  8 -1 -1</clus>
<clus scale="  125.553">  2  5  1 -1</clus>
<clus scale="   23.142">  1  5  2 -1</clus>
</clustering>
</event>
<event>
 9    2  0.3791909E-005  0.2131098E+03  0.7546771E-02  0.1171551E+00
          2   -1    0    0  502    0  0.00000000000E+00  0.00000000000E+00  0.16692361244E+04  0.16692361244E+04  0.00000000000E+00 0. -1.
         -1   -1    0    0    0  501 -0.00000000000E+00 -0.00000000000E+00 -0.47843313550E+02  0.47843313550E+02  0.00000000000E+00 0.  1.
         24    2    1    2    0    0 -0.17089264685E+03 -0.76345266725E+02  0.34405006500E+03  0.39967741162E+03  0.79615888058E+02 0.  0.
         23    2    1    2    0    0 -0.37590526387E+02 -0.15235249422E+01  0.42171629084E+03  0.43330620984E+03  0.92164378788E+02 0.  0.
        -13    1    3    3    0    0 -0.17262975332E+03 -0.58031723450E+02  0.32842303810E+03  0.37554015047E+03  0.00000000000E+00 0.  1.
         14    1    3    3    0    0  0.17371064638E+01 -0.18313543275E+02  0.15627026896E+02  0.24137261149E+02  0.00000000000E+00 0. -1.
        -13    1    4    4    0    0  0.30852520761E+02  0.24684568627E+01  0.12577985921E+03  0.12953202036E+03  0.00000000000E+00 0. -1.
         13    1    4    4    0    0 -0.68443047148E+02 -0.39919818050E+01  0.29593643164E+03  0.30377418948E+03  0.00000000000E+00 0.  1.
         21    1    1    2  502  501  0.20848317324E+03  0.77868791667E+02  0.85562645503E+03  0.88409581652E+03  0.00000000000E+00 0. -1.
<scales pt_clust_5="13000.00000" pt_clust_6="13000.00000" pt_clust_7="13000.00000" pt_clust_8="13000.00000" pt_clust_9="197.67929"></scales>
<clustering>
<clus scale="   79.616">  5  6 -1 -1</clus>
<clus scale="   92.164">  7  8 -1 -1</clus>
<clus scale="   99.547">  1  7  2 -1</clus>
<clus scale="  197.679">  1  9  2 -1</clus>
<clus scale="   99.547">  1  5  2 -1</clus>
</clustering>
</event>
<event>
 9    2  0.3791909E-005  0.1372160E+03  0.7546771E-02  0.1222273E+00
          2   -1    0    0  502    0  0.00000000000E+00  0.00000000000E+00  0.40897379985E+03  0.40897379985E+03  0.00000000000E+00 0. -1.
         -1   -1    0    0    0  501 -0.00000000000E+00 -0.00000000000E+00 -0.17101463885E+03  0.17101463885E+03  0.00000000000E+00 0.  1.
         23    2    1    2    0    0 -0.24198098380E+01 -0.94463717805E+02 -0.12134762427E+03  0.18377988214E+03  0.10060094284E+03 0.  0.
         24    2    1    2    0    0 -0.32375655506E+02  0.84873793146E+02  0.20912226298E+03  0.24174794088E+03  0.80362940547E+02 0.  0.
        -13    1    4    4    0    0 -0.24207126156E+02 -0.87482367314E+01  0.62505803678E+02  0.67598018432E+02  0.00000000000E+00 0.  1.
         14    1    4    4    0    0 -0.81685293509E+01  0.93622029877E+02  0.14661645930E+03  0.17414992244E+03  0.00000000000E+00 0. -1.
        -11    1    3    3    0    0  0.31967238127E+02 -0.98229311997E+02 -0.94285420545E+02  0.13985936714E+03  0.00000000000E+00 0.  1.
         11    1    3    3    0    0 -0.34387047965E+02  0.37655941921E+01 -0.27062203727E+02  0.43920515000E+02  0.00000000000E+00 0. -1.
         21    1    1    2  502  501  0.34795465344E+02  0.95899246598E+01  0.15018452229E+03  0.15446061569E+03  0.00000000000E+00 0. -1.
<scales pt_clust_5="13000.00000" pt_clust_6="13000.00000" pt_clust_7="13000.00000" pt_clust_8="13000.00000" pt_clust_9="36.09281"></scales>
<clustering>
<clus scale="   36.093">  1  9  2 -1</clus>
<clus scale="   80.363">  5  6 -1 -1</clus>
<clus scale="  100.601">  7  8 -1 -1</clus>
<clus scale="  123.150">  1  5  2 -1</clus>
<clus scale="   36.093">  1  5  2 -1</clus>
</clustering>
</event>
<event>
 9    2  0.6491307E-005  0.9520348E+02  0.7546771E-02  0.1293183E+00
          2   -1    0    0  502    0  0.00000000000E+00  0.00000000000E+00  0.89377289001E+03  0.89377289001E+03  0.00000000000E+00 0. -1.
         -1   -1    0    0    0  501 -0.00000000000E+00 -0.00000000000E+00 -0.10037523535E+03  0.10037523535E+03  0.00000000000E+00 0.  1.
         23    2    1    2    0    0 -0.42682517338E+02 -0.26006503470E+01 -0.73654425100E+02  0.12062861626E+03  0.85426740867E+02 0.  0.
         24    2    1    2    0    0  0.19921040845E+02  0.59338880196E+00  0.70083149955E+03  0.70573573396E+03  0.80628378735E+02 0.  0.
        -11    1    4    4    0    0 -0.10575792050E+02 -0.27954050173E+02  0.13060278708E+03  0.13397896959E+03  0.00000000000E+00 0.  1.
         12    1    4    4    0    0  0.30496832895E+02  0.28547438975E+02  0.57022871247E+03  0.57175676438E+03  0.00000000000E+00 0. -1.
        -11    1    3    3    0    0 -0.13784517649E+02 -0.36738291062E+02 -0.63687091157E+02  0.74804816269E+02  0.00000000000E+00 0.  1.
         11    1    3    3    0    0 -0.28897999689E+02  0.34137640715E+02 -0.99673339439E+01  0.45823799991E+02  0.00000000000E+00 0. -1.
         21    1    1    2  502  501  0.22761476493E+02  0.20072615450E+01  0.16622058022E+03  0.16778377514E+03  0.00000000000E+00 0.  1.
<scales pt_clust_5="13000.00000" pt_clust_6="13000.00000" pt_clust_7="13000.00000" pt_clust_8="13000.00000" pt_clust_9="22.84981"></scales>
<clustering>
<clus scale="   22.850">  1  9  2 -1</clus>
<clus scale="   80.628">  5  6 -1 -1</clus>
<clus scale="   85.427">  7  8 -1 -1</clus>
<clus scale="   90.923">  1  5  2 -1</clus>
<clus scale="   22.850">  1  5  2 -1</clus>
</clustering>
</event>
<event>
 9    2  0.3791909E-005  0.1153424E+03  0.7546771E-02  0.1256012E+00
          2   -1    0    0  502    0  0.00000000000E+00  0.00000000000E+00  0.50827962502E+03  0.50827962502E+03  0.00000000000E+00 0. -1.
         -1   -1    0    0    0  501 -0.00000000000E+00 -0.00000000000E+00 -0.87259280564E+02  0.87259280564E+02  0.00000000000E+00 0.  1.
         23    2    1    2    0    0 -0.27821368953E+02 -0.36673047726E+02 -0.37863077272E+02  0.11131436782E+03  0.94012418660E+02 0.  0.
         24    2    1    2    0    0  0.40644551686E+02  0.20876464361E+02  0.44463411732E+03  0.45938487719E+03  0.10605263202E+03 0.  0.
        -13    1    4    4    0    0 -0.19964280976E+00  0.56741301941E+02  0.16409050750E+03  0.17362404746E+03  0.00000000000E+00 0.  1.
         14    1    4    4    0    0  0.40844194496E+02 -0.35864837580E+02  0.28054360982E+03  0.28576082973E+03  0.00000000000E+00 0. -1.
        -13    1    3    3    0    0 -0.54821177326E+02 -0.16512045787E+02 -0.49479379639E+02  0.75671779079E+02  0.00000000000E+00 0.  1.
         13    1    3    3    0    0  0.26999808373E+02 -0.20161001939E+02  0.11616302366E+02  0.35642588739E+02  0.00000000000E+00 0. -1.
         21    1    1    2  502  501 -0.12823182733E+02  0.15796583365E+02  0.14249304403E+02  0.24839660573E+02  0.00000000000E+00 0. -1.
<scales pt_clust_5="13000.00000" pt_clust_6="13000.00000" pt_clust_7="13000.00000" pt_clust_8="13000.00000" pt_clust_9="20.34616"></scales>
<clustering>
<clus scale="   20.346">  2  9  1 -1</clus>
<clus scale="   94.012">  7  8 -1 -1</clus>
<clus scale="  104.379">  2  7  1 -1</clus>
<clus scale="  106.053">  5  6 -1 -1</clus>
<clus scale="  115.342">  1  5  2 -1</clus>
</clustering>
</event>
<event>
 9    2  0.3791909E-005  0.1424661E+03  0.7546771E-02  0.1212599E+00
          2   -1    0    0  502    0  0.00000000000E+00  0.00000000000E+00  0.23080839980E+03  0.23080839980E+03  0.00000000000E+00 0. -1.
         -1   -1    0    0    0  501 -0.00000000000E+00 -0.00000000000E+00 -0.25706863889E+03  0.25706863889E+03  0.00000000000E+00 0.  1.
         24    2    1    2    0    0  0.79019627036E+02 -0.78573621644E+02 -0.20625561379E+03  0.24699697080E+03  0.77770237814E+02 0.  0.
         23    2    1    2    0    0 -0.84486531186E+02  0.57455603932E+02  0.14042777748E+03  0.19569763255E+03  0.90213537352E+02 0.  0.
        -11    1    3    3    0    0  0.93881192010E+02 -0.58861951268E+02 -0.16100984241E+03  0.19545479496E+03  0.00000000000E+00 0.  1.
         12    1    3    3    0    0 -0.14861564974E+02 -0.19711670375E+02 -0.45245771388E+02  0.51542175846E+02  0.00000000000E+00 0. -1.
        -13    1    4    4    0    0  0.10409539422E+01  0.40726371049E+02  0.79602437907E+02  0.89421859770E+02  0.00000000000E+00 0.  1.
         13    1    4    4    0    0 -0.85527485128E+02  0.16729232882E+02  0.60825339572E+02  0.10627577278E+03  0.00000000000E+00 0. -1.
         21    1    1    2  502  501  0.54669041501E+01  0.21118017712E+02  0.39567597226E+02  0.45182435341E+02  0.00000000000E+00 0. -1.
<scales pt_clust_5="13000.00000" pt_clust_6="13000.00000" pt_clust_7="13000.00000" pt_clust_8="13000.00000" pt_clust_9="21.81416"></scales>
<clustering>
<clus scale="   21.814">  1  9  2 -1</clus>
<clus scale="   77.770">  5  6 -1 -1</clus>
<clus scale="   90.214">  7  8 -1 -1</clus>
<clus scale="  134.931">  2  5  1 -1</clus>
<clus scale="   21.814">  1  5  2 -1</clus>
</clustering>
</event>
<event>
 9    2  0.3791909E-005  0.9450380E+02  0.7546771E-02  0.1297828E+00
          2   -1    0    0  502    0  0.00000000000E+00  0.00000000000E+00  0.65357152235E+03  0.65357152235E+03  0.00000000000E+00 0. -1.
         -1   -1    0    0    0  501 -0.00000000000E+00 -0.00000000000E+00 -0.30192642818E+02  0.30192642818E+02  0.00000000000E+00 0.  1.
         23    2    1    2    0    0 -0.47273034573E+01 -0.24504106253E+02  0.70431975661E+02  0.11766242353E+03  0.90889955957E+02 0.  0.
         24    2    1    2    0    0  0.29912494119E+02  0.23628547158E+02  0.49252333388E+03  0.50063367123E+03  0.81251294206E+02 0.  0.
        -11    1    4    4    0    0 -0.21069314754E+02  0.48060759488E+01  0.46091631594E+02  0.50906314866E+02  0.00000000000E+00 0.  1.
         12    1    4    4    0    0  0.50981808873E+02  0.18822471210E+02  0.44643170228E+03  0.44972735636E+03  0.00000000000E+00 0. -1.
        -11    1    3    3    0    0 -0.29113600026E+02 -0.50385557081E+02  0.49510087272E+02  0.76403892640E+02  0.00000000000E+00 0.  1.
         11    1    3    3    0    0  0.24386296568E+02  0.25881450828E+02  0.20921888389E+02  0.41258530888E+02  0.00000000000E+00 0. -1.
         21    1    1    2  502  501 -0.25185190661E+02  0.87555909444E+00  0.60423569989E+02  0.65468070405E+02  0.00000000000E+00 0.  1.
<scales pt_clust_5="13000.00000" pt_clust_6="13000.00000" pt_clust_7="13000.00000" pt_clust_8="13000.00000" pt_clust_9="25.20041"></scales>
<clustering>
<clus scale="   25.200">  1  9  2 -1</clus>
<clus scale="   81.251">  5  6 -1 -1</clus>
<clus scale="   85.275">  1  5  2 -1</clus>
<clus scale="   90.890">  7  8 -1 -1</clus>
<clus scale="   25.200">  1  5  2 -1</clus>
</clustering>
</event>
<event>
 9    2  0.3791909E-005  0.1400002E+03  0.7546771E-02  0.1231776E+00
         -1   -1    0    0    0  501 -0.00000000000E+00  0.00000000000E+00  0.23347388112E+03  0.23347388112E+03  0.00000000000E+00 0.  1.
          2   -1    0    0  502    0  0.00000000000E+00 -0.00000000000E+00 -0.30429987181E+03  0.30429987181E+03  0.00000000000E+00 0. -1.
         24    2    1    2    0    0 -0.11117884822E+03  0.13295749502E+02  0.16470581017E+03  0.21605800187E+03  0.83758838489E+02 0.  0.
         23    2    1    2    0    0 -0.36696300103E+01 -0.25801578194E+02 -0.15123956849E+03  0.17870613900E+03  0.91560304807E+02 0.  0.
        -13    1    3    3    0    0 -0.29520757209E+02 -0.25795668583E+02  0.91795845790E+02  0.99816676603E+02  0.00000000000E+00 0.  1.
         14    1    3    3    0    0 -0.81658091010E+02  0.39091418085E+02  0.72909964376E+02  0.11624132527E+03  0.00000000000E+00 0. -1.
        -11    1    4    4    0    0  0.18939524389E+02  0.23582201809E+02 -0.98349169393E+02  0.10289501906E+03  0.00000000000E+00 0.  1.
         11    1    4    4    0    0 -0.22609154399E+02 -0.49383780003E+02 -0.52890399100E+02  0.75811119943E+02  0.00000000000E+00 0. -1.
         21    1    1    2  502  501  0.11484847823E+03  0.12505828693E+02 -0.84292232365E+02  0.14300961205E+03  0.00000000000E+00 0. -1.
<scales pt_clust_5="13000.00000" pt_clust_6="13000.00000" pt_clust_7="13000.00000" pt_clust_8="13000.00000" pt_clust_9="112.18071"></scales>
<clustering>
<clus scale="   83.759">  5  6 -1 -1</clus>
<clus scale="   91.560">  7  8 -1 -1</clus>
<clus scale="   95.197">  2  7  1 -1</clus>
<clus scale="  112.181">  2  9  1 -1</clus>
<clus scale="   95.197">  2  5  1 -1</clus>
</clustering>
</event>
<event>
 9    2  0.3791909E-005  0.9579769E+02  0.7546771E-02  0.1295542E+00
          2   -1    0    0  502    0  0.00000000000E+00  0.00000000000E+00  0.75400264459E+02  0.75400264459E+02  0.00000000000E+00 0. -1.
         -1   -1    0    0    0  501 -0.00000000000E+00 -0.00000000000E+00 -0.36462759092E+03  0.36462759092E+03  0.00000000000E+00 0.  1.
         24    2    1    2    0    0  0.24030962877E+02  0.21179467560E+01 -0.30095844602E+03  0.31266659929E+03  0.81255419526E+02 0.  0.
         23    2    1    2    0    0 -0.45189287574E+02 -0.79909278057E+01  0.98823949186E+00  0.10291588675E+03  0.92112846498E+02 0.  0.
        -13    1    3    3    0    0  0.34889985453E+02 -0.28945955607E+02 -0.23032072856E+03  0.23473989315E+03  0.00000000000E+00 0.  1.
         14    1    3    3    0    0 -0.10859022576E+02  0.31063902363E+02 -0.70637717461E+02  0.77926706138E+02  0.00000000000E+00 0. -1.
        -11    1    4    4    0    0 -0.35302062689E+02  0.39930633789E+02  0.64244308804E+01  0.53683931088E+02  0.00000000000E+00 0. -1.
         11    1    4    4    0    0 -0.98872248850E+01 -0.47921561595E+02 -0.54361913885E+01  0.49231955664E+02  0.00000000000E+00 0.  1.
         21    1    1    2  502  501  0.21158324697E+02  0.58729810496E+01  0.10742880064E+02  0.24445369346E+02  0.00000000000E+00 0.  1.
<scales pt_clust_5="13000.00000" pt_clust_6="13000.00000" pt_clust_7="13000.00000" pt_clust_8="13000.00000" pt_clust_9="21.95829"></scales>
<clustering>
<clus scale="   21.958">  1  9  2 -1</clus>
<clus scale="   81.255">  5  6 -1 -1</clus>
<clus scale="   85.410">  2  5  1 -1</clus>
<clus scale="   92.113">  7  8 -1 -1</clus>
<clus scale="   21.958">  1  5  2 -1</clus>
</clustering>
</event>
<event>
 9    2  0.3791909E-005  0.1809071E+03  0.7546771E-02  0.1168470E+00
         -1   -1    0    0    0  501 -0.00000000000E+00  0.00000000000E+00  0.11043399471E+03  0.11043399471E+03  0.00000000000E+00 0.  1.
          2   -1    0    0  502    0  0.00000000000E+00 -0.00000000000E+00 -0.52320750381E+03  0.52320750381E+03  0.00000000000E+00 0. -1.
         23    2    1    2    0    0 -0.16379413796E+02 -0.12168210890E+03  0.44680536039E+01  0.15308875306E+03  0.91331166573E+02 0.  0.
         24    2    1    2    0    0  0.19188439589E+02  0.16363090413E+03 -0.38982395191E+03  0.43035994290E+03  0.78126167004E+02 0.  0.
        -11    1    4    4    0    0  0.44033992747E+02  0.72080262547E+02 -0.22285041999E+03  0.23832093164E+03  0.00000000000E+00 0.  1.
         12    1    4    4    0    0 -0.24845553158E+02  0.91550641580E+02 -0.16697353192E+03  0.19203901126E+03  0.00000000000E+00 0. -1.
        -13    1    3    3    0    0  0.27170044976E+02 -0.45778694410E+01 -0.40958500902E+01  0.27855775354E+02  0.00000000000E+00 0. -1.
         13    1    3    3    0    0 -0.43549458771E+02 -0.11710423946E+03  0.85639036941E+01  0.12523297771E+03  0.00000000000E+00 0.  1.
         21    1    1    2  502  501 -0.28090257938E+01 -0.41948795228E+02 -0.27417610789E+02  0.50192802555E+02  0.00000000000E+00 0.  1.
<scales pt_clust_5="13000.00000" pt_clust_6="13000.00000" pt_clust_7="13000.00000" pt_clust_8="13000.00000" pt_clust_9="42.04274"></scales>
<clustering>
<clus scale="   42.043">  1  9  2 -1</clus>
<clus scale="   78.126">  5  6 -1 -1</clus>
<clus scale="   91.331">  7  8 -1 -1</clus>
<clus scale="  174.613">  2  5  1 -1</clus>
<clus scale="  174.613">  2  5  1 -1</clus>
</clustering>
</event>
<event>
 9    2  0.3791909E-005  0.2218396E+03  0.7546771E-02  0.1156836E+00
         -1   -1    0    0    0  501 -0.00000000000E+00  0.00000000000E+00  0.10037437120E+03  0.10037437120E+03  0.00000000000E+00 0.  1.
          2   -1    0    0  502    0  0.00000000000E+00 -0.00000000000E+00 -0.11956586624E+04  0.11956586624E+04  0.00000000000E+00 0. -1.
         24    2    1    2    0    0 -0.10886688181E+02 -0.22468414235E+03 -0.10808423180E+03  0.26186936780E+03  0.79321376845E+02 0.  0.
         23    2    1    2    0    0 -0.53553652018E+02  0.65227267944E+02 -0.56164599066E+03  0.57516985575E+03  0.90838064756E+02 0.  0.
        -11    1    3    3    0    0 -0.26246324705E+02 -0.18582589066E+03 -0.57545670722E+02  0.19629476666E+03  0.00000000000E+00 0.  1.
         12    1    3    3    0    0  0.15359636525E+02 -0.38858251692E+02 -0.50538561078E+02  0.65574601139E+02  0.00000000000E+00 0. -1.
        -11    1    4    4    0    0 -0.29012974250E+02  0.86365825929E+02 -0.39069069865E+03  0.40117331737E+03  0.00000000000E+00 0. -1.
         11    1    4    4    0    0 -0.24540677768E+02 -0.21138557984E+02 -0.17095529202E+03  0.17399653838E+03  0.00000000000E+00 0.  1.
         21    1    1    2  502  501  0.64440340199E+02  0.15945687440E+03 -0.42555406872E+03  0.45899381003E+03  0.00000000000E+00 0. -1.
<scales pt_clust_5="13000.00000" pt_clust_6="13000.00000" pt_clust_7="13000.00000" pt_clust_8="13000.00000" pt_clust_9="207.17364"></scales>
<clustering>
<clus scale="   79.321">  5  6 -1 -1</clus>
<clus scale="   90.838">  7  8 -1 -1</clus>
<clus scale="  123.993">  2  7  1 -1</clus>
<clus scale="  207.174">  2  9  1 -1</clus>
<clus scale="  123.993">  2  5  1 -1</clus>
</clustering>
</event>
<event>
 9    2  0.3791909E-005  0.9594922E+02  0.7546771E-02  0.1292989E+00
          2   -1    0    0  502    0  0.00000000000E+00  0.00000000000E+00  0.56612718499E+02  0.56612718499E+02  0.00000000000E+00 0. -1.
         -1   -1    0    0    0  501 -0.00000000000E+00 -0.00000000000E+00 -0.32463589426E+03  0.32463589426E+03  0.00000000000E+00 0.  1.
         24    2    1    2    0    0 -0.19664609074E+01  0.42576258415E+02 -0.23823503755E+03  0.25515259474E+03  0.80810325706E+02 0.  0.
         23    2    1    2    0    0 -0.55219320968E+01 -0.13928424392E+02 -0.91292278404E+01  0.89991101428E+02  0.88264164841E+02 0.  0.
        -11    1    3    3    0    0  0.25944563280E+02  0.43739117068E+02 -0.20740562264E+03  0.21354934566E+03  0.00000000000E+00 0.  1.
         12    1    3    3    0    0 -0.27911024188E+02 -0.11628586532E+01 -0.30829414903E+02  0.41603249088E+02  0.00000000000E+00 0. -1.
        -13    1    4    4    0    0 -0.32526156097E+01 -0.41857398723E+02 -0.32826214571E+02  0.53293355113E+02  0.00000000000E+00 0.  1.
         13    1    4    4    0    0 -0.22693164871E+01  0.27928974331E+02  0.23696986730E+02  0.36697746315E+02  0.00000000000E+00 0. -1.
         21    1    1    2  502  501  0.74883930042E+01 -0.28647834023E+02 -0.20658910375E+02  0.36104916589E+02  0.00000000000E+00 0.  1.
<scales pt_clust_5="13000.00000" pt_clust_6="13000.00000" pt_clust_7="13000.00000" pt_clust_8="13000.00000" pt_clust_9="29.61038"></scales>
<clustering>
<clus scale="   29.610">  1  9  2 -1</clus>
<clus scale="   80.810">  5  6 -1 -1</clus>
<clus scale="   88.264">  7  8 -1 -1</clus>
<clus scale="   89.140">  2  5  1 -1</clus>
<clus scale="   29.610">  1  5  2 -1</clus>
</clustering>
</event>
<event>
 9    2  0.3791909E-005  0.9628994E+02  0.7546771E-02  0.1293257E+00
          4   -1    0    0  502    0  0.00000000000E+00  0.00000000000E+00  0.50616323105E+02  0.50616323105E+02  0.00000000000E+00 0. -1.
         -3   -1    0    0    0  501 -0.00000000000E+00 -0.00000000000E+00 -0.59400578636E+03  0.59400578636E+03  0.00000000000E+00 0.  1.
         23    2    1    2    0    0 -0.32250148556E+02  0.44769401780E+01 -0.48417890144E+03  0.49346792860E+03  0.89561559178E+02 0.  0.
         24    2    1    2    0    0  0.60884317077E+02  0.61229387568E+01 -0.22577022316E+02  0.10346467199E+03  0.80317034113E+02 0.  0.
        -13    1    4    4    0    0  0.32105919366E+02  0.42815105107E+02 -0.18632389718E+02  0.56666473601E+02  0.00000000000E+00 0.  1.
         14    1    4    4    0    0  0.28778397711E+02 -0.36692166351E+02 -0.39446325975E+01  0.46798198391E+02  0.00000000000E+00 0. -1.
        -11    1    3    3    0    0  0.24446879435E+02 -0.21846977152E+02 -0.16642049986E+03  0.16961934766E+03  0.00000000000E+00 0. -1.
         11    1    3    3    0    0 -0.56697027991E+02  0.26323917330E+02 -0.31775840158E+03  0.32384858094E+03  0.00000000000E+00 0.  1.
         21    1    1    2  502  501 -0.28634168522E+02 -0.10599878935E+02 -0.36633539501E+02  0.47689508875E+02  0.00000000000E+00 0.  1.
<scales pt_clust_5="13000.00000" pt_clust_6="13000.00000" pt_clust_7="13000.00000" pt_clust_8="13000.00000" pt_clust_9="30.53315"></scales>
<clustering>
<clus scale="   30.533">  1  9  2 -1</clus>
<clus scale="   80.317">  5  6 -1 -1</clus>
<clus scale="   87.757">  1  5  2 -1</clus>
<clus scale="   89.562">  7  8 -1 -1</clus>
<clus scale="   30.533">  1  5  2 -1</clus>
</clustering>
</event>
<event>
 9    2  0.3791909E-005  0.1987285E+03  0.7546771E-02  0.1151408E+00
          4   -1    0    0  502    0  0.00000000000E+00  0.00000000000E+00  0.44359262292E+03  0.44359262292E+03  0.00000000000E+00 0. -1.
         -3   -1    0    0    0  501 -0.00000000000E+00 -0.00000000000E+00 -0.91009119627E+03  0.91009119627E+03  0.00000000000E+00 0.  1.
         24    2    1    2    0    0  0.15780772665E+03 -0.77745562407E+02 -0.86409588397E+03  0.88613115400E+03  0.87287309043E+02 0.  0.
         23    2    1    2    0    0 -0.13444721895E+03  0.98041636916E+02  0.23821123469E+03  0.30519021521E+03  0.93318046888E+02 0.  0.
        -13    1    3    3    0    0  0.15476072439E+03 -0.90613053661E+02 -0.83679551732E+03  0.85579690647E+03  0.00000000000E+00 0.  1.
         14    1    3    3    0    0  0.30470022604E+01  0.12867491254E+02 -0.27300366650E+02  0.30334247529E+02  0.00000000000E+00 0. -1.
        -11    1    4    4    0    0 -0.75446356295E+02  0.82987624851E+02  0.21001652646E+03  0.23808830283E+03  0.00000000000E+00 0. -1.
         11    1    4    4    0    0 -0.59000862656E+02  0.15054012064E+02  0.28194708230E+02  0.67101912383E+02  0.00000000000E+00 0.  1.
         21    1    1    2  502  501 -0.23360507701E+02 -0.20296074508E+02  0.15938607593E+03  0.16236244998E+03  0.00000000000E+00 0. -1.
<scales pt_clust_5="13000.00000" pt_clust_6="13000.00000" pt_clust_7="13000.00000" pt_clust_8="13000.00000" pt_clust_9="30.94582"></scales>
<clustering>
<clus scale="   30.946">  1  9  2 -1</clus>
<clus scale="   87.287">  5  6 -1 -1</clus>
<clus scale="   93.318">  7  8 -1 -1</clus>
<clus scale="  195.969">  2  5  1 -1</clus>
<clus scale="   30.946">  1  5  2 -1</clus>
</clustering>
</event>
<event>
 9    2  0.3791909E-005  0.1833190E+03  0.7546771E-02  0.1184403E+00
          2   -1    0    0  502    0  0.00000000000E+00  0.00000000000E+00  0.34466289104E+03  0.34466289104E+03  0.00000000000E+00 0. -1.
         -1   -1    0    0    0  501 -0.00000000000E+00 -0.00000000000E+00 -0.19855661747E+03  0.19855661747E+03  0.00000000000E+00 0.  1.
         23    2    1    2    0    0 -0.66898315326E+02 -0.20616634302E+02  0.40367085965E+00  0.11703276884E+03  0.93787396962E+02 0.  0.
         24    2    1    2    0    0 -0.14593014696E+03  0.20708157620E+01  0.13172342413E+03  0.21209489216E+03  0.79581949877E+02 0.  0.
        -11    1    4    4    0    0 -0.82699801013E+02 -0.18581494720E+02  0.28748158193E+02  0.89504109587E+02  0.00000000000E+00 0.  1.
         12    1    4    4    0    0 -0.63230345942E+02  0.20652310482E+02  0.10297526594E+03  0.12259078257E+03  0.00000000000E+00 0. -1.
        -11    1    3    3    0    0  0.18910463852E+02 -0.95928953424E+01  0.19080964872E+02  0.28525646436E+02  0.00000000000E+00 0.  1.
         11    1    3    3    0    0 -0.85808779178E+02 -0.11023738960E+02 -0.18677294012E+02  0.88507122404E+02  0.00000000000E+00 0. -1.
         21    1    1    2  502  501  0.21282846228E+03  0.18545818540E+02  0.13979178582E+02  0.21409184752E+03  0.00000000000E+00 0.  1.
<scales pt_clust_5="13000.00000" pt_clust_6="13000.00000" pt_clust_7="13000.00000" pt_clust_8="13000.00000" pt_clust_9="165.14413"></scales>
<clustering>
<clus scale="   79.582">  5  6 -1 -1</clus>
<clus scale="   93.787">  7  8 -1 -1</clus>
<clus scale="  117.032">  2  7  1 -1</clus>
<clus scale="  165.144">  2  9  1 -1</clus>
<clus scale="  183.319">  1  5  2 -1</clus>
</clustering>
</event>
<event>
 9    2  0.3791909E-005  0.1857137E+03  0.7546771E-02  0.1163006E+00
         -1   -1    0    0    0  501 -0.00000000000E+00  0.00000000000E+00  0.18312633003E+03  0.18312633003E+03  0.00000000000E+00 0.  1.
          2   -1    0    0  502    0  0.00000000000E+00 -0.00000000000E+00 -0.63000582981E+03  0.63000582981E+03  0.00000000000E+00 0. -1.
         23    2    1    2    0    0 -0.11416178195E+01 -0.11477212136E+03  0.11060063727E+03  0.18367709220E+03  0.91273381123E+02 0.  0.
         24    2    1    2    0    0 -0.12165566850E+02  0.16635770102E+03 -0.54266255929E+03  0.57415846916E+03  0.85746187951E+02 0.  0.
        -13    1    4    4    0    0 -0.46787725661E+02  0.12499948529E+03 -0.39651845195E+03  0.41837882993E+03  0.00000000000E+00 0.  1.
         14    1    4    4    0    0  0.34622158811E+02  0.41358215729E+02 -0.14614410734E+03  0.15577963924E+03  0.00000000000E+00 0. -1.
        -11    1    3    3    0    0 -0.11722468152E+02 -0.43349141133E+02 -0.72298021744E+01  0.45484440593E+02  0.00000000000E+00 0. -1.
         11    1    3    3    0    0  0.10580850333E+02 -0.71422980232E+02  0.11783043945E+03  0.13819265161E+03  0.00000000000E+00 0.  1.
         21    1    1    2  502  501  0.13307184669E+02 -0.51585579654E+02 -0.14817577760E+02  0.55296598473E+02  0.00000000000E+00 0. -1.
<scales pt_clust_5="13000.00000" pt_clust_6="13000.00000" pt_clust_7="13000.00000" pt_clust_8="13000.00000" pt_clust_9="53.27432"></scales>
<clustering>
<clus scale="   53.274">  1  9  2 -1</clus>
<clus scale="   85.746">  5  6 -1 -1</clus>
<clus scale="   91.273">  7  8 -1 -1</clus>
<clus scale="  183.061">  2  5  1 -1</clus>
<clus scale="  183.061">  2  5  1 -1</clus>
</clustering>
</event>
<event>
 9    2  0.3791909E-005  0.1366867E+03  0.7546771E-02  0.1220124E+00
          2   -1    0    0  502    0  0.00000000000E+00  0.00000000000E+00  0.28287897213E+03  0.28287897213E+03  0.00000000000E+00 0. -1.
         -1   -1    0    0    0  501 -0.00000000000E+00 -0.00000000000E+00 -0.44870977114E+03  0.44870977114E+03  0.00000000000E+00 0.  1.
         23    2    1    2    0    0  0.91900826035E+02 -0.44092994633E+02 -0.41183904505E+03  0.43378050649E+03  0.90355823183E+02 0.  0.
         24    2    1    2    0    0 -0.94674972045E+02  0.68972957228E+02  0.19849145974E+03  0.24410019824E+03  0.80407885352E+02 0.  0.
        -11    1    4    4    0    0 -0.12355579157E+02  0.33405940321E+02  0.12725820804E+02  0.37822793395E+02  0.00000000000E+00 0.  1.
         12    1    4    4    0    0 -0.82319392888E+02  0.35567016907E+02  0.18576563894E+03  0.20627740484E+03  0.00000000000E+00 0. -1.
        -13    1    3    3    0    0 -0.73401421204E+01 -0.22357593852E+02 -0.27273592319E+02  0.36022056121E+02  0.00000000000E+00 0. -1.
         13    1    3    3    0    0  0.99240968155E+02 -0.21735400781E+02 -0.38456545273E+03  0.39775845037E+03  0.00000000000E+00 0.  1.
         21    1    1    2  502  501  0.27741460104E+01 -0.24879962595E+02  0.47516786290E+02  0.53708038543E+02  0.00000000000E+00 0. -1.
<scales pt_clust_5="13000.00000" pt_clust_6="13000.00000" pt_clust_7="13000.00000" pt_clust_8="13000.00000" pt_clust_9="25.03415"></scales>
<clustering>
<clus scale="   25.034">  1  9  2 -1</clus>
<clus scale="   80.408">  5  6 -1 -1</clus>
<clus scale="   90.356">  7  8 -1 -1</clus>
<clus scale="  130.325">  1  5  2 -1</clus>
<clus scale="   25.034">  1  5  2 -1</clus>
</clustering>
</event>
<event>
 9    2  0.3791909E-005  0.1520079E+03  0.7546771E-02  0.1226596E+00
         -1   -1    0    0    0  501 -0.00000000000E+00  0.00000000000E+00  0.23774920443E+03  0.23774920443E+03  0.00000000000E+00 0.  1.
          2   -1    0    0  502    0  0.00000000000E+00 -0.00000000000E+00 -0.28142280751E+03  0.28142280751E+03  0.00000000000E+00 0. -1.
         23    2    1    2    0    0 -0.48341140156E+02  0.12608005390E+03  0.70496119436E+02  0.17829612052E+03  0.92664760908E+02 0.  0.
         24    2    1    2    0    0  0.43226235934E+01 -0.22665797312E+02 -0.18867152845E+03  0.20603280722E+03  0.79499362018E+02 0.  0.
        -13    1    4    4    0    0 -0.73130549983E+01 -0.34392526772E+02 -0.29192434401E+02  0.45700381808E+02  0.00000000000E+00 0.  1.
         14    1    4    4    0    0  0.11635678592E+02  0.11726729460E+02 -0.15947909405E+03  0.16033242541E+03  0.00000000000E+00 0. -1.
        -11    1    3    3    0    0  0.74293101034E+01  0.97624904642E+02  0.25437188934E+02  0.10115763558E+03  0.00000000000E+00 0.  1.
         11    1    3    3    0    0 -0.55770450259E+02  0.28455149262E+02  0.45058930501E+02  0.77138484945E+02  0.00000000000E+00 0. -1.
         21    1    1    2  502  501  0.44018516562E+02 -0.10341425659E+03  0.74501805932E+02  0.13484308419E+03  0.00000000000E+00 0.  1.
<scales pt_clust_5="13000.00000" pt_clust_6="13000.00000" pt_clust_7="13000.00000" pt_clust_8="13000.00000" pt_clust_9="120.49750"></scales>
<clustering>
<clus scale="   79.499">  5  6 -1 -1</clus>
<clus scale="   82.780">  2  5  1 -1</clus>
<clus scale="   92.665">  7  8 -1 -1</clus>
<clus scale="  120.498">  1  9  2 -1</clus>
<clus scale="   82.780">  2  5  1 -1</clus>
</clustering>
</event>
<event>
 9    2  0.3791909E-005  0.1308646E+03  0.7546771E-02  0.1228829E+00
          2   -1    0    0  502    0  0.00000000000E+00  0.00000000000E+00  0.23245403736E+03  0.23245403736E+03  0.00000000000E+00 0. -1.
         -1   -1    0    0    0  501 -0.00000000000E+00 -0.00000000000E+00 -0.34058424496E+03  0.34058424496E+03  0.00000000000E+00 0.  1.
         23    2    1    2    0    0  0.88467496807E+01  0.92706222442E+02 -0.29692613936E+03  0.32420120514E+03  0.90931735481E+02 0.  0.
         24    2    1    2    0    0  0.12080205402E+02 -0.10833688087E+03  0.15112894053E+03  0.20299978712E+03  0.80536611463E+02 0.  0.
        -13    1    4    4    0    0  0.27886700079E+02 -0.13535675292E+02  0.72413324354E+02  0.78769106196E+02  0.00000000000E+00 0.  1.
         14    1    4    4    0    0 -0.15806494677E+02 -0.94801205578E+02  0.78715616176E+02  0.12423068092E+03  0.00000000000E+00 0. -1.
        -13    1    3    3    0    0 -0.25934121825E+02  0.64875816276E+01 -0.24183792568E+02  0.36048900304E+02  0.00000000000E+00 0. -1.
         13    1    3    3    0    0  0.34780871505E+02  0.86218640815E+02 -0.27274234680E+03  0.28815230484E+03  0.00000000000E+00 0.  1.
         21    1    1    2  502  501 -0.20926955082E+02  0.15630658427E+02  0.37666991228E+02  0.45837290060E+02  0.00000000000E+00 0.  1.
<scales pt_clust_5="13000.00000" pt_clust_6="13000.00000" pt_clust_7="13000.00000" pt_clust_8="13000.00000" pt_clust_9="26.12001"></scales>
<clustering>
<clus scale="   26.120">  1  9  2 -1</clus>
<clus scale="   80.537">  5  6 -1 -1</clus>
<clus scale="   90.932">  7  8 -1 -1</clus>
<clus scale="  123.867">  1  5  2 -1</clus>
<clus scale="   26.120">  1  5  2 -1</clus>
</clustering>
</event>
<event>
 9    2  0.3791909E-005  0.1001278E+03  0.7546771E-02  0.1286120E+00
         -1   -1    0    0    0  501 -0.00000000000E+00  0.00000000000E+00  0.21213763193E+03  0.21213763193E+03  0.00000000000E+00 0.  1.
          2   -1    0    0  502    0  0.00000000000E+00 -0.00000000000E+00 -0.15470035543E+03  0.15470035543E+03  0.00000000000E+00 0. -1.
         24    2    1    2    0    0 -0.72784719706E+01  0.35655820666E+02  0.11227485771E+03  0.14251508878E+03  0.79878615129E+02 0.  0.
         23    2    1    2    0    0  0.28685438426E+02 -0.40426032887E+02  0.51019493297E+02  0.11621770277E+03  0.91904554994E+02 0.  0.
        -13    1    3    3    0    0  0.27379133758E+02  0.31034899401E+02  0.94772557430E+02  0.10341479385E+03  0.00000000000E+00 0.  1.
         14    1    3    3    0    0 -0.34657605729E+02  0.46209212650E+01  0.17502300277E+02  0.39100294925E+02  0.00000000000E+00 0. -1.
        -11    1    4    4    0    0 -0.14480162119E+02 -0.52930095324E+02  0.44818461634E+02  0.70851708443E+02  0.00000000000E+00 0. -1.
         11    1    4    4    0    0  0.43165600545E+02  0.12504062437E+02  0.62010316627E+01  0.45365994329E+02  0.00000000000E+00 0.  1.
         21    1    1    2  502  501 -0.21406966456E+02  0.47702122216E+01 -0.10585707451E+03  0.10810519581E+03  0.00000000000E+00 0. -1.
<scales pt_clust_5="13000.00000" pt_clust_6="13000.00000" pt_clust_7="13000.00000" pt_clust_8="13000.00000" pt_clust_9="21.93201"></scales>
<clustering>
<clus scale="   21.932">  2  9  1 -1</clus>
<clus scale="   79.879">  5  6 -1 -1</clus>
<clus scale="   89.217">  1  5  2 -1</clus>
<clus scale="   91.905">  7  8 -1 -1</clus>
<clus scale="   21.932">  2  5  1 -1</clus>
</clustering>
</event>
<event>
 9    2  0.3791909E-005  0.1020087E+03  0.7546771E-02  0.1282727E+00
          2   -1    0    0  502    0  0.00000000000E+00  0.00000000000E+00  0.13993747699E+04  0.13993747699E+04  0.00000000000E+00 0. -1.
         -1   -1    0    0    0  501 -0.00000000000E+00 -0.00000000000E+00 -0.21403094095E+02  0.21403094095E+02  0.00000000000E+00 0.  1.
         23    2    1    2    0    0 -0.55830379976E+01 -0.36264567366E+02  0.15689358621E+03  0.18745572577E+03  0.95800639718E+02 0.  0.
         24    2    1    2    0    0 -0.55226210287E+02  0.27017650681E+02  0.93691251945E+03  0.94257595785E+03  0.82852154292E+02 0.  0.
        -11    1    4    4    0    0 -0.30076704400E+02  0.21307331883E+02  0.12668865103E+03  0.13194174790E+03  0.00000000000E+00 0.  1.
         12    1    4    4    0    0 -0.25149505887E+02  0.57103187970E+01  0.81022386842E+03  0.81063420995E+03  0.00000000000E+00 0. -1.
        -11    1    3    3    0    0  0.37588427302E+02  0.82883869445E+01  0.78979400866E+02  0.87859734727E+02  0.00000000000E+00 0.  1.
         11    1    3    3    0    0 -0.43171465300E+02 -0.44552954310E+02  0.77914185346E+02  0.99595991044E+02  0.00000000000E+00 0. -1.
         21    1    1    2  502  501  0.60809248285E+02  0.92469166852E+01  0.28416557014E+03  0.29074618037E+03  0.00000000000E+00 0.  1.
<scales pt_clust_5="13000.00000" pt_clust_6="13000.00000" pt_clust_7="13000.00000" pt_clust_8="13000.00000" pt_clust_9="61.50829"></scales>
<clustering>
<clus scale="   61.508">  1  9  2 -1</clus>
<clus scale="   82.852">  5  6 -1 -1</clus>
<clus scale="   89.958">  1  5  2 -1</clus>
<clus scale="   95.801">  7  8 -1 -1</clus>
<clus scale="   61.508">  1  5  2 -1</clus>
</clustering>
</event>
<event>
 9    2  0.3791909E-005  0.1027041E+03  0.7546771E-02  0.1281879E+00
          2   -1    0    0  502    0  0.00000000000E+00  0.00000000000E+00  0.30931555098E+02  0.30931555098E+02  0.00000000000E+00 0. -1.
         -1   -1    0    0    0  501 -0.00000000000E+00 -0.00000000000E+00 -0.39419137612E+03  0.39419137612E+03  0.00000000000E+00 0.  1.
         23    2    1    2    0    0  0.84840403901E+01 -0.49943130000E+02 -0.23516855618E+03  0.25827675339E+03  0.94001789070E+02 0.  0.
         24    2    1    2    0    0 -0.37501849228E+01  0.29694808931E+02 -0.11207099020E+03  0.14059635700E+03  0.79445473090E+02 0.  0.
        -13    1    4    4    0    0 -0.53960078408E+01  0.45750226617E+02 -0.11527741219E+03  0.12414137866E+03  0.00000000000E+00 0.  1.
         14    1    4    4    0    0  0.16458229180E+01 -0.16055417686E+02  0.32064219898E+01  0.16454978339E+02  0.00000000000E+00 0. -1.
        -13    1    3    3    0    0  0.29106980957E+02  0.61278169718E+01 -0.22279727542E+02  0.37163863371E+02  0.00000000000E+00 0.  1.
         13    1    3    3    0    0 -0.20622940567E+02 -0.56070946972E+02 -0.21288882864E+03  0.22111289002E+03  0.00000000000E+00 0. -1.
         21    1    1    2  502  501 -0.47338554672E+01  0.20248321069E+02 -0.16020274637E+02  0.26249820821E+02  0.00000000000E+00 0.  1.
<scales pt_clust_5="13000.00000" pt_clust_6="13000.00000" pt_clust_7="13000.00000" pt_clust_8="13000.00000" pt_clust_9="20.79432"></scales>
<clustering>
<clus scale="   20.794">  1  9  2 -1</clus>
<clus scale="   79.445">  5  6 -1 -1</clus>
<clus scale="   89.573">  1  5  2 -1</clus>
<clus scale="   94.002">  7  8 -1 -1</clus>
<clus scale="   20.794">  1  5  2 -1</clus>
</clustering>
</event>
<event>
 9    2  0.3791909E-005  0.1029280E+03  0.7546771E-02  0.1281875E+00
         -1   -1    0    0    0  501 -0.00000000000E+00  0.00000000000E+00  0.48013877345E+03  0.48013877345E+03  0.00000000000E+00 0.  1.
          2   -1    0    0  502    0  0.00000000000E+00 -0.00000000000E+00 -0.40779445118E+02  0.40779445118E+02  0.00000000000E+00 0. -1.
         24    2    1    2    0    0  0.26617025471E+02  0.31083351012E+02  0.23577675997E+03  0.25204341726E+03  0.79123718867E+02 0.  0.
         23    2    1    2    0    0  0.24680994847E+02 -0.59915918922E+02  0.11364016404E+03  0.16139252390E+03  0.94521907735E+02 0.  0.
        -11    1    3    3    0    0  0.41184486485E+02  0.45531652853E+02  0.12362742723E+03  0.13803272837E+03  0.00000000000E+00 0.  1.
         12    1    3    3    0    0 -0.14567461014E+02 -0.14448301841E+02  0.11214933274E+03  0.11401068889E+03  0.00000000000E+00 0. -1.
        -13    1    4    4    0    0  0.48696134402E+02  0.10068404933E+01  0.41787905230E+02  0.64175978816E+02  0.00000000000E+00 0. -1.
         13    1    4    4    0    0 -0.24015139554E+02 -0.60922759415E+02  0.71852258811E+02  0.97216545088E+02  0.00000000000E+00 0.  1.
         21    1    1    2  502  501 -0.51298020318E+02  0.28832567910E+02  0.89942404316E+02  0.10748227740E+03  0.00000000000E+00 0.  1.
<scales pt_clust_5="13000.00000" pt_clust_6="13000.00000" pt_clust_7="13000.00000" pt_clust_8="13000.00000" pt_clust_9="58.84559"></scales>
<clustering>
<clus scale="   58.846">  2  9  1 -1</clus>
<clus scale="   79.124">  5  6 -1 -1</clus>
<clus scale="   88.996">  1  5  2 -1</clus>
<clus scale="   94.522">  7  8 -1 -1</clus>
<clus scale="   58.846">  2  5  1 -1</clus>
</clustering>
</event>
<event>
 9    2  0.3791909E-005  0.1225447E+03  0.7546771E-02  0.1244931E+00
         -1   -1    0    0    0  501 -0.00000000000E+00  0.00000000000E+00  0.17793890692E+03  0.17793890692E+03  0.00000000000E+00 0.  1.
          2   -1    0    0  502    0  0.00000000000E+00 -0.00000000000E+00 -0.19738723417E+03  0.19738723417E+03  0.00000000000E+00 0. -1.
         24    2    1    2    0    0  0.65245546411E+02  0.40228417588E+02  0.79463637835E+02  0.13492679418E+03  0.77559416851E+02 0.  0.
         23    2    1    2    0    0 -0.85504962889E+02  0.64587312392E+01  0.38358373359E+00  0.12882094471E+03  0.96134669980E+02 0.  0.
        -13    1    3    3    0    0 -0.75624202422E+01  0.26247123818E+02  0.46194686298E+02  0.53666104301E+02  0.00000000000E+00 0.  1.
         14    1    3    3    0    0  0.72807966654E+02  0.13981293770E+02  0.33268951536E+02  0.81260689882E+02  0.00000000000E+00 0. -1.
        -11    1    4    4    0    0 -0.20703325315E+02 -0.96056928213E+01 -0.43362561465E+02  0.49002130061E+02  0.00000000000E+00 0. -1.
         11    1    4    4    0    0 -0.64801637573E+02  0.16064424060E+02  0.43746145199E+02  0.79818814651E+02  0.00000000000E+00 0.  1.
         21    1    1    2  502  501  0.20259416478E+02 -0.46687148827E+02 -0.99295548815E+02  0.11157840219E+03  0.00000000000E+00 0.  1.
<scales pt_clust_5="13000.00000" pt_clust_6="13000.00000" pt_clust_7="13000.00000" pt_clust_8="13000.00000" pt_clust_9="50.89336"></scales>
<clustering>
<clus scale="   50.893">  2  9  1 -1</clus>
<clus scale="   77.559">  5  6 -1 -1</clus>
<clus scale="   96.135">  7  8 -1 -1</clus>
<clus scale="  108.585">  1  5  2 -1</clus>
<clus scale="   50.893">  2  5  1 -1</clus>
</clustering>
</event>
<event>
 9    2  0.3791909E-005  0.9409993E+02  0.7546771E-02  0.1298654E+00
         -1   -1    0    0    0  501 -0.00000000000E+00  0.00000000000E+00  0.94673255178E+02  0.94673255178E+02  0.00000000000E+00 0.  1.
          2   -1    0    0  502    0  0.00000000000E+00 -0.00000000000E+00 -0.26078050263E+03  0.26078050263E+03  0.00000000000E+00 0. -1.
         23    2    1    2    0    0  0.18291559498E+02 -0.16202375596E+02  0.52975152940E+02  0.10784114545E+03  0.90698664261E+02 0.  0.
         24    2    1    2    0    0 -0.34406599783E+02  0.21772439348E+01 -0.13855176655E+03  0.16429645650E+03  0.81290707354E+02 0.  0.
        -11    1    4    4    0    0 -0.30934022679E+02  0.19921175795E+02 -0.15502804999E+02  0.39926231565E+02  0.00000000000E+00 0.  1.
         12    1    4    4    0    0 -0.34725771037E+01 -0.17743931860E+02 -0.12304896156E+03  0.12437022493E+03  0.00000000000E+00 0. -1.
        -13    1    3    3    0    0  0.76129124003E+01  0.22328844098E+02  0.62443965244E+02  0.66751647990E+02  0.00000000000E+00 0.  1.
         13    1    3    3    0    0  0.10678647097E+02 -0.38531219694E+02 -0.94688123037E+01  0.41089497459E+02  0.00000000000E+00 0. -1.
         21    1    1    2  502  501  0.16115040285E+02  0.14025131661E+02 -0.80530633843E+02  0.83316155868E+02  0.00000000000E+00 0.  1.
<scales pt_clust_5="13000.00000" pt_clust_6="13000.00000" pt_clust_7="13000.00000" pt_clust_8="13000.00000" pt_clust_9="21.36349"></scales>
<clustering>
<clus scale="   21.363">  2  9  1 -1</clus>
<clus scale="   81.291">  5  6 -1 -1</clus>
<clus scale="   85.069">  2  5  1 -1</clus>
<clus scale="   90.699">  7  8 -1 -1</clus>
<clus scale="   21.363">  2  5  1 -1</clus>
</clustering>
</event>
<event>
 9    2  0.3791909E-005  0.9422788E+02  0.7546771E-02  0.1298143E+00
          2   -1    0    0  502    0  0.00000000000E+00  0.00000000000E+00  0.34628601843E+03  0.34628601843E+03  0.00000000000E+00 0. -1.
         -1   -1    0    0    0  501 -0.00000000000E+00 -0.00000000000E+00 -0.85423284995E+02  0.85423284995E+02  0.00000000000E+00 0.  1.
         23    2    1    2    0    0  0.94941933359E+01 -0.30648068198E+02 -0.42108141313E+02  0.10433678501E+03  0.89908983698E+02 0.  0.
         24    2    1    2    0    0  0.14577735644E+02  0.12122435075E+02  0.14989004822E+03  0.17130715936E+03  0.80744365028E+02 0.  0.
        -11    1    4    4    0    0  0.44280686448E+02 -0.66111608837E+01  0.60483213475E+02  0.75250951840E+02  0.00000000000E+00 0.  1.
         12    1    4    4    0    0 -0.29702950803E+02  0.18733595959E+02  0.89406834746E+02  0.96056207521E+02  0.00000000000E+00 0. -1.
        -13    1    3    3    0    0  0.42781021255E+02 -0.19851395358E+02 -0.49714024132E+02  0.68525746057E+02  0.00000000000E+00 0.  1.
         13    1    3    3    0    0 -0.33286827919E+02 -0.10796672840E+02  0.76058828184E+01  0.35811038951E+02  0.00000000000E+00 0. -1.
         21    1    1    2  502  501 -0.24071928980E+02  0.18525633123E+02  0.15308082653E+03  0.15606535906E+03  0.00000000000E+00 0. -1.
<scales pt_clust_5="13000.00000" pt_clust_6="13000.00000" pt_clust_7="13000.00000" pt_clust_8="13000.00000" pt_clust_9="30.37527"></scales>
<clustering>
<clus scale="   30.375">  1  9  2 -1</clus>
<clus scale="   80.744">  5  6 -1 -1</clus>
<clus scale="   85.527">  1  5  2 -1</clus>
<clus scale="   89.909">  7  8 -1 -1</clus>
<clus scale="   30.375">  1  5  2 -1</clus>
</clustering>
</event>
<event>
 9    2  0.3791909E-005  0.1647297E+03  0.7546771E-02  0.1183887E+00
          4   -1    0    0  502    0  0.00000000000E+00  0.00000000000E+00  0.38523832756E+03  0.38523832756E+03  0.00000000000E+00 0. -1.
         -3   -1    0    0    0  501 -0.00000000000E+00 -0.00000000000E+00 -0.11986012058E+03  0.11986012058E+03  0.00000000000E+00 0.  1.
         24    2    1    2    0    0  0.92609612196E+02 -0.92408472135E+02  0.35527721050E+01  0.15832246228E+03  0.89092726291E+02 0.  0.
         23    2    1    2    0    0 -0.92585151517E+02  0.13261783532E+03  0.18695243061E+03  0.26178916186E+03  0.86155983127E+02 0.  0.
        -13    1    3    3    0    0  0.82766483960E+02 -0.76927788029E+02 -0.32750949207E+02  0.11764692989E+03  0.00000000000E+00 0.  1.
         14    1    3    3    0    0  0.98431282358E+01 -0.15480684107E+02  0.36303721312E+02  0.40675532387E+02  0.00000000000E+00 0. -1.
        -13    1    4    4    0    0 -0.77715173502E+02  0.65859669133E+02  0.61746928638E+02  0.11912106198E+03  0.00000000000E+00 0.  1.
         13    1    4    4    0    0 -0.14869978015E+02  0.66758166185E+02  0.12520550197E+03  0.14266809988E+03  0.00000000000E+00 0. -1.
         21    1    1    2  502  501 -0.24460679501E-01 -0.40209363183E+02  0.74873004266E+02  0.84986824001E+02  0.00000000000E+00 0. -1.
<scales pt_clust_5="13000.00000" pt_clust_6="13000.00000" pt_clust_7="13000.00000" pt_clust_8="13000.00000" pt_clust_9="40.20937"></scales>
<clustering>
<clus scale="   40.209">  1  9  2 -1</clus>
<clus scale="   86.156">  7  8 -1 -1</clus>
<clus scale="   89.093">  5  6 -1 -1</clus>
<clus scale="  163.160">  1  7  2 -1</clus>
<clus scale="   40.209">  1  5  2 -1</clus>
</clustering>
</event>
<event>
 9    2  0.3791909E-005  0.1905715E+03  0.7546771E-02  0.1180497E+00
          2   -1    0    0  502    0  0.00000000000E+00  0.00000000000E+00  0.18479640678E+04  0.18479640678E+04  0.00000000000E+00 0. -1.
         -1   -1    0    0    0  501 -0.00000000000E+00 -0.00000000000E+00 -0.58742109267E+02  0.58742109267E+02  0.00000000000E+00 0.  1.
         24    2    1    2    0    0 -0.83646210310E+02 -0.20049246302E+02  0.61562901750E+02  0.12928741428E+03  0.74340997058E+02 0.  0.
         23    2    1    2    0    0 -0.82450417885E+02  0.95627332413E+02  0.29991036163E+03  0.33805554472E+03  0.91611506866E+02 0.  0.
        -13    1    3    3    0    0 -0.74277095273E+02 -0.51096486339E+01  0.10405894506E+02  0.75176312971E+02  0.00000000000E+00 0.  1.
         14    1    3    3    0    0 -0.93691150371E+01 -0.14939597668E+02  0.51157007244E+02  0.54111101313E+02  0.00000000000E+00 0. -1.
        -13    1    4    4    0    0 -0.40756644124E+01  0.73929190538E+02  0.12778312946E+03  0.14768434050E+03  0.00000000000E+00 0.  1.
         13    1    4    4    0    0 -0.78374753473E+02  0.21698141875E+02  0.17212723217E+03  0.19037120422E+03  0.00000000000E+00 0. -1.
         21    1    1    2  502  501  0.16609662820E+03 -0.75578086111E+02  0.14277486952E+04  0.14393632181E+04  0.00000000000E+00 0. -1.
<scales pt_clust_5="13000.00000" pt_clust_6="13000.00000" pt_clust_7="13000.00000" pt_clust_8="13000.00000" pt_clust_9="167.10727"></scales>
<clustering>
<clus scale="   74.341">  5  6 -1 -1</clus>
<clus scale="   91.612">  7  8 -1 -1</clus>
<clus scale="  113.689">  2  5  1 -1</clus>
<clus scale="  167.107">  1  9  2 -1</clus>
<clus scale="  167.107">  1  5  2 -1</clus>
</clustering>
</event>
<event>
 9    2  0.3791909E-005  0.1114047E+03  0.7546771E-02  0.1265080E+00
          2   -1    0    0  502    0  0.00000000000E+00  0.00000000000E+00  0.64813400095E+03  0.64813400095E+03  0.00000000000E+00 0. -1.
         -1   -1    0    0    0  501 -0.00000000000E+00 -0.00000000000E+00 -0.10102129750E+03  0.10102129750E+03  0.00000000000E+00 0.  1.
         23    2    1    2    0    0  0.11822630219E+02 -0.53192505290E+02 -0.59741050511E+02  0.12573617428E+03  0.96287980574E+02 0.  0.
         24    2    1    2    0    0  0.20479054346E+01  0.79506993940E+02  0.45020386244E+03  0.46396997056E+03  0.79114220100E+02 0.  0.
        -13    1    4    4    0    0  0.38182109492E+02  0.24409555201E+02  0.15419462757E+03  0.16071615675E+03  0.00000000000E+00 0.  1.
         14    1    4    4    0    0 -0.36134204057E+02  0.55097438739E+02  0.29600923488E+03  0.30325381381E+03  0.00000000000E+00 0. -1.
        -13    1    3    3    0    0 -0.22631629194E+02 -0.18505087979E+02  0.17684183076E+02  0.34166639463E+02  0.00000000000E+00 0. -1.
         13    1    3    3    0    0  0.34454259413E+02 -0.34687417311E+02 -0.77425233587E+02  0.91569534821E+02  0.00000000000E+00 0.  1.
         21    1    1    2  502  501 -0.13870535653E+02 -0.26314488651E+02  0.15664989152E+03  0.15944915360E+03  0.00000000000E+00 0.  1.
<scales pt_clust_5="13000.00000" pt_clust_6="13000.00000" pt_clust_7="13000.00000" pt_clust_8="13000.00000" pt_clust_9="29.74633"></scales>
<clustering>
<clus scale="   29.746">  1  9  2 -1</clus>
<clus scale="   79.114">  5  6 -1 -1</clus>
<clus scale="   96.288">  7  8 -1 -1</clus>
<clus scale="   96.947">  1  5  2 -1</clus>
<clus scale="   29.746">  1  5  2 -1</clus>
</clustering>
</event>
<event>
 9    2  0.3791909E-005  0.1125305E+03  0.7546771E-02  0.1261859E+00
         -3   -1    0    0    0  501 -0.00000000000E+00  0.00000000000E+00  0.43651185179E+03  0.43651185179E+03  0.00000000000E+00 0.  1.
          4   -1    0    0  502    0  0.00000000000E+00 -0.00000000000E+00 -0.13626872415E+03  0.13626872415E+03  0.00000000000E+00 0. -1.
         24    2    1    2    0    0  0.12790049905E+02  0.59725098597E+02  0.37512415833E+03  0.38860554912E+03  0.81027562358E+02 0.  0.
         23    2    1    2    0    0 -0.40697363539E+02 -0.30689856156E+02 -0.11649788730E+02  0.10920801128E+03  0.95877679783E+02 0.  0.
        -11    1    3    3    0    0 -0.31284663081E+02  0.16357385443E+02  0.86391870548E+02  0.93326574454E+02  0.00000000000E+00 0.  1.
         12    1    3    3    0    0  0.44074712986E+02  0.43367713155E+02  0.28873228779E+03  0.29527897467E+03  0.00000000000E+00 0. -1.
        -11    1    4    4    0    0  0.10935554874E+02 -0.32509062144E+02 -0.38017843073E+02  0.51203338502E+02  0.00000000000E+00 0. -1.
         11    1    4    4    0    0 -0.51632918413E+02  0.18192059881E+01  0.26368054343E+02  0.58004672778E+02  0.00000000000E+00 0.  1.
         21    1    1    2  502  501  0.27907313634E+02 -0.29035242442E+02 -0.63231241965E+02  0.74967015536E+02  0.00000000000E+00 0. -1.
<scales pt_clust_5="13000.00000" pt_clust_6="13000.00000" pt_clust_7="13000.00000" pt_clust_8="13000.00000" pt_clust_9="40.27237"></scales>
<clustering>
<clus scale="   40.272">  2  9  1 -1</clus>
<clus scale="   81.028">  5  6 -1 -1</clus>
<clus scale="   95.878">  7  8 -1 -1</clus>
<clus scale="  100.180">  1  5  2 -1</clus>
<clus scale="   40.272">  2  5  1 -1</clus>
</clustering>
</event>
<event>
 9    2  0.3791909E-005  0.2877457E+03  0.7546771E-02  0.1091855E+00
          2   -1    0    0  502    0  0.00000000000E+00  0.00000000000E+00  0.13725454657E+04  0.13725454657E+04  0.00000000000E+00 0. -1.
         -1   -1    0    0    0  501 -0.00000000000E+00 -0.00000000000E+00 -0.11339976372E+03  0.11339976372E+03  0.00000000000E+00 0.  1.
         23    2    1    2    0    0 -0.24605180861E+03  0.81086486728E+02  0.22346277764E+03  0.35414393503E+03  0.91464763016E+02 0.  0.
         24    2    1    2    0    0  0.31151263006E+03 -0.23784134575E+01  0.56922237572E+03  0.65423923208E+03  0.83481041184E+02 0.  0.
        -13    1    4    4    0    0  0.46796737427E+02 -0.31923329458E+01  0.36724351002E+02  0.59571835459E+02  0.00000000000E+00 0.  1.
         14    1    4    4    0    0  0.26471589264E+03  0.81391948835E+00  0.53249802472E+03  0.59466739662E+03  0.00000000000E+00 0. -1.
        -13    1    3    3    0    0 -0.35308134716E+02 -0.12190834462E+02  0.70792947988E+01  0.38018380250E+02  0.00000000000E+00 0.  1.
         13    1    3    3    0    0 -0.21074367390E+03  0.93277321190E+02  0.21638348284E+03  0.31612555478E+03  0.00000000000E+00 0. -1.
         21    1    1    2  502  501 -0.65460821451E+02 -0.78708073270E+02  0.46646054858E+03  0.47756206228E+03  0.00000000000E+00 0.  1.
<scales pt_clust_5="13000.00000" pt_clust_6="13000.00000" pt_clust_7="13000.00000" pt_clust_8="13000.00000" pt_clust_9="102.37226"></scales>
<clustering>
<clus scale="   83.481">  5  6 -1 -1</clus>
<clus scale="   91.465">  7  8 -1 -1</clus>
<clus scale="  102.372">  1  9  2 -1</clus>
<clus scale="  285.308">  1  5  2 -1</clus>
<clus scale="  102.372">  1  5  2 -1</clus>
</clustering>
</event>
<event>
 9    2  0.3791909E-005  0.1335088E+03  0.7546771E-02  0.1225285E+00
         -1   -1    0    0    0  501 -0.00000000000E+00  0.00000000000E+00  0.63193299655E+03  0.63193299655E+03  0.00000000000E+00 0.  1.
          2   -1    0    0  502    0  0.00000000000E+00 -0.00000000000E+00 -0.57345647274E+02  0.57345647274E+02  0.00000000000E+00 0. -1.
         23    2    1    2    0    0  0.51138122500E+02 -0.65451141660E+02  0.31326225348E+03  0.33699954720E+03  0.92393159089E+02 0.  0.
         24    2    1    2    0    0 -0.96484158494E+02  0.69468880750E+02  0.27013219580E+03  0.30591132528E+03  0.80468736130E+02 0.  0.
        -11    1    4    4    0    0 -0.80743918950E+02  0.15834434264E+02  0.19975011654E+03  0.21603337430E+03  0.00000000000E+00 0.  1.
         12    1    4    4    0    0 -0.15740239544E+02  0.53634446487E+02  0.70382079268E+02  0.89877950983E+02  0.00000000000E+00 0. -1.
        -13    1    3    3    0    0  0.62701639570E+02 -0.59816978396E+01  0.14217265126E+03  0.15550028643E+03  0.00000000000E+00 0.  1.
         13    1    3    3    0    0 -0.11563517070E+02 -0.59469443820E+02  0.17108960221E+03  0.18149926077E+03  0.00000000000E+00 0. -1.
         21    1    1    2  502  501  0.45346035995E+02 -0.40177390904E+01 -0.88071000052E+01  0.46367771332E+02  0.00000000000E+00 0.  1.
<scales pt_clust_5="13000.00000" pt_clust_6="13000.00000" pt_clust_7="13000.00000" pt_clust_8="13000.00000" pt_clust_9="45.52368"></scales>
<clustering>
<clus scale="   45.524">  2  9  1 -1</clus>
<clus scale="   80.469">  5  6 -1 -1</clus>
<clus scale="   92.393">  7  8 -1 -1</clus>
<clus scale="  125.552">  2  5  1 -1</clus>
<clus scale="   45.524">  2  5  1 -1</clus>
</clustering>
</event>
<event>
 9    2  0.3791909E-005  0.2942927E+03  0.7546771E-02  0.1088342E+00
          2   -1    0    0  502    0  0.00000000000E+00  0.00000000000E+00  0.14210413987E+04  0.14210413987E+04  0.00000000000E+00 0. -1.
         -1   -1    0    0    0  501 -0.00000000000E+00 -0.00000000000E+00 -0.93216804244E+02  0.93216804244E+02  0.00000000000E+00 0.  1.
         23    2    1    2    0    0  0.28070023321E+03  0.55222132573E+02  0.23834705551E+03  0.38222948299E+03  0.86301529215E+02 0.  0.
         24    2    1    2    0    0 -0.26402597595E+03 -0.32869845671E+02  0.10190693270E+04  0.10562991227E+04  0.80469874712E+02 0.  0.
        -11    1    4    4    0    0 -0.55904109231E+02  0.63781181079E+01  0.11876972096E+03  0.13142372859E+03  0.00000000000E+00 0.  1.
         12    1    4    4    0    0 -0.20812186672E+03 -0.39247963779E+02  0.90029960600E+03  0.92487539411E+03  0.00000000000E+00 0. -1.
        -13    1    3    3    0    0  0.26124294022E+02  0.32427185971E+02  0.20599425267E+02  0.46457910516E+02  0.00000000000E+00 0. -1.
         13    1    3    3    0    0  0.25457593919E+03  0.22794946602E+02  0.21774763024E+03  0.33577157247E+03  0.00000000000E+00 0.  1.
         21    1    1    2  502  501 -0.16674257260E+02 -0.22352286902E+02  0.70408212000E+02  0.75729597266E+02  0.00000000000E+00 0. -1.
<scales pt_clust_5="13000.00000" pt_clust_6="13000.00000" pt_clust_7="13000.00000" pt_clust_8="13000.00000" pt_clust_9="27.88648"></scales>
<clustering>
<clus scale="   27.886">  1  9  2 -1</clus>
<clus scale="   80.470">  5  6 -1 -1</clus>
<clus scale="   86.302">  7  8 -1 -1</clus>
<clus scale="  292.636">  1  5  2 -1</clus>
<clus scale="   27.886">  1  5  2 -1</clus>
</clustering>
</event>
<event>
 9    2  0.3791909E-005  0.1749920E+03  0.7546771E-02  0.1174624E+00
          2   -1    0    0  502    0  0.00000000000E+00  0.00000000000E+00  0.96364667394E+03  0.96364667394E+03  0.00000000000E+00 0. -1.
         -1   -1    0    0    0  501 -0.00000000000E+00 -0.00000000000E+00 -0.61753805040E+02  0.61753805040E+02  0.00000000000E+00 0.  1.
         23    2    1    2    0    0 -0.14445118793E+03 -0.26941476275E+02  0.11531555701E+03  0.20926648147E+03  0.94354616961E+02 0.  0.
         24    2    1    2    0    0  0.15201022651E+03 -0.88790699103E+01  0.53644892122E+03  0.56334067795E+03  0.79933269087E+02 0.  0.
        -13    1    4    4    0    0  0.63792710365E+02 -0.43492493681E+02  0.24195352602E+03  0.25397365150E+03  0.00000000000E+00 0.  1.
         14    1    4    4    0    0  0.88217516145E+02  0.34613423771E+02  0.29449539520E+03  0.30936702645E+03  0.00000000000E+00 0. -1.
        -13    1    3    3    0    0 -0.86381469433E+02  0.30776738887E+01  0.12366133855E+02  0.87316387949E+02  0.00000000000E+00 0.  1.
         13    1    3    3    0    0 -0.58069718498E+02 -0.30019150164E+02  0.10294942315E+03  0.12195009353E+03  0.00000000000E+00 0. -1.
         21    1    1    2  502  501 -0.75590385787E+01  0.35820546185E+02  0.25012839067E+03  0.25279331956E+03  0.00000000000E+00 0.  1.
<scales pt_clust_5="13000.00000" pt_clust_6="13000.00000" pt_clust_7="13000.00000" pt_clust_8="13000.00000" pt_clust_9="36.60943"></scales>
<clustering>
<clus scale="   36.609">  1  9  2 -1</clus>
<clus scale="   79.933">  5  6 -1 -1</clus>
<clus scale="   94.355">  7  8 -1 -1</clus>
<clus scale="  167.657">  1  5  2 -1</clus>
<clus scale="   36.609">  1  5  2 -1</clus>
</clustering>
</event>
<event>
 9    2  0.3791909E-005  0.9594903E+02  0.7546771E-02  0.1295139E+00
          2   -1    0    0  502    0  0.00000000000E+00  0.00000000000E+00  0.18512555336E+03  0.18512555336E+03  0.00000000000E+00 0. -1.
         -1   -1    0    0    0  501 -0.00000000000E+00 -0.00000000000E+00 -0.24920946691E+03  0.24920946691E+03  0.00000000000E+00 0.  1.
         24    2    1    2    0    0  0.27741781822E+02  0.15212990675E+02 -0.22252132987E+03  0.23859975350E+03  0.80081574539E+02 0.  0.
         23    2    1    2    0    0 -0.84089607242E+01 -0.19389870111E+01  0.12358523327E+03  0.15372774591E+03  0.91018897438E+02 0.  0.
        -11    1    3    3    0    0  0.35049659842E+02  0.41803449321E+02 -0.17853816854E+03  0.18668659474E+03  0.00000000000E+00 0.  1.
         12    1    3    3    0    0 -0.73078780198E+01 -0.26590458646E+02 -0.43983161332E+02  0.51913158765E+02  0.00000000000E+00 0. -1.
        -11    1    4    4    0    0 -0.12010218884E+02  0.27979401893E+02  0.43667111136E+01  0.30759721291E+02  0.00000000000E+00 0.  1.
         11    1    4    4    0    0  0.36012581603E+01 -0.29918388905E+02  0.11921852215E+03  0.12296802462E+03  0.00000000000E+00 0. -1.
         21    1    1    2  502  501 -0.19332821098E+02 -0.13274003664E+02  0.34852183051E+02  0.42007520854E+02  0.00000000000E+00 0. -1.
<scales pt_clust_5="13000.00000" pt_clust_6="13000.00000" pt_clust_7="13000.00000" pt_clust_8="13000.00000" pt_clust_9="23.45117"></scales>
<clustering>
<clus scale="   23.451">  1  9  2 -1</clus>
<clus scale="   80.082">  5  6 -1 -1</clus>
<clus scale="   85.644">  2  5  1 -1</clus>
<clus scale="   91.019">  7  8 -1 -1</clus>
<clus scale="   23.451">  1  5  2 -1</clus>
</clustering>
</event>
<event>
 9    2  0.5025830E-005  0.9760113E+02  0.7546771E-02  0.1289114E+00
          2   -1    0    0  502    0  0.00000000000E+00  0.00000000000E+00  0.53335674554E+03  0.53335674554E+03  0.00000000000E+00 0. -1.
         -1   -1    0    0    0  501 -0.00000000000E+00 -0.00000000000E+00 -0.30243974049E+03  0.30243974049E+03  0.00000000000E+00 0.  1.
         23    2    1    2    0    0  0.56859137696E+01  0.41311282614E+02 -0.28739053510E+03  0.30348306639E+03  0.88145903124E+02 0.  0.
         24    2    1    2    0    0  0.11655356681E+02 -0.53923111368E+02  0.38240785922E+03  0.39473253012E+03  0.80835946616E+02 0.  0.
        -13    1    4    4    0    0 -0.25211859502E+02 -0.21736022556E+02  0.59862554657E+02  0.68495386606E+02  0.00000000000E+00 0.  1.
         14    1    4    4    0    0  0.36867216183E+02 -0.32187088812E+02  0.32254530456E+03  0.32623714352E+03  0.00000000000E+00 0. -1.
        -13    1    3    3    0    0 -0.27820139874E+02  0.54626769553E+02 -0.18908934483E+03  0.19877832996E+03  0.00000000000E+00 0.  1.
         13    1    3    3    0    0  0.33506053644E+02 -0.13315486939E+02 -0.98301190264E+02  0.10470473643E+03  0.00000000000E+00 0. -1.
         21    1    1    2  502  501 -0.17341270450E+02  0.12611828754E+02  0.13589968092E+03  0.13758088951E+03  0.00000000000E+00 0. -1.
<scales pt_clust_5="13000.00000" pt_clust_6="13000.00000" pt_clust_7="13000.00000" pt_clust_8="13000.00000" pt_clust_9="21.44243"></scales>
<clustering>
<clus scale="   21.442">  1  9  2 -1</clus>
<clus scale="   80.836">  5  6 -1 -1</clus>
<clus scale="   88.146">  7  8 -1 -1</clus>
<clus scale="   91.053">  1  5  2 -1</clus>
<clus scale="   21.442">  1  5  2 -1</clus>
</clustering>
</event>
<event>
 9    2  0.3791909E-005  0.1190918E+03  0.7546771E-02  0.1248805E+00
          2   -1    0    0  502    0  0.00000000000E+00  0.00000000000E+00  0.35700339558E+03  0.35700339558E+03  0.00000000000E+00 0. -1.
         -1   -1    0    0    0  501 -0.00000000000E+00 -0.00000000000E+00 -0.79280178063E+02  0.79280178063E+02  0.00000000000E+00 0.  1.
         24    2    1    2    0    0  0.21157719839E+02  0.52908735671E+02 -0.34473250906E+01  0.98636059257E+02  0.80437582736E+02 0.  0.
         23    2    1    2    0    0  0.13052436069E+02 -0.79663157121E+02  0.26323693171E+03  0.29066083293E+03  0.93131374381E+02 0.  0.
        -13    1    3    3    0    0 -0.28867902354E+01  0.69372776676E+02 -0.21490944686E+01  0.69466065879E+02  0.00000000000E+00 0.  1.
         14    1    3    3    0    0  0.24044510074E+02 -0.16464041005E+02 -0.12982306219E+01  0.29169993378E+02  0.00000000000E+00 0. -1.
        -13    1    4    4    0    0  0.35320880559E+02 -0.89207412316E+02  0.18006042752E+03  0.20402765640E+03  0.00000000000E+00 0. -1.
         13    1    4    4    0    0 -0.22268444490E+02  0.95442551951E+01  0.83176504194E+02  0.86633176539E+02  0.00000000000E+00 0.  1.
         21    1    1    2  502  501 -0.34210155907E+02  0.26754421450E+02  0.17933610895E+02  0.46986681454E+02  0.00000000000E+00 0. -1.
<scales pt_clust_5="13000.00000" pt_clust_6="13000.00000" pt_clust_7="13000.00000" pt_clust_8="13000.00000" pt_clust_9="43.42964"></scales>
<clustering>
<clus scale="   43.430">  2  9  1 -1</clus>
<clus scale="   80.438">  5  6 -1 -1</clus>
<clus scale="   93.131">  7  8 -1 -1</clus>
<clus scale="  109.451">  2  5  1 -1</clus>
<clus scale="  119.092">  1  5  2 -1</clus>
</clustering>
</event>
<event>
 9    2  0.3791909E-005  0.1363566E+03  0.7546771E-02  0.1227857E+00
          2   -1    0    0  502    0  0.00000000000E+00  0.00000000000E+00  0.58943465692E+03  0.58943465692E+03  0.00000000000E+00 0. -1.
         -1   -1    0    0    0  501 -0.00000000000E+00 -0.00000000000E+00 -0.81754558436E+02  0.81754558436E+02  0.00000000000E+00 0.  1.
         24    2    1    2    0    0  0.11471479211E+02  0.53789409713E+02  0.41171471351E+02  0.10494910996E+03  0.79336814887E+02 0.  0.
         23    2    1    2    0    0 -0.66328367687E+02 -0.12440708362E+03  0.14020005335E+03  0.22790089778E+03  0.11138307517E+03 0.  0.
        -11    1    3    3    0    0 -0.48678280428E+01  0.39392950817E+02 -0.16740273726E+02  0.43078267008E+02  0.00000000000E+00 0.  1.
         12    1    3    3    0    0  0.16339307253E+02  0.14396458896E+02  0.57911745077E+02  0.61870842956E+02  0.00000000000E+00 0. -1.
        -13    1    4    4    0    0 -0.47266844159E+02 -0.60664723459E+02  0.48197782300E+01  0.77055781686E+02  0.00000000000E+00 0.  1.
         13    1    4    4    0    0 -0.19061523528E+02 -0.63742360165E+02  0.13538027512E+03  0.15084511610E+03  0.00000000000E+00 0. -1.
         21    1    1    2  502  501  0.54856888476E+02  0.70617673911E+02  0.32630857378E+03  0.33833920761E+03  0.00000000000E+00 0. -1.
<scales pt_clust_5="13000.00000" pt_clust_6="13000.00000" pt_clust_7="13000.00000" pt_clust_8="13000.00000" pt_clust_9="89.42111"></scales>
<clustering>
<clus scale="   79.337">  5  6 -1 -1</clus>
<clus scale="   89.421">  1  9  2 -1</clus>
<clus scale="  111.383">  7  8 -1 -1</clus>
<clus scale="  111.720">  2  5  1 -1</clus>
<clus scale="   89.421">  1  5  2 -1</clus>
</clustering>
</event>
<event>
 9    2  0.3791909E-005  0.9702671E+02  0.7546771E-02  0.1288971E+00
          2   -1    0    0  502    0  0.00000000000E+00  0.00000000000E+00  0.41314769435E+03  0.41314769435E+03  0.00000000000E+00 0. -1.
         -1   -1    0    0    0  501 -0.00000000000E+00 -0.00000000000E+00 -0.11142188200E+03  0.11142188200E+03  0.00000000000E+00 0.  1.
         24    2    1    2    0    0  0.46254569069E+02  0.97171471923E+00  0.20645140669E+02  0.98226938785E+02  0.84153908290E+02 0.  0.
         23    2    1    2    0    0  0.43641490627E+02  0.22579937885E+02  0.31173640971E+03  0.32848684487E+03  0.91156924111E+02 0.  0.
        -13    1    3    3    0    0 -0.89986666068E+01 -0.24493274277E+02  0.26396101229E+02  0.37116716525E+02  0.00000000000E+00 0.  1.
         14    1    3    3    0    0  0.55253235676E+02  0.25464988996E+02 -0.57509605604E+01  0.61110222260E+02  0.00000000000E+00 0. -1.
        -13    1    4    4    0    0  0.60536345042E+02 -0.14678875288E+02  0.17462586345E+03  0.18540310309E+03  0.00000000000E+00 0. -1.
         13    1    4    4    0    0 -0.16894854415E+02  0.37258813172E+02  0.13711054626E+03  0.14308374178E+03  0.00000000000E+00 0.  1.
         21    1    1    2  502  501 -0.89896059697E+02 -0.23551652604E+02 -0.30655738027E+02  0.97855792692E+02  0.00000000000E+00 0.  1.
<scales pt_clust_5="13000.00000" pt_clust_6="13000.00000" pt_clust_7="13000.00000" pt_clust_8="13000.00000" pt_clust_9="92.92998"></scales>
<clustering>
<clus scale="   84.154">  5  6 -1 -1</clus>
<clus scale="   91.157">  7  8 -1 -1</clus>
<clus scale="   92.930">  2  9  1 -1</clus>
<clus scale="   92.930">  2  5  1 -1</clus>
<clus scale="   97.027">  1  5  2 -1</clus>
</clustering>
</event>
<event>
 9    2  0.3791909E-005  0.2048575E+03  0.7546771E-02  0.1147564E+00
          2   -1    0    0  502    0  0.00000000000E+00  0.00000000000E+00  0.13899664565E+03  0.13899664565E+03  0.00000000000E+00 0. -1.
         -1   -1    0    0    0  501 -0.00000000000E+00 -0.00000000000E+00 -0.52452123153E+03  0.52452123153E+03  0.00000000000E+00 0.  1.
         23    2    1    2    0    0  0.93280263709E+02  0.15203072155E+03 -0.37745469007E+03  0.42763656624E+03  0.92663055414E+02 0.  0.
         24    2    1    2    0    0 -0.10110654915E+03 -0.17338641168E+03 -0.49503819352E+01  0.21292379340E+03  0.70898896185E+02 0.  0.
        -13    1    4    4    0    0 -0.64891514412E+01 -0.27206032462E+02 -0.25166026344E+02  0.37624542133E+02  0.00000000000E+00 0.  1.
         14    1    4    4    0    0 -0.94617397710E+02 -0.14618037922E+03  0.20215644409E+02  0.17529925127E+03  0.00000000000E+00 0. -1.
        -11    1    3    3    0    0  0.57436060480E+02  0.31499222743E+02 -0.72159754303E+02  0.97458361458E+02  0.00000000000E+00 0. -1.
         11    1    3    3    0    0  0.35844203229E+02  0.12053149881E+03 -0.30529493577E+03  0.33017820478E+03  0.00000000000E+00 0.  1.
         21    1    1    2  502  501  0.78262854418E+01  0.21355690127E+02 -0.31195138736E+01  0.22957517536E+02  0.00000000000E+00 0.  1.
<scales pt_clust_5="13000.00000" pt_clust_6="13000.00000" pt_clust_7="13000.00000" pt_clust_8="13000.00000" pt_clust_9="22.74459"></scales>
<clustering>
<clus scale="   22.745">  1  9  2 -1</clus>
<clus scale="   70.899">  5  6 -1 -1</clus>
<clus scale="   92.663">  7  8 -1 -1</clus>
<clus scale="  195.977">  1  5  2 -1</clus>
<clus scale="   22.745">  1  5  2 -1</clus>
</clustering>
</event>
<event>
 9    2  0.3791909E-005  0.1405151E+03  0.7546771E-02  0.1236654E+00
          2   -1    0    0  502    0  0.00000000000E+00  0.00000000000E+00  0.85458183893E+03  0.85458183893E+03  0.00000000000E+00 0. -1.
         -1   -1    0    0    0  501 -0.00000000000E+00 -0.00000000000E+00 -0.84969605700E+02  0.84969605700E+02  0.00000000000E+00 0.  1.
         24    2    1    2    0    0  0.69054400299E+01 -0.32174929803E+02 -0.38674905799E+02  0.93559743680E+02  0.78579679874E+02 0.  0.
         23    2    1    2    0    0  0.52743494931E+02 -0.70268272152E+02  0.34164967282E+03  0.36453232578E+03  0.91868445467E+02 0.  0.
        -11    1    3    3    0    0 -0.25891437910E+02 -0.42946563179E+02 -0.27955387414E+02  0.57413217393E+02  0.00000000000E+00 0.  1.
         12    1    3    3    0    0  0.32796877940E+02  0.10771633376E+02 -0.10719518385E+02  0.36146526287E+02  0.00000000000E+00 0. -1.
        -11    1    4    4    0    0  0.29110466398E+02 -0.89547968932E+02  0.22383927736E+03  0.24283797085E+03  0.00000000000E+00 0.  1.
         11    1    4    4    0    0  0.23633028533E+02  0.19279696780E+02  0.11781039546E+03  0.12169435494E+03  0.00000000000E+00 0. -1.
         21    1    1    2  502  501 -0.59648934961E+02  0.10244320195E+03  0.46663746621E+03  0.48145937517E+03  0.00000000000E+00 0. -1.
<scales pt_clust_5="13000.00000" pt_clust_6="13000.00000" pt_clust_7="13000.00000" pt_clust_8="13000.00000" pt_clust_9="106.32341"></scales>
<clustering>
<clus scale="   78.580">  5  6 -1 -1</clus>
<clus scale="   85.192">  2  5  1 -1</clus>
<clus scale="   91.868">  7  8 -1 -1</clus>
<clus scale="  106.323">  1  9  2 -1</clus>
<clus scale="  106.323">  1  5  2 -1</clus>
</clustering>
</event>
<event>
 9    2  0.3791909E-005  0.2318907E+03  0.7546771E-02  0.1126119E+00
         -1   -1    0    0    0  501 -0.00000000000E+00  0.00000000000E+00  0.22958053327E+03  0.22958053327E+03  0.00000000000E+00 0.  1.
          2   -1    0    0  502    0  0.00000000000E+00 -0.00000000000E+00 -0.70840238589E+03  0.70840238589E+03  0.00000000000E+00 0. -1.
         23    2    1    2    0    0  0.16717490024E+03 -0.15627831170E+03  0.11092856531E+03  0.27061231685E+03  0.92496061831E+02 0.  0.
         24    2    1    2    0    0 -0.10460471659E+03  0.12864319257E+03 -0.20111646060E+03  0.27276310051E+03  0.80378234288E+02 0.  0.
        -13    1    4    4    0    0 -0.66587696081E+02  0.24457441081E+02 -0.10052957931E+03  0.12303773409E+03  0.00000000000E+00 0.  1.
         14    1    4    4    0    0 -0.38017020509E+02  0.10418575149E+03 -0.10058688129E+03  0.14972536642E+03  0.00000000000E+00 0. -1.
        -11    1    3    3    0    0  0.10465206793E+03 -0.11210656981E+03  0.11832620838E+03  0.19370345868E+03  0.00000000000E+00 0.  1.
         11    1    3    3    0    0  0.62522832310E+02 -0.44171741893E+02 -0.73976430765E+01  0.76908858170E+02  0.00000000000E+00 0. -1.
         21    1    1    2  502  501 -0.62570183649E+02  0.27635119130E+02 -0.38863395733E+03  0.39460750180E+03  0.00000000000E+00 0. -1.
<scales pt_clust_5="13000.00000" pt_clust_6="13000.00000" pt_clust_7="13000.00000" pt_clust_8="13000.00000" pt_clust_9="68.40123"></scales>
<clustering>
<clus scale="   68.401">  2  9  1 -1</clus>
<clus scale="   80.378">  5  6 -1 -1</clus>
<clus scale="   92.496">  7  8 -1 -1</clus>
<clus scale="  227.329">  2  5  1 -1</clus>
<clus scale="   68.401">  2  5  1 -1</clus>
</clustering>
</event>
<event>
 9    2  0.3791909E-005  0.1032850E+03  0.7546771E-02  0.1279675E+00
          2   -1    0    0  502    0  0.00000000000E+00  0.00000000000E+00  0.14576304316E+03  0.14576304316E+03  0.00000000000E+00 0. -1.
         -1   -1    0    0    0  501 -0.00000000000E+00 -0.00000000000E+00 -0.14560864346E+03  0.14560864346E+03  0.00000000000E+00 0.  1.
         23    2    1    2    0    0 -0.42146966625E+02  0.20798283255E+02 -0.91835214725E+02  0.13896796359E+03  0.93109896668E+02 0.  0.
         24    2    1    2    0    0  0.39783461419E+02  0.54661876713E+01  0.88119191666E+02  0.12575060385E+03  0.80222312472E+02 0.  0.
        -11    1    4    4    0    0 -0.20110405042E+02  0.58748419736E+01  0.22716298718E+01  0.21073738668E+02  0.00000000000E+00 0.  1.
         12    1    4    4    0    0  0.59893866461E+02 -0.40865430229E+00  0.85847561795E+02  0.10467686518E+03  0.00000000000E+00 0. -1.
        -11    1    3    3    0    0 -0.44469563409E+02  0.54449045257E+02 -0.57317671200E+02  0.90705876496E+02  0.00000000000E+00 0. -1.
         11    1    3    3    0    0  0.23225967844E+01 -0.33650762003E+02 -0.34517543525E+02  0.48262087089E+02  0.00000000000E+00 0.  1.
         21    1    1    2  502  501  0.23635052058E+01 -0.26264470926E+02  0.38704227634E+01  0.26653119184E+02  0.00000000000E+00 0.  1.
<scales pt_clust_5="13000.00000" pt_clust_6="13000.00000" pt_clust_7="13000.00000" pt_clust_8="13000.00000" pt_clust_9="26.37060"></scales>
<clustering>
<clus scale="   26.371">  1  9  2 -1</clus>
<clus scale="   80.222">  5  6 -1 -1</clus>
<clus scale="   91.837">  1  5  2 -1</clus>
<clus scale="   93.110">  7  8 -1 -1</clus>
<clus scale="   26.371">  1  5  2 -1</clus>
</clustering>
</event>
<event>
 9    2  0.3791909E-005  0.1221650E+03  0.7546771E-02  0.1243160E+00
         -1   -1    0    0    0  501 -0.00000000000E+00  0.00000000000E+00  0.71077564889E+02  0.71077564889E+02  0.00000000000E+00 0.  1.
          2   -1    0    0  502    0  0.00000000000E+00 -0.00000000000E+00 -0.35838301156E+03  0.35838301156E+03  0.00000000000E+00 0. -1.
         23    2    1    2    0    0  0.65902283065E+02  0.34733358044E+02 -0.23098928317E+02  0.12003378108E+03  0.91241608034E+02 0.  0.
         24    2    1    2    0    0 -0.85837639784E+02 -0.50605027959E+02 -0.17378820266E+03  0.21548638784E+03  0.79391905779E+02 0.  0.
        -11    1    4    4    0    0 -0.48700156516E+02  0.10230505845E+02 -0.39804617420E+02  0.63724218807E+02  0.00000000000E+00 0.  1.
         12    1    4    4    0    0 -0.37137483268E+02 -0.60835533804E+02 -0.13398358524E+03  0.15176216904E+03  0.00000000000E+00 0. -1.
        -13    1    3    3    0    0  0.54002703990E+02 -0.15017899738E+02 -0.36829023282E+02  0.67068668592E+02  0.00000000000E+00 0. -1.
         13    1    3    3    0    0  0.11899579075E+02  0.49751257782E+02  0.13730094965E+02  0.52965112488E+02  0.00000000000E+00 0.  1.
         21    1    1    2  502  501  0.19935356719E+02  0.15871669915E+02 -0.90418315697E+02  0.93940407530E+02  0.00000000000E+00 0.  1.
<scales pt_clust_5="13000.00000" pt_clust_6="13000.00000" pt_clust_7="13000.00000" pt_clust_8="13000.00000" pt_clust_9="25.48192"></scales>
<clustering>
<clus scale="   25.482">  2  9  1 -1</clus>
<clus scale="   79.392">  5  6 -1 -1</clus>
<clus scale="   91.242">  7  8 -1 -1</clus>
<clus scale="  113.588">  2  5  1 -1</clus>
<clus scale="   25.482">  2  5  1 -1</clus>
</clustering>
</event>
<event>
 9    2  0.3791909E-005  0.9125671E+02  0.7546771E-02  0.1308782E+00
          2   -1    0    0  502    0  0.00000000000E+00  0.00000000000E+00  0.65420656056E+02  0.65420656056E+02  0.00000000000E+00 0. -1.
         -1   -1    0    0    0  501 -0.00000000000E+00 -0.00000000000E+00 -0.23595000473E+03  0.23595000473E+03  0.00000000000E+00 0.  1.
         24    2    1    2    0    0  0.21280850430E+02  0.28278460515E+01 -0.16167376122E+03  0.18039961122E+03  0.77102161789E+02 0.  0.
         23    2    1    2    0    0 -0.56880504565E+00  0.80714367927E+01  0.86928785672E+01  0.91718154836E+02  0.90946039813E+02 0.  0.
        -11    1    3    3    0    0  0.48430582461E+02 -0.91333335947E+01 -0.86044299644E+02  0.99159268863E+02  0.00000000000E+00 0.  1.
         12    1    3    3    0    0 -0.27149732031E+02  0.11961179646E+02 -0.75629461579E+02  0.81240342359E+02  0.00000000000E+00 0. -1.
        -13    1    4    4    0    0  0.33437994206E+02  0.26195333098E+02 -0.16620382190E+02  0.45612849471E+02  0.00000000000E+00 0.  1.
         13    1    4    4    0    0 -0.34006799252E+02 -0.18123896306E+02  0.25313260757E+02  0.46105305365E+02  0.00000000000E+00 0. -1.
         21    1    1    2  502  501 -0.20712045384E+02 -0.10899282844E+02 -0.17548466021E+02  0.29252894732E+02  0.00000000000E+00 0.  1.
<scales pt_clust_5="13000.00000" pt_clust_6="13000.00000" pt_clust_7="13000.00000" pt_clust_8="13000.00000" pt_clust_9="23.40477"></scales>
<clustering>
<clus scale="   23.405">  2  9  1 -1</clus>
<clus scale="   77.102">  5  6 -1 -1</clus>
<clus scale="   77.468">  2  5  1 -1</clus>
<clus scale="   90.946">  7  8 -1 -1</clus>
<clus scale="   91.257">  1  5  2 -1</clus>
</clustering>
</event>
<event>
 9    2  0.3791909E-005  0.2484046E+03  0.7546771E-02  0.1114769E+00
         -1   -1    0    0    0  501 -0.00000000000E+00  0.00000000000E+00  0.61383835887E+02  0.61383835887E+02  0.00000000000E+00 0.  1.
          2   -1    0    0  502    0  0.00000000000E+00 -0.00000000000E+00 -0.19266336674E+04  0.19266336674E+04  0.00000000000E+00 0. -1.
         23    2    1    2    0    0  0.17696163840E+03 -0.14857635458E+03 -0.32477820777E+03  0.40877045111E+03  0.90675480989E+02 0.  0.
         24    2    1    2    0    0 -0.11750108305E+03  0.21453860874E+03 -0.11915030062E+04  0.12191558517E+04  0.82633273155E+02 0.  0.
        -13    1    4    4    0    0 -0.67020328107E+02  0.18790514068E+03 -0.86557255828E+03  0.88826568093E+03  0.00000000000E+00 0.  1.
         14    1    4    4    0    0 -0.50480754945E+02  0.26633468061E+02 -0.32593044794E+03  0.33089017081E+03  0.00000000000E+00 0. -1.
        -11    1    3    3    0    0  0.15599298932E+03 -0.11177765942E+03 -0.20079624833E+03  0.27775383202E+03  0.00000000000E+00 0.  1.
         11    1    3    3    0    0  0.20968649087E+02 -0.36798695163E+02 -0.12398195944E+03  0.13101661909E+03  0.00000000000E+00 0. -1.
         21    1    1    2  502  501 -0.59460555353E+02 -0.65962254154E+02 -0.34896861748E+03  0.36009120040E+03  0.00000000000E+00 0. -1.
<scales pt_clust_5="13000.00000" pt_clust_6="13000.00000" pt_clust_7="13000.00000" pt_clust_8="13000.00000" pt_clust_9="88.80640"></scales>
<clustering>
<clus scale="   82.633">  5  6 -1 -1</clus>
<clus scale="   88.806">  2  9  1 -1</clus>
<clus scale="   90.675">  7  8 -1 -1</clus>
<clus scale="  245.583">  2  5  1 -1</clus>
<clus scale="   88.806">  2  5  1 -1</clus>
</clustering>
</event>
<event>
 9    2  0.3791909E-005  0.1164902E+03  0.7546771E-02  0.1251418E+00
         -1   -1    0    0    0  501 -0.00000000000E+00  0.00000000000E+00  0.51117966985E+02  0.51117966985E+02  0.00000000000E+00 0.  1.
          2   -1    0    0  502    0  0.00000000000E+00 -0.00000000000E+00 -0.16700310901E+04  0.16700310901E+04  0.00000000000E+00 0. -1.
         23    2    1    2    0    0  0.64039487523E+02  0.33492518281E+02 -0.41701275018E+02  0.12068731209E+03  0.87198774178E+02 0.  0.
         24    2    1    2    0    0 -0.12423912402E+03 -0.94480162767E+02 -0.12494597224E+04  0.12616919929E+04  0.79719671569E+02 0.  0.
        -11    1    4    4    0    0  0.83132714614E+01 -0.21126593261E+02 -0.12135893128E+03  0.12346430102E+03  0.00000000000E+00 0.  1.
         12    1    4    4    0    0 -0.13255239548E+03 -0.73353569506E+02 -0.11281007911E+04  0.11382276919E+04  0.00000000000E+00 0. -1.
        -11    1    3    3    0    0 -0.49683700214E+01 -0.23193883461E+02 -0.56769047019E+01  0.24389919591E+02  0.00000000000E+00 0. -1.
         11    1    3    3    0    0  0.69007857544E+02  0.56686401741E+02 -0.36024370316E+02  0.96297392498E+02  0.00000000000E+00 0.  1.
         21    1    1    2  502  501  0.60199636497E+02  0.60987644486E+02 -0.32775212568E+03  0.33876975204E+03  0.00000000000E+00 0.  1.
<scales pt_clust_5="13000.00000" pt_clust_6="13000.00000" pt_clust_7="13000.00000" pt_clust_8="13000.00000" pt_clust_9="85.69416"></scales>
<clustering>
<clus scale="   79.720">  5  6 -1 -1</clus>
<clus scale="   85.694">  2  9  1 -1</clus>
<clus scale="   87.199">  7  8 -1 -1</clus>
<clus scale="  111.003">  2  5  1 -1</clus>
<clus scale="   85.694">  2  5  1 -1</clus>
</clustering>
</event>
<event>
 9    2  0.3791909E-005  0.1332800E+03  0.7546771E-02  0.1243648E+00
         -1   -1    0    0    0  501 -0.00000000000E+00  0.00000000000E+00  0.22846660739E+03  0.22846660739E+03  0.00000000000E+00 0.  1.
          2   -1    0    0  502    0  0.00000000000E+00 -0.00000000000E+00 -0.55172472831E+03  0.55172472831E+03  0.00000000000E+00 0. -1.
         24    2    1    2    0    0  0.13341992981E+02  0.37640295704E+02  0.17034400504E+03  0.19110011469E+03  0.76859437587E+02 0.  0.
         23    2    1    2    0    0  0.62244622977E+02 -0.95762774018E+02 -0.84475417577E+02  0.16900048972E+03  0.91543254121E+02 0.  0.
        -11    1    3    3    0    0  0.30993934792E+02 -0.69530385749E+01  0.33823496469E+02  0.46400405739E+02  0.00000000000E+00 0.  1.
         12    1    3    3    0    0 -0.17651941811E+02  0.44593334278E+02  0.13652050857E+03  0.14469970895E+03  0.00000000000E+00 0. -1.
        -11    1    4    4    0    0 -0.20346969332E+02 -0.38924038010E+02 -0.39670751056E+02  0.59184866185E+02  0.00000000000E+00 0. -1.
         11    1    4    4    0    0  0.82591592309E+02 -0.56838736009E+02 -0.44804666521E+02  0.10981562354E+03  0.00000000000E+00 0.  1.
         21    1    1    2  502  501 -0.75586615958E+02  0.58122478315E+02 -0.40912670838E+03  0.42009073128E+03  0.00000000000E+00 0. -1.
<scales pt_clust_5="13000.00000" pt_clust_6="13000.00000" pt_clust_7="13000.00000" pt_clust_8="13000.00000" pt_clust_9="96.86791"></scales>
<clustering>
<clus scale="   76.859">  5  6 -1 -1</clus>
<clus scale="   86.615">  1  5  2 -1</clus>
<clus scale="   91.543">  7  8 -1 -1</clus>
<clus scale="   96.868">  2  9  1 -1</clus>
<clus scale="   96.868">  2  5  1 -1</clus>
</clustering>
</event>
<event>
 9    2  0.3791909E-005  0.1471097E+03  0.7546771E-02  0.1218660E+00
          2   -1    0    0  502    0  0.00000000000E+00  0.00000000000E+00  0.76660601545E+03  0.76660601545E+03  0.00000000000E+00 0. -1.
         -1   -1    0    0    0  501 -0.00000000000E+00 -0.00000000000E+00 -0.17953554655E+03  0.17953554655E+03  0.00000000000E+00 0.  1.
         24    2    1    2    0    0  0.41700268623E+02  0.56479973071E+02 -0.12302320529E+03  0.16357596835E+03  0.81813743470E+02 0.  0.
         23    2    1    2    0    0  0.64286079570E+02  0.76365449330E+02  0.46933401163E+03  0.48786875388E+03  0.88188007498E+02 0.  0.
        -13    1    3    3    0    0  0.39641070022E+02  0.66938032744E+02 -0.56358515124E+02  0.96064545422E+02  0.00000000000E+00 0.  1.
         14    1    3    3    0    0  0.20591986009E+01 -0.10458059673E+02 -0.66664690164E+02  0.67511422927E+02  0.00000000000E+00 0. -1.
        -13    1    4    4    0    0 -0.17566328698E+02  0.33140677879E+02  0.92117602999E+02  0.99461214634E+02  0.00000000000E+00 0.  1.
         13    1    4    4    0    0  0.81852408268E+02  0.43224771451E+02  0.37721640863E+03  0.38840753925E+03  0.00000000000E+00 0. -1.
         21    1    1    2  502  501 -0.10598634819E+03 -0.13284542240E+03  0.24075966256E+03  0.29469683978E+03  0.00000000000E+00 0. -1.
<scales pt_clust_5="13000.00000" pt_clust_6="13000.00000" pt_clust_7="13000.00000" pt_clust_8="13000.00000" pt_clust_9="117.74610"></scales>
<clustering>
<clus scale="   81.814">  5  6 -1 -1</clus>
<clus scale="   88.188">  7  8 -1 -1</clus>
<clus scale="  107.807">  2  5  1 -1</clus>
<clus scale="  117.746">  2  9  1 -1</clus>
<clus scale="  147.110">  1  5  2 -1</clus>
</clustering>
</event>
<event>
 9    2  0.3791909E-005  0.1733753E+03  0.7546771E-02  0.1197659E+00
          2   -1    0    0  502    0  0.00000000000E+00  0.00000000000E+00  0.32789504248E+03  0.32789504248E+03  0.00000000000E+00 0. -1.
         -1   -1    0    0    0  501 -0.00000000000E+00 -0.00000000000E+00 -0.21282134808E+03  0.21282134808E+03  0.00000000000E+00 0.  1.
         24    2    1    2    0    0  0.39275867996E+02  0.50617327363E+02  0.17081095930E+02  0.10467667020E+03  0.80998356830E+02 0.  0.
         23    2    1    2    0    0 -0.12763274951E+03  0.70846188108E+02 -0.91124370333E+02  0.19453288405E+03  0.90719848940E+02 0.  0.
        -13    1    3    3    0    0  0.48951542448E+02 -0.18402147454E+01  0.11253556936E+01  0.48999044111E+02  0.00000000000E+00 0.  1.
         14    1    3    3    0    0 -0.96756744519E+01  0.52457542108E+02  0.15955740236E+02  0.55677626087E+02  0.00000000000E+00 0. -1.
        -11    1    4    4    0    0 -0.18352968761E+02  0.29797902332E+02 -0.66621620022E+02  0.75254147394E+02  0.00000000000E+00 0.  1.
         11    1    4    4    0    0 -0.10927978075E+03  0.41048285776E+02 -0.24502750311E+02  0.11927873665E+03  0.00000000000E+00 0. -1.
         21    1    1    2  502  501  0.88356881511E+02 -0.12146351547E+03  0.18911696880E+03  0.24150683632E+03  0.00000000000E+00 0. -1.
<scales pt_clust_5="13000.00000" pt_clust_6="13000.00000" pt_clust_7="13000.00000" pt_clust_8="13000.00000" pt_clust_9="147.74604"></scales>
<clustering>
<clus scale="   80.998">  5  6 -1 -1</clus>
<clus scale="   90.720">  7  8 -1 -1</clus>
<clus scale="  103.274">  2  5  1 -1</clus>
<clus scale="  147.746">  1  9  2 -1</clus>
<clus scale="  147.746">  1  5  2 -1</clus>
</clustering>
</event>
<event>
 9    2  0.3791909E-005  0.1138558E+03  0.7546771E-02  0.1258313E+00
         -3   -1    0    0    0  501 -0.00000000000E+00  0.00000000000E+00  0.43844558118E+03  0.43844558118E+03  0.00000000000E+00 0.  1.
          4   -1    0    0  502    0  0.00000000000E+00 -0.00000000000E+00 -0.18677805067E+03  0.18677805067E+03  0.00000000000E+00 0. -1.
         24    2    1    2    0    0  0.61751388279E+02 -0.47296275023E+00  0.35211217702E+03  0.36648873924E+03  0.80731364029E+02 0.  0.
         23    2    1    2    0    0 -0.94144588501E+02 -0.37557820300E+02  0.92995658547E+01  0.13815524247E+03  0.93416249592E+02 0.  0.
        -13    1    3    3    0    0  0.67916580634E+02  0.20576437798E+02  0.31880779264E+03  0.32661056377E+03  0.00000000000E+00 0.  1.
         14    1    3    3    0    0 -0.61651923542E+01 -0.21049400548E+02  0.33304384376E+02  0.39878175471E+02  0.00000000000E+00 0. -1.
        -11    1    4    4    0    0 -0.40232344844E+02 -0.64017766324E+02 -0.69817114025E+01  0.75931944996E+02  0.00000000000E+00 0.  1.
         11    1    4    4    0    0 -0.53912243657E+02  0.26459946024E+02  0.16281277257E+02  0.62223297477E+02  0.00000000000E+00 0. -1.
         21    1    1    2  502  501  0.32393200222E+02  0.38030783051E+02 -0.10974421237E+03  0.12057965014E+03  0.00000000000E+00 0.  1.
<scales pt_clust_5="13000.00000" pt_clust_6="13000.00000" pt_clust_7="13000.00000" pt_clust_8="13000.00000" pt_clust_9="49.95658"></scales>
<clustering>
<clus scale="   49.957">  2  9  1 -1</clus>
<clus scale="   80.731">  5  6 -1 -1</clus>
<clus scale="   93.416">  7  8 -1 -1</clus>
<clus scale="  103.702">  1  5  2 -1</clus>
<clus scale="   49.957">  2  5  1 -1</clus>
</clustering>
</event>
<event>
 9    2  0.3791909E-005  0.8982582E+02  0.7546771E-02  0.1307234E+00
         -1   -1    0    0    0  501 -0.00000000000E+00  0.00000000000E+00  0.25161145632E+03  0.25161145632E+03  0.00000000000E+00 0.  1.
          2   -1    0    0  502    0  0.00000000000E+00 -0.00000000000E+00 -0.99032347274E+02  0.99032347274E+02  0.00000000000E+00 0. -1.
         23    2    1    2    0    0 -0.13600928691E+02  0.14404508592E+02  0.20349985953E+03  0.22265452156E+03  0.88149690937E+02 0.  0.
         24    2    1    2    0    0  0.44151660716E+01  0.98860725491E+01 -0.58303831322E+02  0.10099075523E+03  0.81746974089E+02 0.  0.
        -11    1    4    4    0    0  0.14973675507E+02 -0.33214088582E+02 -0.16387815506E+02  0.39949307072E+02  0.00000000000E+00 0.  1.
         12    1    4    4    0    0 -0.10558509436E+02  0.43100161131E+02 -0.41916015816E+02  0.61041448155E+02  0.00000000000E+00 0. -1.
        -13    1    3    3    0    0 -0.32085367384E+02 -0.23812671107E+02  0.53568643710E+02  0.66828988428E+02  0.00000000000E+00 0.  1.
         13    1    3    3    0    0  0.18484438693E+02  0.38217179698E+02  0.14993121582E+03  0.15582553313E+03  0.00000000000E+00 0. -1.
         21    1    1    2  502  501  0.91857626194E+01 -0.24290581141E+02  0.73830808328E+01  0.26998526805E+02  0.00000000000E+00 0. -1.
<scales pt_clust_5="13000.00000" pt_clust_6="13000.00000" pt_clust_7="13000.00000" pt_clust_8="13000.00000" pt_clust_9="25.96942"></scales>
<clustering>
<clus scale="   25.969">  2  9  1 -1</clus>
<clus scale="   81.747">  5  6 -1 -1</clus>
<clus scale="   83.552">  2  5  1 -1</clus>
<clus scale="   88.150">  7  8 -1 -1</clus>
<clus scale="   25.969">  2  5  1 -1</clus>
</clustering>
</event>
<event>
 9    2  0.3791909E-005  0.1333132E+03  0.7546771E-02  0.1225519E+00
          2   -1    0    0  502    0  0.00000000000E+00  0.00000000000E+00  0.23044752476E+03  0.23044752476E+03  0.00000000000E+00 0. -1.
         -1   -1    0    0    0  501 -0.00000000000E+00 -0.00000000000E+00 -0.30370669115E+03  0.30370669115E+03  0.00000000000E+00 0.  1.
         23    2    1    2    0    0  0.83345908553E+02 -0.38950910937E+02 -0.22664722178E+03  0.26167142404E+03  0.92947603964E+02 0.  0.
         24    2    1    2    0    0 -0.85931185176E+02  0.10498530174E+03  0.96573862129E+02  0.18533305304E+03  0.81337245697E+02 0.  0.
        -13    1    4    4    0    0 -0.59122031229E+02  0.10826257065E+03  0.99066021140E+02  0.15820959302E+03  0.00000000000E+00 0.  1.
         14    1    4    4    0    0 -0.26809153947E+02 -0.32772689136E+01 -0.24921590111E+01  0.27123460019E+02  0.00000000000E+00 0. -1.
        -13    1    3    3    0    0 -0.19608844472E+02 -0.83367213233E+01 -0.22475033616E+02  0.30969902163E+02  0.00000000000E+00 0.  1.
         13    1    3    3    0    0  0.10295475303E+03 -0.30614189614E+02 -0.20417218816E+03  0.23070152187E+03  0.00000000000E+00 0. -1.
         21    1    1    2  502  501  0.25852766234E+01 -0.66034390799E+02  0.56814193261E+02  0.87149738837E+02  0.00000000000E+00 0. -1.
<scales pt_clust_5="13000.00000" pt_clust_6="13000.00000" pt_clust_7="13000.00000" pt_clust_8="13000.00000" pt_clust_9="66.08498"></scales>
<clustering>
<clus scale="   66.085">  1  9  2 -1</clus>
<clus scale="   81.337">  5  6 -1 -1</clus>
<clus scale="   92.948">  7  8 -1 -1</clus>
<clus scale="  125.495">  1  5  2 -1</clus>
<clus scale="   66.085">  1  5  2 -1</clus>
</clustering>
</event>
<event>
 9    2  0.3791909E-005  0.9886116E+02  0.7546771E-02  0.1290253E+00
          2   -1    0    0  502    0  0.00000000000E+00  0.00000000000E+00  0.29898554963E+03  0.29898554963E+03  0.00000000000E+00 0. -1.
         -1   -1    0    0    0  501 -0.00000000000E+00 -0.00000000000E+00 -0.10469808647E+03  0.10469808647E+03  0.00000000000E+00 0.  1.
         23    2    1    2    0    0  0.20607927741E+02  0.11634091745E+02 -0.60439606416E+02  0.11521443896E+03  0.95191292382E+02 0.  0.
         24    2    1    2    0    0 -0.49160068824E+02 -0.20752695133E+02  0.22939626036E+03  0.24922606292E+03  0.81508278416E+02 0.  0.
        -13    1    4    4    0    0 -0.41548742792E+02  0.25739207774E+02  0.13805441375E+03  0.14645076306E+03  0.00000000000E+00 0.  1.
         14    1    4    4    0    0 -0.76113260322E+01 -0.46491902907E+02  0.91341846603E+02  0.10277529986E+03  0.00000000000E+00 0. -1.
        -11    1    3    3    0    0  0.55951435769E+02  0.11775732045E+02 -0.55217163543E+02  0.79486893131E+02  0.00000000000E+00 0. -1.
         11    1    3    3    0    0 -0.35343508027E+02 -0.14164029950E+00 -0.52224428722E+01  0.35727545832E+02  0.00000000000E+00 0.  1.
         21    1    1    2  502  501  0.28552141083E+02  0.91186033875E+01  0.25330809212E+02  0.39243134221E+02  0.00000000000E+00 0. -1.
<scales pt_clust_5="13000.00000" pt_clust_6="13000.00000" pt_clust_7="13000.00000" pt_clust_8="13000.00000" pt_clust_9="29.97288"></scales>
<clustering>
<clus scale="   29.973">  1  9  2 -1</clus>
<clus scale="   81.508">  5  6 -1 -1</clus>
<clus scale="   85.766">  1  5  2 -1</clus>
<clus scale="   95.191">  7  8 -1 -1</clus>
<clus scale="   29.973">  1  5  2 -1</clus>
</clustering>
</event>
<event>
 9    2  0.3791909E-005  0.1370007E+03  0.7546771E-02  0.1230761E+00
         -1   -1    0    0    0  501 -0.00000000000E+00  0.00000000000E+00  0.10175189923E+03  0.10175189923E+03  0.00000000000E+00 0.  1.
          2   -1    0    0  502    0  0.00000000000E+00 -0.00000000000E+00 -0.36605270019E+03  0.36605270019E+03  0.00000000000E+00 0. -1.
         23    2    1    2    0    0  0.39482123725E+02  0.24687107701E+02 -0.70213607043E+02  0.12526150165E+03  0.92694130345E+02 0.  0.
         24    2    1    2    0    0  0.77915966650E+02  0.58318555418E+00  0.18448905210E+01  0.11273822172E+03  0.81457136276E+02 0.  0.
        -13    1    4    4    0    0  0.49064537789E+02 -0.39310840501E+01  0.40883187282E+02  0.63986071082E+02  0.00000000000E+00 0.  1.
         14    1    4    4    0    0  0.28851428861E+02  0.45142696042E+01 -0.39038296761E+02  0.48752150634E+02  0.00000000000E+00 0. -1.
        -11    1    3    3    0    0  0.26365165857E+02  0.59814284070E+02 -0.36666512444E+02  0.74948673666E+02  0.00000000000E+00 0.  1.
         11    1    3    3    0    0  0.13116957868E+02 -0.35127176369E+02 -0.33547094599E+02  0.50312827981E+02  0.00000000000E+00 0. -1.
         21    1    1    2  502  501 -0.11739809038E+03 -0.25270293255E+02 -0.19593208444E+03  0.22980487605E+03  0.00000000000E+00 0. -1.
<scales pt_clust_5="13000.00000" pt_clust_6="13000.00000" pt_clust_7="13000.00000" pt_clust_8="13000.00000" pt_clust_9="110.15411"></scales>
<clustering>
<clus scale="   81.457">  5  6 -1 -1</clus>
<clus scale="   92.694">  7  8 -1 -1</clus>
<clus scale="  103.733">  1  7  2 -1</clus>
<clus scale="  110.154">  2  9  1 -1</clus>
<clus scale="  110.154">  2  5  1 -1</clus>
</clustering>
</event>
<event>
 9    2  0.3791909E-005  0.1162765E+03  0.7546771E-02  0.1254652E+00
          2   -1    0    0  502    0  0.00000000000E+00  0.00000000000E+00  0.24497738543E+03  0.24497738543E+03  0.00000000000E+00 0. -1.
         -1   -1    0    0    0  501 -0.00000000000E+00 -0.00000000000E+00 -0.20504909339E+03  0.20504909339E+03  0.00000000000E+00 0.  1.
         24    2    1    2    0    0  0.26247779933E+02  0.66570155858E+02 -0.16644658929E+03  0.19718592204E+03  0.77828588338E+02 0.  0.
         23    2    1    2    0    0 -0.24233370929E+02 -0.41971342784E+02  0.20232345218E+03  0.22782908889E+03  0.92857226751E+02 0.  0.
        -11    1    3    3    0    0  0.36009295149E+01  0.78789384125E+02 -0.11223218014E+03  0.13717432706E+03  0.00000000000E+00 0.  1.
         12    1    3    3    0    0  0.22646850418E+02 -0.12219228267E+02 -0.54214409145E+02  0.60011594982E+02  0.00000000000E+00 0. -1.
        -13    1    4    4    0    0 -0.96951549706E+01 -0.69023133635E+02  0.10716722140E+03  0.12783975261E+03  0.00000000000E+00 0. -1.
         13    1    4    4    0    0 -0.14538215958E+02  0.27051790851E+02  0.95156230785E+02  0.99989336275E+02  0.00000000000E+00 0.  1.
         21    1    1    2  502  501 -0.20144090041E+01 -0.24598813074E+02  0.40514291404E+01  0.25011467897E+02  0.00000000000E+00 0. -1.
<scales pt_clust_5="13000.00000" pt_clust_6="13000.00000" pt_clust_7="13000.00000" pt_clust_8="13000.00000" pt_clust_9="24.68116"></scales>
<clustering>
<clus scale="   24.681">  1  9  2 -1</clus>
<clus scale="   77.829">  5  6 -1 -1</clus>
<clus scale="   92.857">  7  8 -1 -1</clus>
<clus scale="  104.666">  2  5  1 -1</clus>
<clus scale="   24.681">  1  5  2 -1</clus>
</clustering>
</event>
<event>
 9    2  0.3791909E-005  0.1296799E+03  0.7546771E-02  0.1229737E+00
         -1   -1    0    0    0  501 -0.00000000000E+00  0.00000000000E+00  0.26746102803E+03  0.26746102803E+03  0.00000000000E+00 0.  1.
          2   -1    0    0  502    0  0.00000000000E+00 -0.00000000000E+00 -0.10145950732E+03  0.10145950732E+03  0.00000000000E+00 0. -1.
         24    2    1    2    0    0  0.70417198965E+02  0.76865493177E+01  0.63987781622E+02  0.12585922441E+03  0.82027088333E+02 0.  0.
         23    2    1    2    0    0 -0.12191479886E+03 -0.34759707735E+02  0.10082794573E+03  0.18486883027E+03  0.89099687440E+02 0.  0.
        -11    1    3    3    0    0  0.17164953941E+02 -0.35733594161E+02  0.24759602375E+02  0.46739312204E+02  0.00000000000E+00 0.  1.
         12    1    3    3    0    0  0.53252245024E+02  0.43420143479E+02  0.39228179247E+02  0.79119912202E+02  0.00000000000E+00 0. -1.
        -11    1    4    4    0    0 -0.66506739587E+02 -0.27792770309E+02  0.29021166857E+01  0.72138802133E+02  0.00000000000E+00 0. -1.
         11    1    4    4    0    0 -0.55408059276E+02 -0.69669374255E+01  0.97925829045E+02  0.11273002814E+03  0.00000000000E+00 0.  1.
         21    1    1    2  502  501  0.51497599898E+02  0.27073158417E+02  0.11857933569E+01  0.58192480681E+02  0.00000000000E+00 0.  1.
<scales pt_clust_5="13000.00000" pt_clust_6="13000.00000" pt_clust_7="13000.00000" pt_clust_8="13000.00000" pt_clust_9="58.18040"></scales>
<clustering>
<clus scale="   58.180">  2  9  1 -1</clus>
<clus scale="   82.027">  5  6 -1 -1</clus>
<clus scale="   89.100">  7  8 -1 -1</clus>
<clus scale="  124.926">  1  5  2 -1</clus>
<clus scale="   58.180">  2  5  1 -1</clus>
</clustering>
</event>
<event>
 9    2  0.3791909E-005  0.2130763E+03  0.7546771E-02  0.1139161E+00
         -1   -1    0    0    0  501 -0.00000000000E+00  0.00000000000E+00  0.43904584084E+03  0.43904584084E+03  0.00000000000E+00 0.  1.
          2   -1    0    0  502    0  0.00000000000E+00 -0.00000000000E+00 -0.18190795004E+03  0.18190795004E+03  0.00000000000E+00 0. -1.
         23    2    1    2    0    0 -0.83381237702E+02 -0.18723238858E+03  0.25964411826E+03  0.34317720101E+03  0.91362601843E+02 0.  0.
         24    2    1    2    0    0  0.91750897988E+02  0.14557326316E+03  0.58552175503E+02  0.20338799857E+03  0.91260717054E+02 0.  0.
        -13    1    4    4    0    0  0.34305845579E+02  0.61399712806E+02  0.71935162131E+02  0.10060558297E+03  0.00000000000E+00 0.  1.
         14    1    4    4    0    0  0.57445052410E+02  0.84173550358E+02 -0.13382986629E+02  0.10278241560E+03  0.00000000000E+00 0. -1.
        -11    1    3    3    0    0 -0.54963833070E+02 -0.35699103631E+02  0.11166080692E+03  0.12947426288E+03  0.00000000000E+00 0.  1.
         11    1    3    3    0    0 -0.28417404632E+02 -0.15153328495E+03  0.14798331134E+03  0.21370293814E+03  0.00000000000E+00 0. -1.
         21    1    1    2  502  501 -0.83696602862E+01  0.41659125413E+02 -0.61058402963E+02  0.74388591302E+02  0.00000000000E+00 0. -1.
<scales pt_clust_5="13000.00000" pt_clust_6="13000.00000" pt_clust_7="13000.00000" pt_clust_8="13000.00000" pt_clust_9="42.49157"></scales>
<clustering>
<clus scale="   42.492">  2  9  1 -1</clus>
<clus scale="   91.261">  5  6 -1 -1</clus>
<clus scale="   91.363">  7  8 -1 -1</clus>
<clus scale="  213.033">  2  5  1 -1</clus>
<clus scale="   42.492">  2  5  1 -1</clus>
</clustering>
</event>
<event>
 9    2  0.3791909E-005  0.9840431E+02  0.7546771E-02  0.1285740E+00
         -1   -1    0    0    0  501 -0.00000000000E+00  0.00000000000E+00  0.21706889512E+03  0.21706889512E+03  0.00000000000E+00 0.  1.
          2   -1    0    0  502    0  0.00000000000E+00 -0.00000000000E+00 -0.94135887837E+02  0.94135887837E+02  0.00000000000E+00 0. -1.
         24    2    1    2    0    0 -0.21139117707E+02  0.33542866662E+02  0.16114904093E+03  0.18770320675E+03  0.87701164366E+02 0.  0.
         23    2    1    2    0    0  0.12648657584E+02 -0.10896650316E+02 -0.31272784280E+02  0.98339149066E+02  0.91727180681E+02 0.  0.
        -11    1    3    3    0    0 -0.32105902862E+01  0.45550701727E+02  0.15967338467E+03  0.16607457388E+03  0.00000000000E+00 0.  1.
         12    1    3    3    0    0 -0.17928527421E+02 -0.12007835065E+02  0.14756562581E+01  0.21628632870E+02  0.00000000000E+00 0. -1.
        -11    1    4    4    0    0  0.87207692054E+01  0.37697670191E+02  0.29011116397E+01  0.38801837613E+02  0.00000000000E+00 0.  1.
         11    1    4    4    0    0  0.39278883787E+01 -0.48594320508E+02 -0.34173895920E+02  0.59537311453E+02  0.00000000000E+00 0. -1.
         21    1    1    2  502  501  0.84904601230E+01 -0.22646216346E+02 -0.69432493640E+01  0.25162427141E+02  0.00000000000E+00 0. -1.
<scales pt_clust_5="13000.00000" pt_clust_6="13000.00000" pt_clust_7="13000.00000" pt_clust_8="13000.00000" pt_clust_9="24.18551"></scales>
<clustering>
<clus scale="   24.186">  2  9  1 -1</clus>
<clus scale="   87.701">  5  6 -1 -1</clus>
<clus scale="   91.727">  7  8 -1 -1</clus>
<clus scale="   94.663">  1  5  2 -1</clus>
<clus scale="   24.186">  2  5  1 -1</clus>
</clustering>
</event>
<event>
 9    2  0.3791909E-005  0.2838785E+03  0.7546771E-02  0.1093761E+00
         -1   -1    0    0    0  501 -0.00000000000E+00  0.00000000000E+00  0.27652398651E+03  0.27652398651E+03  0.00000000000E+00 0.  1.
          2   -1    0    0  502    0  0.00000000000E+00 -0.00000000000E+00 -0.90330862175E+03  0.90330862175E+03  0.00000000000E+00 0. -1.
         24    2    1    2    0    0 -0.19320840750E+03  0.18160287443E+03  0.14753830328E+03  0.31545355849E+03  0.86222409474E+02 0.  0.
         23    2    1    2    0    0  0.23156291968E+03 -0.13920514757E+03 -0.74993590553E+03  0.80222309088E+03  0.90324782136E+02 0.  0.
        -11    1    3    3    0    0 -0.13764290472E+03  0.13591233703E+03  0.14792342788E+03  0.24351401005E+03  0.00000000000E+00 0.  1.
         12    1    3    3    0    0 -0.55565502788E+02  0.45690537400E+02 -0.38512460010E+00  0.71939548435E+02  0.00000000000E+00 0. -1.
        -13    1    4    4    0    0  0.10334572680E+02 -0.33571447989E+02 -0.54475267155E+02  0.64818209202E+02  0.00000000000E+00 0.  1.
         13    1    4    4    0    0  0.22122834700E+03 -0.10563369958E+03 -0.69546063837E+03  0.73740488168E+03  0.00000000000E+00 0. -1.
         21    1    1    2  502  501 -0.38354512177E+02 -0.42397726855E+02 -0.24387032991E+02  0.62155958885E+02  0.00000000000E+00 0.  1.
<scales pt_clust_5="13000.00000" pt_clust_6="13000.00000" pt_clust_7="13000.00000" pt_clust_8="13000.00000" pt_clust_9="57.17198"></scales>
<clustering>
<clus scale="   57.172">  1  9  2 -1</clus>
<clus scale="   86.222">  5  6 -1 -1</clus>
<clus scale="   90.325">  7  8 -1 -1</clus>
<clus scale="  282.600">  1  5  2 -1</clus>
<clus scale="  283.878">  2  5  1 -1</clus>
</clustering>
</event>
<event>
 9    2  0.3791909E-005  0.1272797E+03  0.7546771E-02  0.1236267E+00
         -1   -1    0    0    0  501 -0.00000000000E+00  0.00000000000E+00  0.10750606350E+03  0.10750606350E+03  0.00000000000E+00 0.  1.
          2   -1    0    0  502    0  0.00000000000E+00 -0.00000000000E+00 -0.67641829696E+03  0.67641829696E+03  0.00000000000E+00 0. -1.
         23    2    1    2    0    0  0.12026738354E+03 -0.30670346901E+02  0.19638151042E+02  0.15530008612E+03  0.91255389168E+02 0.  0.
         24    2    1    2    0    0 -0.86618440410E+02  0.16895153905E+01 -0.56866404393E+03  0.57996621734E+03  0.74002768343E+02 0.  0.
        -11    1    4    4    0    0 -0.54092779513E+02  0.37216237362E+02 -0.34068635611E+03  0.34695571815E+03  0.00000000000E+00 0.  1.
         12    1    4    4    0    0 -0.32525660897E+02 -0.35526721972E+02 -0.22797768782E+03  0.23301049920E+03  0.00000000000E+00 0. -1.
        -11    1    3    3    0    0  0.87994211747E+02  0.21911697060E+02  0.22864708664E+02  0.93519509576E+02  0.00000000000E+00 0.  1.
         11    1    3    3    0    0  0.32273171789E+02 -0.52582043962E+02 -0.32265576227E+01  0.61780576548E+02  0.00000000000E+00 0. -1.
         21    1    1    2  502  501 -0.33648943126E+02  0.28980831511E+02 -0.19886340576E+02  0.48658056990E+02  0.00000000000E+00 0.  1.
<scales pt_clust_5="13000.00000" pt_clust_6="13000.00000" pt_clust_7="13000.00000" pt_clust_8="13000.00000" pt_clust_9="44.40878"></scales>
<clustering>
<clus scale="   44.409">  1  9  2 -1</clus>
<clus scale="   74.003">  5  6 -1 -1</clus>
<clus scale="   91.255">  7  8 -1 -1</clus>
<clus scale="  115.538">  2  5  1 -1</clus>
<clus scale="  115.538">  2  5  1 -1</clus>
</clustering>
</event>
<event>
 9    2  0.3791909E-005  0.1918571E+03  0.7546771E-02  0.1157859E+00
          2   -1    0    0  502    0  0.00000000000E+00  0.00000000000E+00  0.56545975510E+03  0.56545975510E+03  0.00000000000E+00 0. -1.
         -1   -1    0    0    0  501 -0.00000000000E+00 -0.00000000000E+00 -0.11709123444E+03  0.11709123444E+03  0.00000000000E+00 0.  1.
         24    2    1    2    0    0 -0.91036553745E+02  0.15783803009E+03  0.19800191998E+02  0.19975174880E+03  0.79424276430E+02 0.  0.
         23    2    1    2    0    0  0.87171506770E+02 -0.96697510934E+02  0.34099718072E+03  0.37592638346E+03  0.89957147097E+02 0.  0.
        -11    1    3    3    0    0 -0.58459580525E+02  0.84051233092E+02 -0.27807598815E+02  0.10609144589E+03  0.00000000000E+00 0.  1.
         12    1    3    3    0    0 -0.32576973220E+02  0.73786796994E+02  0.47607790813E+02  0.93660302908E+02  0.00000000000E+00 0. -1.
        -13    1    4    4    0    0  0.10327859855E+02 -0.58816325412E+02  0.21800883901E+03  0.22603955121E+03  0.00000000000E+00 0.  1.
         13    1    4    4    0    0  0.76843646915E+02 -0.37881185522E+02  0.12298834171E+03  0.14988683226E+03  0.00000000000E+00 0. -1.
         21    1    1    2  502  501  0.38650469752E+01 -0.61140519151E+02  0.87571147947E+02  0.10687285728E+03  0.00000000000E+00 0.  1.
<scales pt_clust_5="13000.00000" pt_clust_6="13000.00000" pt_clust_7="13000.00000" pt_clust_8="13000.00000" pt_clust_9="61.26256"></scales>
<clustering>
<clus scale="   61.263">  1  9  2 -1</clus>
<clus scale="   79.424">  5  6 -1 -1</clus>
<clus scale="   89.957">  7  8 -1 -1</clus>
<clus scale="  187.150">  2  5  1 -1</clus>
<clus scale="   61.263">  1  5  2 -1</clus>
</clustering>
</event>
<event>
 9    2  0.3791909E-005  0.1839814E+03  0.7546771E-02  0.1165130E+00
          2   -1    0    0  502    0  0.00000000000E+00  0.00000000000E+00  0.81983265942E+03  0.81983265942E+03  0.00000000000E+00 0. -1.
         -1   -1    0    0    0  501 -0.00000000000E+00 -0.00000000000E+00 -0.21163056226E+03  0.21163056226E+03  0.00000000000E+00 0.  1.
         24    2    1    2    0    0  0.92942184984E+02 -0.13073532009E+03 -0.15145558733E+03  0.23511870426E+03  0.81314429784E+02 0.  0.
         23    2    1    2    0    0 -0.12731266604E+03  0.94764320803E+02  0.51218982395E+03  0.54392505550E+03  0.91253815312E+02 0.  0.
        -11    1    3    3    0    0  0.10064801381E+03 -0.10405789770E+03 -0.97813655981E+02  0.17471571210E+03  0.00000000000E+00 0.  1.
         12    1    3    3    0    0 -0.77058288263E+01 -0.26677422383E+02 -0.53641931345E+02  0.60402992155E+02  0.00000000000E+00 0. -1.
        -11    1    4    4    0    0 -0.75760808780E+01  0.56344094952E+02  0.14186140034E+03  0.15282902520E+03  0.00000000000E+00 0.  1.
         11    1    4    4    0    0 -0.11973658516E+03  0.38420225850E+02  0.37032842361E+03  0.39109603029E+03  0.00000000000E+00 0. -1.
         21    1    1    2  502  501  0.34370481054E+02  0.35970999284E+02  0.24746786054E+03  0.25241946192E+03  0.00000000000E+00 0. -1.
<scales pt_clust_5="13000.00000" pt_clust_6="13000.00000" pt_clust_7="13000.00000" pt_clust_8="13000.00000" pt_clust_9="49.75181"></scales>
<clustering>
<clus scale="   49.752">  1  9  2 -1</clus>
<clus scale="   81.314">  5  6 -1 -1</clus>
<clus scale="   91.254">  7  8 -1 -1</clus>
<clus scale="  179.259">  2  5  1 -1</clus>
<clus scale="   49.752">  1  5  2 -1</clus>
</clustering>
</event>
<event>
 9    2  0.3791909E-005  0.1276131E+03  0.7546771E-02  0.1233961E+00
          2   -1    0    0  502    0  0.00000000000E+00  0.00000000000E+00  0.64506940741E+03  0.64506940741E+03  0.00000000000E+00 0. -1.
         -1   -1    0    0    0  501 -0.00000000000E+00 -0.00000000000E+00 -0.11184671687E+03  0.11184671687E+03  0.00000000000E+00 0.  1.
         23    2    1    2    0    0  0.58115573041E+02  0.71472762581E+02 -0.50468617691E+02  0.14033563286E+03  0.93065744819E+02 0.  0.
         24    2    1    2    0    0  0.23785391602E+02 -0.73003774799E+02  0.39715005077E+03  0.41284597607E+03  0.82573247128E+02 0.  0.
        -11    1    4    4    0    0  0.44421485403E+02 -0.51891671717E+02  0.35420954174E+03  0.36073593309E+03  0.00000000000E+00 0.  1.
         12    1    4    4    0    0 -0.20636093801E+02 -0.21112103082E+02  0.42940509021E+02  0.52110042975E+02  0.00000000000E+00 0. -1.
        -11    1    3    3    0    0 -0.10945070714E+02  0.59126945100E+02 -0.16298706220E+02  0.62301188065E+02  0.00000000000E+00 0. -1.
         11    1    3    3    0    0  0.69060643755E+02  0.12345817481E+02 -0.34169911472E+02  0.78034444799E+02  0.00000000000E+00 0.  1.
         21    1    1    2  502  501 -0.81900964643E+02  0.15310122177E+01  0.18654125747E+03  0.20373451535E+03  0.00000000000E+00 0. -1.
<scales pt_clust_5="13000.00000" pt_clust_6="13000.00000" pt_clust_7="13000.00000" pt_clust_8="13000.00000" pt_clust_9="81.91527"></scales>
<clustering>
<clus scale="   81.915">  1  9  2 -1</clus>
<clus scale="   82.573">  5  6 -1 -1</clus>
<clus scale="   93.066">  7  8 -1 -1</clus>
<clus scale="  120.176">  1  5  2 -1</clus>
<clus scale="   81.915">  1  5  2 -1</clus>
</clustering>
</event>
<event>
 9    2  0.3791909E-005  0.2503604E+03  0.7546771E-02  0.1113566E+00
          2   -1    0    0  502    0  0.00000000000E+00  0.00000000000E+00  0.66061171856E+03  0.66061171856E+03  0.00000000000E+00 0. -1.
         -1   -1    0    0    0  501 -0.00000000000E+00 -0.00000000000E+00 -0.28492966452E+03  0.28492966452E+03  0.00000000000E+00 0.  1.
         24    2    1    2    0    0 -0.14274602622E+03  0.18721239011E+03 -0.19624951493E+03  0.31717313114E+03  0.81608921047E+02 0.  0.
         23    2    1    2    0    0  0.14222979002E+03 -0.16192443237E+03  0.53215926744E+03  0.58123457740E+03  0.90505873138E+02 0.  0.
        -11    1    3    3    0    0 -0.14070006642E+03  0.14281733938E+03 -0.18124960315E+03  0.27026786668E+03  0.00000000000E+00 0.  1.
         12    1    3    3    0    0 -0.20459598064E+01  0.44395050731E+02 -0.14999911779E+02  0.46905264462E+02  0.00000000000E+00 0. -1.
        -13    1    4    4    0    0  0.11276307607E+03 -0.60695213221E+02  0.30548430350E+03  0.33124021482E+03  0.00000000000E+00 0.  1.
         13    1    4    4    0    0  0.29466713951E+02 -0.10122921915E+03  0.22667496395E+03  0.24999436258E+03  0.00000000000E+00 0. -1.
         21    1    1    2  502  501  0.51623619931E+00 -0.25287957744E+02  0.39772301519E+02  0.47133674530E+02  0.00000000000E+00 0.  1.
<scales pt_clust_5="13000.00000" pt_clust_6="13000.00000" pt_clust_7="13000.00000" pt_clust_8="13000.00000" pt_clust_9="25.29323"></scales>
<clustering>
<clus scale="   25.293">  1  9  2 -1</clus>
<clus scale="   81.609">  5  6 -1 -1</clus>
<clus scale="   90.506">  7  8 -1 -1</clus>
<clus scale="  247.283">  2  5  1 -1</clus>
<clus scale="   25.293">  1  5  2 -1</clus>
</clustering>
</event>
<event>
 9    2  0.3791909E-005  0.1214781E+03  0.7546771E-02  0.1249206E+00
          2   -1    0    0  502    0  0.00000000000E+00  0.00000000000E+00  0.64299386026E+03  0.64299386026E+03  0.00000000000E+00 0. -1.
         -1   -1    0    0    0  501 -0.00000000000E+00 -0.00000000000E+00 -0.39246407882E+02  0.39246407882E+02  0.00000000000E+00 0.  1.
         23    2    1    2    0    0 -0.63049540227E+02  0.29537248310E+02  0.89597524783E+02  0.15395431179E+03  0.10405056517E+03 0.  0.
         24    2    1    2    0    0  0.37153575725E+02 -0.13051564348E+02  0.40760802982E+03  0.41740965260E+03  0.80844174702E+02 0.  0.
        -13    1    4    4    0    0  0.33145173920E+02 -0.24586432140E+02  0.84184472753E+02  0.93755643309E+02  0.00000000000E+00 0.  1.
         14    1    4    4    0    0  0.40084018051E+01  0.11534867792E+02  0.32342355707E+03  0.32365400929E+03  0.00000000000E+00 0. -1.
        -11    1    3    3    0    0 -0.25372866199E+02  0.40711563335E+02  0.10202276574E+03  0.11273800804E+03  0.00000000000E+00 0. -1.
         11    1    3    3    0    0 -0.37676674028E+02 -0.11174315025E+02 -0.12425240954E+02  0.41216303751E+02  0.00000000000E+00 0.  1.
         21    1    1    2  502  501  0.25895964502E+02 -0.16485683962E+02  0.10654189777E+03  0.11087630376E+03  0.00000000000E+00 0.  1.
<scales pt_clust_5="13000.00000" pt_clust_6="13000.00000" pt_clust_7="13000.00000" pt_clust_8="13000.00000" pt_clust_9="30.69819"></scales>
<clustering>
<clus scale="   30.698">  1  9  2 -1</clus>
<clus scale="   80.844">  5  6 -1 -1</clus>
<clus scale="  102.304">  1  5  2 -1</clus>
<clus scale="  104.051">  7  8 -1 -1</clus>
<clus scale="   30.698">  1  5  2 -1</clus>
</clustering>
</event>
<event>
 9    2  0.3791909E-005  0.2717592E+03  0.7546771E-02  0.1100685E+00
         -1   -1    0    0    0  501 -0.00000000000E+00  0.00000000000E+00  0.72158491968E+03  0.72158491968E+03  0.00000000000E+00 0.  1.
          2   -1    0    0  502    0  0.00000000000E+00 -0.00000000000E+00 -0.11771987845E+03  0.11771987845E+03  0.00000000000E+00 0. -1.
         23    2    1    2    0    0  0.92636406912E+01  0.25935973341E+03  0.36778071923E+03  0.45929745744E+03  0.91313802972E+02 0.  0.
         24    2    1    2    0    0  0.16148896943E+02 -0.25149242978E+03  0.23346130282E+03  0.35327586552E+03  0.82404054086E+02 0.  0.
        -13    1    4    4    0    0 -0.21179357618E+02 -0.35334026159E+02  0.63879875821E+02  0.76011164500E+02  0.00000000000E+00 0.  1.
         14    1    4    4    0    0  0.37328254561E+02 -0.21615840362E+03  0.16958142700E+03  0.27726470102E+03  0.00000000000E+00 0. -1.
        -13    1    3    3    0    0  0.47014980588E+02  0.13319472409E+03  0.16139217823E+03  0.21447302422E+03  0.00000000000E+00 0. -1.
         13    1    3    3    0    0 -0.37751339897E+02  0.12616500932E+03  0.20638854101E+03  0.24482443322E+03  0.00000000000E+00 0.  1.
         21    1    1    2  502  501 -0.25412537634E+02 -0.78673036288E+01  0.26230191677E+01  0.26731475174E+02  0.00000000000E+00 0.  1.
<scales pt_clust_5="13000.00000" pt_clust_6="13000.00000" pt_clust_7="13000.00000" pt_clust_8="13000.00000" pt_clust_9="26.60247"></scales>
<clustering>
<clus scale="   26.602">  2  9  1 -1</clus>
<clus scale="   82.404">  5  6 -1 -1</clus>
<clus scale="   91.314">  7  8 -1 -1</clus>
<clus scale="  268.896">  2  5  1 -1</clus>
<clus scale="   26.602">  2  5  1 -1</clus>
</clustering>
</event>
<event>
 9    2  0.3791909E-005  0.9435789E+02  0.7546771E-02  0.1299719E+00
          2   -1    0    0  502    0  0.00000000000E+00  0.00000000000E+00  0.15113488857E+03  0.15113488857E+03  0.00000000000E+00 0. -1.
         -1   -1    0    0    0  501 -0.00000000000E+00 -0.00000000000E+00 -0.13449601256E+03  0.13449601256E+03  0.00000000000E+00 0.  1.
         24    2    1    2    0    0  0.14133338448E+02 -0.11872151320E+02 -0.90041044179E+02  0.12261795254E+03  0.81160787431E+02 0.  0.
         23    2    1    2    0    0 -0.83957325315E+01 -0.13379211537E+02  0.97197494138E+02  0.13543636701E+03  0.92984756908E+02 0.  0.
        -13    1    3    3    0    0  0.91295611508E+00  0.33599269060E+02 -0.51806965336E+02  0.61755210529E+02  0.00000000000E+00 0.  1.
         14    1    3    3    0    0  0.13220382333E+02 -0.45471420381E+02 -0.38234078843E+02  0.60862742014E+02  0.00000000000E+00 0. -1.
        -13    1    4    4    0    0 -0.35077930426E+02  0.15869329180E+02  0.10161504297E+02  0.39819002764E+02  0.00000000000E+00 0.  1.
         13    1    4    4    0    0  0.26682197894E+02 -0.29248540716E+02  0.87035989841E+02  0.95617364250E+02  0.00000000000E+00 0. -1.
         21    1    1    2  502  501 -0.57376059163E+01  0.25251362857E+02  0.94824260498E+01  0.27576581579E+02  0.00000000000E+00 0.  1.
<scales pt_clust_5="13000.00000" pt_clust_6="13000.00000" pt_clust_7="13000.00000" pt_clust_8="13000.00000" pt_clust_9="25.89501"></scales>
<clustering>
<clus scale="   25.895">  1  9  2 -1</clus>
<clus scale="   81.161">  5  6 -1 -1</clus>
<clus scale="   82.730">  2  5  1 -1</clus>
<clus scale="   92.985">  7  8 -1 -1</clus>
<clus scale="   25.895">  1  5  2 -1</clus>
</clustering>
</event>
<event>
 9    2  0.3791909E-005  0.1568738E+03  0.7546771E-02  0.1193952E+00
          2   -1    0    0  502    0  0.00000000000E+00  0.00000000000E+00  0.23715123834E+03  0.23715123834E+03  0.00000000000E+00 0. -1.
         -1   -1    0    0    0  501 -0.00000000000E+00 -0.00000000000E+00 -0.41809481049E+03  0.41809481049E+03  0.00000000000E+00 0.  1.
         24    2    1    2    0    0 -0.13778965819E+03 -0.21950517707E+02 -0.26700846468E+03  0.31196922196E+03  0.81015184433E+02 0.  0.
         23    2    1    2    0    0  0.69719709849E+02  0.11040310491E+03 -0.50337942693E+02  0.16702952475E+03  0.91188103096E+02 0.  0.
        -13    1    3    3    0    0 -0.12452414711E+03  0.66210016676E+01 -0.17627884259E+03  0.21592668020E+03  0.00000000000E+00 0.  1.
         14    1    3    3    0    0 -0.13265511078E+02 -0.28571519374E+02 -0.90729622088E+02  0.96042541760E+02  0.00000000000E+00 0. -1.
        -13    1    4    4    0    0  0.86604319379E+02  0.98971770109E+02 -0.23941271489E+02  0.13367461948E+03  0.00000000000E+00 0. -1.
         13    1    4    4    0    0 -0.16884609530E+02  0.11431334805E+02 -0.26396671203E+02  0.33354905262E+02  0.00000000000E+00 0.  1.
         21    1    1    2  502  501  0.68069948342E+02 -0.88452587208E+02  0.13640283522E+03  0.17624730213E+03  0.00000000000E+00 0. -1.
<scales pt_clust_5="13000.00000" pt_clust_6="13000.00000" pt_clust_7="13000.00000" pt_clust_8="13000.00000" pt_clust_9="111.61262"></scales>
<clustering>
<clus scale="   81.015">  5  6 -1 -1</clus>
<clus scale="   91.188">  7  8 -1 -1</clus>
<clus scale="  111.613">  1  9  2 -1</clus>
<clus scale="  151.187">  2  5  1 -1</clus>
<clus scale="  111.613">  1  5  2 -1</clus>
</clustering>
</event>
<event>
 9    2  0.3791909E-005  0.9947813E+02  0.7546771E-02  0.1287400E+00
         -1   -1    0    0    0  501 -0.00000000000E+00  0.00000000000E+00  0.49266420020E+02  0.49266420020E+02  0.00000000000E+00 0.  1.
          2   -1    0    0  502    0  0.00000000000E+00 -0.00000000000E+00 -0.42174205835E+03  0.42174205835E+03  0.00000000000E+00 0. -1.
         23    2    1    2    0    0  0.50919314130E+02 -0.25349868485E+01 -0.49969480159E+02  0.11647760049E+03  0.92037382399E+02 0.  0.
         24    2    1    2    0    0  0.14717376129E+01 -0.22637219991E+02 -0.23569159872E+03  0.25005489962E+03  0.80388515211E+02 0.  0.
        -11    1    4    4    0    0 -0.31198417193E+02 -0.55072505092E+01 -0.40556137298E+02  0.51463300672E+02  0.00000000000E+00 0.  1.
         12    1    4    4    0    0  0.32670154806E+02 -0.17129969482E+02 -0.19513546142E+03  0.19859159895E+03  0.00000000000E+00 0. -1.
        -13    1    3    3    0    0  0.54675767633E+02 -0.29197919388E+02 -0.26580069066E+01  0.62040495352E+02  0.00000000000E+00 0. -1.
         13    1    3    3    0    0 -0.37564535028E+01  0.26662932540E+02 -0.47311473252E+02  0.54437105138E+02  0.00000000000E+00 0.  1.
         21    1    1    2  502  501 -0.52391051743E+02  0.25172206840E+02 -0.86814559450E+02  0.10447597826E+03  0.00000000000E+00 0.  1.
<scales pt_clust_5="13000.00000" pt_clust_6="13000.00000" pt_clust_7="13000.00000" pt_clust_8="13000.00000" pt_clust_9="58.12454"></scales>
<clustering>
<clus scale="   58.125">  2  9  1 -1</clus>
<clus scale="   80.389">  5  6 -1 -1</clus>
<clus scale="   88.811">  2  5  1 -1</clus>
<clus scale="   92.037">  7  8 -1 -1</clus>
<clus scale="   58.125">  2  5  1 -1</clus>
</clustering>
</event>
<event>
 9    2  0.3791909E-005  0.3182988E+03  0.7546771E-02  0.1129334E+00
         -3   -1    0    0    0  501 -0.00000000000E+00  0.00000000000E+00  0.89802438831E+03  0.89802438831E+03  0.00000000000E+00 0.  1.
          4   -1    0    0  502    0  0.00000000000E+00 -0.00000000000E+00 -0.17871961479E+03  0.17871961479E+03  0.00000000000E+00 0. -1.
         23    2    1    2    0    0  0.22251531155E+03  0.20544013623E+03  0.57568396910E+03  0.65689554510E+03  0.91547864244E+02 0.  0.
         24    2    1    2    0    0  0.15912533078E+02 -0.60691646183E+01  0.49541699048E+02  0.95121650543E+02  0.79395875141E+02 0.  0.
        -13    1    4    4    0    0  0.11829807088E+01  0.27157199131E+02 -0.68496227985E+01  0.28032663813E+02  0.00000000000E+00 0.  1.
         14    1    4    4    0    0  0.14729552369E+02 -0.33226363749E+02  0.56391321846E+02  0.67088986730E+02  0.00000000000E+00 0. -1.
        -13    1    3    3    0    0 -0.21473623045E+01  0.29961326926E+02  0.74184761450E+02  0.80035436573E+02  0.00000000000E+00 0. -1.
         13    1    3    3    0    0  0.22466267386E+03  0.17547880930E+03  0.50149920765E+03  0.57686010853E+03  0.00000000000E+00 0.  1.
         21    1    1    2  502  501 -0.23842784463E+03 -0.19937097161E+03  0.94079105370E+02  0.32472680746E+03  0.00000000000E+00 0. -1.
<scales pt_clust_5="13000.00000" pt_clust_6="13000.00000" pt_clust_7="13000.00000" pt_clust_8="13000.00000" pt_clust_9="304.84933"></scales>
<clustering>
<clus scale="   79.396">  5  6 -1 -1</clus>
<clus scale="   81.202">  2  5  1 -1</clus>
<clus scale="   91.548">  7  8 -1 -1</clus>
<clus scale="  304.849">  2  9  1 -1</clus>
<clus scale="   81.202">  2  5  1 -1</clus>
</clustering>
</event>
<event>
 9    2  0.3791909E-005  0.1068319E+03  0.7546771E-02  0.1271276E+00
          2   -1    0    0  502    0  0.00000000000E+00  0.00000000000E+00  0.10602443471E+04  0.10602443471E+04  0.00000000000E+00 0. -1.
         -1   -1    0    0    0  501 -0.00000000000E+00 -0.00000000000E+00 -0.18340483401E+02  0.18340483401E+02  0.00000000000E+00 0.  1.
         23    2    1    2    0    0 -0.55162085535E+02  0.78295601876E+00  0.21569529775E+03  0.24065212194E+03  0.91353782744E+02 0.  0.
         24    2    1    2    0    0  0.53136028475E+02  0.36073829294E+02  0.60795625588E+03  0.61658095596E+03  0.80227847419E+02 0.  0.
        -13    1    4    4    0    0  0.68780558086E+02  0.30003476716E+02  0.34388672289E+03  0.35197876636E+03  0.00000000000E+00 0.  1.
         14    1    4    4    0    0 -0.15644529611E+02  0.60703525785E+01  0.26406953299E+03  0.26460218960E+03  0.00000000000E+00 0. -1.
        -13    1    3    3    0    0 -0.24825162592E+02  0.45901304750E+02  0.98943098788E+02  0.11186132161E+03  0.00000000000E+00 0.  1.
         13    1    3    3    0    0 -0.30336922944E+02 -0.45118348731E+02  0.11675219896E+03  0.12879080032E+03  0.00000000000E+00 0. -1.
         21    1    1    2  502  501  0.20260570602E+01 -0.36856785313E+02  0.21825231006E+03  0.22135175260E+03  0.00000000000E+00 0.  1.
<scales pt_clust_5="13000.00000" pt_clust_6="13000.00000" pt_clust_7="13000.00000" pt_clust_8="13000.00000" pt_clust_9="36.91243"></scales>
<clustering>
<clus scale="   36.912">  1  9  2 -1</clus>
<clus scale="   80.228">  5  6 -1 -1</clus>
<clus scale="   91.354">  7  8 -1 -1</clus>
<clus scale="   97.489">  1  5  2 -1</clus>
<clus scale="   36.912">  1  5  2 -1</clus>
</clustering>
</event>
<event>
 9    2  0.3791909E-005  0.1440119E+03  0.7546771E-02  0.1209948E+00
         -3   -1    0    0    0  501 -0.00000000000E+00  0.00000000000E+00  0.98880990739E+02  0.98880990739E+02  0.00000000000E+00 0.  1.
          4   -1    0    0  502    0  0.00000000000E+00 -0.00000000000E+00 -0.31471492959E+03  0.31471492959E+03  0.00000000000E+00 0. -1.
         24    2    1    2    0    0 -0.10211530848E+03 -0.59457964201E+02  0.62610168263E+01  0.14284573186E+03  0.80018229470E+02 0.  0.
         23    2    1    2    0    0  0.83328882763E+02  0.49390664181E+02 -0.17623088919E+03  0.22017556128E+03  0.89648263047E+02 0.  0.
        -11    1    3    3    0    0 -0.11299755371E+03 -0.45166675293E+02  0.15453495574E+02  0.12266738045E+03  0.00000000000E+00 0.  1.
         12    1    3    3    0    0  0.10882245236E+02 -0.14291288908E+02 -0.91924787479E+01  0.20178351408E+02  0.00000000000E+00 0. -1.
        -13    1    4    4    0    0  0.60552502060E+02  0.70363483896E+02 -0.16058250779E+03  0.18548414267E+03  0.00000000000E+00 0. -1.
         13    1    4    4    0    0  0.22776380702E+02 -0.20972819715E+02 -0.15648381396E+02  0.34691418607E+02  0.00000000000E+00 0.  1.
         21    1    1    2  502  501  0.18786425713E+02  0.10067300019E+02 -0.45864066490E+02  0.50574627193E+02  0.00000000000E+00 0. -1.
<scales pt_clust_5="13000.00000" pt_clust_6="13000.00000" pt_clust_7="13000.00000" pt_clust_8="13000.00000" pt_clust_9="21.31385"></scales>
<clustering>
<clus scale="   21.314">  2  9  1 -1</clus>
<clus scale="   80.018">  5  6 -1 -1</clus>
<clus scale="   89.648">  7  8 -1 -1</clus>
<clus scale="  138.223">  1  5  2 -1</clus>
<clus scale="   21.314">  2  5  1 -1</clus>
</clustering>
</event>
<event>
 9    2  0.3791909E-005  0.1570359E+03  0.7546771E-02  0.1193773E+00
          2   -1    0    0  502    0  0.00000000000E+00  0.00000000000E+00  0.12412359409E+04  0.12412359409E+04  0.00000000000E+00 0. -1.
         -1   -1    0    0    0  501 -0.00000000000E+00 -0.00000000000E+00 -0.42004184424E+02  0.42004184424E+02  0.00000000000E+00 0.  1.
         24    2    1    2    0    0 -0.12041864120E+03  0.17832060010E+02  0.15436052738E+03  0.21215810704E+03  0.79782569908E+02 0.  0.
         23    2    1    2    0    0  0.15947888766E+03 -0.37034649545E+02  0.92132452439E+03  0.94009258915E+03  0.90167156209E+02 0.  0.
        -13    1    3    3    0    0 -0.12641892393E+03  0.14750638851E+02  0.15922416763E+03  0.20384224595E+03  0.00000000000E+00 0.  1.
         14    1    3    3    0    0  0.60002827371E+01  0.30814211593E+01 -0.48636402538E+01  0.83158610982E+01  0.00000000000E+00 0. -1.
        -13    1    4    4    0    0  0.61410010420E+02  0.27317644483E+02  0.26646570960E+03  0.27481160360E+03  0.00000000000E+00 0.  1.
         13    1    4    4    0    0  0.98068877241E+02 -0.64352294028E+02  0.65485881479E+03  0.66528098555E+03  0.00000000000E+00 0. -1.
         21    1    1    2  502  501 -0.39060246465E+02  0.19202589536E+02  0.12354670472E+03  0.13098942914E+03  0.00000000000E+00 0.  1.
<scales pt_clust_5="13000.00000" pt_clust_6="13000.00000" pt_clust_7="13000.00000" pt_clust_8="13000.00000" pt_clust_9="43.52519"></scales>
<clustering>
<clus scale="   43.525">  1  9  2 -1</clus>
<clus scale="   79.783">  5  6 -1 -1</clus>
<clus scale="   90.167">  7  8 -1 -1</clus>
<clus scale="  151.312">  2  5  1 -1</clus>
<clus scale="   43.525">  1  5  2 -1</clus>
</clustering>
</event>
<event>
 9    2  0.3791909E-005  0.2971897E+03  0.7546771E-02  0.1087129E+00
         -1   -1    0    0    0  501 -0.00000000000E+00  0.00000000000E+00  0.23495527119E+03  0.23495527119E+03  0.00000000000E+00 0.  1.
          2   -1    0    0  502    0  0.00000000000E+00 -0.00000000000E+00 -0.88937793958E+03  0.88937793958E+03  0.00000000000E+00 0. -1.
         23    2    1    2    0    0 -0.11964897010E+03 -0.26921044347E+03  0.84783147864E+02  0.32014534260E+03  0.92275236703E+02 0.  0.
         24    2    1    2    0    0  0.10322697551E+03  0.20415280931E+03 -0.49702456665E+03  0.55288340078E+03  0.79450972172E+02 0.  0.
        -11    1    4    4    0    0  0.99002174325E+02  0.16165635829E+03 -0.33084216676E+03  0.38130138736E+03  0.00000000000E+00 0.  1.
         12    1    4    4    0    0  0.42248011829E+01  0.42496451015E+02 -0.16618239989E+03  0.17158201342E+03  0.00000000000E+00 0. -1.
        -13    1    3    3    0    0 -0.98480455171E+02 -0.20124664463E+03  0.10311282892E+03  0.24663914432E+03  0.00000000000E+00 0.  1.
         13    1    3    3    0    0 -0.21168514925E+02 -0.67963798841E+02 -0.18329681060E+02  0.73506198275E+02  0.00000000000E+00 0. -1.
         21    1    1    2  502  501  0.16421994589E+02  0.65057634161E+02 -0.24218124960E+03  0.25130446739E+03  0.00000000000E+00 0. -1.
<scales pt_clust_5="13000.00000" pt_clust_6="13000.00000" pt_clust_7="13000.00000" pt_clust_8="13000.00000" pt_clust_9="67.09827"></scales>
<clustering>
<clus scale="   67.098">  2  9  1 -1</clus>
<clus scale="   79.451">  5  6 -1 -1</clus>
<clus scale="   92.275">  7  8 -1 -1</clus>
<clus scale="  293.461">  2  5  1 -1</clus>
<clus scale="   67.098">  2  5  1 -1</clus>
</clustering>
</event>
<event>
 9    2  0.3791909E-005  0.1076167E+03  0.7546771E-02  0.1268633E+00
         -1   -1    0    0    0  501 -0.00000000000E+00  0.00000000000E+00  0.20880454756E+03  0.20880454756E+03  0.00000000000E+00 0.  1.
          2   -1    0    0  502    0  0.00000000000E+00 -0.00000000000E+00 -0.11539523504E+03  0.11539523504E+03  0.00000000000E+00 0. -1.
         23    2    1    2    0    0  0.17930207955E+02 -0.61997110872E+02  0.13631750945E+03  0.17456950390E+03  0.87902867958E+02 0.  0.
         24    2    1    2    0    0 -0.51461156625E+02  0.38242715451E+02 -0.24216471992E+02  0.10448632670E+03  0.78868238385E+02 0.  0.
        -13    1    4    4    0    0 -0.64240489586E+02  0.19499235811E+02  0.52032293832E+01  0.67335980690E+02  0.00000000000E+00 0.  1.
         14    1    4    4    0    0  0.12779332961E+02  0.18743479640E+02 -0.29419701375E+02  0.37150346014E+02  0.00000000000E+00 0. -1.
        -11    1    3    3    0    0  0.49903090308E+02 -0.24054517579E+02  0.95128803999E+02  0.11008372990E+03  0.00000000000E+00 0.  1.
         11    1    3    3    0    0 -0.31972882353E+02 -0.37942593294E+02  0.41188705454E+02  0.64485774003E+02  0.00000000000E+00 0. -1.
         21    1    1    2  502  501  0.33530948669E+02  0.23754395421E+02 -0.18691724938E+02  0.45143951994E+02  0.00000000000E+00 0.  1.
<scales pt_clust_5="13000.00000" pt_clust_6="13000.00000" pt_clust_7="13000.00000" pt_clust_8="13000.00000" pt_clust_9="41.09253"></scales>
<clustering>
<clus scale="   41.093">  2  9  1 -1</clus>
<clus scale="   78.868">  5  6 -1 -1</clus>
<clus scale="   87.903">  7  8 -1 -1</clus>
<clus scale="  100.372">  2  5  1 -1</clus>
<clus scale="   41.093">  2  5  1 -1</clus>
</clustering>
</event>
<event>
 9    2  0.3791909E-005  0.9906193E+02  0.7546771E-02  0.1291919E+00
         -1   -1    0    0    0  501 -0.00000000000E+00  0.00000000000E+00  0.32457239785E+02  0.32457239785E+02  0.00000000000E+00 0.  1.
          2   -1    0    0  502    0  0.00000000000E+00 -0.00000000000E+00 -0.55567266873E+03  0.55567266873E+03  0.00000000000E+00 0. -1.
         24    2    1    2    0    0  0.42766982028E+02 -0.63869814591E+01 -0.66980825386E+02  0.10994741115E+03  0.75711253888E+02 0.  0.
         23    2    1    2    0    0 -0.60845360087E+01 -0.12552640546E+02 -0.23728125945E+03  0.25537119150E+03  0.93367333662E+02 0.  0.
        -13    1    3    3    0    0  0.48462099044E+02  0.36596447732E+01 -0.72829300637E+01  0.49142742231E+02  0.00000000000E+00 0.  1.
         14    1    3    3    0    0 -0.56951170162E+01 -0.10046626232E+02 -0.59697895322E+02  0.60804668919E+02  0.00000000000E+00 0. -1.
        -11    1    4    4    0    0 -0.19115496288E+01 -0.39961235748E+02 -0.21790431168E+03  0.22154648142E+03  0.00000000000E+00 0. -1.
         11    1    4    4    0    0 -0.41729863799E+01  0.27408595202E+02 -0.19376947777E+02  0.33824710071E+02  0.00000000000E+00 0.  1.
         21    1    1    2  502  501 -0.36682446019E+02  0.18939622005E+02 -0.21895334410E+03  0.22281130587E+03  0.00000000000E+00 0.  1.
<scales pt_clust_5="13000.00000" pt_clust_6="13000.00000" pt_clust_7="13000.00000" pt_clust_8="13000.00000" pt_clust_9="41.28330"></scales>
<clustering>
<clus scale="   41.283">  2  9  1 -1</clus>
<clus scale="   75.711">  5  6 -1 -1</clus>
<clus scale="   82.632">  1  5  2 -1</clus>
<clus scale="   93.367">  7  8 -1 -1</clus>
<clus scale="   41.283">  2  5  1 -1</clus>
</clustering>
</event>
<event>
 9    2  0.3791909E-005  0.9119718E+02  0.7546771E-02  0.1305977E+00
         -1   -1    0    0    0  501 -0.00000000000E+00  0.00000000000E+00  0.89710419909E+02  0.89710419909E+02  0.00000000000E+00 0.  1.
          2   -1    0    0  502    0  0.00000000000E+00 -0.00000000000E+00 -0.41224722390E+03  0.41224722390E+03  0.00000000000E+00 0. -1.
         23    2    1    2    0    0  0.87341986244E+00  0.12303652424E+02  0.55318063545E+02  0.10651312635E+03  0.90182122423E+02 0.  0.
         24    2    1    2    0    0 -0.15957619501E+02 -0.28874292163E+02 -0.34401690456E+03  0.35485970604E+03  0.80556874179E+02 0.  0.
        -13    1    4    4    0    0  0.19861838484E+02  0.12404815982E+02 -0.43395652192E+02  0.49310797162E+02  0.00000000000E+00 0.  1.
         14    1    4    4    0    0 -0.35819457986E+02 -0.41279108145E+02 -0.30062125237E+03  0.30554890888E+03  0.00000000000E+00 0. -1.
        -11    1    3    3    0    0  0.18890940255E+01 -0.20110770548E+02 -0.17547317448E+02  0.26756683611E+02  0.00000000000E+00 0. -1.
         11    1    3    3    0    0 -0.10156741631E+01  0.32414422972E+02  0.72865380993E+02  0.79756442736E+02  0.00000000000E+00 0.  1.
         21    1    1    2  502  501  0.15084199639E+02  0.16570639739E+02 -0.33837962980E+02  0.40584811429E+02  0.00000000000E+00 0.  1.
<scales pt_clust_5="13000.00000" pt_clust_6="13000.00000" pt_clust_7="13000.00000" pt_clust_8="13000.00000" pt_clust_9="22.40802"></scales>
<clustering>
<clus scale="   22.408">  2  9  1 -1</clus>
<clus scale="   80.557">  5  6 -1 -1</clus>
<clus scale="   81.692">  2  5  1 -1</clus>
<clus scale="   90.182">  7  8 -1 -1</clus>
<clus scale="   22.408">  2  5  1 -1</clus>
</clustering>
</event>
<event>
 9    2  0.3791909E-005  0.1874896E+03  0.7546771E-02  0.1162133E+00
         -1   -1    0    0    0  501 -0.00000000000E+00  0.00000000000E+00  0.78703143069E+02  0.78703143069E+02  0.00000000000E+00 0.  1.
          2   -1    0    0  502    0  0.00000000000E+00 -0.00000000000E+00 -0.80558678688E+03  0.80558678688E+03  0.00000000000E+00 0. -1.
         24    2    1    2    0    0  0.18122940306E+03 -0.65020692142E+02 -0.14065727340E+03  0.25131583944E+03  0.79393927046E+02 0.  0.
         23    2    1    2    0    0 -0.14627473610E+03  0.53330416662E+02 -0.55784667424E+03  0.58645636874E+03  0.92183125989E+02 0.  0.
        -13    1    3    3    0    0  0.76233549922E+01 -0.26523579835E+02 -0.59529677058E+01  0.28232138656E+02  0.00000000000E+00 0.  1.
         14    1    3    3    0    0  0.17360604807E+03 -0.38497112307E+02 -0.13470430569E+03  0.22308370078E+03  0.00000000000E+00 0. -1.
        -11    1    4    4    0    0 -0.12895443929E+03  0.75194267322E+01 -0.35468624428E+03  0.37747598741E+03  0.00000000000E+00 0. -1.
         11    1    4    4    0    0 -0.17320296807E+02  0.45810989930E+02 -0.20316042996E+03  0.20898038133E+03  0.00000000000E+00 0.  1.
         21    1    1    2  502  501 -0.34954666966E+02  0.11690275480E+02 -0.28379696173E+02  0.46517721766E+02  0.00000000000E+00 0. -1.
<scales pt_clust_5="13000.00000" pt_clust_6="13000.00000" pt_clust_7="13000.00000" pt_clust_8="13000.00000" pt_clust_9="36.85772"></scales>
<clustering>
<clus scale="   36.858">  1  9  2 -1</clus>
<clus scale="   79.394">  5  6 -1 -1</clus>
<clus scale="   92.183">  7  8 -1 -1</clus>
<clus scale="  181.543">  1  5  2 -1</clus>
<clus scale="  187.490">  2  5  1 -1</clus>
</clustering>
</event>
<event>
 9    2  0.3791909E-005  0.2924522E+03  0.7546771E-02  0.1089269E+00
          2   -1    0    0  502    0  0.00000000000E+00  0.00000000000E+00  0.49423225696E+03  0.49423225696E+03  0.00000000000E+00 0. -1.
         -1   -1    0    0    0  501 -0.00000000000E+00 -0.00000000000E+00 -0.24298224571E+03  0.24298224571E+03  0.00000000000E+00 0.  1.
         23    2    1    2    0    0  0.28041353329E+03 -0.12894149286E+03  0.40636131447E+02  0.32308464413E+03  0.86456543188E+02 0.  0.
         24    2    1    2    0    0 -0.19280007421E+03  0.15827788649E+03  0.13683215379E+03  0.29589075631E+03  0.81268341874E+02 0.  0.
        -11    1    4    4    0    0 -0.16114885690E+03  0.14026773911E+03  0.14546517380E+03  0.25846490962E+03  0.00000000000E+00 0.  1.
         12    1    4    4    0    0 -0.31651217312E+02  0.18010147387E+02 -0.86330200129E+01  0.37425846695E+02  0.00000000000E+00 0. -1.
        -11    1    3    3    0    0  0.19369350105E+03 -0.80256264503E+02 -0.13049649198E+02  0.21006792636E+03  0.00000000000E+00 0.  1.
         11    1    3    3    0    0  0.86720032241E+02 -0.48685228354E+02  0.53685780645E+02  0.11301671777E+03  0.00000000000E+00 0. -1.
         21    1    1    2  502  501 -0.87613459080E+02 -0.29336393635E+02  0.73781726014E+02  0.11823910223E+03  0.00000000000E+00 0.  1.
<scales pt_clust_5="13000.00000" pt_clust_6="13000.00000" pt_clust_7="13000.00000" pt_clust_8="13000.00000" pt_clust_9="92.39449"></scales>
<clustering>
<clus scale="   81.268">  5  6 -1 -1</clus>
<clus scale="   86.457">  7  8 -1 -1</clus>
<clus scale="   92.394">  1  9  2 -1</clus>
<clus scale="  290.961">  1  5  2 -1</clus>
<clus scale="   92.394">  1  5  2 -1</clus>
</clustering>
</event>
<event>
 9    2  0.3791909E-005  0.1605261E+03  0.7546771E-02  0.1191658E+00
          2   -1    0    0  502    0  0.00000000000E+00  0.00000000000E+00  0.11430556601E+04  0.11430556601E+04  0.00000000000E+00 0. -1.
         -1   -1    0    0    0  501 -0.00000000000E+00 -0.00000000000E+00 -0.42232994707E+02  0.42232994707E+02  0.00000000000E+00 0.  1.
         24    2    1    2    0    0  0.37019095718E+02  0.11360858199E+03  0.13818334246E+03  0.19969759460E+03  0.80667030489E+02 0.  0.
         23    2    1    2    0    0 -0.55304271210E+02 -0.13802471334E+03  0.78477732391E+03  0.80513223995E+03  0.10125755167E+03 0.  0.
        -13    1    3    3    0    0  0.32478696027E+02  0.29488893779E+01  0.23006998245E+02  0.39910946023E+02  0.00000000000E+00 0.  1.
         14    1    3    3    0    0  0.45403996909E+01  0.11065969261E+03  0.11517634421E+03  0.15978664858E+03  0.00000000000E+00 0. -1.
        -13    1    4    4    0    0 -0.71949178811E+02 -0.53301800512E+02  0.48373567274E+03  0.49195321662E+03  0.00000000000E+00 0. -1.
         13    1    4    4    0    0  0.16644907601E+02 -0.84722912824E+02  0.30104165118E+03  0.31317902332E+03  0.00000000000E+00 0.  1.
         21    1    1    2  502  501  0.18285175492E+02  0.24416131346E+02  0.17786199902E+03  0.18045882026E+03  0.00000000000E+00 0. -1.
<scales pt_clust_5="13000.00000" pt_clust_6="13000.00000" pt_clust_7="13000.00000" pt_clust_8="13000.00000" pt_clust_9="30.50402"></scales>
<clustering>
<clus scale="   30.504">  1  9  2 -1</clus>
<clus scale="   80.667">  5  6 -1 -1</clus>
<clus scale="  101.258">  7  8 -1 -1</clus>
<clus scale="  148.400">  2  5  1 -1</clus>
<clus scale="   30.504">  1  5  2 -1</clus>
</clustering>
</event>
<event>
 9    2  0.3791909E-005  0.1073631E+03  0.7546771E-02  0.1269310E+00
         -1   -1    0    0    0  501 -0.00000000000E+00  0.00000000000E+00  0.51277704550E+02  0.51277704550E+02  0.00000000000E+00 0.  1.
          2   -1    0    0  502    0  0.00000000000E+00 -0.00000000000E+00 -0.48650700900E+03  0.48650700900E+03  0.00000000000E+00 0. -1.
         23    2    1    2    0    0  0.62158953389E+02 -0.50565804116E+02 -0.11689201369E+03  0.16864921845E+03  0.91423082354E+02 0.  0.
         24    2    1    2    0    0  0.17689545298E+02  0.58225997957E+02 -0.21649871185E+03  0.23949924451E+03  0.82371166303E+02 0.  0.
        -11    1    4    4    0    0 -0.21695691372E+01 -0.20772862700E+02 -0.47820248625E+02  0.52182324915E+02  0.00000000000E+00 0.  1.
         12    1    4    4    0    0  0.19859114435E+02  0.78998860657E+02 -0.16867846322E+03  0.18731691959E+03  0.00000000000E+00 0. -1.
        -11    1    3    3    0    0 -0.13954101657E+02 -0.36030781524E+02 -0.16966871826E+02  0.42199631631E+02  0.00000000000E+00 0.  1.
         11    1    3    3    0    0  0.76113055046E+02 -0.14535022592E+02 -0.99925141862E+02  0.12644958682E+03  0.00000000000E+00 0. -1.
         21    1    1    2  502  501 -0.79848498687E+02 -0.76601938410E+01 -0.10183857891E+03  0.12963625059E+03  0.00000000000E+00 0.  1.
<scales pt_clust_5="13000.00000" pt_clust_6="13000.00000" pt_clust_7="13000.00000" pt_clust_8="13000.00000" pt_clust_9="80.21509"></scales>
<clustering>
<clus scale="   80.215">  1  9  2 -1</clus>
<clus scale="   82.371">  5  6 -1 -1</clus>
<clus scale="   91.423">  7  8 -1 -1</clus>
<clus scale="   99.768">  2  5  1 -1</clus>
<clus scale="   99.768">  2  5  1 -1</clus>
</clustering>
</event>
<event>
 9    2  0.3791909E-005  0.2662500E+03  0.7546771E-02  0.1119562E+00
          2   -1    0    0  502    0  0.00000000000E+00  0.00000000000E+00  0.14591712874E+04  0.14591712874E+04  0.00000000000E+00 0. -1.
         -1   -1    0    0    0  501 -0.00000000000E+00 -0.00000000000E+00 -0.25843022372E+03  0.25843022372E+03  0.00000000000E+00 0.  1.
         24    2    1    2    0    0 -0.10336488478E+03 -0.24286321981E+03 -0.14254258195E+03  0.31074983378E+03  0.81118608121E+02 0.  0.
         23    2    1    2    0    0  0.15010053609E+03  0.25923409749E+02  0.81306335001E+03  0.83206418254E+03  0.89758557343E+02 0.  0.
        -11    1    3    3    0    0 -0.39611480668E+02 -0.14252992529E+03 -0.11832644328E+03  0.18943335552E+03  0.00000000000E+00 0.  1.
         12    1    3    3    0    0 -0.63753404114E+02 -0.10033329452E+03 -0.24216138666E+02  0.12131647826E+03  0.00000000000E+00 0. -1.
        -11    1    4    4    0    0  0.79426628147E+02 -0.27020394638E+02  0.49090470699E+03  0.49802221068E+03  0.00000000000E+00 0.  1.
         11    1    4    4    0    0  0.70673907943E+02  0.52943804387E+02  0.32215864303E+03  0.33404197186E+03  0.00000000000E+00 0. -1.
         21    1    1    2  502  501 -0.46735651309E+02  0.21693981006E+03  0.53022029564E+03  0.57478749482E+03  0.00000000000E+00 0. -1.
<scales pt_clust_5="13000.00000" pt_clust_6="13000.00000" pt_clust_7="13000.00000" pt_clust_8="13000.00000" pt_clust_9="253.59183"></scales>
<clustering>
<clus scale="   81.119">  5  6 -1 -1</clus>
<clus scale="   89.759">  7  8 -1 -1</clus>
<clus scale="  176.802">  1  7  2 -1</clus>
<clus scale="  253.592">  1  9  2 -1</clus>
<clus scale="  176.802">  1  5  2 -1</clus>
</clustering>
</event>
<event>
 9    2  0.3791909E-005  0.9264860E+02  0.7546771E-02  0.1299532E+00
          2   -1    0    0  502    0  0.00000000000E+00  0.00000000000E+00  0.99101205360E+02  0.99101205360E+02  0.00000000000E+00 0. -1.
         -1   -1    0    0    0  501 -0.00000000000E+00 -0.00000000000E+00 -0.19556842391E+03  0.19556842391E+03  0.00000000000E+00 0.  1.
         23    2    1    2    0    0  0.42766986962E+02 -0.30317641134E+02 -0.95086767412E+02  0.13965449780E+03  0.87827734120E+02 0.  0.
         24    2    1    2    0    0  0.12913375336E+02 -0.11922587882E+02  0.64830917460E+01  0.84684661544E+02  0.82586669977E+02 0.  0.
        -11    1    4    4    0    0 -0.22858656215E+02  0.40409853682E+00  0.31795826041E+02  0.39161920449E+02  0.00000000000E+00 0.  1.
         12    1    4    4    0    0  0.35772031551E+02 -0.12326686419E+02 -0.25312734295E+02  0.45522741096E+02  0.00000000000E+00 0. -1.
        -13    1    3    3    0    0  0.50224655512E+01 -0.20505165406E+02 -0.98282805923E+02  0.10052460847E+03  0.00000000000E+00 0.  1.
         13    1    3    3    0    0  0.37744521411E+02 -0.98124757287E+01  0.31960385106E+01  0.39129889326E+02  0.00000000000E+00 0. -1.
         21    1    1    2  502  501 -0.55680362298E+02  0.42240229017E+02 -0.78635428809E+01  0.70330469924E+02  0.00000000000E+00 0. -1.
<scales pt_clust_5="13000.00000" pt_clust_6="13000.00000" pt_clust_7="13000.00000" pt_clust_8="13000.00000" pt_clust_9="69.88948"></scales>
<clustering>
<clus scale="   69.889">  1  9  2 -1</clus>
<clus scale="   82.587">  5  6 -1 -1</clus>
<clus scale="   87.696">  1  5  2 -1</clus>
<clus scale="   87.828">  7  8 -1 -1</clus>
<clus scale="   69.889">  1  5  2 -1</clus>
</clustering>
</event>
<event>
 9    2  0.3791909E-005  0.1712120E+03  0.7546771E-02  0.1177535E+00
          2   -1    0    0  502    0  0.00000000000E+00  0.00000000000E+00  0.13308899771E+04  0.13308899771E+04  0.00000000000E+00 0. -1.
         -1   -1    0    0    0  501 -0.00000000000E+00 -0.00000000000E+00 -0.30480019150E+02  0.30480019150E+02  0.00000000000E+00 0.  1.
         23    2    1    2    0    0  0.13507784150E+03 -0.16061548540E+02  0.34424960116E+03  0.38085547924E+03  0.89661092809E+02 0.  0.
         24    2    1    2    0    0 -0.14151136904E+03  0.55829171672E+02  0.83766434910E+03  0.85535798316E+03  0.82543041045E+02 0.  0.
        -11    1    4    4    0    0 -0.57994065542E+01  0.21058143136E+02  0.40861559530E+02  0.46332985614E+02  0.00000000000E+00 0.  1.
         12    1    4    4    0    0 -0.13571196249E+03  0.34771028536E+02  0.79680278957E+03  0.80902499754E+03  0.00000000000E+00 0. -1.
        -11    1    3    3    0    0  0.10085245349E+03  0.63604403943E+01  0.31431046279E+03  0.33015562935E+03  0.00000000000E+00 0. -1.
         11    1    3    3    0    0  0.34225388005E+02 -0.22421988934E+02  0.29939138372E+02  0.50699849884E+02  0.00000000000E+00 0.  1.
         21    1    1    2  502  501  0.64335275453E+01 -0.39767623132E+02  0.11849600766E+03  0.12515653382E+03  0.00000000000E+00 0. -1.
<scales pt_clust_5="13000.00000" pt_clust_6="13000.00000" pt_clust_7="13000.00000" pt_clust_8="13000.00000" pt_clust_9="40.28466"></scales>
<clustering>
<clus scale="   40.285">  2  9  1 -1</clus>
<clus scale="   82.543">  5  6 -1 -1</clus>
<clus scale="   89.661">  7  8 -1 -1</clus>
<clus scale="  167.594">  1  5  2 -1</clus>
<clus scale="  167.594">  1  5  2 -1</clus>
</clustering>
</event>
<event>
 9    2  0.3791909E-005  0.1396334E+03  0.7546771E-02  0.1215967E+00
         -1   -1    0    0    0  501 -0.00000000000E+00  0.00000000000E+00  0.62282150987E+02  0.62282150987E+02  0.00000000000E+00 0.  1.
          2   -1    0    0  502    0  0.00000000000E+00 -0.00000000000E+00 -0.36929251693E+03  0.36929251693E+03  0.00000000000E+00 0. -1.
         24    2    1    2    0    0  0.81398001793E+02  0.79027456159E+02 -0.89427332966E+02  0.16546033934E+03  0.80677769489E+02 0.  0.
         23    2    1    2    0    0 -0.60613787334E+02 -0.73494376640E+02 -0.18129108525E+03  0.22392779033E+03  0.90563475412E+02 0.  0.
        -11    1    3    3    0    0  0.50233361528E+02  0.19350671246E+02 -0.38736934753E+00  0.53832974496E+02  0.00000000000E+00 0.  1.
         12    1    3    3    0    0  0.31164640264E+02  0.59676784913E+02 -0.89039963619E+02  0.11162736484E+03  0.00000000000E+00 0. -1.
        -13    1    4    4    0    0 -0.55503846464E+02 -0.22832796127E+02 -0.36030826063E+02  0.70001671252E+02  0.00000000000E+00 0.  1.
         13    1    4    4    0    0 -0.51099408702E+01 -0.50661580512E+02 -0.14526025918E+03  0.15392611908E+03  0.00000000000E+00 0. -1.
         21    1    1    2  502  501 -0.20784214459E+02 -0.55330795195E+01 -0.36291947734E+02  0.42186538255E+02  0.00000000000E+00 0. -1.
<scales pt_clust_5="13000.00000" pt_clust_6="13000.00000" pt_clust_7="13000.00000" pt_clust_8="13000.00000" pt_clust_9="21.50810"></scales>
<clustering>
<clus scale="   21.508">  2  9  1 -1</clus>
<clus scale="   80.678">  5  6 -1 -1</clus>
<clus scale="   90.563">  7  8 -1 -1</clus>
<clus scale="  133.434">  1  5  2 -1</clus>
<clus scale="   21.508">  2  5  1 -1</clus>
</clustering>
</event>
<event>
 9    2  0.3791909E-005  0.1004685E+03  0.7546771E-02  0.1284123E+00
          2   -1    0    0  502    0  0.00000000000E+00  0.00000000000E+00  0.28625263520E+02  0.28625263520E+02  0.00000000000E+00 0. -1.
         -1   -1    0    0    0  501 -0.00000000000E+00 -0.00000000000E+00 -0.60686673520E+03  0.60686673520E+03  0.00000000000E+00 0.  1.
         24    2    1    2    0    0 -0.58772071111E+01 -0.26154064658E+02 -0.23779712236E+03  0.25264303422E+03  0.81008978992E+02 0.  0.
         23    2    1    2    0    0 -0.25545773686E+02  0.68865762980E+02 -0.27388946730E+03  0.29775345806E+03  0.90810801242E+02 0.  0.
        -11    1    3    3    0    0 -0.50348748932E+01 -0.48384593398E+02 -0.21631548163E+03  0.22171785322E+03  0.00000000000E+00 0.  1.
         12    1    3    3    0    0 -0.84233221786E+00  0.22230528740E+02 -0.21481640726E+02  0.30925181000E+02  0.00000000000E+00 0. -1.
        -11    1    4    4    0    0  0.21806500471E+02  0.50302946386E+02 -0.20448964131E+03  0.21171188743E+03  0.00000000000E+00 0.  1.
         11    1    4    4    0    0 -0.47352274157E+02  0.18562816594E+02 -0.69399825996E+02  0.86041570627E+02  0.00000000000E+00 0. -1.
         21    1    1    2  502  501  0.31422980797E+02 -0.42711698322E+02 -0.66554882017E+02  0.85095506438E+02  0.00000000000E+00 0.  1.
<scales pt_clust_5="13000.00000" pt_clust_6="13000.00000" pt_clust_7="13000.00000" pt_clust_8="13000.00000" pt_clust_9="53.02540"></scales>
<clustering>
<clus scale="   53.025">  1  9  2 -1</clus>
<clus scale="   81.009">  5  6 -1 -1</clus>
<clus scale="   90.811">  7  8 -1 -1</clus>
<clus scale="   91.705">  2  5  1 -1</clus>
<clus scale="   53.025">  1  5  2 -1</clus>
</clustering>
</event>
<event>
 9    2  0.3791909E-005  0.9949267E+02  0.7546771E-02  0.1287118E+00
          2   -1    0    0  502    0  0.00000000000E+00  0.00000000000E+00  0.42111435385E+03  0.42111435385E+03  0.00000000000E+00 0. -1.
         -1   -1    0    0    0  501 -0.00000000000E+00 -0.00000000000E+00 -0.64823615785E+02  0.64823615785E+02  0.00000000000E+00 0.  1.
         23    2    1    2    0    0 -0.36157247145E+02  0.14843987814E+02 -0.11464330699E+02  0.99913007307E+02  0.91233149981E+02 0.  0.
         24    2    1    2    0    0  0.48613375092E+02  0.52182838851E+01  0.29763021018E+03  0.31203073512E+03  0.79930888404E+02 0.  0.
        -11    1    4    4    0    0  0.61817519970E+02  0.43783401478E+01  0.13146575844E+03  0.14534036356E+03  0.00000000000E+00 0.  1.
         12    1    4    4    0    0 -0.13204144878E+02  0.83994373725E+00  0.16616445175E+03  0.16669037156E+03  0.00000000000E+00 0. -1.
        -13    1    3    3    0    0 -0.52040193228E+02  0.42604802535E+02 -0.69860960249E+01  0.67617722883E+02  0.00000000000E+00 0.  1.
         13    1    3    3    0    0  0.15882946083E+02 -0.27760814721E+02 -0.44782346737E+01  0.32295284424E+02  0.00000000000E+00 0. -1.
         21    1    1    2  502  501 -0.12456127947E+02 -0.20062271699E+02  0.70124858582E+02  0.73994227210E+02  0.00000000000E+00 0. -1.
<scales pt_clust_5="13000.00000" pt_clust_6="13000.00000" pt_clust_7="13000.00000" pt_clust_8="13000.00000" pt_clust_9="23.61461"></scales>
<clustering>
<clus scale="   23.615">  1  9  2 -1</clus>
<clus scale="   79.931">  5  6 -1 -1</clus>
<clus scale="   89.243">  1  5  2 -1</clus>
<clus scale="   91.233">  7  8 -1 -1</clus>
<clus scale="   23.615">  1  5  2 -1</clus>
</clustering>
</event>
<event>
 9    2  0.3791909E-005  0.9571238E+02  0.7546771E-02  0.1302948E+00
          2   -1    0    0  502    0  0.00000000000E+00  0.00000000000E+00  0.31112727968E+03  0.31112727968E+03  0.00000000000E+00 0. -1.
         -1   -1    0    0    0  501 -0.00000000000E+00 -0.00000000000E+00 -0.54237734353E+02  0.54237734353E+02  0.00000000000E+00 0.  1.
         23    2    1    2    0    0  0.21990282131E+02 -0.77502890015E+01  0.21315905645E+02  0.95614786737E+02  0.90245111344E+02 0.  0.
         24    2    1    2    0    0 -0.38393933051E+02  0.44708286741E+02  0.14363269897E+03  0.16931064377E+03  0.67548626045E+02 0.  0.
        -11    1    4    4    0    0  0.15758062176E+02  0.24737653382E+02  0.30552337055E+02  0.42352252808E+02  0.00000000000E+00 0.  1.
         12    1    4    4    0    0 -0.54151995227E+02  0.19970633360E+02  0.11308036192E+03  0.12695839096E+03  0.00000000000E+00 0. -1.
        -13    1    3    3    0    0 -0.33365169168E+02 -0.45518655817E+01 -0.53357273010E+01  0.34094339408E+02  0.00000000000E+00 0. -1.
         13    1    3    3    0    0  0.55355451299E+02 -0.31984234198E+01  0.26651632946E+02  0.61520447329E+02  0.00000000000E+00 0.  1.
         21    1    1    2  502  501  0.16403650919E+02 -0.36957997740E+02  0.91940940710E+02  0.10043958353E+03  0.00000000000E+00 0. -1.
<scales pt_clust_5="13000.00000" pt_clust_6="13000.00000" pt_clust_7="13000.00000" pt_clust_8="13000.00000" pt_clust_9="40.43480"></scales>
<clustering>
<clus scale="   40.435">  1  9  2 -1</clus>
<clus scale="   67.549">  5  6 -1 -1</clus>
<clus scale="   74.696">  1  5  2 -1</clus>
<clus scale="   90.245">  7  8 -1 -1</clus>
<clus scale="   40.435">  1  5  2 -1</clus>
</clustering>
</event>
<event>
 9    2  0.3791909E-005  0.9425410E+02  0.7546771E-02  0.1301227E+00
          2   -1    0    0  502    0  0.00000000000E+00  0.00000000000E+00  0.20038053278E+03  0.20038053278E+03  0.00000000000E+00 0. -1.
         -1   -1    0    0    0  501 -0.00000000000E+00 -0.00000000000E+00 -0.21531619307E+03  0.21531619307E+03  0.00000000000E+00 0.  1.
         24    2    1    2    0    0  0.21132341518E+02 -0.15590451747E+02 -0.17275128200E+03  0.19088303245E+03  0.76835464483E+02 0.  0.
         23    2    1    2    0    0 -0.29909228388E+02 -0.28040959302E+02  0.57673830555E+02  0.11522759889E+03  0.90941032950E+02 0.  0.
        -11    1    3    3    0    0  0.26423039970E+02  0.21395312633E+02 -0.12872888470E+03  0.13314301409E+03  0.00000000000E+00 0.  1.
         12    1    3    3    0    0 -0.52906984513E+01 -0.36985764380E+02 -0.44022397296E+02  0.57740018363E+02  0.00000000000E+00 0. -1.
        -11    1    4    4    0    0  0.14352731860E+02 -0.48477389880E+02  0.23916903560E+02  0.55929209875E+02  0.00000000000E+00 0.  1.
         11    1    4    4    0    0 -0.44261960248E+02  0.20436430577E+02  0.33756926995E+02  0.59298389016E+02  0.00000000000E+00 0. -1.
         21    1    1    2  502  501  0.87768868695E+01  0.43631411049E+02  0.10014179116E+03  0.10958609451E+03  0.00000000000E+00 0. -1.
<scales pt_clust_5="13000.00000" pt_clust_6="13000.00000" pt_clust_7="13000.00000" pt_clust_8="13000.00000" pt_clust_9="44.50544"></scales>
<clustering>
<clus scale="   44.505">  1  9  2 -1</clus>
<clus scale="   76.835">  5  6 -1 -1</clus>
<clus scale="   80.729">  2  5  1 -1</clus>
<clus scale="   90.941">  7  8 -1 -1</clus>
<clus scale="   44.505">  1  5  2 -1</clus>
</clustering>
</event>
<event>
 9    2  0.3791909E-005  0.2079844E+03  0.7546771E-02  0.1144262E+00
         -1   -1    0    0    0  501 -0.00000000000E+00  0.00000000000E+00  0.19912190074E+03  0.19912190074E+03  0.00000000000E+00 0.  1.
          2   -1    0    0  502    0  0.00000000000E+00 -0.00000000000E+00 -0.49363048620E+03  0.49363048620E+03  0.00000000000E+00 0. -1.
         23    2    1    2    0    0 -0.16712637066E+03  0.73390945474E+02  0.95966994345E+02  0.22586529099E+03  0.92130402275E+02 0.  0.
         24    2    1    2    0    0  0.19632939851E+03 -0.75830412299E+02 -0.36096467818E+03  0.42529790085E+03  0.79292631619E+02 0.  0.
        -11    1    4    4    0    0  0.85968756872E+02 -0.67306120903E+02 -0.13455839540E+03  0.17328214808E+03  0.00000000000E+00 0.  1.
         12    1    4    4    0    0  0.11036064164E+03 -0.85242913958E+01 -0.22640628278E+03  0.25201575278E+03  0.00000000000E+00 0. -1.
        -13    1    3    3    0    0 -0.16657345743E+03  0.42665025914E+02  0.91595776652E+02  0.19482506886E+03  0.00000000000E+00 0.  1.
         13    1    3    3    0    0 -0.55291323181E+00  0.30725919559E+02  0.43712176931E+01  0.31040222131E+02  0.00000000000E+00 0. -1.
         21    1    1    2  502  501 -0.29203027852E+02  0.24394668250E+01 -0.29510901633E+02  0.41589195102E+02  0.00000000000E+00 0.  1.
<scales pt_clust_5="13000.00000" pt_clust_6="13000.00000" pt_clust_7="13000.00000" pt_clust_8="13000.00000" pt_clust_9="29.30474"></scales>
<clustering>
<clus scale="   29.305">  2  9  1 -1</clus>
<clus scale="   79.293">  5  6 -1 -1</clus>
<clus scale="   92.130">  7  8 -1 -1</clus>
<clus scale="  202.625">  2  5  1 -1</clus>
<clus scale="   29.305">  2  5  1 -1</clus>
</clustering>
</event>
<event>
 9    2  0.3791909E-005  0.1083263E+03  0.7546771E-02  0.1268108E+00
          2   -1    0    0  502    0  0.00000000000E+00  0.00000000000E+00  0.22527351783E+03  0.22527351783E+03  0.00000000000E+00 0. -1.
         -1   -1    0    0    0  501 -0.00000000000E+00 -0.00000000000E+00 -0.34064026641E+03  0.34064026641E+03  0.00000000000E+00 0.  1.
         23    2    1    2    0    0  0.44489917761E+02  0.39821311120E+02 -0.31756686729E+03  0.33570484430E+03  0.91016139692E+02 0.  0.
         24    2    1    2    0    0 -0.26588938125E+02 -0.30438009854E+02  0.16322680768E+03  0.18630665769E+03  0.80210572118E+02 0.  0.
        -13    1    4    4    0    0 -0.22565645206E+02  0.24331758861E+02  0.79822512296E+02  0.86445799794E+02  0.00000000000E+00 0.  1.
         14    1    4    4    0    0 -0.40232929191E+01 -0.54769768715E+02  0.83404295380E+02  0.99860857892E+02  0.00000000000E+00 0. -1.
        -13    1    3    3    0    0  0.22725626303E+02 -0.28813828261E+02 -0.98947640530E+02  0.10553353191E+03  0.00000000000E+00 0. -1.
         13    1    3    3    0    0  0.21764291458E+02  0.68635139381E+02 -0.21861922676E+03  0.23017131240E+03  0.00000000000E+00 0.  1.
         21    1    1    2  502  501 -0.17900979635E+02 -0.93833012658E+01  0.38973311034E+02  0.43902282259E+02  0.00000000000E+00 0. -1.
<scales pt_clust_5="13000.00000" pt_clust_6="13000.00000" pt_clust_7="13000.00000" pt_clust_8="13000.00000" pt_clust_9="20.21117"></scales>
<clustering>
<clus scale="   20.211">  1  9  2 -1</clus>
<clus scale="   80.211">  5  6 -1 -1</clus>
<clus scale="   91.016">  7  8 -1 -1</clus>
<clus scale="   99.420">  1  5  2 -1</clus>
<clus scale="   20.211">  1  5  2 -1</clus>
</clustering>
</event>
<event>
 9    2  0.3791909E-005  0.1309314E+03  0.7546771E-02  0.1242669E+00
          2   -1    0    0  502    0  0.00000000000E+00  0.00000000000E+00  0.47804131515E+03  0.47804131515E+03  0.00000000000E+00 0. -1.
         -1   -1    0    0    0  501 -0.00000000000E+00 -0.00000000000E+00 -0.41415500220E+02  0.41415500220E+02  0.00000000000E+00 0.  1.
         23    2    1    2    0    0 -0.19253693760E+02 -0.54465454907E+02  0.11451801718E+03  0.17695648498E+03  0.12190992911E+03 0.  0.
         24    2    1    2    0    0  0.17032587755E+02  0.24964250753E+02  0.25996925884E+03  0.27367844161E+03  0.80015942140E+02 0.  0.
        -11    1    4    4    0    0 -0.31556643340E+02  0.15673922940E+01  0.97903043517E+02  0.10287509119E+03  0.00000000000E+00 0.  1.
         12    1    4    4    0    0  0.48589231094E+02  0.23396858459E+02  0.16206621533E+03  0.17080335042E+03  0.00000000000E+00 0. -1.
        -11    1    3    3    0    0  0.86350587812E+01  0.19618033958E+02 -0.14295607992E+02  0.25764236926E+02  0.00000000000E+00 0.  1.
         11    1    3    3    0    0 -0.27888752541E+02 -0.74083488865E+02  0.12881362517E+03  0.15119224805E+03  0.00000000000E+00 0. -1.
         21    1    1    2  502  501  0.22211060055E+01  0.29501204154E+02  0.62138538900E+02  0.68821888779E+02  0.00000000000E+00 0. -1.
<scales pt_clust_5="13000.00000" pt_clust_6="13000.00000" pt_clust_7="13000.00000" pt_clust_8="13000.00000" pt_clust_9="29.58470"></scales>
<clustering>
<clus scale="   29.585">  1  9  2 -1</clus>
<clus scale="   80.016">  5  6 -1 -1</clus>
<clus scale="   93.186">  1  5  2 -1</clus>
<clus scale="  121.910">  7  8 -1 -1</clus>
<clus scale="   29.585">  1  5  2 -1</clus>
</clustering>
</event>
<event>
 9    2  0.3791909E-005  0.1434492E+03  0.7546771E-02  0.1210598E+00
         -1   -1    0    0    0  501 -0.00000000000E+00  0.00000000000E+00  0.12635639520E+03  0.12635639520E+03  0.00000000000E+00 0.  1.
          2   -1    0    0  502    0  0.00000000000E+00 -0.00000000000E+00 -0.32371306589E+03  0.32371306589E+03  0.00000000000E+00 0. -1.
         23    2    1    2    0    0  0.10201094527E+03  0.29011348338E+02  0.38221168490E+02  0.14451291507E+03  0.90416998485E+02 0.  0.
         24    2    1    2    0    0 -0.13195509451E+03 -0.12004272976E+02 -0.16327395337E+03  0.22547068841E+03  0.81378117115E+02 0.  0.
        -11    1    4    4    0    0 -0.85380442860E+01  0.18511250611E+02 -0.54383478834E+02  0.58078630920E+02  0.00000000000E+00 0.  1.
         12    1    4    4    0    0 -0.12341705022E+03 -0.30515523586E+02 -0.10889047454E+03  0.16739205749E+03  0.00000000000E+00 0. -1.
        -13    1    3    3    0    0  0.86561237332E+02  0.59587349288E+02  0.29906587215E+02  0.10926071555E+03  0.00000000000E+00 0.  1.
         13    1    3    3    0    0  0.15449707937E+02 -0.30576000950E+02  0.83145812754E+01  0.35252199523E+02  0.00000000000E+00 0. -1.
         21    1    1    2  502  501  0.29944149239E+02 -0.17007075363E+02 -0.72303885806E+02  0.80085857607E+02  0.00000000000E+00 0. -1.
<scales pt_clust_5="13000.00000" pt_clust_6="13000.00000" pt_clust_7="13000.00000" pt_clust_8="13000.00000" pt_clust_9="34.43679"></scales>
<clustering>
<clus scale="   34.437">  2  9  1 -1</clus>
<clus scale="   81.378">  5  6 -1 -1</clus>
<clus scale="   90.417">  7  8 -1 -1</clus>
<clus scale="  137.931">  2  5  1 -1</clus>
<clus scale="   34.437">  2  5  1 -1</clus>
</clustering>
</event>
<event>
 9    2  0.3791909E-005  0.1087460E+03  0.7546771E-02  0.1265679E+00
         -1   -1    0    0    0  501 -0.00000000000E+00  0.00000000000E+00  0.26398388298E+03  0.26398388298E+03  0.00000000000E+00 0.  1.
          2   -1    0    0  502    0  0.00000000000E+00 -0.00000000000E+00 -0.28446254538E+03  0.28446254538E+03  0.00000000000E+00 0. -1.
         23    2    1    2    0    0  0.65813183837E+02 -0.77642525205E+01  0.23020429442E+03  0.25504666168E+03  0.87539269378E+02 0.  0.
         24    2    1    2    0    0 -0.27995437939E+02  0.20712012182E+02 -0.23444098614E+03  0.25025317937E+03  0.80320270207E+02 0.  0.
        -11    1    4    4    0    0 -0.20411458082E+01  0.34359678224E+02 -0.36568259465E+02  0.50219432137E+02  0.00000000000E+00 0.  1.
         12    1    4    4    0    0 -0.25954292131E+02 -0.13647666042E+02 -0.19787272668E+03  0.20003374723E+03  0.00000000000E+00 0. -1.
        -13    1    3    3    0    0  0.59071730768E+02  0.23912863142E+02  0.84787497550E+02  0.10606702664E+03  0.00000000000E+00 0. -1.
         13    1    3    3    0    0  0.67414530694E+01 -0.31677115662E+02  0.14541679687E+03  0.14897963504E+03  0.00000000000E+00 0.  1.
         21    1    1    2  502  501 -0.37817745898E+02 -0.12947759662E+02 -0.16241970676E+02  0.43146587310E+02  0.00000000000E+00 0. -1.
<scales pt_clust_5="13000.00000" pt_clust_6="13000.00000" pt_clust_7="13000.00000" pt_clust_8="13000.00000" pt_clust_9="39.97282"></scales>
<clustering>
<clus scale="   39.973">  2  9  1 -1</clus>
<clus scale="   80.320">  5  6 -1 -1</clus>
<clus scale="   87.539">  7  8 -1 -1</clus>
<clus scale="  103.024">  2  5  1 -1</clus>
<clus scale="   39.973">  2  5  1 -1</clus>
</clustering>
</event>
<event>
 9    2  0.3791909E-005  0.1917659E+03  0.7546771E-02  0.1158284E+00
          4   -1    0    0  502    0  0.00000000000E+00  0.00000000000E+00  0.11997539935E+03  0.11997539935E+03  0.00000000000E+00 0. -1.
         -3   -1    0    0    0  501 -0.00000000000E+00 -0.00000000000E+00 -0.36655600041E+03  0.36655600041E+03  0.00000000000E+00 0.  1.
         24    2    1    2    0    0  0.10821396399E+03 -0.11886646243E+03 -0.16596112732E+03  0.24398615296E+03  0.78400568651E+02 0.  0.
         23    2    1    2    0    0 -0.12134131066E+03  0.13419487608E+03 -0.87703169120E+02  0.22115678645E+03  0.92122200806E+02 0.  0.
        -13    1    3    3    0    0  0.52032444123E+02 -0.36559034589E+02 -0.11651602714E+03  0.13274005737E+03  0.00000000000E+00 0.  1.
         14    1    3    3    0    0  0.56181519872E+02 -0.82307427839E+02 -0.49445100178E+02  0.11124609559E+03  0.00000000000E+00 0. -1.
        -13    1    4    4    0    0 -0.43630154606E+02  0.84642767665E+02 -0.19169677235E+01  0.95245279538E+02  0.00000000000E+00 0. -1.
         13    1    4    4    0    0 -0.77711156055E+02  0.49552108417E+02 -0.85786201396E+02  0.12591150692E+03  0.00000000000E+00 0.  1.
         21    1    1    2  502  501  0.13127346667E+02 -0.15328413655E+02  0.70836953738E+01  0.21388460343E+02  0.00000000000E+00 0. -1.
<scales pt_clust_5="13000.00000" pt_clust_6="13000.00000" pt_clust_7="13000.00000" pt_clust_8="13000.00000" pt_clust_9="20.18137"></scales>
<clustering>
<clus scale="   20.181">  1  9  2 -1</clus>
<clus scale="   78.401">  5  6 -1 -1</clus>
<clus scale="   92.122">  7  8 -1 -1</clus>
<clus scale="  185.565">  2  5  1 -1</clus>
<clus scale="   20.181">  1  5  2 -1</clus>
</clustering>
</event>
<event>
 9    2  0.3791909E-005  0.1085309E+03  0.7546771E-02  0.1266762E+00
          2   -1    0    0  502    0  0.00000000000E+00  0.00000000000E+00  0.99020162910E+03  0.99020162910E+03  0.00000000000E+00 0. -1.
         -1   -1    0    0    0  501 -0.00000000000E+00 -0.00000000000E+00 -0.21790938140E+02  0.21790938140E+02  0.00000000000E+00 0.  1.
         23    2    1    2    0    0 -0.92675534545E+02 -0.26318423362E+02  0.47083648652E+03  0.48891976540E+03  0.89856139755E+02 0.  0.
         24    2    1    2    0    0  0.35656144859E+02 -0.16260747212E+02  0.27748993657E+03  0.29176936146E+03  0.81196815349E+02 0.  0.
        -11    1    4    4    0    0  0.38985964295E+02 -0.47549651467E+01  0.48237698147E+02  0.62204426113E+02  0.00000000000E+00 0.  1.
         12    1    4    4    0    0 -0.33298194360E+01 -0.11505782066E+02  0.22925223843E+03  0.22956493535E+03  0.00000000000E+00 0. -1.
        -11    1    3    3    0    0 -0.54412126975E+02 -0.59492783078E+02  0.26859843776E+03  0.28043750028E+03  0.00000000000E+00 0. -1.
         11    1    3    3    0    0 -0.38263407570E+02  0.33174359716E+02  0.20223804876E+03  0.20848226511E+03  0.00000000000E+00 0.  1.
         21    1    1    2  502  501  0.57019389686E+02  0.42579170574E+02  0.22008426788E+03  0.23130344038E+03  0.00000000000E+00 0. -1.
<scales pt_clust_5="13000.00000" pt_clust_6="13000.00000" pt_clust_7="13000.00000" pt_clust_8="13000.00000" pt_clust_9="71.16317"></scales>
<clustering>
<clus scale="   71.163">  2  9  1 -1</clus>
<clus scale="   81.197">  5  6 -1 -1</clus>
<clus scale="   89.856">  7  8 -1 -1</clus>
<clus scale="  101.478">  1  5  2 -1</clus>
<clus scale="  101.478">  1  5  2 -1</clus>
</clustering>
</event>
<event>
 9    2  0.3791909E-005  0.1084647E+03  0.7546771E-02  0.1273969E+00
          2   -1    0    0  502    0  0.00000000000E+00  0.00000000000E+00  0.22820793463E+03  0.22820793463E+03  0.00000000000E+00 0. -1.
         -1   -1    0    0    0  501 -0.00000000000E+00 -0.00000000000E+00 -0.80747277401E+02  0.80747277401E+02  0.00000000000E+00 0.  1.
         24    2    1    2    0    0 -0.29255320631E+02 -0.14480676872E+02 -0.14792504466E+02  0.88936197115E+02  0.81395731958E+02 0.  0.
         23    2    1    2    0    0  0.26678676404E+02  0.34590131498E+02  0.85581339091E+02  0.14071203135E+03  0.10279825482E+03 0.  0.
        -11    1    3    3    0    0 -0.57665639654E+02 -0.71672870829E+01 -0.12994976786E+02  0.59544650662E+02  0.00000000000E+00 0.  1.
         12    1    3    3    0    0  0.28410319022E+02 -0.73133897894E+01 -0.17975276797E+01  0.29391546453E+02  0.00000000000E+00 0. -1.
        -11    1    4    4    0    0  0.45169691245E+01  0.69050563388E+02  0.42246146184E+02  0.81074781416E+02  0.00000000000E+00 0.  1.
         11    1    4    4    0    0  0.22161707279E+02 -0.34460431890E+02  0.43335192907E+02  0.59637249935E+02  0.00000000000E+00 0. -1.
         21    1    1    2  502  501  0.25766442275E+01 -0.20109454626E+02  0.76671822601E+02  0.79306983562E+02  0.00000000000E+00 0. -1.
<scales pt_clust_5="13000.00000" pt_clust_6="13000.00000" pt_clust_7="13000.00000" pt_clust_8="13000.00000" pt_clust_9="20.27386"></scales>
<clustering>
<clus scale="   20.274">  1  9  2 -1</clus>
<clus scale="   81.396">  5  6 -1 -1</clus>
<clus scale="   88.444">  2  5  1 -1</clus>
<clus scale="  102.798">  7  8 -1 -1</clus>
<clus scale="   20.274">  1  5  2 -1</clus>
</clustering>
</event>
<event>
 9    2  0.3791909E-005  0.1128522E+03  0.7546771E-02  0.1255862E+00
         -1   -1    0    0    0  501 -0.00000000000E+00  0.00000000000E+00  0.41815815981E+03  0.41815815981E+03  0.00000000000E+00 0.  1.
          2   -1    0    0  502    0  0.00000000000E+00 -0.00000000000E+00 -0.88536111519E+02  0.88536111519E+02  0.00000000000E+00 0. -1.
         24    2    1    2    0    0 -0.14496344604E+02 -0.72238531604E+02  0.34128746452E+03  0.35995414802E+03  0.87528885418E+02 0.  0.
         23    2    1    2    0    0  0.35369934060E+02  0.35212161556E+02 -0.18711462417E+02  0.10365525842E+03  0.88900872973E+02 0.  0.
        -13    1    3    3    0    0  0.34770295415E+01 -0.88325333224E+02  0.23792300810E+03  0.25381255290E+03  0.00000000000E+00 0.  1.
         14    1    3    3    0    0 -0.17973374146E+02  0.16086801620E+02  0.10336445642E+03  0.10614159512E+03  0.00000000000E+00 0. -1.
        -11    1    4    4    0    0 -0.27060411984E+02  0.27965501845E+02 -0.41018306602E+01  0.39130042231E+02  0.00000000000E+00 0.  1.
         11    1    4    4    0    0  0.62430346044E+02  0.72466597111E+01 -0.14609631757E+02  0.64525216189E+02  0.00000000000E+00 0. -1.
         21    1    1    2  502  501 -0.20873589456E+02  0.37026370047E+02  0.70460461868E+01  0.43084864889E+02  0.00000000000E+00 0. -1.
<scales pt_clust_5="13000.00000" pt_clust_6="13000.00000" pt_clust_7="13000.00000" pt_clust_8="13000.00000" pt_clust_9="42.50481"></scales>
<clustering>
<clus scale="   42.505">  2  9  1 -1</clus>
<clus scale="   87.529">  5  6 -1 -1</clus>
<clus scale="   88.901">  7  8 -1 -1</clus>
<clus scale="  111.775">  1  5  2 -1</clus>
<clus scale="   42.505">  2  5  1 -1</clus>
</clustering>
</event>
<event>
 9    2  0.9480580E-005  0.9667951E+02  0.7546771E-02  0.1292940E+00
         -1   -1    0    0    0  501 -0.00000000000E+00  0.00000000000E+00  0.87876395338E+02  0.87876395338E+02  0.00000000000E+00 0.  1.
          2   -1    0    0  502    0  0.00000000000E+00 -0.00000000000E+00 -0.97948953523E+03  0.97948953523E+03  0.00000000000E+00 0. -1.
         23    2    1    2    0    0 -0.28561340692E+02 -0.14945820575E+02  0.52317268004E+02  0.11010950825E+03  0.91366731042E+02 0.  0.
         24    2    1    2    0    0 -0.12673918957E+01  0.28066769100E+02 -0.89070552364E+03  0.89484808247E+03  0.81285983128E+02 0.  0.
        -11    1    4    4    0    0 -0.23106715705E+02 -0.13952047206E+02 -0.13567564919E+03  0.13833460057E+03  0.00000000000E+00 0.  1.
         12    1    4    4    0    0  0.21839323809E+02  0.42018816306E+02 -0.75502987445E+03  0.75651348190E+03  0.00000000000E+00 0. -1.
        -13    1    3    3    0    0 -0.16214952178E+02  0.29686009265E+02 -0.73155410594E+01  0.34607816476E+02  0.00000000000E+00 0. -1.
         13    1    3    3    0    0 -0.12346388514E+02 -0.44631829841E+02  0.59632809063E+02  0.75501691776E+02  0.00000000000E+00 0.  1.
         21    1    1    2  502  501  0.29828732588E+02 -0.13120948524E+02 -0.53224884255E+02  0.62408339843E+02  0.00000000000E+00 0. -1.
<scales pt_clust_5="13000.00000" pt_clust_6="13000.00000" pt_clust_7="13000.00000" pt_clust_8="13000.00000" pt_clust_9="32.58700"></scales>
<clustering>
<clus scale="   32.587">  2  9  1 -1</clus>
<clus scale="   81.286">  5  6 -1 -1</clus>
<clus scale="   87.215">  2  5  1 -1</clus>
<clus scale="   91.367">  7  8 -1 -1</clus>
<clus scale="   32.587">  2  5  1 -1</clus>
</clustering>
</event>
<event>
 9    2  0.3791909E-005  0.9926949E+02  0.7546771E-02  0.1287871E+00
          2   -1    0    0  502    0  0.00000000000E+00  0.00000000000E+00  0.68187395560E+03  0.68187395560E+03  0.00000000000E+00 0. -1.
         -1   -1    0    0    0  501 -0.00000000000E+00 -0.00000000000E+00 -0.25340050194E+02  0.25340050194E+02  0.00000000000E+00 0.  1.
         23    2    1    2    0    0  0.23168447455E+02  0.23056833781E+02  0.11668891697E+03  0.15249266457E+03  0.92570593934E+02 0.  0.
         24    2    1    2    0    0 -0.47596342118E+02 -0.10584280972E+02  0.33634871855E+03  0.34938498675E+03  0.81005985659E+02 0.  0.
        -13    1    4    4    0    0 -0.57829434457E+02  0.65897360353E+01  0.13456189606E+03  0.14661027243E+03  0.00000000000E+00 0.  1.
         14    1    4    4    0    0  0.10233092339E+02 -0.17174017007E+02  0.20178682249E+03  0.20277471432E+03  0.00000000000E+00 0. -1.
        -11    1    3    3    0    0  0.23401950183E+02 -0.11990896196E+02  0.11438503306E+03  0.11736851645E+03  0.00000000000E+00 0. -1.
         11    1    3    3    0    0 -0.23350272779E+00  0.35047729977E+02  0.23038839070E+01  0.35124148119E+02  0.00000000000E+00 0.  1.
         21    1    1    2  502  501  0.24427894663E+02 -0.12472552809E+02  0.20349626989E+03  0.20533635447E+03  0.00000000000E+00 0. -1.
<scales pt_clust_5="13000.00000" pt_clust_6="13000.00000" pt_clust_7="13000.00000" pt_clust_8="13000.00000" pt_clust_9="27.42784"></scales>
<clustering>
<clus scale="   27.428">  1  9  2 -1</clus>
<clus scale="   81.006">  5  6 -1 -1</clus>
<clus scale="   88.584">  1  5  2 -1</clus>
<clus scale="   92.571">  7  8 -1 -1</clus>
<clus scale="   27.428">  1  5  2 -1</clus>
</clustering>
</event>
<event>
 9    2  0.3791909E-005  0.9162346E+02  0.7546771E-02  0.1304711E+00
          2   -1    0    0  502    0  0.00000000000E+00  0.00000000000E+00  0.25024464067E+03  0.25024464067E+03  0.00000000000E+00 0. -1.
         -1   -1    0    0    0  501 -0.00000000000E+00 -0.00000000000E+00 -0.29522650690E+03  0.29522650690E+03  0.00000000000E+00 0.  1.
         24    2    1    2    0    0 -0.89074121930E+01 -0.16577230174E+02 -0.27049178765E+03  0.28283064478E+03  0.80456322836E+02 0.  0.
         23    2    1    2    0    0 -0.23101396481E+02  0.11235518769E+02  0.11903051837E+03  0.15132580930E+03  0.89840552395E+02 0.  0.
        -13    1    3    3    0    0 -0.40838736018E+02 -0.15892483825E+02 -0.20893769000E+03  0.21348379728E+03  0.00000000000E+00 0.  1.
         14    1    3    3    0    0  0.31931323825E+02 -0.68474634901E+00 -0.61554097657E+02  0.69346847492E+02  0.00000000000E+00 0. -1.
        -11    1    4    4    0    0 -0.44834332901E+02  0.28318543646E+02  0.11021882092E+03  0.12231208364E+03  0.00000000000E+00 0. -1.
         11    1    4    4    0    0  0.21732936419E+02 -0.17083024877E+02  0.88116974538E+01  0.29013725654E+02  0.00000000000E+00 0.  1.
         21    1    1    2  502  501  0.32008808674E+02  0.53417114046E+01  0.10647940306E+03  0.11131469350E+03  0.00000000000E+00 0. -1.
<scales pt_clust_5="13000.00000" pt_clust_6="13000.00000" pt_clust_7="13000.00000" pt_clust_8="13000.00000" pt_clust_9="32.45147"></scales>
<clustering>
<clus scale="   32.451">  1  9  2 -1</clus>
<clus scale="   80.456">  5  6 -1 -1</clus>
<clus scale="   82.442">  2  5  1 -1</clus>
<clus scale="   89.841">  7  8 -1 -1</clus>
<clus scale="   32.451">  1  5  2 -1</clus>
</clustering>
</event>
<event>
 9    2  0.3791909E-005  0.1199366E+03  0.7546771E-02  0.1247398E+00
          2   -1    0    0  502    0  0.00000000000E+00  0.00000000000E+00  0.29182333479E+03  0.29182333479E+03  0.00000000000E+00 0. -1.
         -1   -1    0    0    0  501 -0.00000000000E+00 -0.00000000000E+00 -0.30873748769E+03  0.30873748769E+03  0.00000000000E+00 0.  1.
         23    2    1    2    0    0 -0.78545231879E+01 -0.65555731632E+02 -0.17788869605E+03  0.21130471044E+03  0.92984111479E+02 0.  0.
         24    2    1    2    0    0  0.61913477387E+01  0.95715192071E+02 -0.78717520325E+02  0.14766835469E+03  0.80061002942E+02 0.  0.
        -11    1    4    4    0    0  0.39090260369E+02  0.46624722353E+02 -0.60563412980E+02  0.85847773308E+02  0.00000000000E+00 0.  1.
         12    1    4    4    0    0 -0.32898912631E+02  0.49090469718E+02 -0.18154107345E+02  0.61820581386E+02  0.00000000000E+00 0. -1.
        -13    1    3    3    0    0 -0.50397794514E+02 -0.36124726957E+02 -0.89284762440E+02  0.10870465672E+03  0.00000000000E+00 0. -1.
         13    1    3    3    0    0  0.42543271326E+02 -0.29431004675E+02 -0.88603933610E+02  0.10260005372E+03  0.00000000000E+00 0.  1.
         21    1    1    2  502  501  0.16631754492E+01 -0.30159460439E+02  0.23969206347E+03  0.24158775734E+03  0.00000000000E+00 0. -1.
<scales pt_clust_5="13000.00000" pt_clust_6="13000.00000" pt_clust_7="13000.00000" pt_clust_8="13000.00000" pt_clust_9="30.20528"></scales>
<clustering>
<clus scale="   30.205">  1  9  2 -1</clus>
<clus scale="   80.061">  5  6 -1 -1</clus>
<clus scale="   92.984">  7  8 -1 -1</clus>
<clus scale="  110.220">  1  5  2 -1</clus>
<clus scale="   30.205">  1  5  2 -1</clus>
</clustering>
</event>
<event>
 9    2  0.3791909E-005  0.1296867E+03  0.7546771E-02  0.1230674E+00
         -1   -1    0    0    0  501 -0.00000000000E+00  0.00000000000E+00  0.53334357079E+03  0.53334357079E+03  0.00000000000E+00 0.  1.
          2   -1    0    0  502    0  0.00000000000E+00 -0.00000000000E+00 -0.39895440650E+03  0.39895440650E+03  0.00000000000E+00 0. -1.
         24    2    1    2    0    0  0.76353660328E+02  0.53152797230E+02  0.50925517651E+03  0.52383835370E+03  0.80066751613E+02 0.  0.
         23    2    1    2    0    0 -0.47163538924E+02 -0.73351945749E+02 -0.27309592700E+03  0.30067641973E+03  0.90664307671E+02 0.  0.
        -11    1    3    3    0    0  0.82562788265E+02  0.67059440409E+02  0.46585435528E+03  0.47784292700E+03  0.00000000000E+00 0.  1.
         12    1    3    3    0    0 -0.62091279366E+01 -0.13906643179E+02  0.43400821228E+02  0.45995426702E+02  0.00000000000E+00 0. -1.
        -13    1    4    4    0    0 -0.35226036639E+02  0.77777666009E+01 -0.41479729563E+02  0.54972131805E+02  0.00000000000E+00 0.  1.
         13    1    4    4    0    0 -0.11937502285E+02 -0.81129712350E+02 -0.23161619744E+03  0.24570428792E+03  0.00000000000E+00 0. -1.
         21    1    1    2  502  501 -0.29190121405E+02  0.20199148519E+02 -0.10177008522E+03  0.10778320386E+03  0.00000000000E+00 0.  1.
<scales pt_clust_5="13000.00000" pt_clust_6="13000.00000" pt_clust_7="13000.00000" pt_clust_8="13000.00000" pt_clust_9="35.49745"></scales>
<clustering>
<clus scale="   35.497">  2  9  1 -1</clus>
<clus scale="   80.067">  5  6 -1 -1</clus>
<clus scale="   90.664">  7  8 -1 -1</clus>
<clus scale="  122.512">  1  5  2 -1</clus>
<clus scale="   35.497">  2  5  1 -1</clus>
</clustering>
</event>
<event>
 9    2  0.3791909E-005  0.1905658E+03  0.7546771E-02  0.1159277E+00
          2   -1    0    0  502    0  0.00000000000E+00  0.00000000000E+00  0.53399015196E+02  0.53399015196E+02  0.00000000000E+00 0. -1.
         -1   -1    0    0    0  501 -0.00000000000E+00 -0.00000000000E+00 -0.11213123483E+04  0.11213123483E+04  0.00000000000E+00 0.  1.
         24    2    1    2    0    0 -0.65484253797E+02  0.15761404369E+03 -0.85392529627E+03  0.87443892930E+03  0.79527700801E+02 0.  0.
         23    2    1    2    0    0  0.81298382727E+02 -0.13106809300E+03 -0.18020581156E+03  0.25449020056E+03  0.92210930071E+02 0.  0.
        -13    1    3    3    0    0 -0.64964717628E+02  0.13734260019E+03 -0.82640224017E+03  0.84025238287E+03  0.00000000000E+00 0.  1.
         14    1    3    3    0    0 -0.51953616831E+00  0.20271443500E+02 -0.27523056104E+02  0.34186546428E+02  0.00000000000E+00 0. -1.
        -11    1    4    4    0    0  0.93691445561E+02 -0.70361580113E+02 -0.12732436626E+03  0.17303275173E+03  0.00000000000E+00 0.  1.
         11    1    4    4    0    0 -0.12393062834E+02 -0.60706512885E+02 -0.52881445305E+02  0.81457448834E+02  0.00000000000E+00 0. -1.
         21    1    1    2  502  501 -0.15814128930E+02 -0.26545950695E+02 -0.33782225252E+02  0.45782233619E+02  0.00000000000E+00 0.  1.
<scales pt_clust_5="13000.00000" pt_clust_6="13000.00000" pt_clust_7="13000.00000" pt_clust_8="13000.00000" pt_clust_9="30.89942"></scales>
<clustering>
<clus scale="   30.899">  1  9  2 -1</clus>
<clus scale="   79.528">  5  6 -1 -1</clus>
<clus scale="   92.211">  7  8 -1 -1</clus>
<clus scale="  184.762">  2  5  1 -1</clus>
<clus scale="   30.899">  1  5  2 -1</clus>
</clustering>
</event>
<event>
 9    2  0.3791909E-005  0.1000537E+03  0.7546771E-02  0.1287352E+00
         -1   -1    0    0    0  501 -0.00000000000E+00  0.00000000000E+00  0.10622271981E+03  0.10622271981E+03  0.00000000000E+00 0.  1.
          2   -1    0    0  502    0  0.00000000000E+00 -0.00000000000E+00 -0.25280406721E+03  0.25280406721E+03  0.00000000000E+00 0. -1.
         23    2    1    2    0    0 -0.37601483590E+02  0.88151387783E+01  0.65635481216E+02  0.12069363346E+03  0.93634173909E+02 0.  0.
         24    2    1    2    0    0  0.11642548709E+02 -0.13976453727E+02 -0.15796649558E+03  0.17797087969E+03  0.79933285251E+02 0.  0.
        -11    1    4    4    0    0  0.52928162977E+01 -0.40091450465E+02 -0.39628671150E+02  0.56619518559E+02  0.00000000000E+00 0.  1.
         12    1    4    4    0    0  0.63497324108E+01  0.26114996738E+02 -0.11833782443E+03  0.12135136113E+03  0.00000000000E+00 0. -1.
        -13    1    3    3    0    0 -0.55910239355E+02 -0.22406522969E+02  0.58173120371E+02  0.83738396629E+02  0.00000000000E+00 0.  1.
         13    1    3    3    0    0  0.18308755765E+02  0.31221661747E+02  0.74623608453E+01  0.36955236832E+02  0.00000000000E+00 0. -1.
         21    1    1    2  502  501  0.25958934882E+02  0.51613149491E+01 -0.54250333035E+02  0.60362273869E+02  0.00000000000E+00 0.  1.
<scales pt_clust_5="13000.00000" pt_clust_6="13000.00000" pt_clust_7="13000.00000" pt_clust_8="13000.00000" pt_clust_9="26.46706"></scales>
<clustering>
<clus scale="   26.467">  2  9  1 -1</clus>
<clus scale="   79.933">  5  6 -1 -1</clus>
<clus scale="   87.365">  2  5  1 -1</clus>
<clus scale="   93.634">  7  8 -1 -1</clus>
<clus scale="   26.467">  2  5  1 -1</clus>
</clustering>
</event>
<event>
 9    2  0.3791909E-005  0.9961735E+02  0.7546771E-02  0.1287072E+00
         -1   -1    0    0    0  501 -0.00000000000E+00  0.00000000000E+00  0.26788816201E+03  0.26788816201E+03  0.00000000000E+00 0.  1.
          2   -1    0    0  502    0  0.00000000000E+00 -0.00000000000E+00 -0.85652716946E+02  0.85652716946E+02  0.00000000000E+00 0. -1.
         23    2    1    2    0    0 -0.27009247382E+02  0.28848135984E+02  0.21640918638E+03  0.23871842962E+03  0.92692169543E+02 0.  0.
         24    2    1    2    0    0  0.48403517749E+01 -0.21480487205E+02 -0.35819990665E+02  0.91403390481E+02  0.81158288081E+02 0.  0.
        -13    1    4    4    0    0  0.38606564866E+02  0.77256235450E+01 -0.18720810453E+02  0.43596110537E+02  0.00000000000E+00 0.  1.
         14    1    4    4    0    0 -0.33766213091E+02 -0.29206110750E+02 -0.17099180212E+02  0.47807279944E+02  0.00000000000E+00 0. -1.
        -13    1    3    3    0    0  0.28331073705E+02  0.88467149686E+01  0.13526975547E+03  0.13848761984E+03  0.00000000000E+00 0.  1.
         13    1    3    3    0    0 -0.55340321087E+02  0.20001421015E+02  0.81139430910E+02  0.10023080978E+03  0.00000000000E+00 0. -1.
         21    1    1    2  502  501  0.22168895607E+02 -0.73676487790E+01  0.16462493490E+01  0.23419058860E+02  0.00000000000E+00 0.  1.
<scales pt_clust_5="13000.00000" pt_clust_6="13000.00000" pt_clust_7="13000.00000" pt_clust_8="13000.00000" pt_clust_9="23.36113"></scales>
<clustering>
<clus scale="   23.361">  2  9  1 -1</clus>
<clus scale="   81.158">  5  6 -1 -1</clus>
<clus scale="   88.986">  2  5  1 -1</clus>
<clus scale="   92.692">  7  8 -1 -1</clus>
<clus scale="   23.361">  2  5  1 -1</clus>
</clustering>
</event>
<event>
 9    2  0.3791909E-005  0.1160371E+03  0.7546771E-02  0.1262388E+00
          2   -1    0    0  502    0  0.00000000000E+00  0.00000000000E+00  0.33974639262E+03  0.33974639262E+03  0.00000000000E+00 0. -1.
         -1   -1    0    0    0  501 -0.00000000000E+00 -0.00000000000E+00 -0.11444784029E+03  0.11444784029E+03  0.00000000000E+00 0.  1.
         23    2    1    2    0    0 -0.62879347907E+01 -0.15150354157E+01  0.24931709023E+02  0.11007611706E+03  0.10702022228E+03 0.  0.
         24    2    1    2    0    0 -0.81209535468E+02  0.23670459178E+02 -0.93580123014E+01  0.11579556951E+03  0.78522367742E+02 0.  0.
        -13    1    4    4    0    0 -0.17828932354E+02  0.44921274877E+02 -0.25811963349E+00  0.48330718919E+02  0.00000000000E+00 0.  1.
         14    1    4    4    0    0 -0.63380603114E+02 -0.21250815699E+02 -0.90998926679E+01  0.67464850593E+02  0.00000000000E+00 0. -1.
        -13    1    3    3    0    0  0.40462374705E+02 -0.49677629853E+01 -0.19764977459E+02  0.45304930966E+02  0.00000000000E+00 0. -1.
         13    1    3    3    0    0 -0.46750309495E+02  0.34527275696E+01  0.44696686482E+02  0.64771186095E+02  0.00000000000E+00 0.  1.
         21    1    1    2  502  501  0.87497470259E+02 -0.22155423762E+02  0.20972485562E+03  0.22832254634E+03  0.00000000000E+00 0. -1.
<scales pt_clust_5="13000.00000" pt_clust_6="13000.00000" pt_clust_7="13000.00000" pt_clust_8="13000.00000" pt_clust_9="90.25891"></scales>
<clustering>
<clus scale="   78.522">  5  6 -1 -1</clus>
<clus scale="   90.259">  1  9  2 -1</clus>
<clus scale="   90.427">  1  5  2 -1</clus>
<clus scale="  107.020">  7  8 -1 -1</clus>
<clus scale="   90.259">  1  5  2 -1</clus>
</clustering>
</event>
<event>
 9    2  0.3791909E-005  0.1356733E+03  0.7546771E-02  0.1222177E+00
          4   -1    0    0  502    0  0.00000000000E+00  0.00000000000E+00  0.39585356169E+03  0.39585356169E+03  0.00000000000E+00 0. -1.
         -3   -1    0    0    0  501 -0.00000000000E+00 -0.00000000000E+00 -0.69332049084E+02  0.69332049084E+02  0.00000000000E+00 0.  1.
         23    2    1    2    0    0  0.55593336407E+02  0.85943830939E+02  0.57851783659E+02  0.14913126390E+03  0.91740633694E+02 0.  0.
         24    2    1    2    0    0 -0.70757759444E+02 -0.67240119026E+02  0.15393031913E+03  0.19881561296E+03  0.79405356747E+02 0.  0.
        -11    1    4    4    0    0 -0.34547157651E+02  0.12744638441E+02  0.33525275874E+02  0.49798353720E+02  0.00000000000E+00 0.  1.
         12    1    4    4    0    0 -0.36210601793E+02 -0.79984757467E+02  0.12040504326E+03  0.14901725924E+03  0.00000000000E+00 0. -1.
        -11    1    3    3    0    0  0.31085283725E+02  0.40282560613E+02 -0.20777172379E+02  0.54960626323E+02  0.00000000000E+00 0.  1.
         11    1    3    3    0    0  0.24508052682E+02  0.45661270326E+02  0.78628956038E+02  0.94170637577E+02  0.00000000000E+00 0. -1.
         21    1    1    2  502  501  0.15164423037E+02 -0.18703711913E+02  0.11473940981E+03  0.11723873391E+03  0.00000000000E+00 0.  1.
<scales pt_clust_5="13000.00000" pt_clust_6="13000.00000" pt_clust_7="13000.00000" pt_clust_8="13000.00000" pt_clust_9="24.07880"></scales>
<clustering>
<clus scale="   24.079">  1  9  2 -1</clus>
<clus scale="   79.405">  5  6 -1 -1</clus>
<clus scale="   91.741">  7  8 -1 -1</clus>
<clus scale="  127.656">  1  5  2 -1</clus>
<clus scale="   24.079">  1  5  2 -1</clus>
</clustering>
</event>
<event>
 9    2  0.3791909E-005  0.1319220E+03  0.7546771E-02  0.1228448E+00
         -1   -1    0    0    0  501 -0.00000000000E+00  0.00000000000E+00  0.12882362433E+03  0.12882362433E+03  0.00000000000E+00 0.  1.
          2   -1    0    0  502    0  0.00000000000E+00 -0.00000000000E+00 -0.22815450513E+03  0.22815450513E+03  0.00000000000E+00 0. -1.
         24    2    1    2    0    0  0.52828528856E+02 -0.84001750530E+02  0.60546360286E+02  0.13986324033E+03  0.77773496116E+02 0.  0.
         23    2    1    2    0    0 -0.34741754676E+02  0.62807479897E+02 -0.14131892813E+03  0.18363744169E+03  0.92735653827E+02 0.  0.
        -13    1    3    3    0    0  0.23530903589E+02 -0.58821269446E+02  0.75392764257E+02  0.98476972259E+02  0.00000000000E+00 0.  1.
         14    1    3    3    0    0  0.29297625266E+02 -0.25180481083E+02 -0.14846403971E+02  0.41386268069E+02  0.00000000000E+00 0. -1.
        -11    1    4    4    0    0 -0.36931060600E+02  0.41215757949E+02 -0.17663017920E+02  0.58091515236E+02  0.00000000000E+00 0.  1.
         11    1    4    4    0    0  0.21893059244E+01  0.21591721948E+02 -0.12365591021E+03  0.12554592645E+03  0.00000000000E+00 0. -1.
         21    1    1    2  502  501 -0.18086774180E+02  0.21194270633E+02 -0.18558312957E+02  0.33477447449E+02  0.00000000000E+00 0. -1.
<scales pt_clust_5="13000.00000" pt_clust_6="13000.00000" pt_clust_7="13000.00000" pt_clust_8="13000.00000" pt_clust_9="27.86267"></scales>
<clustering>
<clus scale="   27.863">  2  9  1 -1</clus>
<clus scale="   77.773">  5  6 -1 -1</clus>
<clus scale="   92.736">  7  8 -1 -1</clus>
<clus scale="  121.870">  1  5  2 -1</clus>
<clus scale="   27.863">  2  5  1 -1</clus>
</clustering>
</event>
<event>
 9    2  0.3791909E-005  0.9598801E+02  0.7546771E-02  0.1290767E+00
          2   -1    0    0  502    0  0.00000000000E+00  0.00000000000E+00  0.11171901391E+03  0.11171901391E+03  0.00000000000E+00 0. -1.
         -1   -1    0    0    0  501 -0.00000000000E+00 -0.00000000000E+00 -0.17687557903E+03  0.17687557903E+03  0.00000000000E+00 0.  1.
         23    2    1    2    0    0 -0.14712605789E+02 -0.25448743947E+01 -0.12152823435E+03  0.15179480752E+03  0.89719644950E+02 0.  0.
         24    2    1    2    0    0  0.37575042770E+02  0.27266636971E+01  0.62631303315E+02  0.11309520589E+03  0.86304848688E+02 0.  0.
        -11    1    4    4    0    0  0.17518349985E+02  0.10569586630E+02 -0.19453719287E+02  0.28232179190E+02  0.00000000000E+00 0.  1.
         12    1    4    4    0    0  0.20056692785E+02 -0.78429229332E+01  0.82085022602E+02  0.84863026703E+02  0.00000000000E+00 0. -1.
        -13    1    3    3    0    0  0.10712145548E+02  0.39900616359E+02 -0.59834401795E+02  0.72711518250E+02  0.00000000000E+00 0.  1.
         13    1    3    3    0    0 -0.25424751337E+02 -0.42445490754E+02 -0.61693832558E+02  0.79083289269E+02  0.00000000000E+00 0. -1.
         21    1    1    2  502  501 -0.22862436981E+02 -0.18178930244E+00 -0.62596340805E+01  0.23704579534E+02  0.00000000000E+00 0.  1.
<scales pt_clust_5="13000.00000" pt_clust_6="13000.00000" pt_clust_7="13000.00000" pt_clust_8="13000.00000" pt_clust_9="22.86316"></scales>
<clustering>
<clus scale="   22.863">  2  9  1 -1</clus>
<clus scale="   86.305">  5  6 -1 -1</clus>
<clus scale="   89.720">  7  8 -1 -1</clus>
<clus scale="   92.804">  1  5  2 -1</clus>
<clus scale="   92.804">  1  5  2 -1</clus>
</clustering>
</event>
<event>
 9    2  0.3791909E-005  0.8900083E+02  0.7546771E-02  0.1309456E+00
         -1   -1    0    0    0  501 -0.00000000000E+00  0.00000000000E+00  0.22161186647E+03  0.22161186647E+03  0.00000000000E+00 0.  1.
          2   -1    0    0  502    0  0.00000000000E+00 -0.00000000000E+00 -0.75435790732E+02  0.75435790732E+02  0.00000000000E+00 0. -1.
         24    2    1    2    0    0  0.67352452152E+01  0.13929130500E+02  0.11028744320E+03  0.13675859134E+03  0.79373849421E+02 0.  0.
         23    2    1    2    0    0 -0.54521636512E+02 -0.16408135665E+00  0.41891851327E+02  0.11019860363E+03  0.86117183326E+02 0.  0.
        -13    1    3    3    0    0 -0.29451666657E+02 -0.32088800819E+01  0.83459279657E+02  0.88561554532E+02  0.00000000000E+00 0.  1.
         14    1    3    3    0    0  0.36186911872E+02  0.17138010582E+02  0.26828163543E+02  0.48197036803E+02  0.00000000000E+00 0. -1.
        -11    1    4    4    0    0  0.22632998750E+02 -0.77558920607E+01  0.54709340702E+01  0.24542567381E+02  0.00000000000E+00 0. -1.
         11    1    4    4    0    0 -0.77154635262E+02  0.75918107040E+01  0.36420917257E+02  0.85656036250E+02  0.00000000000E+00 0.  1.
         21    1    1    2  502  501  0.47786391297E+02 -0.13765049144E+02 -0.60032187896E+01  0.50090462236E+02  0.00000000000E+00 0. -1.
<scales pt_clust_5="13000.00000" pt_clust_6="13000.00000" pt_clust_7="13000.00000" pt_clust_8="13000.00000" pt_clust_9="49.72943"></scales>
<clustering>
<clus scale="   49.729">  2  9  1 -1</clus>
<clus scale="   79.374">  5  6 -1 -1</clus>
<clus scale="   82.494">  1  5  2 -1</clus>
<clus scale="   86.117">  7  8 -1 -1</clus>
<clus scale="   49.729">  2  5  1 -1</clus>
</clustering>
</event>
<event>
 9    2  0.3791909E-005  0.1153756E+03  0.7546771E-02  0.1253596E+00
          2   -1    0    0  502    0  0.00000000000E+00  0.00000000000E+00  0.85872622682E+02  0.85872622682E+02  0.00000000000E+00 0. -1.
         -1   -1    0    0    0  501 -0.00000000000E+00 -0.00000000000E+00 -0.25107682855E+03  0.25107682855E+03  0.00000000000E+00 0.  1.
         23    2    1    2    0    0 -0.65339181679E+02  0.10464952670E+01 -0.14881761749E+03  0.18632585733E+03  0.91106190898E+02 0.  0.
         24    2    1    2    0    0  0.87003410478E+02 -0.16649218753E+02 -0.55304304710E+01  0.12180276890E+03  0.83417857379E+02 0.  0.
        -11    1    4    4    0    0  0.42210406807E+02  0.13562056537E+02 -0.38321220458E+02  0.58601738521E+02  0.00000000000E+00 0.  1.
         12    1    4    4    0    0  0.44793003671E+02 -0.30211275289E+02  0.32790789987E+02  0.63201030375E+02  0.00000000000E+00 0. -1.
        -11    1    3    3    0    0  0.15795240497E+02 -0.17307678263E+02 -0.12306982655E+02  0.26467096011E+02  0.00000000000E+00 0. -1.
         11    1    3    3    0    0 -0.81134422176E+02  0.18354173530E+02 -0.13651063483E+03  0.15985876132E+03  0.00000000000E+00 0.  1.
         21    1    1    2  502  501 -0.21664228799E+02  0.15602723486E+02 -0.10856157913E+02  0.28820825010E+02  0.00000000000E+00 0.  1.
<scales pt_clust_5="13000.00000" pt_clust_6="13000.00000" pt_clust_7="13000.00000" pt_clust_8="13000.00000" pt_clust_9="26.69801"></scales>
<clustering>
<clus scale="   26.698">  1  9  2 -1</clus>
<clus scale="   83.418">  5  6 -1 -1</clus>
<clus scale="   91.106">  7  8 -1 -1</clus>
<clus scale="  109.406">  1  5  2 -1</clus>
<clus scale="   26.698">  1  5  2 -1</clus>
</clustering>
</event>
<event>
 9    2  0.3791909E-005  0.1249397E+03  0.7546771E-02  0.1237661E+00
          2   -1    0    0  502    0  0.00000000000E+00  0.00000000000E+00  0.87365168450E+02  0.87365168450E+02  0.00000000000E+00 0. -1.
         -1   -1    0    0    0  501 -0.00000000000E+00 -0.00000000000E+00 -0.55681164036E+03  0.55681164036E+03  0.00000000000E+00 0.  1.
         24    2    1    2    0    0 -0.48108956011E+02 -0.64574889354E+02 -0.45589008825E+03  0.47350098014E+03  0.99413367511E+02 0.  0.
         23    2    1    2    0    0  0.11101175335E+02  0.38260145336E+02  0.33529816500E+02  0.10526060240E+03  0.91479347439E+02 0.  0.
        -11    1    3    3    0    0 -0.72187909611E+02 -0.67323973242E+02 -0.40870113187E+03  0.42045240736E+03  0.00000000000E+00 0.  1.
         12    1    3    3    0    0  0.24078953600E+02  0.27490838876E+01 -0.47188956389E+02  0.53048572778E+02  0.00000000000E+00 0. -1.
        -13    1    4    4    0    0 -0.30427115449E+02 -0.94039421926E+01 -0.34303226264E+01  0.32031400166E+02  0.00000000000E+00 0.  1.
         13    1    4    4    0    0  0.41528290784E+02  0.47664087528E+02  0.36960139126E+02  0.73229202232E+02  0.00000000000E+00 0. -1.
         21    1    1    2  502  501  0.37007780676E+02  0.26314744018E+02 -0.47086200151E+02  0.65415226270E+02  0.00000000000E+00 0.  1.
<scales pt_clust_5="13000.00000" pt_clust_6="13000.00000" pt_clust_7="13000.00000" pt_clust_8="13000.00000" pt_clust_9="45.40971"></scales>
<clustering>
<clus scale="   45.410">  1  9  2 -1</clus>
<clus scale="   91.479">  7  8 -1 -1</clus>
<clus scale="   99.413">  5  6 -1 -1</clus>
<clus scale="  118.724">  1  7  2 -1</clus>
<clus scale="   45.410">  1  5  2 -1</clus>
</clustering>
</event>
<event>
 9    2  0.3791909E-005  0.1551502E+03  0.7546771E-02  0.1196157E+00
         -1   -1    0    0    0  501 -0.00000000000E+00  0.00000000000E+00  0.98484479128E+02  0.98484479128E+02  0.00000000000E+00 0.  1.
          2   -1    0    0  502    0  0.00000000000E+00 -0.00000000000E+00 -0.46254461224E+03  0.46254461224E+03  0.00000000000E+00 0. -1.
         23    2    1    2    0    0 -0.19771573075E+02 -0.12659314546E+03 -0.17022992337E+02  0.15819476743E+03  0.91208895367E+02 0.  0.
         24    2    1    2    0    0 -0.16692724887E+02  0.12477897257E+03 -0.33074405267E+03  0.36285431682E+03  0.80144792716E+02 0.  0.
        -11    1    4    4    0    0 -0.24251247905E+02  0.19266501037E+00 -0.47676781481E+02  0.53490519133E+02  0.00000000000E+00 0.  1.
         12    1    4    4    0    0  0.75585230176E+01  0.12458630756E+03 -0.28306727119E+03  0.30936379769E+03  0.00000000000E+00 0. -1.
        -11    1    3    3    0    0  0.40949764147E+01 -0.30708145771E+02  0.34822362636E+02  0.46608539862E+02  0.00000000000E+00 0. -1.
         11    1    3    3    0    0 -0.23866549490E+02 -0.95884999688E+02 -0.51845354973E+02  0.11158622756E+03  0.00000000000E+00 0.  1.
         21    1    1    2  502  501  0.36464297962E+02  0.18141728858E+01 -0.16293088102E+02  0.39980007117E+02  0.00000000000E+00 0.  1.
<scales pt_clust_5="13000.00000" pt_clust_6="13000.00000" pt_clust_7="13000.00000" pt_clust_8="13000.00000" pt_clust_9="36.50940"></scales>
<clustering>
<clus scale="   36.509">  1  9  2 -1</clus>
<clus scale="   80.145">  5  6 -1 -1</clus>
<clus scale="   91.209">  7  8 -1 -1</clus>
<clus scale="  148.915">  2  5  1 -1</clus>
<clus scale="  148.915">  2  5  1 -1</clus>
</clustering>
</event>
<event>
 9    2  0.3791909E-005  0.1482417E+03  0.7546771E-02  0.1203529E+00
          2   -1    0    0  502    0  0.00000000000E+00  0.00000000000E+00  0.13769093103E+04  0.13769093103E+04  0.00000000000E+00 0. -1.
         -1   -1    0    0    0  501 -0.00000000000E+00 -0.00000000000E+00 -0.79003580845E+02  0.79003580845E+02  0.00000000000E+00 0.  1.
         23    2    1    2    0    0 -0.10262076670E+03 -0.53989863774E+02  0.22113347341E+00  0.14675231298E+03  0.89945902156E+02 0.  0.
         24    2    1    2    0    0  0.85982881508E+02  0.25397812181E+02  0.11715422850E+04  0.11787527285E+04  0.94385192715E+02 0.  0.
        -13    1    4    4    0    0  0.53712224375E+02 -0.13384845255E+02  0.26059232032E+03  0.26640667135E+03  0.00000000000E+00 0.  1.
         14    1    4    4    0    0  0.32270657133E+02  0.38782657436E+02  0.91094996466E+03  0.91234605712E+03  0.00000000000E+00 0. -1.
        -11    1    3    3    0    0 -0.48079398005E+02 -0.45269645327E+02  0.41325204236E+02  0.77902129661E+02  0.00000000000E+00 0. -1.
         11    1    3    3    0    0 -0.54541368698E+02 -0.87202184466E+01 -0.41104070763E+02  0.68850183315E+02  0.00000000000E+00 0.  1.
         21    1    1    2  502  501  0.16637885195E+02  0.28592051592E+02  0.12614231098E+03  0.13040784968E+03  0.00000000000E+00 0.  1.
<scales pt_clust_5="13000.00000" pt_clust_6="13000.00000" pt_clust_7="13000.00000" pt_clust_8="13000.00000" pt_clust_9="33.08058"></scales>
<clustering>
<clus scale="   33.081">  1  9  2 -1</clus>
<clus scale="   89.946">  7  8 -1 -1</clus>
<clus scale="   94.385">  5  6 -1 -1</clus>
<clus scale="  145.456">  2  7  1 -1</clus>
<clus scale="   33.081">  1  5  2 -1</clus>
</clustering>
</event>
<event>
 9    2  0.3791909E-005  0.1421735E+03  0.7546771E-02  0.1214945E+00
         -1   -1    0    0    0  501 -0.00000000000E+00  0.00000000000E+00  0.26634987293E+03  0.26634987293E+03  0.00000000000E+00 0.  1.
          2   -1    0    0  502    0  0.00000000000E+00 -0.00000000000E+00 -0.12684548217E+03  0.12684548217E+03  0.00000000000E+00 0. -1.
         24    2    1    2    0    0  0.55308284948E+02 -0.77378915044E+02  0.95519733627E+02  0.15712191987E+03  0.80726546529E+02 0.  0.
         23    2    1    2    0    0 -0.47716877809E+02  0.98059571219E+02  0.98095692938E+02  0.17764978249E+03  0.10022025899E+03 0.  0.
        -11    1    3    3    0    0  0.22466975253E+02 -0.86237719716E+02  0.79907216848E+02  0.11969491461E+03  0.00000000000E+00 0.  1.
         12    1    3    3    0    0  0.32841309695E+02  0.88588046722E+01  0.15612516779E+02  0.37427005262E+02  0.00000000000E+00 0. -1.
        -13    1    4    4    0    0 -0.25440577479E+02  0.29666834745E+02  0.98231790959E+02  0.10572052223E+03  0.00000000000E+00 0. -1.
         13    1    4    4    0    0 -0.22276300330E+02  0.68392736474E+02 -0.13609802152E+00  0.71929260259E+02  0.00000000000E+00 0.  1.
         21    1    1    2  502  501 -0.75914071391E+01 -0.20680656175E+02 -0.54111035805E+02  0.58423652728E+02  0.00000000000E+00 0. -1.
<scales pt_clust_5="13000.00000" pt_clust_6="13000.00000" pt_clust_7="13000.00000" pt_clust_8="13000.00000" pt_clust_9="22.02996"></scales>
<clustering>
<clus scale="   22.030">  2  9  1 -1</clus>
<clus scale="   80.727">  5  6 -1 -1</clus>
<clus scale="  100.220">  7  8 -1 -1</clus>
<clus scale="  129.174">  1  5  2 -1</clus>
<clus scale="   22.030">  2  5  1 -1</clus>
</clustering>
</event>
<event>
 9    2  0.3791909E-005  0.1064495E+03  0.7546771E-02  0.1275214E+00
         -1   -1    0    0    0  501 -0.00000000000E+00  0.00000000000E+00  0.13890271766E+03  0.13890271766E+03  0.00000000000E+00 0.  1.
          2   -1    0    0  502    0  0.00000000000E+00 -0.00000000000E+00 -0.39526918762E+03  0.39526918762E+03  0.00000000000E+00 0. -1.
         23    2    1    2    0    0 -0.44306780308E+02  0.11020950056E+03  0.54639326811E+02  0.16052551768E+03  0.93133028495E+02 0.  0.
         24    2    1    2    0    0  0.15899793226E+02 -0.44537458222E+02 -0.28323395153E+03  0.29689321536E+03  0.75416983628E+02 0.  0.
        -11    1    4    4    0    0  0.25292970671E+02 -0.21246564318E+01 -0.27212326043E+02  0.37212353043E+02  0.00000000000E+00 0.  1.
         12    1    4    4    0    0 -0.93931774454E+01 -0.42412801790E+02 -0.25602162548E+03  0.25968086232E+03  0.00000000000E+00 0. -1.
        -11    1    3    3    0    0 -0.66334521189E+02  0.91464233047E+02  0.18913367457E+02  0.11455867534E+03  0.00000000000E+00 0.  1.
         11    1    3    3    0    0  0.22027740880E+02  0.18745267514E+02  0.35725959355E+02  0.45966842335E+02  0.00000000000E+00 0. -1.
         21    1    1    2  502  501  0.28406987083E+02 -0.65672042339E+02 -0.27771845248E+02  0.76753172238E+02  0.00000000000E+00 0. -1.
<scales pt_clust_5="13000.00000" pt_clust_6="13000.00000" pt_clust_7="13000.00000" pt_clust_8="13000.00000" pt_clust_9="71.55260"></scales>
<clustering>
<clus scale="   71.553">  1  9  2 -1</clus>
<clus scale="   75.417">  5  6 -1 -1</clus>
<clus scale="   91.354">  2  5  1 -1</clus>
<clus scale="   93.133">  7  8 -1 -1</clus>
<clus scale="   91.354">  2  5  1 -1</clus>
</clustering>
</event>
<event>
 9    2  0.3791909E-005  0.1418072E+03  0.7546771E-02  0.1215516E+00
         -1   -1    0    0    0  501 -0.00000000000E+00  0.00000000000E+00  0.62859834250E+02  0.62859834250E+02  0.00000000000E+00 0.  1.
          2   -1    0    0  502    0  0.00000000000E+00 -0.00000000000E+00 -0.47924372281E+03  0.47924372281E+03  0.00000000000E+00 0. -1.
         23    2    1    2    0    0  0.17935766438E+02  0.61879412654E+02 -0.90536202184E+02  0.14939418385E+03  0.99855219368E+02 0.  0.
         24    2    1    2    0    0 -0.67672580251E+01 -0.12507780775E+03 -0.26725402374E+03  0.30580718668E+03  0.80019175505E+02 0.  0.
        -13    1    4    4    0    0 -0.21252943473E+02 -0.11925095456E+03 -0.26310858564E+03  0.28965256016E+03  0.00000000000E+00 0.  1.
         14    1    4    4    0    0  0.14485685448E+02 -0.58268531846E+01 -0.41454380992E+01  0.16154626519E+02  0.00000000000E+00 0. -1.
        -13    1    3    3    0    0  0.12730519377E+02 -0.20503029095E+02  0.33665005312E+01  0.24367471176E+02  0.00000000000E+00 0.  1.
         13    1    3    3    0    0  0.52052470611E+01  0.82382441749E+02 -0.93902702715E+02  0.12502671268E+03  0.00000000000E+00 0. -1.
         21    1    1    2  502  501 -0.11168508413E+02  0.63198395093E+02 -0.58593662642E+02  0.86902186533E+02  0.00000000000E+00 0. -1.
<scales pt_clust_5="13000.00000" pt_clust_6="13000.00000" pt_clust_7="13000.00000" pt_clust_8="13000.00000" pt_clust_9="64.17767"></scales>
<clustering>
<clus scale="   64.178">  1  9  2 -1</clus>
<clus scale="   80.019">  5  6 -1 -1</clus>
<clus scale="   99.855">  7  8 -1 -1</clus>
<clus scale="  128.613">  2  5  1 -1</clus>
<clus scale="  128.613">  2  5  1 -1</clus>
</clustering>
</event>
<event>
 9    2  0.3791909E-005  0.4112738E+03  0.7546771E-02  0.1040118E+00
          2   -1    0    0  502    0  0.00000000000E+00  0.00000000000E+00  0.11163790835E+04  0.11163790835E+04  0.00000000000E+00 0. -1.
         -1   -1    0    0    0  501 -0.00000000000E+00 -0.00000000000E+00 -0.54965624274E+03  0.54965624274E+03  0.00000000000E+00 0.  1.
         24    2    1    2    0    0  0.23749962255E+03 -0.32811050502E+03 -0.41992650254E+03  0.58869935499E+03  0.78524447242E+02 0.  0.
         23    2    1    2    0    0 -0.22068704976E+03  0.29454461356E+03  0.77669222143E+03  0.86404901736E+03  0.88716369765E+02 0.  0.
        -11    1    3    3    0    0  0.15118223614E+03 -0.17143152672E+03 -0.28088787196E+03  0.36213648462E+03  0.00000000000E+00 0.  1.
         12    1    3    3    0    0  0.86317386405E+02 -0.15667897830E+03 -0.13903863058E+03  0.22656287037E+03  0.00000000000E+00 0. -1.
        -13    1    4    4    0    0 -0.86243951365E+02  0.63211530188E+02  0.28275875361E+03  0.30230155381E+03  0.00000000000E+00 0.  1.
         13    1    4    4    0    0 -0.13444309839E+03  0.23133308337E+03  0.49393346782E+03  0.56174746355E+03  0.00000000000E+00 0. -1.
         21    1    1    2  502  501 -0.16812572790E+02  0.33565891458E+02  0.20995712189E+03  0.21328695391E+03  0.00000000000E+00 0. -1.
<scales pt_clust_5="13000.00000" pt_clust_6="13000.00000" pt_clust_7="13000.00000" pt_clust_8="13000.00000" pt_clust_9="37.54107"></scales>
<clustering>
<clus scale="   37.541">  1  9  2 -1</clus>
<clus scale="   78.524">  5  6 -1 -1</clus>
<clus scale="   88.716">  7  8 -1 -1</clus>
<clus scale="  409.196">  2  5  1 -1</clus>
<clus scale="   37.541">  1  5  2 -1</clus>
</clustering>
</event>
<event>
 9    2  0.3791909E-005  0.2101463E+03  0.7546771E-02  0.1142114E+00
          2   -1    0    0  502    0  0.00000000000E+00  0.00000000000E+00  0.14418519984E+04  0.14418519984E+04  0.00000000000E+00 0. -1.
         -1   -1    0    0    0  501 -0.00000000000E+00 -0.00000000000E+00 -0.54979605067E+02  0.54979605067E+02  0.00000000000E+00 0.  1.
         23    2    1    2    0    0 -0.23961590423E+02 -0.17097656863E+03  0.22240549336E+03  0.29502665424E+03  0.88144077487E+02 0.  0.
         24    2    1    2    0    0  0.63055943192E+02  0.18598613736E+03  0.11231219747E+04  0.11429571930E+04  0.79882911933E+02 0.  0.
        -13    1    4    4    0    0  0.78734853000E+02  0.17579503214E+03  0.99442625819E+03  0.10129099927E+04  0.00000000000E+00 0.  1.
         14    1    4    4    0    0 -0.15678909808E+02  0.10191105227E+02  0.12869571651E+03  0.13004720023E+03  0.00000000000E+00 0. -1.
        -11    1    3    3    0    0 -0.44791720576E+02 -0.16570335325E+03  0.20500163987E+03  0.26737533892E+03  0.00000000000E+00 0. -1.
         11    1    3    3    0    0  0.20830130153E+02 -0.52732153809E+01  0.17403853490E+02  0.27651315320E+02  0.00000000000E+00 0.  1.
         21    1    1    2  502  501 -0.39094352770E+02 -0.15009568733E+02  0.41344925253E+02  0.58847756255E+02  0.00000000000E+00 0. -1.
<scales pt_clust_5="13000.00000" pt_clust_6="13000.00000" pt_clust_7="13000.00000" pt_clust_8="13000.00000" pt_clust_9="41.87667"></scales>
<clustering>
<clus scale="   41.877">  2  9  1 -1</clus>
<clus scale="   79.883">  5  6 -1 -1</clus>
<clus scale="   88.144">  7  8 -1 -1</clus>
<clus scale="  206.817">  1  5  2 -1</clus>
<clus scale="  206.817">  1  5  2 -1</clus>
</clustering>
</event>
<event>
 9    2  0.3791909E-005  0.1091155E+03  0.7546771E-02  0.1268005E+00
          2   -1    0    0  502    0  0.00000000000E+00  0.00000000000E+00  0.88738207092E+02  0.88738207092E+02  0.00000000000E+00 0. -1.
         -1   -1    0    0    0  501 -0.00000000000E+00 -0.00000000000E+00 -0.41860103412E+03  0.41860103412E+03  0.00000000000E+00 0.  1.
         23    2    1    2    0    0 -0.21700977635E+02 -0.58716028009E+02 -0.37074114520E+03  0.38684236078E+03  0.90991818193E+02 0.  0.
         24    2    1    2    0    0  0.46652131575E+01  0.40970308202E+02  0.40249004007E+02  0.95889485620E+02  0.76645161367E+02 0.  0.
        -13    1    4    4    0    0  0.36729070067E+02  0.24353478569E+01  0.14852158145E+02  0.39693099007E+02  0.00000000000E+00 0.  1.
         14    1    4    4    0    0 -0.32063856910E+02  0.38534960345E+02  0.25396845862E+02  0.56196386613E+02  0.00000000000E+00 0. -1.
        -13    1    3    3    0    0  0.28461432730E+02 -0.52281618160E+02 -0.21556763831E+03  0.22363547893E+03  0.00000000000E+00 0.  1.
         13    1    3    3    0    0 -0.50162410365E+02 -0.64344098496E+01 -0.15517350688E+03  0.16320688185E+03  0.00000000000E+00 0. -1.
         21    1    1    2  502  501  0.17035764477E+02  0.17745719808E+02  0.62931416703E+00  0.24607394806E+02  0.00000000000E+00 0. -1.
<scales pt_clust_5="13000.00000" pt_clust_6="13000.00000" pt_clust_7="13000.00000" pt_clust_8="13000.00000" pt_clust_9="24.59935"></scales>
<clustering>
<clus scale="   24.599">  1  9  2 -1</clus>
<clus scale="   76.645">  5  6 -1 -1</clus>
<clus scale="   90.992">  7  8 -1 -1</clus>
<clus scale="   97.474">  1  5  2 -1</clus>
<clus scale="   24.599">  1  5  2 -1</clus>
</clustering>
</event>
<event>
 9    2  0.3791909E-005  0.1632254E+03  0.7546771E-02  0.1191873E+00
          2   -1    0    0  502    0  0.00000000000E+00  0.00000000000E+00  0.31568262645E+03  0.31568262645E+03  0.00000000000E+00 0. -1.
         -1   -1    0    0    0  501 -0.00000000000E+00 -0.00000000000E+00 -0.17767648135E+03  0.17767648135E+03  0.00000000000E+00 0.  1.
         24    2    1    2    0    0 -0.45907493661E+02 -0.12188757835E+03 -0.94672653717E+02  0.18068160754E+03  0.81968605033E+02 0.  0.
         23    2    1    2    0    0  0.25442887418E+02  0.42840010140E+02  0.14982296398E+03  0.19634862372E+03  0.11671869822E+03 0.  0.
        -11    1    3    3    0    0 -0.63396436192E+02 -0.93080017232E+02 -0.94446598714E+02  0.14698012702E+03  0.00000000000E+00 0.  1.
         12    1    3    3    0    0  0.17488942531E+02 -0.28807561121E+02 -0.22605500297E+00  0.33701480523E+02  0.00000000000E+00 0. -1.
        -13    1    4    4    0    0  0.60916067635E+02  0.26090521712E+02  0.14149679679E+03  0.15624604354E+03  0.00000000000E+00 0. -1.
         13    1    4    4    0    0 -0.35473180216E+02  0.16749488428E+02  0.83261671840E+01  0.40102580182E+02  0.00000000000E+00 0.  1.
         21    1    1    2  502  501  0.20464606243E+02  0.79047568214E+02  0.82855834839E+02  0.11632887654E+03  0.00000000000E+00 0.  1.
<scales pt_clust_5="13000.00000" pt_clust_6="13000.00000" pt_clust_7="13000.00000" pt_clust_8="13000.00000" pt_clust_9="81.65365"></scales>
<clustering>
<clus scale="   81.654">  1  9  2 -1</clus>
<clus scale="   81.969">  5  6 -1 -1</clus>
<clus scale="  116.719">  7  8 -1 -1</clus>
<clus scale="  140.492">  2  5  1 -1</clus>
<clus scale="   81.654">  1  5  2 -1</clus>
</clustering>
</event>
<event>
 9    2  0.3791909E-005  0.1716929E+03  0.7546771E-02  0.1183711E+00
         -1   -1    0    0    0  501 -0.00000000000E+00  0.00000000000E+00  0.17608790899E+03  0.17608790899E+03  0.00000000000E+00 0.  1.
          2   -1    0    0  502    0  0.00000000000E+00 -0.00000000000E+00 -0.20245840855E+03  0.20245840855E+03  0.00000000000E+00 0. -1.
         23    2    1    2    0    0 -0.22964424364E+02 -0.14187760491E+03 -0.29141301248E+02  0.19088297879E+03  0.12219032936E+03 0.  0.
         24    2    1    2    0    0 -0.17418839203E+02  0.10330510183E+03 -0.98702104848E-01  0.13174482642E+03  0.79883224284E+02 0.  0.
        -13    1    4    4    0    0 -0.23747541976E+02  0.72438579854E+02 -0.35721884610E+02  0.84186380379E+02  0.00000000000E+00 0.  1.
         14    1    4    4    0    0  0.63287027727E+01  0.30866521975E+02  0.35623182505E+02  0.47558446037E+02  0.00000000000E+00 0. -1.
        -13    1    3    3    0    0 -0.43504377775E+02 -0.11057057753E+03 -0.68013699104E+02  0.13690999513E+03  0.00000000000E+00 0.  1.
         13    1    3    3    0    0  0.20539953411E+02 -0.31307027377E+02  0.38872397856E+02  0.53972983653E+02  0.00000000000E+00 0. -1.
         21    1    1    2  502  501  0.40383263567E+02  0.38572503080E+02  0.28695037860E+01  0.55918512339E+02  0.00000000000E+00 0. -1.
<scales pt_clust_5="13000.00000" pt_clust_6="13000.00000" pt_clust_7="13000.00000" pt_clust_8="13000.00000" pt_clust_9="55.84484"></scales>
<clustering>
<clus scale="   55.845">  1  9  2 -1</clus>
<clus scale="   79.883">  5  6 -1 -1</clus>
<clus scale="  122.190">  7  8 -1 -1</clus>
<clus scale="  144.670">  2  5  1 -1</clus>
<clus scale="  144.670">  2  5  1 -1</clus>
</clustering>
</event>
<event>
 9    2  0.3791909E-005  0.1347724E+03  0.7546771E-02  0.1221119E+00
         -1   -1    0    0    0  501 -0.00000000000E+00  0.00000000000E+00  0.29643798876E+03  0.29643798876E+03  0.00000000000E+00 0.  1.
          2   -1    0    0  502    0  0.00000000000E+00 -0.00000000000E+00 -0.24528190595E+03  0.24528190595E+03  0.00000000000E+00 0. -1.
         24    2    1    2    0    0 -0.87223072949E+02 -0.37998201038E+02  0.24527588553E+03  0.27858939952E+03  0.91651872671E+02 0.  0.
         23    2    1    2    0    0  0.11161235895E+03  0.23985442901E+02 -0.14874306913E+03  0.20974283168E+03  0.93994333272E+02 0.  0.
        -11    1    3    3    0    0 -0.58544532365E+02 -0.34385977375E+02  0.23972714876E+03  0.24915650416E+03  0.00000000000E+00 0.  1.
         12    1    3    3    0    0 -0.28678540584E+02 -0.36122236632E+01  0.55487367729E+01  0.29432895365E+02  0.00000000000E+00 0. -1.
        -13    1    4    4    0    0  0.10854885548E+03 -0.14271997291E+02 -0.10886971964E+03  0.15439935164E+03  0.00000000000E+00 0.  1.
         13    1    4    4    0    0  0.30635034674E+01  0.38257440192E+02 -0.39873349486E+02  0.55343480038E+02  0.00000000000E+00 0. -1.
         21    1    1    2  502  501 -0.24389286001E+02  0.14012758137E+02 -0.45376733597E+02  0.53387663502E+02  0.00000000000E+00 0.  1.
<scales pt_clust_5="13000.00000" pt_clust_6="13000.00000" pt_clust_7="13000.00000" pt_clust_8="13000.00000" pt_clust_9="28.12818"></scales>
<clustering>
<clus scale="   28.128">  2  9  1 -1</clus>
<clus scale="   91.652">  5  6 -1 -1</clus>
<clus scale="   93.994">  7  8 -1 -1</clus>
<clus scale="  133.149">  1  5  2 -1</clus>
<clus scale="   28.128">  2  5  1 -1</clus>
</clustering>
</event>
<event>
 9    2  0.3791909E-005  0.1278073E+03  0.7546771E-02  0.1233939E+00
         -1   -1    0    0    0  501 -0.00000000000E+00  0.00000000000E+00  0.35533986680E+03  0.35533986680E+03  0.00000000000E+00 0.  1.
          2   -1    0    0  502    0  0.00000000000E+00 -0.00000000000E+00 -0.90764355530E+02  0.90764355530E+02  0.00000000000E+00 0. -1.
         24    2    1    2    0    0 -0.64635954789E+02  0.25315445810E+02  0.13013763442E+03  0.16805563093E+03  0.80549442859E+02 0.  0.
         23    2    1    2    0    0  0.11342626639E+03 -0.33420164989E+02  0.16256317815E+03  0.22115207523E+03  0.92190173852E+02 0.  0.
        -13    1    3    3    0    0 -0.77342470215E+02  0.32973345625E+01  0.11448692833E+03  0.13820270212E+03  0.00000000000E+00 0.  1.
         14    1    3    3    0    0  0.12706515425E+02  0.22018111248E+02  0.15650706087E+02  0.29852928804E+02  0.00000000000E+00 0. -1.
        -11    1    4    4    0    0  0.97580108015E+01  0.20360864416E+02  0.65539437455E+02  0.69319560273E+02  0.00000000000E+00 0.  1.
         11    1    4    4    0    0  0.10366825559E+03 -0.53781029405E+02  0.97023740694E+02  0.15183251496E+03  0.00000000000E+00 0. -1.
         21    1    1    2  502  501 -0.48790311603E+02  0.81047191789E+01 -0.28125301299E+02  0.56896516172E+02  0.00000000000E+00 0. -1.
<scales pt_clust_5="13000.00000" pt_clust_6="13000.00000" pt_clust_7="13000.00000" pt_clust_8="13000.00000" pt_clust_9="49.45888"></scales>
<clustering>
<clus scale="   49.459">  2  9  1 -1</clus>
<clus scale="   80.549">  5  6 -1 -1</clus>
<clus scale="   92.190">  7  8 -1 -1</clus>
<clus scale="  119.682">  1  5  2 -1</clus>
<clus scale="   49.459">  2  5  1 -1</clus>
</clustering>
</event>
<event>
 9    2  0.3791909E-005  0.1038453E+03  0.7546771E-02  0.1276373E+00
         -1   -1    0    0    0  501 -0.00000000000E+00  0.00000000000E+00  0.15194526007E+03  0.15194526007E+03  0.00000000000E+00 0.  1.
          2   -1    0    0  502    0  0.00000000000E+00 -0.00000000000E+00 -0.16200724360E+03  0.16200724360E+03  0.00000000000E+00 0. -1.
         23    2    1    2    0    0  0.54997256951E+02 -0.21591069393E+01  0.98743598156E+02  0.14558927429E+03  0.91741912969E+02 0.  0.
         24    2    1    2    0    0 -0.20529380365E+02  0.22493393006E+02 -0.76273707691E+02  0.11678958755E+03  0.83034457238E+02 0.  0.
        -13    1    4    4    0    0 -0.55912865710E+01  0.52445028680E+02 -0.33518954225E+02  0.62492109990E+02  0.00000000000E+00 0.  1.
         14    1    4    4    0    0 -0.14938093794E+02 -0.29951635674E+02 -0.42754753466E+02  0.54297477563E+02  0.00000000000E+00 0. -1.
        -11    1    3    3    0    0  0.38723103201E+02 -0.46053170903E+02  0.55061288761E+02  0.81560522262E+02  0.00000000000E+00 0. -1.
         11    1    3    3    0    0  0.16274153751E+02  0.43894063964E+02  0.43682309395E+02  0.64028752023E+02  0.00000000000E+00 0.  1.
         21    1    1    2  502  501 -0.34467876586E+02 -0.20334286067E+02 -0.32531873998E+02  0.51573641834E+02  0.00000000000E+00 0. -1.
<scales pt_clust_5="13000.00000" pt_clust_6="13000.00000" pt_clust_7="13000.00000" pt_clust_8="13000.00000" pt_clust_9="40.01897"></scales>
<clustering>
<clus scale="   40.019">  2  9  1 -1</clus>
<clus scale="   83.034">  5  6 -1 -1</clus>
<clus scale="   91.742">  7  8 -1 -1</clus>
<clus scale="   96.239">  2  5  1 -1</clus>
<clus scale="   40.019">  2  5  1 -1</clus>
</clustering>
</event>
<event>
 9    2  0.3791909E-005  0.2437495E+03  0.7546771E-02  0.1118967E+00
          2   -1    0    0  502    0  0.00000000000E+00  0.00000000000E+00  0.19479345662E+03  0.19479345662E+03  0.00000000000E+00 0. -1.
         -1   -1    0    0    0  501 -0.00000000000E+00 -0.00000000000E+00 -0.52533399049E+03  0.52533399049E+03  0.00000000000E+00 0.  1.
         23    2    1    2    0    0  0.20084476326E+03  0.84650672497E+02 -0.37493560422E+03  0.44605274618E+03  0.10431677611E+03 0.  0.
         24    2    1    2    0    0 -0.21770475329E+03 -0.72851393052E+02  0.21947232128E+02  0.24362166004E+03  0.78531185936E+02 0.  0.
        -13    1    4    4    0    0 -0.66632683573E+02 -0.21002652658E+01 -0.23561339582E+02  0.70706876308E+02  0.00000000000E+00 0.  1.
         14    1    4    4    0    0 -0.15107206972E+03 -0.70751127787E+02  0.45508571710E+02  0.17291478373E+03  0.00000000000E+00 0. -1.
        -13    1    3    3    0    0  0.17650252955E+03  0.27068296776E+02 -0.29049486193E+03  0.34098841686E+03  0.00000000000E+00 0.  1.
         13    1    3    3    0    0  0.24342233708E+02  0.57582375721E+02 -0.84440742294E+02  0.10506432932E+03  0.00000000000E+00 0. -1.
         21    1    1    2  502  501  0.16859990037E+02 -0.11799279444E+02  0.22447838222E+02  0.30453040904E+02  0.00000000000E+00 0.  1.
<scales pt_clust_5="13000.00000" pt_clust_6="13000.00000" pt_clust_7="13000.00000" pt_clust_8="13000.00000" pt_clust_9="20.57868"></scales>
<clustering>
<clus scale="   20.579">  1  9  2 -1</clus>
<clus scale="   78.531">  5  6 -1 -1</clus>
<clus scale="  104.317">  7  8 -1 -1</clus>
<clus scale="  233.878">  1  5  2 -1</clus>
<clus scale="   20.579">  1  5  2 -1</clus>
</clustering>
</event>
<event>
 9    2  0.3791909E-005  0.3841049E+03  0.7546771E-02  0.1049581E+00
          2   -1    0    0  502    0  0.00000000000E+00  0.00000000000E+00  0.18063102761E+04  0.18063102761E+04  0.00000000000E+00 0. -1.
         -1   -1    0    0    0  501 -0.00000000000E+00 -0.00000000000E+00 -0.20501184702E+03  0.20501184702E+03  0.00000000000E+00 0.  1.
         23    2    1    2    0    0  0.34618782734E+03  0.12311513636E+03  0.92269482925E+02  0.38971013738E+03  0.91416547146E+02 0.  0.
         24    2    1    2    0    0 -0.27235075929E+03 -0.26427483717E+03  0.13112969951E+04  0.13676909385E+04  0.84039087977E+02 0.  0.
        -13    1    4    4    0    0 -0.99844561895E+01 -0.21038825407E+02  0.33830309822E+02  0.41070809617E+02  0.00000000000E+00 0.  1.
         14    1    4    4    0    0 -0.26236630310E+03 -0.24323601176E+03  0.12774666852E+04  0.13266201289E+04  0.00000000000E+00 0. -1.
        -11    1    3    3    0    0  0.25694413754E+03  0.66342129904E+02  0.30230555988E+02  0.26708697934E+03  0.00000000000E+00 0.  1.
         11    1    3    3    0    0  0.89243689805E+02  0.56773006452E+02  0.62038926938E+02  0.12262315804E+03  0.00000000000E+00 0. -1.
         21    1    1    2  502  501 -0.73837068053E+02  0.14115970081E+03  0.19773195105E+03  0.25392104722E+03  0.00000000000E+00 0. -1.
<scales pt_clust_5="13000.00000" pt_clust_6="13000.00000" pt_clust_7="13000.00000" pt_clust_8="13000.00000" pt_clust_9="159.30466"></scales>
<clustering>
<clus scale="   84.039">  5  6 -1 -1</clus>
<clus scale="   91.417">  7  8 -1 -1</clus>
<clus scale="  159.305">  2  9  1 -1</clus>
<clus scale="  382.416">  1  5  2 -1</clus>
<clus scale="  382.416">  1  5  2 -1</clus>
</clustering>
</event>
<event>
 9    2  0.3791909E-005  0.1671180E+03  0.7546771E-02  0.1204625E+00
         -1   -1    0    0    0  501 -0.00000000000E+00  0.00000000000E+00  0.12824650272E+03  0.12824650272E+03  0.00000000000E+00 0.  1.
          2   -1    0    0  502    0  0.00000000000E+00 -0.00000000000E+00 -0.46068837106E+03  0.46068837106E+03  0.00000000000E+00 0. -1.
         23    2    1    2    0    0  0.41261167791E+02  0.14451075533E+03 -0.34763696631E+01  0.17537711988E+03  0.90328327011E+02 0.  0.
         24    2    1    2    0    0 -0.55935979492E+02 -0.13235941515E+02 -0.22357144739E+03  0.24457156248E+03  0.80790055924E+02 0.  0.
        -11    1    4    4    0    0 -0.19581472381E+02 -0.45872476215E+02 -0.12417410430E+03  0.13381676395E+03  0.00000000000E+00 0.  1.
         12    1    4    4    0    0 -0.36354507112E+02  0.32636534700E+02 -0.99397343089E+02  0.11075479853E+03  0.00000000000E+00 0. -1.
        -13    1    3    3    0    0  0.64652547893E+02  0.13571717015E+03 -0.39739213885E+01  0.15038249324E+03  0.00000000000E+00 0.  1.
         13    1    3    3    0    0 -0.23391380102E+02  0.87935851793E+01  0.49755172540E+00  0.24994626645E+02  0.00000000000E+00 0. -1.
         21    1    1    2  502  501  0.14674811701E+02 -0.13127481381E+03 -0.10539405129E+03  0.16898619141E+03  0.00000000000E+00 0. -1.
<scales pt_clust_5="13000.00000" pt_clust_6="13000.00000" pt_clust_7="13000.00000" pt_clust_8="13000.00000" pt_clust_9="140.60306"></scales>
<clustering>
<clus scale="   80.790">  5  6 -1 -1</clus>
<clus scale="   90.328">  7  8 -1 -1</clus>
<clus scale="   99.152">  2  5  1 -1</clus>
<clus scale="  140.603">  2  9  1 -1</clus>
<clus scale="   99.152">  2  5  1 -1</clus>
</clustering>
</event>
<event>
 9    2  0.3791909E-005  0.9700011E+02  0.7546771E-02  0.1291304E+00
          2   -1    0    0  502    0  0.00000000000E+00  0.00000000000E+00  0.18025598432E+03  0.18025598432E+03  0.00000000000E+00 0. -1.
         -1   -1    0    0    0  501 -0.00000000000E+00 -0.00000000000E+00 -0.88285848525E+02  0.88285848525E+02  0.00000000000E+00 0.  1.
         24    2    1    2    0    0  0.40943829636E+01  0.24570306017E+02  0.83307019798E+01  0.88879362108E+02  0.84909813942E+02 0.  0.
         23    2    1    2    0    0 -0.49917895010E+02 -0.15952861271E+01  0.42700917553E+02  0.11406058121E+03  0.93231468116E+02 0.  0.
        -11    1    3    3    0    0  0.25591873260E+02 -0.19989244307E+02 -0.13031162950E+02  0.34990356853E+02  0.00000000000E+00 0.  1.
         12    1    3    3    0    0 -0.21497490296E+02  0.44559550324E+02  0.21361864930E+02  0.53889005255E+02  0.00000000000E+00 0. -1.
        -13    1    4    4    0    0 -0.10135137107E+01  0.39518240374E+02  0.28162656938E+02  0.48537138133E+02  0.00000000000E+00 0. -1.
         13    1    4    4    0    0 -0.48904381299E+02 -0.41113526501E+02  0.14538260615E+02  0.65523443082E+02  0.00000000000E+00 0.  1.
         21    1    1    2  502  501  0.45823512046E+02 -0.22975019889E+02  0.40938516258E+02  0.65601889520E+02  0.00000000000E+00 0.  1.
<scales pt_clust_5="13000.00000" pt_clust_6="13000.00000" pt_clust_7="13000.00000" pt_clust_8="13000.00000" pt_clust_9="51.26057"></scales>
<clustering>
<clus scale="   51.261">  1  9  2 -1</clus>
<clus scale="   84.910">  5  6 -1 -1</clus>
<clus scale="   89.031">  2  5  1 -1</clus>
<clus scale="   93.231">  7  8 -1 -1</clus>
<clus scale="   51.261">  1  5  2 -1</clus>
</clustering>
</event>
<event>
 9    2  0.3791909E-005  0.1168437E+03  0.7546771E-02  0.1257529E+00
          2   -1    0    0  502    0  0.00000000000E+00  0.00000000000E+00  0.12405707917E+03  0.12405707917E+03  0.00000000000E+00 0. -1.
         -1   -1    0    0    0  501 -0.00000000000E+00 -0.00000000000E+00 -0.32156487183E+03  0.32156487183E+03  0.00000000000E+00 0.  1.
         24    2    1    2    0    0 -0.41100300840E+02  0.21467794919E+02 -0.26103314878E+03  0.27932899502E+03  0.87956135375E+02 0.  0.
         23    2    1    2    0    0  0.93422399506E+01 -0.78601427200E+00  0.25057521548E+02  0.11229217100E+03  0.10905850272E+03 0.  0.
        -13    1    3    3    0    0  0.13019895373E+02  0.39784211078E+02 -0.97671343630E+02  0.10626378731E+03  0.00000000000E+00 0.  1.
         14    1    3    3    0    0 -0.54120196213E+02 -0.18316416159E+02 -0.16336180515E+03  0.17306520771E+03  0.00000000000E+00 0. -1.
        -11    1    4    4    0    0  0.42101206584E+02 -0.26755200321E+02 -0.17282477363E+02  0.52792389261E+02  0.00000000000E+00 0.  1.
         11    1    4    4    0    0 -0.32758966633E+02  0.25969186049E+02  0.42339998911E+02  0.59499781737E+02  0.00000000000E+00 0. -1.
         21    1    1    2  502  501  0.31758060889E+02 -0.20681780647E+02  0.38467834573E+02  0.54000784985E+02  0.00000000000E+00 0.  1.
<scales pt_clust_5="13000.00000" pt_clust_6="13000.00000" pt_clust_7="13000.00000" pt_clust_8="13000.00000" pt_clust_9="37.89869"></scales>
<clustering>
<clus scale="   37.899">  1  9  2 -1</clus>
<clus scale="   87.956">  5  6 -1 -1</clus>
<clus scale="   97.442">  2  5  1 -1</clus>
<clus scale="  109.059">  7  8 -1 -1</clus>
<clus scale="   37.899">  1  5  2 -1</clus>
</clustering>
</event>
<event>
 9    2  0.3791909E-005  0.1207500E+03  0.7546771E-02  0.1245645E+00
         -3   -1    0    0    0  501 -0.00000000000E+00  0.00000000000E+00  0.23297889700E+03  0.23297889700E+03  0.00000000000E+00 0.  1.
          4   -1    0    0  502    0  0.00000000000E+00 -0.00000000000E+00 -0.30625036013E+03  0.30625036013E+03  0.00000000000E+00 0. -1.
         23    2    1    2    0    0  0.12118686279E+02 -0.93006104054E+02  0.18758362807E+03  0.22876792187E+03  0.91379136629E+02 0.  0.
         24    2    1    2    0    0  0.82942217533E+01  0.77815664504E+02 -0.26229841242E+03  0.28497566392E+03  0.79288083009E+02 0.  0.
        -13    1    4    4    0    0 -0.26687789859E+01  0.26919027490E+02 -0.12482478672E+02  0.29792091167E+02  0.00000000000E+00 0.  1.
         14    1    4    4    0    0  0.10963000739E+02  0.50896637014E+02 -0.24981593375E+03  0.25518357275E+03  0.00000000000E+00 0. -1.
        -11    1    3    3    0    0 -0.33950553914E+01 -0.10836027025E+03  0.14657385955E+03  0.18231119239E+03  0.00000000000E+00 0.  1.
         11    1    3    3    0    0  0.15513741670E+02  0.15354166192E+02  0.41009768518E+02  0.46456729480E+02  0.00000000000E+00 0. -1.
         21    1    1    2  502  501 -0.20412908032E+02  0.15190439550E+02  0.14433212272E+01  0.25485671351E+02  0.00000000000E+00 0. -1.
<scales pt_clust_5="13000.00000" pt_clust_6="13000.00000" pt_clust_7="13000.00000" pt_clust_8="13000.00000" pt_clust_9="25.44477"></scales>
<clustering>
<clus scale="   25.445">  1  9  2 -1</clus>
<clus scale="   79.288">  5  6 -1 -1</clus>
<clus scale="   91.379">  7  8 -1 -1</clus>
<clus scale="  111.879">  2  5  1 -1</clus>
<clus scale="  111.879">  2  5  1 -1</clus>
</clustering>
</event>
<event>
 9    2  0.3791909E-005  0.1653219E+03  0.7546771E-02  0.1184410E+00
         -1   -1    0    0    0  501 -0.00000000000E+00  0.00000000000E+00  0.23032223514E+03  0.23032223514E+03  0.00000000000E+00 0.  1.
          2   -1    0    0  502    0  0.00000000000E+00 -0.00000000000E+00 -0.82628908427E+03  0.82628908427E+03  0.00000000000E+00 0. -1.
         24    2    1    2    0    0  0.10103708314E+03  0.93084243700E+02  0.18857240946E+03  0.24674888297E+03  0.80326141703E+02 0.  0.
         23    2    1    2    0    0 -0.12442486817E+03 -0.84817747802E+02 -0.69312711740E+03  0.71514441810E+03  0.91272885903E+02 0.  0.
        -11    1    3    3    0    0  0.29342914676E+02  0.55611445510E+01  0.96080359109E+02  0.10061495106E+03  0.00000000000E+00 0.  1.
         12    1    3    3    0    0  0.71694168459E+02  0.87523099149E+02  0.92492050354E+02  0.14613393191E+03  0.00000000000E+00 0. -1.
        -11    1    4    4    0    0 -0.33889376651E+02 -0.55640201171E+02 -0.14691942169E+03  0.16071601758E+03  0.00000000000E+00 0.  1.
         11    1    4    4    0    0 -0.90535491516E+02 -0.29177546631E+02 -0.54620769571E+03  0.55442840052E+03  0.00000000000E+00 0. -1.
         21    1    1    2  502  501  0.23387785031E+02 -0.82664958976E+01 -0.91412141186E+02  0.94718018346E+02  0.00000000000E+00 0. -1.
<scales pt_clust_5="13000.00000" pt_clust_6="13000.00000" pt_clust_7="13000.00000" pt_clust_8="13000.00000" pt_clust_9="24.80571"></scales>
<clustering>
<clus scale="   24.806">  2  9  1 -1</clus>
<clus scale="   80.326">  5  6 -1 -1</clus>
<clus scale="   91.273">  7  8 -1 -1</clus>
<clus scale="  159.540">  1  5  2 -1</clus>
<clus scale="   24.806">  2  5  1 -1</clus>
</clustering>
</event>
<event>
 9    2  0.3791909E-005  0.1553098E+03  0.7546771E-02  0.1195897E+00
         -1   -1    0    0    0  501 -0.00000000000E+00  0.00000000000E+00  0.42647125098E+03  0.42647125098E+03  0.00000000000E+00 0.  1.
          2   -1    0    0  502    0  0.00000000000E+00 -0.00000000000E+00 -0.11857969904E+03  0.11857969904E+03  0.00000000000E+00 0. -1.
         23    2    1    2    0    0  0.12442756929E+03 -0.23418412736E+02  0.33759037597E+03  0.37227368175E+03  0.92681120638E+02 0.  0.
         24    2    1    2    0    0 -0.11722249748E+03  0.31115723588E+00 -0.13858850483E+02  0.14385041088E+03  0.82217165107E+02 0.  0.
        -11    1    4    4    0    0 -0.26125718159E+02 -0.12902622738E+02  0.30055894495E+02  0.41861529077E+02  0.00000000000E+00 0.  1.
         12    1    4    4    0    0 -0.91096779325E+02  0.13213779973E+02 -0.43914744978E+02  0.10198888180E+03  0.00000000000E+00 0. -1.
        -11    1    3    3    0    0  0.49223339689E+02 -0.55377112635E+02  0.18267245920E+03  0.19712632783E+03  0.00000000000E+00 0.  1.
         11    1    3    3    0    0  0.75204229603E+02  0.31958699898E+02  0.15491791677E+03  0.17514735393E+03  0.00000000000E+00 0. -1.
         21    1    1    2  502  501 -0.72050718079E+01  0.23107255500E+02 -0.15839973550E+02  0.28926857392E+02  0.00000000000E+00 0.  1.
<scales pt_clust_5="13000.00000" pt_clust_6="13000.00000" pt_clust_7="13000.00000" pt_clust_8="13000.00000" pt_clust_9="24.20451"></scales>
<clustering>
<clus scale="   24.205">  2  9  1 -1</clus>
<clus scale="   82.217">  5  6 -1 -1</clus>
<clus scale="   92.681">  7  8 -1 -1</clus>
<clus scale="  149.302">  2  5  1 -1</clus>
<clus scale="   24.205">  2  5  1 -1</clus>
</clustering>
</event>
<event>
 9    2  0.3791909E-005  0.1552153E+03  0.7546771E-02  0.1195626E+00
          2   -1    0    0  502    0  0.00000000000E+00  0.00000000000E+00  0.76849584320E+03  0.76849584320E+03  0.00000000000E+00 0. -1.
         -1   -1    0    0    0  501 -0.00000000000E+00 -0.00000000000E+00 -0.38451178313E+02  0.38451178313E+02  0.00000000000E+00 0.  1.
         23    2    1    2    0    0 -0.86359627982E+02  0.84123377681E+02  0.24420792048E+03  0.28660009109E+03  0.89260157799E+02 0.  0.
         24    2    1    2    0    0  0.11181253831E+03 -0.80672678647E+02  0.39922727859E+03  0.43000891219E+03  0.80716291995E+02 0.  0.
        -11    1    4    4    0    0  0.98219716058E+02 -0.32370350558E+02  0.20776264514E+03  0.23207815264E+03  0.00000000000E+00 0.  1.
         12    1    4    4    0    0  0.13592822255E+02 -0.48302328089E+02  0.19146463345E+03  0.19793075956E+03  0.00000000000E+00 0. -1.
        -11    1    3    3    0    0 -0.75620236686E+02  0.14143412454E+02  0.10217122578E+03  0.12789611288E+03  0.00000000000E+00 0.  1.
         11    1    3    3    0    0 -0.10739391295E+02  0.69979965227E+02  0.14203669470E+03  0.15870397821E+03  0.00000000000E+00 0. -1.
         21    1    1    2  502  501 -0.25452910331E+02 -0.34506990340E+01  0.86609465823E+02  0.90338018233E+02  0.00000000000E+00 0.  1.
<scales pt_clust_5="13000.00000" pt_clust_6="13000.00000" pt_clust_7="13000.00000" pt_clust_8="13000.00000" pt_clust_9="25.68575"></scales>
<clustering>
<clus scale="   25.686">  1  9  2 -1</clus>
<clus scale="   80.716">  5  6 -1 -1</clus>
<clus scale="   89.260">  7  8 -1 -1</clus>
<clus scale="  150.464">  1  5  2 -1</clus>
<clus scale="   25.686">  1  5  2 -1</clus>
</clustering>
</event>
<event>
 9    2  0.3791909E-005  0.9878741E+02  0.7546771E-02  0.1289297E+00
         -1   -1    0    0    0  501 -0.00000000000E+00  0.00000000000E+00  0.55287197369E+02  0.55287197369E+02  0.00000000000E+00 0.  1.
          2   -1    0    0  502    0  0.00000000000E+00 -0.00000000000E+00 -0.63243289343E+03  0.63243289343E+03  0.00000000000E+00 0. -1.
         24    2    1    2    0    0 -0.83294363138E+01 -0.26298259357E+02 -0.68446356431E+01  0.85650064693E+02  0.80796699130E+02 0.  0.
         23    2    1    2    0    0  0.47615075302E+02  0.75979997342E+02 -0.40330318002E+03  0.42346451506E+03  0.92890177654E+02 0.  0.
        -11    1    3    3    0    0 -0.12805894510E+02 -0.26230130109E+02  0.33857295969E+02  0.44702652607E+02  0.00000000000E+00 0.  1.
         12    1    3    3    0    0  0.44764581966E+01 -0.68129248343E-01 -0.40701931613E+02  0.40947412086E+02  0.00000000000E+00 0. -1.
        -11    1    4    4    0    0  0.47648467461E+02  0.24631808866E+01 -0.92444711549E+02  0.10403109345E+03  0.00000000000E+00 0.  1.
         11    1    4    4    0    0 -0.33392159173E-01  0.73516816455E+02 -0.31085846848E+03  0.31943342161E+03  0.00000000000E+00 0. -1.
         21    1    1    2  502  501 -0.39285638988E+02 -0.49681737985E+02 -0.16699788039E+03  0.17860551104E+03  0.00000000000E+00 0. -1.
<scales pt_clust_5="13000.00000" pt_clust_6="13000.00000" pt_clust_7="13000.00000" pt_clust_8="13000.00000" pt_clust_9="63.33748"></scales>
<clustering>
<clus scale="   63.337">  2  9  1 -1</clus>
<clus scale="   80.797">  5  6 -1 -1</clus>
<clus scale="   87.513">  1  5  2 -1</clus>
<clus scale="   92.890">  7  8 -1 -1</clus>
<clus scale="   63.337">  2  5  1 -1</clus>
</clustering>
</event>
<event>
 9    2  0.3791909E-005  0.1024368E+03  0.7546771E-02  0.1278548E+00
         -1   -1    0    0    0  501 -0.00000000000E+00  0.00000000000E+00  0.16966358770E+03  0.16966358770E+03  0.00000000000E+00 0.  1.
          2   -1    0    0  502    0  0.00000000000E+00 -0.00000000000E+00 -0.10395340943E+03  0.10395340943E+03  0.00000000000E+00 0. -1.
         23    2    1    2    0    0  0.48678800475E+02  0.29976566419E+02  0.10688216753E+03  0.14933243264E+03  0.87224753096E+02 0.  0.
         24    2    1    2    0    0 -0.46208640789E+02 -0.75306945622E+01 -0.23065366999E+02  0.95340331530E+02  0.79786075335E+02 0.  0.
        -13    1    4    4    0    0 -0.26750739040E+02  0.10881464471E+02  0.26373861272E+02  0.39109958663E+02  0.00000000000E+00 0.  1.
         14    1    4    4    0    0 -0.19457901749E+02 -0.18412159033E+02 -0.49439228271E+02  0.56230372867E+02  0.00000000000E+00 0. -1.
        -13    1    3    3    0    0  0.39521505381E+02 -0.11748904690E+02  0.97124378125E+02  0.10551365303E+03  0.00000000000E+00 0.  1.
         13    1    3    3    0    0  0.91572950945E+01  0.41725471110E+02  0.97577894037E+01  0.43818779613E+02  0.00000000000E+00 0. -1.
         21    1    1    2  502  501 -0.24701596858E+01 -0.22445871857E+02 -0.18106622260E+02  0.28944232966E+02  0.00000000000E+00 0.  1.
<scales pt_clust_5="13000.00000" pt_clust_6="13000.00000" pt_clust_7="13000.00000" pt_clust_8="13000.00000" pt_clust_9="22.58138"></scales>
<clustering>
<clus scale="   22.581">  2  9  1 -1</clus>
<clus scale="   79.786">  5  6 -1 -1</clus>
<clus scale="   87.225">  7  8 -1 -1</clus>
<clus scale="   96.182">  2  5  1 -1</clus>
<clus scale="   22.581">  2  5  1 -1</clus>
</clustering>
</event>
<event>
 9    2  0.3791909E-005  0.1865042E+03  0.7546771E-02  0.1162134E+00
          2   -1    0    0  502    0  0.00000000000E+00  0.00000000000E+00  0.85525293592E+03  0.85525293592E+03  0.00000000000E+00 0. -1.
         -1   -1    0    0    0  501 -0.00000000000E+00 -0.00000000000E+00 -0.19422797991E+03  0.19422797991E+03  0.00000000000E+00 0.  1.
         23    2    1    2    0    0  0.54137644731E+02 -0.65141335629E+02 -0.10378919588E+03  0.15865454743E+03  0.84998765007E+02 0.  0.
         24    2    1    2    0    0 -0.14615695662E+03  0.93659264834E+02  0.77091843354E+03  0.79429612288E+03  0.80356616389E+02 0.  0.
        -13    1    4    4    0    0 -0.18272020353E+01  0.23971172930E+02  0.46355409379E+02  0.52218576940E+02  0.00000000000E+00 0.  1.
         14    1    4    4    0    0 -0.14432975458E+03  0.69688091904E+02  0.72456302416E+03  0.74207754594E+03  0.00000000000E+00 0. -1.
        -11    1    3    3    0    0  0.75963060826E+02 -0.60256708443E+02 -0.77413684711E+02  0.12407310790E+03  0.00000000000E+00 0.  1.
         11    1    3    3    0    0 -0.21825416095E+02 -0.48846271868E+01 -0.26375511174E+02  0.34581439533E+02  0.00000000000E+00 0. -1.
         21    1    1    2  502  501  0.92019311885E+02 -0.28517929205E+02 -0.61042816414E+01  0.96530245521E+02  0.00000000000E+00 0.  1.
<scales pt_clust_5="13000.00000" pt_clust_6="13000.00000" pt_clust_7="13000.00000" pt_clust_8="13000.00000" pt_clust_9="96.33704"></scales>
<clustering>
<clus scale="   80.357">  5  6 -1 -1</clus>
<clus scale="   84.999">  7  8 -1 -1</clus>
<clus scale="   96.337">  2  9  1 -1</clus>
<clus scale="  184.435">  1  5  2 -1</clus>
<clus scale="  184.435">  1  5  2 -1</clus>
</clustering>
</event>
<event>
 9    2  0.3791909E-005  0.1465562E+03  0.7546771E-02  0.1206968E+00
         -1   -1    0    0    0  501 -0.00000000000E+00  0.00000000000E+00  0.57087264925E+02  0.57087264925E+02  0.00000000000E+00 0.  1.
          2   -1    0    0  502    0  0.00000000000E+00 -0.00000000000E+00 -0.53699164715E+03  0.53699164715E+03  0.00000000000E+00 0. -1.
         23    2    1    2    0    0  0.10753553294E+03  0.66065373283E+02 -0.16958804454E+03  0.23085889935E+03  0.92775008290E+02 0.  0.
         24    2    1    2    0    0 -0.64672404030E+02 -0.88480219038E+02 -0.25801043908E+03  0.29197690668E+03  0.81669200800E+02 0.  0.
        -11    1    4    4    0    0 -0.24934213832E+02  0.25280155926E+01 -0.14402393935E+02  0.28905619407E+02  0.00000000000E+00 0.  1.
         12    1    4    4    0    0 -0.39738190198E+02 -0.91008234630E+02 -0.24360804514E+03  0.26307128728E+03  0.00000000000E+00 0. -1.
        -13    1    3    3    0    0  0.58375309764E+02 -0.15006594271E+02 -0.50466817076E+02  0.78611540422E+02  0.00000000000E+00 0.  1.
         13    1    3    3    0    0  0.49160223175E+02  0.81071967555E+02 -0.11912122747E+03  0.15224735892E+03  0.00000000000E+00 0. -1.
         21    1    1    2  502  501 -0.42863128910E+02  0.22414845754E+02 -0.52305898601E+02  0.71243106042E+02  0.00000000000E+00 0. -1.
<scales pt_clust_5="13000.00000" pt_clust_6="13000.00000" pt_clust_7="13000.00000" pt_clust_8="13000.00000" pt_clust_9="48.37017"></scales>
<clustering>
<clus scale="   48.370">  1  9  2 -1</clus>
<clus scale="   81.669">  5  6 -1 -1</clus>
<clus scale="   92.775">  7  8 -1 -1</clus>
<clus scale="  139.790">  2  5  1 -1</clus>
<clus scale="  139.790">  2  5  1 -1</clus>
</clustering>
</event>
<event>
 9    2  0.3791909E-005  0.9724743E+02  0.7546771E-02  0.1291932E+00
         -3   -1    0    0    0  501 -0.00000000000E+00  0.00000000000E+00  0.25367161813E+03  0.25367161813E+03  0.00000000000E+00 0.  1.
          4   -1    0    0  502    0  0.00000000000E+00 -0.00000000000E+00 -0.10251587404E+03  0.10251587404E+03  0.00000000000E+00 0. -1.
         23    2    1    2    0    0  0.30257177386E+02  0.83774840722E+01  0.19461297926E+03  0.21717120457E+03  0.91123220822E+02 0.  0.
         24    2    1    2    0    0 -0.42911855431E+02 -0.35480541292E+02 -0.47631549781E+02  0.10881460736E+03  0.80445994889E+02 0.  0.
        -11    1    4    4    0    0 -0.35200977558E+02 -0.59727704626E+02 -0.46236664916E+02  0.83332686885E+02  0.00000000000E+00 0.  1.
         12    1    4    4    0    0 -0.77108778733E+01  0.24247163334E+02 -0.13948848647E+01  0.25481920476E+02  0.00000000000E+00 0. -1.
        -13    1    3    3    0    0  0.20851440690E+02  0.43687373606E+02  0.56964676494E+02  0.74755224295E+02  0.00000000000E+00 0. -1.
         13    1    3    3    0    0  0.94057366964E+01 -0.35309889534E+02  0.13764830277E+03  0.14241598027E+03  0.00000000000E+00 0.  1.
         21    1    1    2  502  501  0.12654678045E+02  0.27103057219E+02  0.41743146000E+01  0.30201680242E+02  0.00000000000E+00 0. -1.
<scales pt_clust_5="13000.00000" pt_clust_6="13000.00000" pt_clust_7="13000.00000" pt_clust_8="13000.00000" pt_clust_9="29.91181"></scales>
<clustering>
<clus scale="   29.912">  2  9  1 -1</clus>
<clus scale="   80.446">  5  6 -1 -1</clus>
<clus scale="   87.322">  2  5  1 -1</clus>
<clus scale="   91.123">  7  8 -1 -1</clus>
<clus scale="   29.912">  2  5  1 -1</clus>
</clustering>
</event>
<event>
 9    2  0.3791909E-005  0.1321882E+03  0.7546771E-02  0.1226748E+00
         -1   -1    0    0    0  501 -0.00000000000E+00  0.00000000000E+00  0.55014558919E+02  0.55014558919E+02  0.00000000000E+00 0.  1.
          2   -1    0    0  502    0  0.00000000000E+00 -0.00000000000E+00 -0.99452525905E+03  0.99452525905E+03  0.00000000000E+00 0. -1.
         24    2    1    2    0    0  0.81080962578E+02  0.84635257416E+02 -0.10169491110E+03  0.17507137044E+03  0.81060967891E+02 0.  0.
         23    2    1    2    0    0  0.36860295952E+02 -0.79437371443E+02 -0.33664002653E+03  0.35957593117E+03  0.91100852973E+02 0.  0.
        -13    1    3    3    0    0  0.44957553102E+02  0.71701084279E+02 -0.23281554669E+02  0.87773901904E+02  0.00000000000E+00 0.  1.
         14    1    3    3    0    0  0.36123409476E+02  0.12934173137E+02 -0.78413356430E+02  0.87297468540E+02  0.00000000000E+00 0. -1.
        -11    1    4    4    0    0 -0.22172072444E+02 -0.11917904179E+02 -0.25757628150E+02  0.36015172420E+02  0.00000000000E+00 0.  1.
         11    1    4    4    0    0  0.59032368396E+02 -0.67519467264E+02 -0.31088239838E+03  0.32356075875E+03  0.00000000000E+00 0. -1.
         21    1    1    2  502  501 -0.11794125853E+03 -0.51978859725E+01 -0.50117576250E+03  0.51489251636E+03  0.00000000000E+00 0.  1.
<scales pt_clust_5="13000.00000" pt_clust_6="13000.00000" pt_clust_7="13000.00000" pt_clust_8="13000.00000" pt_clust_9="118.05574"></scales>
<clustering>
<clus scale="   81.061">  5  6 -1 -1</clus>
<clus scale="   91.101">  7  8 -1 -1</clus>
<clus scale="  118.056">  2  9  1 -1</clus>
<clus scale="  125.480">  1  5  2 -1</clus>
<clus scale="  118.056">  2  5  1 -1</clus>
</clustering>
</event>
<event>
 9    2  0.3791909E-005  0.1669692E+03  0.7546771E-02  0.1185012E+00
         -1   -1    0    0    0  501 -0.00000000000E+00  0.00000000000E+00  0.83191072513E+02  0.83191072513E+02  0.00000000000E+00 0.  1.
          2   -1    0    0  502    0  0.00000000000E+00 -0.00000000000E+00 -0.14739468986E+04  0.14739468986E+04  0.00000000000E+00 0. -1.
         23    2    1    2    0    0 -0.79700299561E+02 -0.10420273972E+03 -0.16788637362E+02  0.16888247366E+03  0.10501944035E+03 0.  0.
         24    2    1    2    0    0  0.33348190955E+02  0.11534161120E+03 -0.11637441458E+04  0.11726950182E+04  0.80606325765E+02 0.  0.
        -13    1    4    4    0    0  0.45282709259E+02  0.65065950652E+02 -0.43816160538E+03  0.44527485233E+03  0.00000000000E+00 0.  1.
         14    1    4    4    0    0 -0.11934518305E+02  0.50275660544E+02 -0.72558254041E+03  0.72742016587E+03  0.00000000000E+00 0. -1.
        -13    1    3    3    0    0 -0.60943246562E+02 -0.11967407784E+03 -0.34669756939E+02  0.13870095982E+03  0.00000000000E+00 0.  1.
         13    1    3    3    0    0 -0.18757052999E+02  0.15471338122E+02  0.17881119578E+02  0.30181513843E+02  0.00000000000E+00 0. -1.
         21    1    1    2  502  501  0.46352108607E+02 -0.11138871475E+02 -0.21022304298E+03  0.21556047928E+03  0.00000000000E+00 0. -1.
<scales pt_clust_5="13000.00000" pt_clust_6="13000.00000" pt_clust_7="13000.00000" pt_clust_8="13000.00000" pt_clust_9="47.67172"></scales>
<clustering>
<clus scale="   47.672">  2  9  1 -1</clus>
<clus scale="   80.606">  5  6 -1 -1</clus>
<clus scale="  105.019">  7  8 -1 -1</clus>
<clus scale="  152.797">  2  5  1 -1</clus>
<clus scale="   47.672">  2  5  1 -1</clus>
</clustering>
</event>
<event>
 9    2  0.3791909E-005  0.1856274E+03  0.7546771E-02  0.1163884E+00
          2   -1    0    0  502    0  0.00000000000E+00  0.00000000000E+00  0.17113195850E+03  0.17113195850E+03  0.00000000000E+00 0. -1.
         -1   -1    0    0    0  501 -0.00000000000E+00 -0.00000000000E+00 -0.48700043693E+03  0.48700043693E+03  0.00000000000E+00 0.  1.
         23    2    1    2    0    0 -0.30816288964E+02 -0.18460428607E+03 -0.37848215980E+03  0.43202237528E+03  0.91466941313E+02 0.  0.
         24    2    1    2    0    0  0.16791864328E+02  0.89202755761E+02  0.25173637564E+02  0.12266973131E+03  0.78581502973E+02 0.  0.
        -11    1    4    4    0    0 -0.26940843872E+02  0.12889529901E+02 -0.37043584275E+01  0.30094373577E+02  0.00000000000E+00 0.  1.
         12    1    4    4    0    0  0.43732708200E+02  0.76313225860E+02  0.28877995992E+02  0.92575357737E+02  0.00000000000E+00 0. -1.
        -11    1    3    3    0    0  0.12121296018E+01 -0.45643901331E+02 -0.19149226220E+03  0.19686066511E+03  0.00000000000E+00 0.  1.
         11    1    3    3    0    0 -0.32028418565E+02 -0.13896038474E+03 -0.18698989761E+03  0.23516171017E+03  0.00000000000E+00 0. -1.
         21    1    1    2  502  501  0.14024424636E+02  0.95401530313E+02  0.37440043807E+02  0.10344028883E+03  0.00000000000E+00 0. -1.
<scales pt_clust_5="13000.00000" pt_clust_6="13000.00000" pt_clust_7="13000.00000" pt_clust_8="13000.00000" pt_clust_9="96.42685"></scales>
<clustering>
<clus scale="   78.582">  5  6 -1 -1</clus>
<clus scale="   91.467">  7  8 -1 -1</clus>
<clus scale="   96.427">  1  9  2 -1</clus>
<clus scale="  179.628">  1  5  2 -1</clus>
<clus scale="   96.427">  1  5  2 -1</clus>
</clustering>
</event>
<event>
 9    2  0.3791909E-005  0.1220907E+03  0.7546771E-02  0.1243680E+00
         -1   -1    0    0    0  501 -0.00000000000E+00  0.00000000000E+00  0.20239810635E+03  0.20239810635E+03  0.00000000000E+00 0.  1.
          2   -1    0    0  502    0  0.00000000000E+00 -0.00000000000E+00 -0.34429932810E+03  0.34429932810E+03  0.00000000000E+00 0. -1.
         23    2    1    2    0    0 -0.45536482620E+02  0.87035672981E+02  0.12171023265E+03  0.18208120518E+03  0.93227704732E+02 0.  0.
         24    2    1    2    0    0  0.30450162214E+02 -0.39202973563E+02  0.17929917230E+01  0.94514240725E+02  0.80409211944E+02 0.  0.
        -11    1    4    4    0    0 -0.12883447785E+02  0.18102092775E+02 -0.34211171808E+01  0.22480503385E+02  0.00000000000E+00 0.  1.
         12    1    4    4    0    0  0.43333609999E+02 -0.57305066338E+02  0.52141089038E+01  0.72033737340E+02  0.00000000000E+00 0. -1.
        -13    1    3    3    0    0  0.84394740027E+01  0.72111056022E+02  0.39625122663E+02  0.82712631853E+02  0.00000000000E+00 0. -1.
         13    1    3    3    0    0 -0.53975956623E+02  0.14924616960E+02  0.82085109984E+02  0.99368573331E+02  0.00000000000E+00 0.  1.
         21    1    1    2  502  501  0.15086320407E+02 -0.47832699418E+02 -0.26540444611E+03  0.27010198854E+03  0.00000000000E+00 0. -1.
<scales pt_clust_5="13000.00000" pt_clust_6="13000.00000" pt_clust_7="13000.00000" pt_clust_8="13000.00000" pt_clust_9="50.15540"></scales>
<clustering>
<clus scale="   50.155">  2  9  1 -1</clus>
<clus scale="   80.409">  5  6 -1 -1</clus>
<clus scale="   93.228">  7  8 -1 -1</clus>
<clus scale="  112.607">  2  5  1 -1</clus>
<clus scale="   50.155">  2  5  1 -1</clus>
</clustering>
</event>
<event>
 9    2  0.4087378E-005  0.1858580E+03  0.7546771E-02  0.1163791E+00
          2   -1    0    0  502    0  0.00000000000E+00  0.00000000000E+00  0.38782218974E+03  0.38782218974E+03  0.00000000000E+00 0. -1.
         -1   -1    0    0    0  501 -0.00000000000E+00 -0.00000000000E+00 -0.10142654999E+04  0.10142654999E+04  0.00000000000E+00 0.  1.
         23    2    1    2    0    0 -0.96145508147E+02  0.12911306858E+03 -0.97522197100E+03  0.99275751116E+03  0.92711595990E+02 0.  0.
         24    2    1    2    0    0  0.12067022623E+03 -0.11598777437E+03  0.31746397603E+03  0.36744528112E+03  0.78855508661E+02 0.  0.
        -11    1    4    4    0    0  0.19727381657E+02 -0.56493604091E+02  0.16251917438E+03  0.17318538891E+03  0.00000000000E+00 0.  1.
         12    1    4    4    0    0  0.10094284457E+03 -0.59494170275E+02  0.15494480165E+03  0.19425989221E+03  0.00000000000E+00 0. -1.
        -11    1    3    3    0    0 -0.25799620384E+02 -0.56201270920E+01 -0.69034987633E+02  0.73912351864E+02  0.00000000000E+00 0. -1.
         11    1    3    3    0    0 -0.70345887762E+02  0.13473319568E+03 -0.90618698336E+03  0.91884515930E+03  0.00000000000E+00 0.  1.
         21    1    1    2  502  501 -0.24524718079E+02 -0.13125294217E+02  0.31314684784E+02  0.41884897376E+02  0.00000000000E+00 0.  1.
<scales pt_clust_5="13000.00000" pt_clust_6="13000.00000" pt_clust_7="13000.00000" pt_clust_8="13000.00000" pt_clust_9="27.81610"></scales>
<clustering>
<clus scale="   27.816">  1  9  2 -1</clus>
<clus scale="   78.856">  5  6 -1 -1</clus>
<clus scale="   92.712">  7  8 -1 -1</clus>
<clus scale="  179.349">  1  5  2 -1</clus>
<clus scale="   27.816">  1  5  2 -1</clus>
</clustering>
</event>
<event>
 9    2  0.3791909E-005  0.1417898E+03  0.7546771E-02  0.1213360E+00
          2   -1    0    0  502    0  0.00000000000E+00  0.00000000000E+00  0.32327776625E+03  0.32327776625E+03  0.00000000000E+00 0. -1.
         -1   -1    0    0    0  501 -0.00000000000E+00 -0.00000000000E+00 -0.76875158543E+02  0.76875158543E+02  0.00000000000E+00 0.  1.
         23    2    1    2    0    0 -0.99294472058E+02 -0.33228964309E+02  0.75718823293E+02  0.15868011849E+03  0.92100399311E+02 0.  0.
         24    2    1    2    0    0  0.11151813841E+03  0.15562077429E+02  0.10939269505E+03  0.17652563895E+03  0.80722153266E+02 0.  0.
        -13    1    4    4    0    0  0.66935703673E+02 -0.31233597209E+02  0.60635415198E+02  0.95564531061E+02  0.00000000000E+00 0.  1.
         14    1    4    4    0    0  0.44582434742E+02  0.46795674638E+02  0.48757279852E+02  0.80961107891E+02  0.00000000000E+00 0. -1.
        -11    1    3    3    0    0 -0.22242394901E+02  0.31041106891E+02  0.12935435476E+02  0.40318729381E+02  0.00000000000E+00 0. -1.
         11    1    3    3    0    0 -0.77052077157E+02 -0.64270071200E+02  0.62783387817E+02  0.11836138911E+03  0.00000000000E+00 0.  1.
         21    1    1    2  502  501 -0.12223666357E+02  0.17666886880E+02  0.61291089361E+02  0.64947167346E+02  0.00000000000E+00 0. -1.
<scales pt_clust_5="13000.00000" pt_clust_6="13000.00000" pt_clust_7="13000.00000" pt_clust_8="13000.00000" pt_clust_9="21.48341"></scales>
<clustering>
<clus scale="   21.483">  1  9  2 -1</clus>
<clus scale="   80.722">  5  6 -1 -1</clus>
<clus scale="   92.100">  7  8 -1 -1</clus>
<clus scale="  134.677">  1  5  2 -1</clus>
<clus scale="   21.483">  1  5  2 -1</clus>
</clustering>
</event>
<event>
 9    2  0.3791909E-005  0.1567666E+03  0.7546771E-02  0.1192911E+00
         -3   -1    0    0    0  501 -0.00000000000E+00  0.00000000000E+00  0.12076338520E+03  0.12076338520E+03  0.00000000000E+00 0.  1.
          4   -1    0    0  502    0  0.00000000000E+00 -0.00000000000E+00 -0.68320051112E+03  0.68320051112E+03  0.00000000000E+00 0. -1.
         23    2    1    2    0    0  0.60954980264E+02 -0.11729740194E+03  0.49825487898E+02  0.16729520190E+03  0.89615373760E+02 0.  0.
         24    2    1    2    0    0 -0.63299992798E+02  0.76687904289E+02 -0.50614621914E+03  0.52302310673E+03  0.86494226786E+02 0.  0.
        -13    1    4    4    0    0 -0.89442073035E+01  0.41154103739E+02 -0.67251150177E+02  0.79349708878E+02  0.00000000000E+00 0.  1.
         14    1    4    4    0    0 -0.54355785494E+02  0.35533800550E+02 -0.43889506896E+03  0.44367339785E+03  0.00000000000E+00 0. -1.
        -11    1    3    3    0    0  0.70026714312E+02 -0.53734076881E+02  0.53093075379E+02  0.10300469110E+03  0.00000000000E+00 0.  1.
         11    1    3    3    0    0 -0.90717340483E+01 -0.63563325055E+02 -0.32675874812E+01  0.64290510798E+02  0.00000000000E+00 0. -1.
         21    1    1    2  502  501  0.23450125335E+01  0.40609497647E+02 -0.10611639467E+03  0.11364558769E+03  0.00000000000E+00 0. -1.
<scales pt_clust_5="13000.00000" pt_clust_6="13000.00000" pt_clust_7="13000.00000" pt_clust_8="13000.00000" pt_clust_9="40.67715"></scales>
<clustering>
<clus scale="   40.677">  2  9  1 -1</clus>
<clus scale="   86.494">  5  6 -1 -1</clus>
<clus scale="   89.615">  7  8 -1 -1</clus>
<clus scale="  155.004">  2  5  1 -1</clus>
<clus scale="   40.677">  2  5  1 -1</clus>
</clustering>
</event>
<event>
 9    2  0.3791909E-005  0.2366767E+03  0.7546771E-02  0.1152890E+00
         -1   -1    0    0    0  501 -0.00000000000E+00  0.00000000000E+00  0.96124204389E+02  0.96124204389E+02  0.00000000000E+00 0.  1.
          2   -1    0    0  502    0  0.00000000000E+00 -0.00000000000E+00 -0.16866472817E+04  0.16866472817E+04  0.00000000000E+00 0. -1.
         24    2    1    2    0    0 -0.13702631111E+02  0.74084731112E+02  0.14234497683E+02  0.11292176977E+03  0.82899913631E+02 0.  0.
         23    2    1    2    0    0  0.18228074639E+03  0.90877691247E+02 -0.69026232798E+03  0.72542780925E+03  0.91095552757E+02 0.  0.
        -13    1    3    3    0    0  0.27544850863E+01  0.39945150828E+02  0.47759149373E+02  0.62322857858E+02  0.00000000000E+00 0.  1.
         14    1    3    3    0    0 -0.16457116197E+02  0.34139580284E+02 -0.33524651690E+02  0.50598911910E+02  0.00000000000E+00 0. -1.
        -13    1    4    4    0    0  0.95942644077E+02  0.93801898249E+02 -0.36473193360E+03  0.38862986305E+03  0.00000000000E+00 0.  1.
         13    1    4    4    0    0  0.86338102318E+02 -0.29242070027E+01 -0.32553039438E+03  0.33679794619E+03  0.00000000000E+00 0. -1.
         21    1    1    2  502  501 -0.16857811528E+03 -0.16496242236E+03 -0.91449524699E+03  0.94442190704E+03  0.00000000000E+00 0. -1.
<scales pt_clust_5="13000.00000" pt_clust_6="13000.00000" pt_clust_7="13000.00000" pt_clust_8="13000.00000" pt_clust_9="218.44332"></scales>
<clustering>
<clus scale="   82.900">  5  6 -1 -1</clus>
<clus scale="   91.096">  7  8 -1 -1</clus>
<clus scale="  112.021">  1  5  2 -1</clus>
<clus scale="  218.443">  2  9  1 -1</clus>
<clus scale="  218.443">  2  5  1 -1</clus>
</clustering>
</event>
<event>
 9    2  0.3791909E-005  0.9844173E+02  0.7546771E-02  0.1290202E+00
         -1   -1    0    0    0  501 -0.00000000000E+00  0.00000000000E+00  0.17383485366E+03  0.17383485366E+03  0.00000000000E+00 0.  1.
          2   -1    0    0  502    0  0.00000000000E+00 -0.00000000000E+00 -0.24242918066E+03  0.24242918066E+03  0.00000000000E+00 0. -1.
         23    2    1    2    0    0  0.21408308117E+02  0.25852154496E+02  0.14265642410E+03  0.17309531097E+03  0.92111246835E+02 0.  0.
         24    2    1    2    0    0 -0.22982539491E+02 -0.46375867464E+02 -0.19505112586E+03  0.21697466187E+03  0.79712884733E+02 0.  0.
        -11    1    4    4    0    0 -0.34946901714E+02 -0.21691707725E+02 -0.33321415331E+02  0.52935175858E+02  0.00000000000E+00 0.  1.
         12    1    4    4    0    0  0.11964362223E+02 -0.24684159739E+02 -0.16172971053E+03  0.16403948602E+03  0.00000000000E+00 0. -1.
        -11    1    3    3    0    0  0.25737818930E+02 -0.28733774184E+02  0.86242423398E+02  0.94476561620E+02  0.00000000000E+00 0.  1.
         11    1    3    3    0    0 -0.43295108130E+01  0.54585928680E+02  0.56414000704E+02  0.78618749349E+02  0.00000000000E+00 0. -1.
         21    1    1    2  502  501  0.15742313735E+01  0.20523712967E+02 -0.16199625246E+02  0.26194061474E+02  0.00000000000E+00 0.  1.
<scales pt_clust_5="13000.00000" pt_clust_6="13000.00000" pt_clust_7="13000.00000" pt_clust_8="13000.00000" pt_clust_9="20.58400"></scales>
<clustering>
<clus scale="   20.584">  2  9  1 -1</clus>
<clus scale="   79.713">  5  6 -1 -1</clus>
<clus scale="   86.951">  2  5  1 -1</clus>
<clus scale="   92.111">  7  8 -1 -1</clus>
<clus scale="   20.584">  2  5  1 -1</clus>
</clustering>
</event>
<event>
 9    2  0.3791909E-005  0.1075386E+03  0.7546771E-02  0.1271116E+00
          2   -1    0    0  502    0  0.00000000000E+00  0.00000000000E+00  0.38954123729E+03  0.38954123729E+03  0.00000000000E+00 0. -1.
         -1   -1    0    0    0  501 -0.00000000000E+00 -0.00000000000E+00 -0.71946989809E+02  0.71946989809E+02  0.00000000000E+00 0.  1.
         24    2    1    2    0    0  0.49532314940E+02 -0.34923769629E+02 -0.21866653836E+02  0.99869686636E+02  0.76306512503E+02 0.  0.
         23    2    1    2    0    0 -0.27419502415E+02  0.26763053097E+02  0.29954757371E+03  0.31526503474E+03  0.90527361007E+02 0.  0.
        -13    1    3    3    0    0  0.28868280134E+02 -0.33531841505E+02 -0.48813963288E+02  0.65882964448E+02  0.00000000000E+00 0.  1.
         14    1    3    3    0    0  0.20664034806E+02 -0.13919281249E+01  0.26947309452E+02  0.33986722188E+02  0.00000000000E+00 0. -1.
        -11    1    4    4    0    0 -0.27269465983E+02 -0.30499363509E+02  0.11699904948E+03  0.12394600651E+03  0.00000000000E+00 0.  1.
         11    1    4    4    0    0 -0.15003643247E+00  0.57262416606E+02  0.18254852423E+03  0.19131902823E+03  0.00000000000E+00 0. -1.
         21    1    1    2  502  501 -0.22112812525E+02  0.81607165327E+01  0.39913327609E+02  0.46353505724E+02  0.00000000000E+00 0.  1.
<scales pt_clust_5="13000.00000" pt_clust_6="13000.00000" pt_clust_7="13000.00000" pt_clust_8="13000.00000" pt_clust_9="23.57061"></scales>
<clustering>
<clus scale="   23.571">  1  9  2 -1</clus>
<clus scale="   76.307">  5  6 -1 -1</clus>
<clus scale="   90.527">  7  8 -1 -1</clus>
<clus scale="   95.875">  2  5  1 -1</clus>
<clus scale="   23.571">  1  5  2 -1</clus>
</clustering>
</event>
<event>
 9    2  0.3791909E-005  0.1386174E+03  0.7546771E-02  0.1217950E+00
          2   -1    0    0  502    0  0.00000000000E+00  0.00000000000E+00  0.10048019643E+04  0.10048019643E+04  0.00000000000E+00 0. -1.
         -1   -1    0    0    0  501 -0.00000000000E+00 -0.00000000000E+00 -0.62116542355E+02  0.62116542355E+02  0.00000000000E+00 0.  1.
         23    2    1    2    0    0 -0.10203588163E+03  0.10691917649E+02  0.40722793051E+02  0.14421196709E+03  0.92806828053E+02 0.  0.
         24    2    1    2    0    0  0.92772640324E+02 -0.46062503096E+02  0.84417880823E+03  0.85432630936E+03  0.80666384594E+02 0.  0.
        -13    1    4    4    0    0  0.11312803559E+02 -0.29484354502E+02  0.86202976085E+02  0.91805554138E+02  0.00000000000E+00 0.  1.
         14    1    4    4    0    0  0.81459836765E+02 -0.16578148594E+02  0.75797583215E+03  0.76252075522E+03  0.00000000000E+00 0. -1.
        -13    1    3    3    0    0 -0.79308766371E+02  0.49746689938E+01  0.70561045690E+02  0.10627082819E+03  0.00000000000E+00 0. -1.
         13    1    3    3    0    0 -0.22727115264E+02  0.57172486549E+01 -0.29838252639E+02  0.37941138899E+02  0.00000000000E+00 0.  1.
         21    1    1    2  502  501  0.92632413111E+01  0.35370585447E+02  0.57783820699E+02  0.68380230250E+02  0.00000000000E+00 0.  1.
<scales pt_clust_5="13000.00000" pt_clust_6="13000.00000" pt_clust_7="13000.00000" pt_clust_8="13000.00000" pt_clust_9="36.56345"></scales>
<clustering>
<clus scale="   36.563">  2  9  1 -1</clus>
<clus scale="   80.666">  5  6 -1 -1</clus>
<clus scale="   92.807">  7  8 -1 -1</clus>
<clus scale="  130.800">  1  5  2 -1</clus>
<clus scale="  130.800">  1  5  2 -1</clus>
</clustering>
</event>
<event>
 9    2  0.3791909E-005  0.1147918E+03  0.7546771E-02  0.1254698E+00
          2   -1    0    0  502    0  0.00000000000E+00  0.00000000000E+00  0.11503232186E+04  0.11503232186E+04  0.00000000000E+00 0. -1.
         -1   -1    0    0    0  501 -0.00000000000E+00 -0.00000000000E+00 -0.35479898918E+02  0.35479898918E+02  0.00000000000E+00 0.  1.
         23    2    1    2    0    0  0.34100192916E+02 -0.59499696374E+02  0.77128957605E+02  0.13786028460E+03  0.91397729428E+02 0.  0.
         24    2    1    2    0    0 -0.18228026634E+02  0.78041251652E+02  0.94502461593E+03  0.95209345120E+03  0.83592566549E+02 0.  0.
        -13    1    4    4    0    0 -0.24116155864E+02 -0.74654529272E+01  0.11987597944E+03  0.12250539746E+03  0.00000000000E+00 0.  1.
         14    1    4    4    0    0  0.58881292300E+01  0.85506704580E+02  0.82514863649E+03  0.82958805373E+03  0.00000000000E+00 0. -1.
        -11    1    3    3    0    0  0.21021345819E+02  0.16456964376E+02  0.49023342142E+02  0.55821292813E+02  0.00000000000E+00 0. -1.
         11    1    3    3    0    0  0.13078847097E+02 -0.75956660750E+02  0.28105615463E+02  0.82038991792E+02  0.00000000000E+00 0.  1.
         21    1    1    2  502  501 -0.15872166282E+02 -0.18541555279E+02  0.92689746107E+02  0.95849381678E+02  0.00000000000E+00 0.  1.
<scales pt_clust_5="13000.00000" pt_clust_6="13000.00000" pt_clust_7="13000.00000" pt_clust_8="13000.00000" pt_clust_9="24.40727"></scales>
<clustering>
<clus scale="   24.407">  1  9  2 -1</clus>
<clus scale="   83.593">  5  6 -1 -1</clus>
<clus scale="   91.398">  7  8 -1 -1</clus>
<clus scale="  108.680">  1  5  2 -1</clus>
<clus scale="   24.407">  1  5  2 -1</clus>
</clustering>
</event>
<event>
 9    2  0.3791909E-005  0.2324355E+03  0.7546771E-02  0.1125424E+00
          2   -1    0    0  502    0  0.00000000000E+00  0.00000000000E+00  0.32506017321E+03  0.32506017321E+03  0.00000000000E+00 0. -1.
         -1   -1    0    0    0  501 -0.00000000000E+00 -0.00000000000E+00 -0.43914900625E+03  0.43914900625E+03  0.00000000000E+00 0.  1.
         23    2    1    2    0    0 -0.70144353183E+02  0.20564164922E+03 -0.32517532210E+03  0.40117938856E+03  0.89427029048E+02 0.  0.
         24    2    1    2    0    0  0.12575599575E+03 -0.16684669864E+03  0.13855320826E+03  0.26373840253E+03  0.81905812602E+02 0.  0.
        -11    1    4    4    0    0  0.85918858271E+02 -0.64713356065E+02  0.35477422362E+02  0.11326303968E+03  0.00000000000E+00 0.  1.
         12    1    4    4    0    0  0.39837137480E+02 -0.10213334257E+03  0.10307578590E+03  0.15047536285E+03  0.00000000000E+00 0. -1.
        -13    1    3    3    0    0 -0.43620089686E+02  0.65769633628E+02 -0.18616840262E+03  0.20220541799E+03  0.00000000000E+00 0. -1.
         13    1    3    3    0    0 -0.26524263497E+02  0.13987201559E+03 -0.13900691949E+03  0.19897397057E+03  0.00000000000E+00 0.  1.
         21    1    1    2  502  501 -0.55611642567E+02 -0.38794950584E+02  0.72533280800E+02  0.99291388365E+02  0.00000000000E+00 0. -1.
<scales pt_clust_5="13000.00000" pt_clust_6="13000.00000" pt_clust_7="13000.00000" pt_clust_8="13000.00000" pt_clust_9="67.80636"></scales>
<clustering>
<clus scale="   67.806">  1  9  2 -1</clus>
<clus scale="   81.906">  5  6 -1 -1</clus>
<clus scale="   89.427">  7  8 -1 -1</clus>
<clus scale="  229.647">  1  5  2 -1</clus>
<clus scale="   67.806">  1  5  2 -1</clus>
</clustering>
</event>
<event>
 9    2  0.3791909E-005  0.1303593E+03  0.7546771E-02  0.1230324E+00
          2   -1    0    0  502    0  0.00000000000E+00  0.00000000000E+00  0.99294159460E+03  0.99294159460E+03  0.00000000000E+00 0. -1.
         -1   -1    0    0    0  501 -0.00000000000E+00 -0.00000000000E+00 -0.21392189908E+02  0.21392189908E+02  0.00000000000E+00 0.  1.
         23    2    1    2    0    0  0.10955531662E+03  0.28265924893E+00  0.41103258355E+03  0.43525582013E+03  0.92181326306E+02 0.  0.
         24    2    1    2    0    0 -0.74579996731E+02  0.92812947757E+01  0.41595862606E+03  0.43004168027E+03  0.79157752779E+02 0.  0.
        -13    1    4    4    0    0 -0.76622745143E+02 -0.11423344779E+02  0.38516413510E+03  0.39287777851E+03  0.00000000000E+00 0.  1.
         14    1    4    4    0    0  0.20427484120E+01  0.20704639554E+02  0.30794490964E+02  0.37163901758E+02  0.00000000000E+00 0. -1.
        -13    1    3    3    0    0  0.32152913020E+02 -0.17496270256E+02  0.34032092732E+02  0.49981122679E+02  0.00000000000E+00 0.  1.
         13    1    3    3    0    0  0.77402403602E+02  0.17778929505E+02  0.37700049082E+03  0.38527469745E+03  0.00000000000E+00 0. -1.
         21    1    1    2  502  501 -0.34975319891E+02 -0.95639540247E+01  0.14455819507E+03  0.14903628411E+03  0.00000000000E+00 0. -1.
<scales pt_clust_5="13000.00000" pt_clust_6="13000.00000" pt_clust_7="13000.00000" pt_clust_8="13000.00000" pt_clust_9="36.25937"></scales>
<clustering>
<clus scale="   36.259">  1  9  2 -1</clus>
<clus scale="   79.158">  5  6 -1 -1</clus>
<clus scale="   92.181">  7  8 -1 -1</clus>
<clus scale="  121.499">  1  5  2 -1</clus>
<clus scale="   36.259">  1  5  2 -1</clus>
</clustering>
</event>
<event>
 9    2  0.3791909E-005  0.1044000E+03  0.7546771E-02  0.1272315E+00
          2   -1    0    0  502    0  0.00000000000E+00  0.00000000000E+00  0.50367527039E+03  0.50367527039E+03  0.00000000000E+00 0. -1.
         -1   -1    0    0    0  501 -0.00000000000E+00 -0.00000000000E+00 -0.49365110221E+02  0.49365110221E+02  0.00000000000E+00 0.  1.
         23    2    1    2    0    0  0.57805410095E+02 -0.24086418043E+02  0.34788378122E+02  0.11155061167E+03  0.85508401584E+02 0.  0.
         24    2    1    2    0    0 -0.35999656625E+02  0.41914028644E+02  0.24202670590E+03  0.26177383575E+03  0.83041276741E+02 0.  0.
        -13    1    4    4    0    0 -0.12229317283E+02 -0.18562055477E+02  0.18271113893E+02  0.28773941469E+02  0.00000000000E+00 0.  1.
         14    1    4    4    0    0 -0.23770339341E+02  0.60476084121E+02  0.22375559200E+03  0.23299989428E+03  0.00000000000E+00 0. -1.
        -13    1    3    3    0    0  0.36418291105E+02  0.29186222903E+02  0.51734335842E+01  0.46956276996E+02  0.00000000000E+00 0.  1.
         13    1    3    3    0    0  0.21387118990E+02 -0.53272640946E+02  0.29614944538E+02  0.64594334675E+02  0.00000000000E+00 0. -1.
         21    1    1    2  502  501 -0.21805753470E+02 -0.17827610601E+02  0.17749507615E+03  0.17971593319E+03  0.00000000000E+00 0. -1.
<scales pt_clust_5="13000.00000" pt_clust_6="13000.00000" pt_clust_7="13000.00000" pt_clust_8="13000.00000" pt_clust_9="28.16584"></scales>
<clustering>
<clus scale="   28.166">  1  9  2 -1</clus>
<clus scale="   83.041">  5  6 -1 -1</clus>
<clus scale="   85.508">  7  8 -1 -1</clus>
<clus scale="  102.389">  1  5  2 -1</clus>
<clus scale="   28.166">  1  5  2 -1</clus>
</clustering>
</event>
<event>
 9    2  0.3791909E-005  0.1226489E+03  0.7546771E-02  0.1257015E+00
         -1   -1    0    0    0  501 -0.00000000000E+00  0.00000000000E+00  0.11197888065E+03  0.11197888065E+03  0.00000000000E+00 0.  1.
          2   -1    0    0  502    0  0.00000000000E+00 -0.00000000000E+00 -0.56822862887E+03  0.56822862887E+03  0.00000000000E+00 0. -1.
         23    2    1    2    0    0  0.92491156585E+00  0.80943568824E+02  0.57509325304E+02  0.13422634306E+03  0.90314294989E+02 0.  0.
         24    2    1    2    0    0 -0.18192358408E+02  0.17225557698E+02 -0.23527082609E+03  0.25019231256E+03  0.81339719174E+02 0.  0.
        -13    1    4    4    0    0 -0.44985678171E+02  0.51224945489E+01 -0.19585031333E+03  0.20101566214E+03  0.00000000000E+00 0.  1.
         14    1    4    4    0    0  0.26793319763E+02  0.12103063149E+02 -0.39420512754E+02  0.49176650427E+02  0.00000000000E+00 0. -1.
        -13    1    3    3    0    0  0.26686235209E+02 -0.63754300571E+01  0.18047196274E+01  0.27496513796E+02  0.00000000000E+00 0. -1.
         13    1    3    3    0    0 -0.25761323643E+02  0.87318998881E+02  0.55704605677E+02  0.10672982927E+03  0.00000000000E+00 0.  1.
         21    1    1    2  502  501  0.17267446842E+02 -0.98169126522E+02 -0.27848824744E+03  0.29578885389E+03  0.00000000000E+00 0. -1.
<scales pt_clust_5="13000.00000" pt_clust_6="13000.00000" pt_clust_7="13000.00000" pt_clust_8="13000.00000" pt_clust_9="82.98248"></scales>
<clustering>
<clus scale="   81.340">  5  6 -1 -1</clus>
<clus scale="   85.111">  2  5  1 -1</clus>
<clus scale="   82.982">  2  9  1 -1</clus>
<clus scale="   90.314">  7  8 -1 -1</clus>
<clus scale="   85.111">  2  5  1 -1</clus>
</clustering>
</event>
<event>
 9    2  0.3791909E-005  0.1303759E+03  0.7546771E-02  0.1229781E+00
         -1   -1    0    0    0  501 -0.00000000000E+00  0.00000000000E+00  0.72956908787E+02  0.72956908787E+02  0.00000000000E+00 0.  1.
          2   -1    0    0  502    0  0.00000000000E+00 -0.00000000000E+00 -0.67855876241E+03  0.67855876241E+03  0.00000000000E+00 0. -1.
         24    2    1    2    0    0  0.26222583144E+02 -0.89593901798E+02  0.46839935943E+01  0.12324119194E+03  0.80322851605E+02 0.  0.
         23    2    1    2    0    0 -0.60471276481E+01  0.90792740681E+02 -0.52232633745E+03  0.53802282233E+03  0.91454169061E+02 0.  0.
        -11    1    3    3    0    0  0.54220701555E+02 -0.54117057709E+02 -0.58707519302E+01  0.76831023294E+02  0.00000000000E+00 0.  1.
         12    1    3    3    0    0 -0.27998118412E+02 -0.35476844089E+02  0.10554745524E+02  0.46410168651E+02  0.00000000000E+00 0. -1.
        -13    1    4    4    0    0  0.38179319516E+02  0.58795440650E+02 -0.22299842768E+03  0.23375812933E+03  0.00000000000E+00 0.  1.
         13    1    4    4    0    0 -0.44226447164E+02  0.31997300030E+02 -0.29932790977E+03  0.30426469300E+03  0.00000000000E+00 0. -1.
         21    1    1    2  502  501 -0.20175455495E+02 -0.11988388827E+01 -0.87959509771E+02  0.90251656929E+02  0.00000000000E+00 0. -1.
<scales pt_clust_5="13000.00000" pt_clust_6="13000.00000" pt_clust_7="13000.00000" pt_clust_8="13000.00000" pt_clust_9="20.21104"></scales>
<clustering>
<clus scale="   20.211">  2  9  1 -1</clus>
<clus scale="   80.323">  5  6 -1 -1</clus>
<clus scale="   91.454">  7  8 -1 -1</clus>
<clus scale="  122.824">  1  5  2 -1</clus>
<clus scale="   20.211">  2  5  1 -1</clus>
</clustering>
</event>
<event>
 9    2  0.3791909E-005  0.1170369E+03  0.7546771E-02  0.1251977E+00
         -1   -1    0    0    0  501 -0.00000000000E+00  0.00000000000E+00  0.20085904716E+03  0.20085904716E+03  0.00000000000E+00 0.  1.
          2   -1    0    0  502    0  0.00000000000E+00 -0.00000000000E+00 -0.18932858566E+03  0.18932858566E+03  0.00000000000E+00 0. -1.
         23    2    1    2    0    0 -0.37336399189E+02  0.58978665000E+02  0.14719554558E+03  0.18683584116E+03  0.91480125016E+02 0.  0.
         24    2    1    2    0    0  0.58633457942E+02 -0.75363726766E+02 -0.10881900758E+03  0.16536828492E+03  0.79921959099E+02 0.  0.
        -13    1    4    4    0    0 -0.19883844940E+01 -0.48607233273E+02 -0.78833630195E+02  0.92635619765E+02  0.00000000000E+00 0.  1.
         14    1    4    4    0    0  0.60621842436E+02 -0.26756493493E+02 -0.29985377380E+02  0.72732665158E+02  0.00000000000E+00 0. -1.
        -13    1    3    3    0    0 -0.10956605266E+01  0.71502213012E+02  0.67223154860E+02  0.98146418614E+02  0.00000000000E+00 0.  1.
         13    1    3    3    0    0 -0.36240738662E+02 -0.12523548011E+02  0.79972390720E+02  0.88689422543E+02  0.00000000000E+00 0. -1.
         21    1    1    2  502  501 -0.21297058753E+02  0.16385061766E+02 -0.26846076501E+02  0.37983506738E+02  0.00000000000E+00 0. -1.
<scales pt_clust_5="13000.00000" pt_clust_6="13000.00000" pt_clust_7="13000.00000" pt_clust_8="13000.00000" pt_clust_9="26.87071"></scales>
<clustering>
<clus scale="   26.871">  2  9  1 -1</clus>
<clus scale="   79.922">  5  6 -1 -1</clus>
<clus scale="   91.480">  7  8 -1 -1</clus>
<clus scale="  108.243">  2  5  1 -1</clus>
<clus scale="   26.871">  2  5  1 -1</clus>
</clustering>
</event>
<event>
 9    2  0.3791909E-005  0.9714899E+02  0.7546771E-02  0.1289264E+00
         -1   -1    0    0    0  501 -0.00000000000E+00  0.00000000000E+00  0.50670513315E+02  0.50670513315E+02  0.00000000000E+00 0.  1.
          2   -1    0    0  502    0  0.00000000000E+00 -0.00000000000E+00 -0.38239265580E+03  0.38239265580E+03  0.00000000000E+00 0. -1.
         23    2    1    2    0    0  0.14816806279E+01  0.49188156687E+02 -0.32591948574E+02  0.10581169956E+03  0.87819192184E+02 0.  0.
         24    2    1    2    0    0  0.22674396751E+02 -0.14046320230E+02 -0.23365544794E+03  0.24911436503E+03  0.82168553184E+02 0.  0.
        -11    1    4    4    0    0  0.45039334785E+02 -0.12593183048E+01 -0.68686730856E+02  0.82146177977E+02  0.00000000000E+00 0.  1.
         12    1    4    4    0    0 -0.22364938034E+02 -0.12787001925E+02 -0.16496871708E+03  0.16696818705E+03  0.00000000000E+00 0. -1.
        -11    1    3    3    0    0  0.19868882431E+02 -0.48636006489E+01  0.19693200058E+02  0.28394528150E+02  0.00000000000E+00 0.  1.
         11    1    3    3    0    0 -0.18387201803E+02  0.54051757336E+02 -0.52285148633E+02  0.77417171408E+02  0.00000000000E+00 0. -1.
         21    1    1    2  502  501 -0.24156077379E+02 -0.35141836457E+02 -0.65474745974E+02  0.78137104530E+02  0.00000000000E+00 0. -1.
<scales pt_clust_5="13000.00000" pt_clust_6="13000.00000" pt_clust_7="13000.00000" pt_clust_8="13000.00000" pt_clust_9="42.64346"></scales>
<clustering>
<clus scale="   42.643">  2  9  1 -1</clus>
<clus scale="   82.169">  5  6 -1 -1</clus>
<clus scale="   87.819">  7  8 -1 -1</clus>
<clus scale="   92.073">  2  5  1 -1</clus>
<clus scale="   42.643">  2  5  1 -1</clus>
</clustering>
</event>
<event>
 9    2  0.3791909E-005  0.9452951E+02  0.7546771E-02  0.1298071E+00
          2   -1    0    0  502    0  0.00000000000E+00  0.00000000000E+00  0.41801946679E+03  0.41801946679E+03  0.00000000000E+00 0. -1.
         -1   -1    0    0    0  501 -0.00000000000E+00 -0.00000000000E+00 -0.33827719113E+02  0.33827719113E+02  0.00000000000E+00 0.  1.
         24    2    1    2    0    0 -0.51578730820E+01 -0.24753431729E+01  0.58503589601E+02  0.10087035664E+03  0.81972116441E+02 0.  0.
         23    2    1    2    0    0  0.15922898188E+02 -0.25136001277E+02  0.28262789257E+03  0.29870390536E+03  0.91979020285E+02 0.  0.
        -13    1    3    3    0    0 -0.40982024948E+02 -0.56632674221E+00  0.48756307852E+02  0.63694777260E+02  0.00000000000E+00 0.  1.
         14    1    3    3    0    0  0.35824151866E+02 -0.19090164307E+01  0.97472817494E+01  0.37175579379E+02  0.00000000000E+00 0. -1.
        -13    1    4    4    0    0  0.34387329090E+01 -0.59163525971E+02  0.15212020868E+03  0.16325656366E+03  0.00000000000E+00 0. -1.
         13    1    4    4    0    0  0.12484165279E+02  0.34027524694E+02  0.13050768390E+03  0.13544734171E+03  0.00000000000E+00 0.  1.
         21    1    1    2  502  501 -0.10765025106E+02  0.27611344450E+02  0.43060265506E+02  0.52272923902E+02  0.00000000000E+00 0.  1.
<scales pt_clust_5="13000.00000" pt_clust_6="13000.00000" pt_clust_7="13000.00000" pt_clust_8="13000.00000" pt_clust_9="29.63566"></scales>
<clustering>
<clus scale="   29.636">  2  9  1 -1</clus>
<clus scale="   81.972">  5  6 -1 -1</clus>
<clus scale="   84.824">  2  5  1 -1</clus>
<clus scale="   91.979">  7  8 -1 -1</clus>
<clus scale="   94.530">  1  5  2 -1</clus>
</clustering>
</event>
<event>
 9    2  0.3791909E-005  0.1045478E+03  0.7546771E-02  0.1276716E+00
          2   -1    0    0  502    0  0.00000000000E+00  0.00000000000E+00  0.82397109722E+02  0.82397109722E+02  0.00000000000E+00 0. -1.
         -1   -1    0    0    0  501 -0.00000000000E+00 -0.00000000000E+00 -0.36771572395E+03  0.36771572395E+03  0.00000000000E+00 0.  1.
         23    2    1    2    0    0 -0.54505631182E+02  0.26833618157E+02 -0.23073281268E+03  0.25610808364E+03  0.93074232552E+02 0.  0.
         24    2    1    2    0    0  0.32690328117E+02  0.46096207834E+02 -0.63737109966E+02  0.11733393803E+03  0.80692725187E+02 0.  0.
        -11    1    4    4    0    0  0.17469462990E+02 -0.18502481043E+02 -0.38874008788E+02  0.46461946808E+02  0.00000000000E+00 0.  1.
         12    1    4    4    0    0  0.15220865127E+02  0.64598688877E+02 -0.24863101178E+02  0.70871991224E+02  0.00000000000E+00 0. -1.
        -11    1    3    3    0    0  0.17050697569E+02 -0.16810850038E+02 -0.81545555214E+02  0.84988284732E+02  0.00000000000E+00 0. -1.
         11    1    3    3    0    0 -0.71556328751E+02  0.43644468194E+02 -0.14918725746E+03  0.17111979891E+03  0.00000000000E+00 0.  1.
         21    1    1    2  502  501  0.21815303064E+02 -0.72929825991E+02  0.91513084196E+01  0.76670811999E+02  0.00000000000E+00 0. -1.
<scales pt_clust_5="13000.00000" pt_clust_6="13000.00000" pt_clust_7="13000.00000" pt_clust_8="13000.00000" pt_clust_9="76.12271"></scales>
<clustering>
<clus scale="   76.123">  1  9  2 -1</clus>
<clus scale="   80.693">  5  6 -1 -1</clus>
<clus scale="   93.074">  7  8 -1 -1</clus>
<clus scale="   93.695">  1  5  2 -1</clus>
<clus scale="   76.123">  1  5  2 -1</clus>
</clustering>
</event>
<event>
 9    2  0.3791909E-005  0.1076727E+03  0.7546771E-02  0.1269415E+00
          2   -1    0    0  502    0  0.00000000000E+00  0.00000000000E+00  0.29154618543E+03  0.29154618543E+03  0.00000000000E+00 0. -1.
         -1   -1    0    0    0  501 -0.00000000000E+00 -0.00000000000E+00 -0.12959807189E+03  0.12959807189E+03  0.00000000000E+00 0.  1.
         23    2    1    2    0    0  0.61299391775E+02 -0.21375583156E+02 -0.72846784350E+02  0.13387590950E+03  0.91660101285E+02 0.  0.
         24    2    1    2    0    0  0.67311712948E+00  0.28777982117E+01  0.19544451776E+03  0.21156357701E+03  0.80943516024E+02 0.  0.
        -11    1    4    4    0    0 -0.36489742173E+02 -0.12269397408E+02  0.70417450263E+02  0.80253702084E+02  0.00000000000E+00 0.  1.
         12    1    4    4    0    0  0.37162859303E+02  0.15147195620E+02  0.12502706750E+03  0.13130987493E+03  0.00000000000E+00 0. -1.
        -13    1    3    3    0    0  0.44642203940E+02 -0.57215999006E+02 -0.51192965520E+02  0.88810566002E+02  0.00000000000E+00 0.  1.
         13    1    3    3    0    0  0.16657187835E+02  0.35840415850E+02 -0.21653818830E+02  0.45065343500E+02  0.00000000000E+00 0. -1.
         21    1    1    2  502  501 -0.61972508905E+02  0.18497784944E+02  0.39350380131E+02  0.75704770815E+02  0.00000000000E+00 0.  1.
<scales pt_clust_5="13000.00000" pt_clust_6="13000.00000" pt_clust_7="13000.00000" pt_clust_8="13000.00000" pt_clust_9="64.67426"></scales>
<clustering>
<clus scale="   64.674">  1  9  2 -1</clus>
<clus scale="   80.944">  5  6 -1 -1</clus>
<clus scale="   91.660">  7  8 -1 -1</clus>
<clus scale="   98.710">  1  5  2 -1</clus>
<clus scale="   64.674">  1  5  2 -1</clus>
</clustering>
</event>
<event>
 9    2  0.3791909E-005  0.1727884E+03  0.7546771E-02  0.1193740E+00
         -1   -1    0    0    0  501 -0.00000000000E+00  0.00000000000E+00  0.73514996844E+03  0.73514996844E+03  0.00000000000E+00 0.  1.
          2   -1    0    0  502    0  0.00000000000E+00 -0.00000000000E+00 -0.72891713850E+02  0.72891713850E+02  0.00000000000E+00 0. -1.
         23    2    1    2    0    0  0.38283100350E+02  0.38604724189E+02  0.27890295262E+03  0.30117672871E+03  0.99823065661E+02 0.  0.
         24    2    1    2    0    0  0.12685180819E+03  0.44256292685E+01  0.24150856352E+03  0.28496036473E+03  0.82249959151E+02 0.  0.
        -11    1    4    4    0    0  0.26721585371E+02 -0.31764122223E+02  0.96621360567E+02  0.10516030574E+03  0.00000000000E+00 0.  1.
         12    1    4    4    0    0  0.10013022282E+03  0.36189751491E+02  0.14488720295E+03  0.17980005899E+03  0.00000000000E+00 0. -1.
        -13    1    3    3    0    0 -0.27135674496E+02  0.32207783772E+02  0.65422581642E+02  0.77806171700E+02  0.00000000000E+00 0.  1.
         13    1    3    3    0    0  0.65418774846E+02  0.63969404175E+01  0.21348037097E+03  0.22337055701E+03  0.00000000000E+00 0. -1.
         21    1    1    2  502  501 -0.16513490854E+03 -0.43030353458E+02  0.14184673845E+03  0.22190458884E+03  0.00000000000E+00 0.  1.
<scales pt_clust_5="13000.00000" pt_clust_6="13000.00000" pt_clust_7="13000.00000" pt_clust_8="13000.00000" pt_clust_9="151.95654"></scales>
<clustering>
<clus scale="   82.250">  5  6 -1 -1</clus>
<clus scale="   99.823">  7  8 -1 -1</clus>
<clus scale="  113.669">  1  7  2 -1</clus>
<clus scale="  151.957">  2  9  1 -1</clus>
<clus scale="  151.957">  2  5  1 -1</clus>
</clustering>
</event>
<event>
 9    2  0.3791909E-005  0.9368362E+02  0.7546771E-02  0.1298250E+00
         -1   -1    0    0    0  501 -0.00000000000E+00  0.00000000000E+00  0.12986230155E+03  0.12986230155E+03  0.00000000000E+00 0.  1.
          2   -1    0    0  502    0  0.00000000000E+00 -0.00000000000E+00 -0.21245449211E+03  0.21245449211E+03  0.00000000000E+00 0. -1.
         23    2    1    2    0    0  0.11362552017E+02  0.32375870420E+01  0.89729918779E+02  0.12679420314E+03  0.88801588208E+02 0.  0.
         24    2    1    2    0    0 -0.21588604853E+02 -0.23290032239E+02 -0.17202371305E+03  0.19301122105E+03  0.81563963475E+02 0.  0.
        -11    1    4    4    0    0  0.29182611613E+02  0.39247679533E+01 -0.48958722216E+02  0.57131297072E+02  0.00000000000E+00 0.  1.
         12    1    4    4    0    0 -0.50771216466E+02 -0.27214800192E+02 -0.12306499084E+03  0.13587992398E+03  0.00000000000E+00 0. -1.
        -13    1    3    3    0    0  0.33731738581E+01 -0.21957606545E+02  0.96894722659E+02  0.99408762523E+02  0.00000000000E+00 0.  1.
         13    1    3    3    0    0  0.79893781590E+01  0.25195193587E+02 -0.71648038804E+01  0.27385440619E+02  0.00000000000E+00 0. -1.
         21    1    1    2  502  501  0.10226052836E+02  0.20052445197E+02 -0.29839629107E+00  0.22511369468E+02  0.00000000000E+00 0. -1.
<scales pt_clust_5="13000.00000" pt_clust_6="13000.00000" pt_clust_7="13000.00000" pt_clust_8="13000.00000" pt_clust_9="22.50939"></scales>
<clustering>
<clus scale="   22.509">  1  9  2 -1</clus>
<clus scale="   81.564">  5  6 -1 -1</clus>
<clus scale="   86.854">  2  5  1 -1</clus>
<clus scale="   88.802">  7  8 -1 -1</clus>
<clus scale="   86.854">  2  5  1 -1</clus>
</clustering>
</event>
<event>
 9    2  0.3791909E-005  0.1770032E+03  0.7546771E-02  0.1171435E+00
         -1   -1    0    0    0  501 -0.00000000000E+00  0.00000000000E+00  0.15923235300E+03  0.15923235300E+03  0.00000000000E+00 0.  1.
          2   -1    0    0  502    0  0.00000000000E+00 -0.00000000000E+00 -0.58148284187E+03  0.58148284187E+03  0.00000000000E+00 0. -1.
         23    2    1    2    0    0 -0.17141637974E+03  0.68353031310E+02  0.30673574335E+02  0.20752651969E+03  0.89836941611E+02 0.  0.
         24    2    1    2    0    0  0.10237175546E+03 -0.28897409029E+02 -0.92718377171E+02  0.16430923347E+03  0.84177135684E+02 0.  0.
        -13    1    4    4    0    0 -0.97278813439E+01 -0.20898342666E+02 -0.12410039209E+02  0.26179791343E+02  0.00000000000E+00 0.  1.
         14    1    4    4    0    0  0.11209963681E+03 -0.79990663632E+01 -0.80308337962E+02  0.13812944212E+03  0.00000000000E+00 0. -1.
        -13    1    3    3    0    0 -0.69618380922E+02  0.34917795660E+02  0.57810832835E+02  0.96995174153E+02  0.00000000000E+00 0.  1.
         13    1    3    3    0    0 -0.10179799882E+03  0.33435235650E+02 -0.27137258500E+02  0.11053134553E+03  0.00000000000E+00 0. -1.
         21    1    1    2  502  501  0.69044624276E+02 -0.39455622282E+02 -0.36020568603E+03  0.36887944172E+03  0.00000000000E+00 0. -1.
<scales pt_clust_5="13000.00000" pt_clust_6="13000.00000" pt_clust_7="13000.00000" pt_clust_8="13000.00000" pt_clust_9="79.52299"></scales>
<clustering>
<clus scale="   79.523">  2  9  1 -1</clus>
<clus scale="   84.177">  5  6 -1 -1</clus>
<clus scale="   89.837">  7  8 -1 -1</clus>
<clus scale="  174.199">  2  5  1 -1</clus>
<clus scale="   79.523">  2  5  1 -1</clus>
</clustering>
</event>
<event>
 9    2  0.3791909E-005  0.1285687E+03  0.7546771E-02  0.1232962E+00
          2   -1    0    0  502    0  0.00000000000E+00  0.00000000000E+00  0.12321694637E+03  0.12321694637E+03  0.00000000000E+00 0. -1.
         -1   -1    0    0    0  501 -0.00000000000E+00 -0.00000000000E+00 -0.39411226122E+03  0.39411226122E+03  0.00000000000E+00 0.  1.
         23    2    1    2    0    0  0.93041455258E+02 -0.15960991900E+02 -0.31766166372E+03  0.34410283659E+03  0.92662634816E+02 0.  0.
         24    2    1    2    0    0 -0.46794805386E+02  0.28434335689E+02  0.70221397138E+02  0.11989273979E+03  0.80280503117E+02 0.  0.
        -13    1    4    4    0    0 -0.63216744506E+02  0.19593169871E+02  0.24602045051E+02  0.70608141969E+02  0.00000000000E+00 0.  1.
         14    1    4    4    0    0  0.16421939120E+02  0.88411658179E+01  0.45619352086E+02  0.49284597820E+02  0.00000000000E+00 0. -1.
        -11    1    3    3    0    0  0.23503952299E+02 -0.28970479251E+02 -0.30005935312E+02  0.47875678540E+02  0.00000000000E+00 0. -1.
         11    1    3    3    0    0  0.69537502959E+02  0.13009487351E+02 -0.28765572841E+03  0.29622715805E+03  0.00000000000E+00 0.  1.
         21    1    1    2  502  501 -0.46246649872E+02 -0.12473343789E+02 -0.23455048265E+02  0.53333631217E+02  0.00000000000E+00 0.  1.
<scales pt_clust_5="13000.00000" pt_clust_6="13000.00000" pt_clust_7="13000.00000" pt_clust_8="13000.00000" pt_clust_9="47.89924"></scales>
<clustering>
<clus scale="   47.899">  1  9  2 -1</clus>
<clus scale="   80.281">  5  6 -1 -1</clus>
<clus scale="   92.663">  7  8 -1 -1</clus>
<clus scale="  119.952">  1  5  2 -1</clus>
<clus scale="   47.899">  1  5  2 -1</clus>
</clustering>
</event>
<event>
 9    2  0.3791909E-005  0.3376877E+03  0.7546771E-02  0.1068138E+00
         -1   -1    0    0    0  501 -0.00000000000E+00  0.00000000000E+00  0.17674615439E+03  0.17674615439E+03  0.00000000000E+00 0.  1.
          2   -1    0    0  502    0  0.00000000000E+00 -0.00000000000E+00 -0.10913429796E+04  0.10913429796E+04  0.00000000000E+00 0. -1.
         23    2    1    2    0    0  0.32112073547E+03  0.65194546363E+02 -0.67267314695E+02  0.34687952990E+03  0.91824076466E+02 0.  0.
         24    2    1    2    0    0 -0.31450064301E+03 -0.29994666718E+02 -0.76452003932E+03  0.83098618322E+03  0.78973487361E+02 0.  0.
        -11    1    4    4    0    0 -0.14018589126E+03 -0.42338955120E+02 -0.28123045354E+03  0.31707292415E+03  0.00000000000E+00 0.  1.
         12    1    4    4    0    0 -0.17431475175E+03  0.12344288402E+02 -0.48328958578E+03  0.51391325907E+03  0.00000000000E+00 0. -1.
        -11    1    3    3    0    0  0.30307773490E+02  0.25236641991E+02 -0.32841259540E+02  0.51322485921E+02  0.00000000000E+00 0. -1.
         11    1    3    3    0    0  0.29081296198E+03  0.39957904372E+02 -0.34426055155E+02  0.29555704398E+03  0.00000000000E+00 0.  1.
         21    1    1    2  502  501 -0.66200924565E+01 -0.35199879645E+02 -0.82809471204E+02  0.90223420863E+02  0.00000000000E+00 0. -1.
<scales pt_clust_5="13000.00000" pt_clust_6="13000.00000" pt_clust_7="13000.00000" pt_clust_8="13000.00000" pt_clust_9="35.81700"></scales>
<clustering>
<clus scale="   35.817">  2  9  1 -1</clus>
<clus scale="   78.973">  5  6 -1 -1</clus>
<clus scale="   91.824">  7  8 -1 -1</clus>
<clus scale="  334.422">  2  5  1 -1</clus>
<clus scale="   35.817">  2  5  1 -1</clus>
</clustering>
</event>
<event>
 9    2  0.3791909E-005  0.1166470E+03  0.7546771E-02  0.1262850E+00
         -1   -1    0    0    0  501 -0.00000000000E+00  0.00000000000E+00  0.18861233410E+03  0.18861233410E+03  0.00000000000E+00 0.  1.
          2   -1    0    0  502    0  0.00000000000E+00 -0.00000000000E+00 -0.21769649226E+03  0.21769649226E+03  0.00000000000E+00 0. -1.
         24    2    1    2    0    0  0.34078016072E+01 -0.34188310894E+02  0.81773534426E+02  0.12028629667E+03  0.81249175504E+02 0.  0.
         23    2    1    2    0    0  0.57370845133E+02 -0.37096039121E+02 -0.14686776706E+03  0.18566203985E+03  0.90734348796E+02 0.  0.
        -13    1    3    3    0    0 -0.18412757002E+02 -0.30200572537E+02  0.89942788553E+02  0.96647862959E+02  0.00000000000E+00 0.  1.
         14    1    3    3    0    0  0.21820558610E+02 -0.39877383575E+01 -0.81692541263E+01  0.23638433709E+02  0.00000000000E+00 0. -1.
        -11    1    4    4    0    0  0.67441970220E+02  0.74612369749E+01 -0.90313759273E+02  0.11296311132E+03  0.00000000000E+00 0. -1.
         11    1    4    4    0    0 -0.10071125086E+02 -0.44557276096E+02 -0.56554007785E+02  0.72698928535E+02  0.00000000000E+00 0.  1.
         21    1    1    2  502  501 -0.60778646741E+02  0.71284350015E+02  0.36010074479E+02  0.10036048984E+03  0.00000000000E+00 0. -1.
<scales pt_clust_5="13000.00000" pt_clust_6="13000.00000" pt_clust_7="13000.00000" pt_clust_8="13000.00000" pt_clust_9="73.30619"></scales>
<clustering>
<clus scale="   81.249">  5  6 -1 -1</clus>
<clus scale="   88.215">  1  5  2 -1</clus>
<clus scale="   73.306">  1  9  2 -1</clus>
<clus scale="   90.734">  7  8 -1 -1</clus>
<clus scale="  116.647">  2  5  1 -1</clus>
</clustering>
</event>
<event>
 9    2  0.3791909E-005  0.1047419E+03  0.7546771E-02  0.1273105E+00
         -1   -1    0    0    0  501 -0.00000000000E+00  0.00000000000E+00  0.42948131460E+02  0.42948131460E+02  0.00000000000E+00 0.  1.
          2   -1    0    0  502    0  0.00000000000E+00 -0.00000000000E+00 -0.36900888804E+03  0.36900888804E+03  0.00000000000E+00 0. -1.
         23    2    1    2    0    0  0.43669768221E+02 -0.15268273089E+02 -0.70251589711E+02  0.12328439664E+03  0.90130947947E+02 0.  0.
         24    2    1    2    0    0 -0.62757747273E+02  0.30182737628E+02 -0.20465481607E+03  0.23207262461E+03  0.84407208567E+02 0.  0.
        -13    1    4    4    0    0 -0.73971374762E+02  0.78652059816E+01 -0.18765079116E+03  0.20185748729E+03  0.00000000000E+00 0.  1.
         14    1    4    4    0    0  0.11213627489E+02  0.22317531647E+02 -0.17004024905E+02  0.30215137319E+02  0.00000000000E+00 0. -1.
        -11    1    3    3    0    0  0.49788318910E+02  0.26747960034E+02 -0.52911647237E+02  0.77420749668E+02  0.00000000000E+00 0. -1.
         11    1    3    3    0    0 -0.61185506893E+01 -0.42016233123E+02 -0.17339942474E+02  0.45863646970E+02  0.00000000000E+00 0.  1.
         21    1    1    2  502  501  0.19087979052E+02 -0.14914464539E+02 -0.51154350803E+02  0.56599998258E+02  0.00000000000E+00 0. -1.
<scales pt_clust_5="13000.00000" pt_clust_6="13000.00000" pt_clust_7="13000.00000" pt_clust_8="13000.00000" pt_clust_9="24.22379"></scales>
<clustering>
<clus scale="   24.224">  2  9  1 -1</clus>
<clus scale="   84.407">  5  6 -1 -1</clus>
<clus scale="   90.131">  7  8 -1 -1</clus>
<clus scale="   99.859">  2  5  1 -1</clus>
<clus scale="   24.224">  2  5  1 -1</clus>
</clustering>
</event>
<event>
 9    2  0.3791909E-005  0.1147262E+03  0.7546771E-02  0.1256330E+00
         -1   -1    0    0    0  501 -0.00000000000E+00  0.00000000000E+00  0.71804842263E+02  0.71804842263E+02  0.00000000000E+00 0.  1.
          2   -1    0    0  502    0  0.00000000000E+00 -0.00000000000E+00 -0.46427992600E+03  0.46427992600E+03  0.00000000000E+00 0. -1.
         23    2    1    2    0    0  0.24294173525E+01  0.78026291273E+02  0.40250670452E+00  0.12017149080E+03  0.91362032552E+02 0.  0.
         24    2    1    2    0    0  0.72833796241E+01 -0.28711044186E+02 -0.27558852234E+03  0.28830819325E+03  0.79342352947E+02 0.  0.
        -13    1    4    4    0    0  0.27097273394E+02 -0.29748755545E+02 -0.62731592050E+02  0.74528540325E+02  0.00000000000E+00 0.  1.
         14    1    4    4    0    0 -0.19813893770E+02  0.10377113595E+01 -0.21285693029E+03  0.21377965292E+03  0.00000000000E+00 0. -1.
        -13    1    3    3    0    0  0.38640220177E+02  0.68641554928E+02  0.14690889629E+02  0.80128346522E+02  0.00000000000E+00 0.  1.
         13    1    3    3    0    0 -0.36210802824E+02  0.93847363453E+01 -0.14288382924E+02  0.40043144283E+02  0.00000000000E+00 0. -1.
         21    1    1    2  502  501 -0.97127969766E+01 -0.49315247087E+02 -0.11728906810E+03  0.12760508421E+03  0.00000000000E+00 0. -1.
<scales pt_clust_5="13000.00000" pt_clust_6="13000.00000" pt_clust_7="13000.00000" pt_clust_8="13000.00000" pt_clust_9="50.26263"></scales>
<clustering>
<clus scale="   50.263">  2  9  1 -1</clus>
<clus scale="   79.342">  5  6 -1 -1</clus>
<clus scale="   91.362">  7  8 -1 -1</clus>
<clus scale="  105.405">  2  5  1 -1</clus>
<clus scale="   50.263">  2  5  1 -1</clus>
</clustering>
</event>
<event>
 9    2  0.3791909E-005  0.1384036E+03  0.7546771E-02  0.1238670E+00
          2   -1    0    0  502    0  0.00000000000E+00  0.00000000000E+00  0.12135261117E+03  0.12135261117E+03  0.00000000000E+00 0. -1.
         -1   -1    0    0    0  501 -0.00000000000E+00 -0.00000000000E+00 -0.32870634515E+03  0.32870634515E+03  0.00000000000E+00 0.  1.
         23    2    1    2    0    0 -0.78798683665E+02 -0.55611555253E+02 -0.19663088646E+03  0.23772572537E+03  0.92455055950E+02 0.  0.
         24    2    1    2    0    0 -0.27856384702E+02 -0.84532042891E+01 -0.18989180448E+02  0.87641894897E+02  0.80455440684E+02 0.  0.
        -11    1    4    4    0    0  0.13859911362E+02 -0.26976064269E+02  0.11844978928E+02  0.32559310684E+02  0.00000000000E+00 0.  1.
         12    1    4    4    0    0 -0.41716296065E+02  0.18522859980E+02 -0.30834159376E+02  0.55082584213E+02  0.00000000000E+00 0. -1.
        -11    1    3    3    0    0 -0.26625302130E+02 -0.49794157501E+02 -0.16944861225E+03  0.17860906200E+03  0.00000000000E+00 0.  1.
         11    1    3    3    0    0 -0.52173381535E+02 -0.58173977518E+01 -0.27182274205E+02  0.59116663373E+02  0.00000000000E+00 0. -1.
         21    1    1    2  502  501  0.10665506837E+03  0.64064759542E+02  0.82663329240E+01  0.12469133604E+03  0.00000000000E+00 0. -1.
<scales pt_clust_5="13000.00000" pt_clust_6="13000.00000" pt_clust_7="13000.00000" pt_clust_8="13000.00000" pt_clust_9="102.99335"></scales>
<clustering>
<clus scale="   80.455">  5  6 -1 -1</clus>
<clus scale="   85.560">  1  5  2 -1</clus>
<clus scale="   92.455">  7  8 -1 -1</clus>
<clus scale="  102.993">  1  9  2 -1</clus>
<clus scale="   85.560">  1  5  2 -1</clus>
</clustering>
</event>
<event>
 9    2  0.3791909E-005  0.1222589E+03  0.7546771E-02  0.1242807E+00
         -1   -1    0    0    0  501 -0.00000000000E+00  0.00000000000E+00  0.94005510145E+02  0.94005510145E+02  0.00000000000E+00 0.  1.
          2   -1    0    0  502    0  0.00000000000E+00 -0.00000000000E+00 -0.65394970657E+03  0.65394970657E+03  0.00000000000E+00 0. -1.
         23    2    1    2    0    0  0.59279654345E+02  0.57229194722E+02  0.38644356615E+02  0.12899975210E+03  0.91423692746E+02 0.  0.
         24    2    1    2    0    0 -0.63383757657E+02 -0.28652757529E+02 -0.56396141760E+03  0.57387226447E+03  0.80239729183E+02 0.  0.
        -11    1    4    4    0    0 -0.44221428083E+02  0.19440134356E+02 -0.17738426743E+03  0.18384404221E+03  0.00000000000E+00 0.  1.
         12    1    4    4    0    0 -0.19162329574E+02 -0.48092891885E+02 -0.38657715017E+03  0.39002822226E+03  0.00000000000E+00 0. -1.
        -13    1    3    3    0    0  0.42352142316E+02 -0.17930149091E+02  0.16082468224E+02  0.48722068812E+02  0.00000000000E+00 0. -1.
         13    1    3    3    0    0  0.16927512029E+02  0.75159343814E+02  0.22561888391E+02  0.80277683286E+02  0.00000000000E+00 0.  1.
         21    1    1    2  502  501  0.41041033116E+01 -0.28576437194E+02 -0.34627135443E+02  0.45083200149E+02  0.00000000000E+00 0.  1.
<scales pt_clust_5="13000.00000" pt_clust_6="13000.00000" pt_clust_7="13000.00000" pt_clust_8="13000.00000" pt_clust_9="28.86965"></scales>
<clustering>
<clus scale="   28.870">  2  9  1 -1</clus>
<clus scale="   80.240">  5  6 -1 -1</clus>
<clus scale="   91.424">  7  8 -1 -1</clus>
<clus scale="  114.137">  2  5  1 -1</clus>
<clus scale="   28.870">  2  5  1 -1</clus>
</clustering>
</event>
<event>
 9    2  0.4231533E-005  0.1259114E+03  0.7546771E-02  0.1236952E+00
          2   -1    0    0  502    0  0.00000000000E+00  0.00000000000E+00  0.98355656612E+03  0.98355656612E+03  0.00000000000E+00 0. -1.
         -1   -1    0    0    0  501 -0.00000000000E+00 -0.00000000000E+00 -0.21078926053E+03  0.21078926053E+03  0.00000000000E+00 0.  1.
         23    2    1    2    0    0 -0.47365216055E+01  0.88106683157E+02 -0.18346454255E+03  0.22223301026E+03  0.89123791566E+02 0.  0.
         24    2    1    2    0    0  0.19150870438E+02 -0.11752977529E+03  0.80081902170E+03  0.81328385672E+03  0.77068295499E+02 0.  0.
        -11    1    4    4    0    0 -0.26784650749E+02 -0.25484089260E+02  0.15673176180E+03  0.16103323097E+03  0.00000000000E+00 0.  1.
         12    1    4    4    0    0  0.45935521187E+02 -0.92045686030E+02  0.64408725990E+03  0.65225062575E+03  0.00000000000E+00 0. -1.
        -11    1    3    3    0    0 -0.41214309962E+02  0.76827214723E+02 -0.12477347082E+03  0.15221517431E+03  0.00000000000E+00 0.  1.
         11    1    3    3    0    0  0.36477788356E+02  0.11279468434E+02 -0.58691071727E+02  0.70017835956E+02  0.00000000000E+00 0. -1.
         21    1    1    2  502  501 -0.14414348833E+02  0.29423092133E+02  0.15541282645E+03  0.15882895966E+03  0.00000000000E+00 0.  1.
<scales pt_clust_5="13000.00000" pt_clust_6="13000.00000" pt_clust_7="13000.00000" pt_clust_8="13000.00000" pt_clust_9="32.76418"></scales>
<clustering>
<clus scale="   32.764">  1  9  2 -1</clus>
<clus scale="   77.068">  5  6 -1 -1</clus>
<clus scale="   89.124">  7  8 -1 -1</clus>
<clus scale="  117.687">  1  5  2 -1</clus>
<clus scale="   32.764">  1  5  2 -1</clus>
</clustering>
</event>
<event>
 9    2  0.3791909E-005  0.1192757E+03  0.7546771E-02  0.1265405E+00
         -1   -1    0    0    0  501 -0.00000000000E+00  0.00000000000E+00  0.36873188592E+02  0.36873188592E+02  0.00000000000E+00 0.  1.
          2   -1    0    0  502    0  0.00000000000E+00 -0.00000000000E+00 -0.10582798700E+04  0.10582798700E+04  0.00000000000E+00 0. -1.
         24    2    1    2    0    0  0.82017603023E+02  0.70924941708E+00 -0.97991413886E+02  0.15082165109E+03  0.80109069411E+02 0.  0.
         23    2    1    2    0    0  0.36647634912E+02  0.23281436469E+00 -0.33566164889E+03  0.34471766317E+03  0.69414850125E+02 0.  0.
        -11    1    3    3    0    0  0.85214282277E+02  0.25497731433E+02 -0.69201896981E+02  0.11269654280E+03  0.00000000000E+00 0.  1.
         12    1    3    3    0    0 -0.31966792539E+01 -0.24788482016E+02 -0.28789516905E+02  0.38125108296E+02  0.00000000000E+00 0. -1.
        -13    1    4    4    0    0  0.51948499754E+02 -0.17442120836E+02 -0.22051012392E+03  0.22721705252E+03  0.00000000000E+00 0.  1.
         13    1    4    4    0    0 -0.15300864842E+02  0.17674935200E+02 -0.11515152497E+03  0.11750061064E+03  0.00000000000E+00 0. -1.
         21    1    1    2  502  501 -0.11866523794E+03 -0.94206378176E+00 -0.58775361868E+03  0.59961374438E+03  0.00000000000E+00 0. -1.
<scales pt_clust_5="13000.00000" pt_clust_6="13000.00000" pt_clust_7="13000.00000" pt_clust_8="13000.00000" pt_clust_9="88.36985"></scales>
<clustering>
<clus scale="   69.415">  7  8 -1 -1</clus>
<clus scale="   78.495">  2  7  1 -1</clus>
<clus scale="   80.109">  5  6 -1 -1</clus>
<clus scale="   88.370">  2  9  1 -1</clus>
<clus scale="   78.495">  2  5  1 -1</clus>
</clustering>
</event>
<event>
 9    2  0.3791909E-005  0.1143392E+03  0.7546771E-02  0.1254940E+00
         -1   -1    0    0    0  501 -0.00000000000E+00  0.00000000000E+00  0.13551158812E+03  0.13551158812E+03  0.00000000000E+00 0.  1.
          2   -1    0    0  502    0  0.00000000000E+00 -0.00000000000E+00 -0.58448483025E+03  0.58448483025E+03  0.00000000000E+00 0. -1.
         23    2    1    2    0    0  0.60383218224E+02 -0.16441644288E+02  0.56913854128E+02  0.12360198565E+03  0.90121048348E+02 0.  0.
         24    2    1    2    0    0 -0.16940647863E+03  0.26110059105E+02 -0.40806192823E+03  0.44959758992E+03  0.79013703890E+02 0.  0.
        -11    1    4    4    0    0 -0.47135260221E+02  0.26761974705E+02 -0.60876102411E+02  0.81509728812E+02  0.00000000000E+00 0.  1.
         12    1    4    4    0    0 -0.12227121841E+03 -0.65191560091E+00 -0.34718582582E+03  0.36808786111E+03  0.00000000000E+00 0. -1.
        -11    1    3    3    0    0 -0.14628312962E+02 -0.16579997337E+02 -0.88771641132E+01  0.23826201848E+02  0.00000000000E+00 0. -1.
         11    1    3    3    0    0  0.75011531186E+02  0.13835304963E+00  0.65791018241E+02  0.99775783804E+02  0.00000000000E+00 0.  1.
         21    1    1    2  502  501  0.10902326041E+03 -0.96684148168E+01 -0.97825168037E+02  0.14679684280E+03  0.00000000000E+00 0. -1.
<scales pt_clust_5="13000.00000" pt_clust_6="13000.00000" pt_clust_7="13000.00000" pt_clust_8="13000.00000" pt_clust_9="109.45113"></scales>
<clustering>
<clus scale="   79.014">  5  6 -1 -1</clus>
<clus scale="   90.121">  7  8 -1 -1</clus>
<clus scale="  109.451">  2  9  1 -1</clus>
<clus scale="  109.451">  2  5  1 -1</clus>
<clus scale="  109.451">  2  5  1 -1</clus>
</clustering>
</event>
<event>
 9    2  0.3791909E-005  0.1239153E+03  0.7546771E-02  0.1255114E+00
         -1   -1    0    0    0  501 -0.00000000000E+00  0.00000000000E+00  0.10617978859E+03  0.10617978859E+03  0.00000000000E+00 0.  1.
          2   -1    0    0  502    0  0.00000000000E+00 -0.00000000000E+00 -0.60151167241E+03  0.60151167241E+03  0.00000000000E+00 0. -1.
         23    2    1    2    0    0  0.35676045721E+02  0.42494157845E+02  0.52741321987E+02  0.13292693937E+03  0.10867101948E+03 0.  0.
         24    2    1    2    0    0  0.27186441379E+02  0.17960084982E+02 -0.28587851513E+03  0.29844502616E+03  0.79254280513E+02 0.  0.
        -11    1    4    4    0    0 -0.12446696157E+02  0.38238533769E+02 -0.15805713181E+03  0.16309249715E+03  0.00000000000E+00 0.  1.
         12    1    4    4    0    0  0.39633137536E+02 -0.20278448788E+02 -0.12782138332E+03  0.13535252902E+03  0.00000000000E+00 0. -1.
        -13    1    3    3    0    0 -0.19744937704E+02 -0.23089894239E+02 -0.30420132979E+01  0.30532926912E+02  0.00000000000E+00 0. -1.
         13    1    3    3    0    0  0.55420983426E+02  0.65584052083E+02  0.55783335285E+02  0.10239401246E+03  0.00000000000E+00 0.  1.
         21    1    1    2  502  501 -0.62862487100E+02 -0.60454242826E+02 -0.26219469068E+03  0.27631949547E+03  0.00000000000E+00 0. -1.
<scales pt_clust_5="13000.00000" pt_clust_6="13000.00000" pt_clust_7="13000.00000" pt_clust_8="13000.00000" pt_clust_9="59.54493"></scales>
<clustering>
<clus scale="   79.254">  5  6 -1 -1</clus>
<clus scale="   85.691">  2  5  1 -1</clus>
<clus scale="   59.545">  2  9  1 -1</clus>
<clus scale="  108.671">  7  8 -1 -1</clus>
<clus scale="   85.691">  2  5  1 -1</clus>
</clustering>
</event>
<event>
 9    2  0.3791909E-005  0.1184858E+03  0.7546771E-02  0.1253093E+00
          2   -1    0    0  502    0  0.00000000000E+00  0.00000000000E+00  0.46091986567E+03  0.46091986567E+03  0.00000000000E+00 0. -1.
         -1   -1    0    0    0  501 -0.00000000000E+00 -0.00000000000E+00 -0.41500218709E+02  0.41500218709E+02  0.00000000000E+00 0.  1.
         23    2    1    2    0    0  0.62192099947E+02  0.32380750728E+02  0.96551441687E+02  0.15588897564E+03  0.10031361583E+03 0.  0.
         24    2    1    2    0    0 -0.38129034897E+02 -0.35797825479E+02  0.20606924007E+03  0.22723020442E+03  0.80210513559E+02 0.  0.
        -13    1    4    4    0    0  0.19054970141E+02 -0.89913535258E+01  0.14652249506E+02  0.25663685255E+02  0.00000000000E+00 0.  1.
         14    1    4    4    0    0 -0.57184005038E+02 -0.26806471953E+02  0.19141699056E+03  0.20156651916E+03  0.00000000000E+00 0. -1.
        -11    1    3    3    0    0  0.62641183915E+02  0.73235197531E+01  0.11048241287E+03  0.12721601872E+03  0.00000000000E+00 0. -1.
         11    1    3    3    0    0 -0.44908396737E+00  0.25057230975E+02 -0.13930971185E+02  0.28672956923E+02  0.00000000000E+00 0.  1.
         21    1    1    2  502  501 -0.24063065050E+02  0.34170747505E+01  0.11679896520E+03  0.11930090432E+03  0.00000000000E+00 0. -1.
<scales pt_clust_5="13000.00000" pt_clust_6="13000.00000" pt_clust_7="13000.00000" pt_clust_8="13000.00000" pt_clust_9="24.30447"></scales>
<clustering>
<clus scale="   24.304">  1  9  2 -1</clus>
<clus scale="   80.211">  5  6 -1 -1</clus>
<clus scale="  100.314">  7  8 -1 -1</clus>
<clus scale="  102.028">  1  5  2 -1</clus>
<clus scale="   24.304">  1  5  2 -1</clus>
</clustering>
</event>
<event>
 9    2  0.3791909E-005  0.9444543E+02  0.7546771E-02  0.1298764E+00
          2   -1    0    0  502    0  0.00000000000E+00  0.00000000000E+00  0.10628324139E+04  0.10628324139E+04  0.00000000000E+00 0. -1.
         -1   -1    0    0    0  501 -0.00000000000E+00 -0.00000000000E+00 -0.15795504180E+02  0.15795504180E+02  0.00000000000E+00 0.  1.
         23    2    1    2    0    0 -0.17923756203E+02  0.14173118725E+02  0.18736324212E+03  0.20918889162E+03  0.90182423729E+02 0.  0.
         24    2    1    2    0    0  0.50295133619E+02  0.82539992853E+00  0.58752890021E+03  0.59496564696E+03  0.79143102822E+02 0.  0.
        -11    1    4    4    0    0  0.53436944760E+02 -0.30306276227E+02  0.34502719735E+03  0.35045362654E+03  0.00000000000E+00 0.  1.
         12    1    4    4    0    0 -0.31418111414E+01  0.31131676155E+02  0.24250170286E+03  0.24451202042E+03  0.00000000000E+00 0. -1.
        -11    1    3    3    0    0 -0.33475868344E+02 -0.27184566725E+02  0.56559687503E+02  0.71124065406E+02  0.00000000000E+00 0.  1.
         11    1    3    3    0    0  0.15552112141E+02  0.41357685450E+02  0.13080355462E+03  0.13806482622E+03  0.00000000000E+00 0. -1.
         21    1    1    2  502  501 -0.32371377416E+02 -0.14998518654E+02  0.27214476740E+03  0.27447337951E+03  0.00000000000E+00 0.  1.
<scales pt_clust_5="13000.00000" pt_clust_6="13000.00000" pt_clust_7="13000.00000" pt_clust_8="13000.00000" pt_clust_9="35.67719"></scales>
<clustering>
<clus scale="   35.677">  1  9  2 -1</clus>
<clus scale="   79.143">  5  6 -1 -1</clus>
<clus scale="   83.968">  1  5  2 -1</clus>
<clus scale="   90.182">  7  8 -1 -1</clus>
<clus scale="   35.677">  1  5  2 -1</clus>
</clustering>
</event>
<event>
 9    2  0.3791909E-005  0.1404922E+03  0.7546771E-02  0.1216888E+00
          2   -1    0    0  502    0  0.00000000000E+00  0.00000000000E+00  0.22100933263E+03  0.22100933263E+03  0.00000000000E+00 0. -1.
         -1   -1    0    0    0  501 -0.00000000000E+00 -0.00000000000E+00 -0.24384966728E+03  0.24384966728E+03  0.00000000000E+00 0.  1.
         24    2    1    2    0    0 -0.54787467311E+02  0.82951290060E+02 -0.17942853351E+03  0.22029885662E+03  0.80339308541E+02 0.  0.
         23    2    1    2    0    0  0.89932800360E+02 -0.67700985595E+02  0.12310006240E+03  0.19367574976E+03  0.98414118148E+02 0.  0.
        -11    1    3    3    0    0 -0.35036668738E+02  0.95329135472E+02 -0.16195945276E+03  0.19117028159E+03  0.00000000000E+00 0.  1.
         12    1    3    3    0    0 -0.19750798572E+02 -0.12377845412E+02 -0.17469080750E+02  0.29128575035E+02  0.00000000000E+00 0. -1.
        -13    1    4    4    0    0  0.14456307206E+02 -0.54502159205E+02  0.97970172579E+02  0.11303815679E+03  0.00000000000E+00 0. -1.
         13    1    4    4    0    0  0.75476493153E+02 -0.13198826390E+02  0.25129889819E+02  0.80637592964E+02  0.00000000000E+00 0.  1.
         21    1    1    2  502  501 -0.35145333049E+02 -0.15250304466E+02  0.33488136459E+02  0.50884393530E+02  0.00000000000E+00 0. -1.
<scales pt_clust_5="13000.00000" pt_clust_6="13000.00000" pt_clust_7="13000.00000" pt_clust_8="13000.00000" pt_clust_9="38.31144"></scales>
<clustering>
<clus scale="   38.311">  1  9  2 -1</clus>
<clus scale="   80.339">  5  6 -1 -1</clus>
<clus scale="   98.414">  7  8 -1 -1</clus>
<clus scale="  128.480">  2  5  1 -1</clus>
<clus scale="   38.311">  1  5  2 -1</clus>
</clustering>
</event>
<event>
 9    2  0.3791909E-005  0.1283345E+03  0.7546771E-02  0.1244552E+00
          2   -1    0    0  502    0  0.00000000000E+00  0.00000000000E+00  0.45969303543E+03  0.45969303543E+03  0.00000000000E+00 0. -1.
         -1   -1    0    0    0  501 -0.00000000000E+00 -0.00000000000E+00 -0.11992489881E+03  0.11992489881E+03  0.00000000000E+00 0.  1.
         23    2    1    2    0    0 -0.80578413168E+01 -0.84218821874E+02 -0.44432694884E+02  0.13184224466E+03  0.90831571257E+02 0.  0.
         24    2    1    2    0    0 -0.30900642460E+02 -0.41009145497E+02  0.12378278003E+03  0.15619830911E+03  0.80244223591E+02 0.  0.
        -11    1    4    4    0    0 -0.40137921070E+02 -0.55629101769E+02  0.63474216182E+02  0.93459219938E+02  0.00000000000E+00 0.  1.
         12    1    4    4    0    0  0.92372786101E+01  0.14619956271E+02  0.60308563847E+02  0.62739089177E+02  0.00000000000E+00 0. -1.
        -11    1    3    3    0    0  0.34317984945E+02 -0.62769944237E+01 -0.18082805902E+02  0.39295198421E+02  0.00000000000E+00 0.  1.
         11    1    3    3    0    0 -0.42375826261E+02 -0.77941827450E+02 -0.26349888982E+02  0.92547046235E+02  0.00000000000E+00 0. -1.
         21    1    1    2  502  501  0.38958483776E+02  0.12522796737E+03  0.26041805147E+03  0.29157738047E+03  0.00000000000E+00 0. -1.
<scales pt_clust_5="13000.00000" pt_clust_6="13000.00000" pt_clust_7="13000.00000" pt_clust_8="13000.00000" pt_clust_9="90.66076"></scales>
<clustering>
<clus scale="   80.244">  5  6 -1 -1</clus>
<clus scale="   90.832">  7  8 -1 -1</clus>
<clus scale="   95.267">  1  5  2 -1</clus>
<clus scale="   90.661">  1  9  2 -1</clus>
<clus scale="   95.267">  1  5  2 -1</clus>
</clustering>
</event>
<event>
 9    2  0.3791909E-005  0.9729316E+02  0.7546771E-02  0.1292523E+00
         -1   -1    0    0    0  501 -0.00000000000E+00  0.00000000000E+00  0.12500466434E+03  0.12500466434E+03  0.00000000000E+00 0.  1.
          2   -1    0    0  502    0  0.00000000000E+00 -0.00000000000E+00 -0.25522037825E+03  0.25522037825E+03  0.00000000000E+00 0. -1.
         23    2    1    2    0    0 -0.29623346553E+02 -0.18216949697E+02  0.83253522333E+02  0.12737112479E+03  0.89904696937E+02 0.  0.
         24    2    1    2    0    0  0.30574665796E+02  0.45757126111E+02 -0.10890247814E+03  0.14471709139E+03  0.77812351316E+02 0.  0.
        -13    1    4    4    0    0  0.26217513646E+02 -0.17742526731E+02 -0.36389215083E+02  0.48232045892E+02  0.00000000000E+00 0.  1.
         14    1    4    4    0    0  0.43571521499E+01  0.63499652841E+02 -0.72513263061E+02  0.96485045502E+02  0.00000000000E+00 0. -1.
        -11    1    3    3    0    0 -0.79461367841E+01 -0.37157235286E+02  0.90097909950E+02  0.97782588436E+02  0.00000000000E+00 0.  1.
         11    1    3    3    0    0 -0.21677209769E+02  0.18940285589E+02 -0.68443876163E+01  0.29588536351E+02  0.00000000000E+00 0. -1.
         21    1    1    2  502  501 -0.95131924317E+00 -0.27540176414E+02 -0.10456675811E+03  0.10813682641E+03  0.00000000000E+00 0.  1.
<scales pt_clust_5="13000.00000" pt_clust_6="13000.00000" pt_clust_7="13000.00000" pt_clust_8="13000.00000" pt_clust_9="27.55660"></scales>
<clustering>
<clus scale="   27.557">  2  9  1 -1</clus>
<clus scale="   77.812">  5  6 -1 -1</clus>
<clus scale="   86.243">  2  5  1 -1</clus>
<clus scale="   89.905">  7  8 -1 -1</clus>
<clus scale="   27.557">  2  5  1 -1</clus>
</clustering>
</event>
<event>
 9    2  0.6060609E-005  0.2095004E+03  0.7546771E-02  0.1142885E+00
         -1   -1    0    0    0  501 -0.00000000000E+00  0.00000000000E+00  0.30952595347E+03  0.30952595347E+03  0.00000000000E+00 0.  1.
          2   -1    0    0  502    0  0.00000000000E+00 -0.00000000000E+00 -0.80191078521E+03  0.80191078521E+03  0.00000000000E+00 0. -1.
         23    2    1    2    0    0  0.12363474302E+03 -0.14316898038E+03  0.25422084304E+03  0.32980931190E+03  0.91449650402E+02 0.  0.
         24    2    1    2    0    0 -0.13649196305E+03  0.11445963879E+03 -0.68667266378E+03  0.71394064662E+03  0.80379318407E+02 0.  0.
        -13    1    4    4    0    0 -0.23721870743E+02  0.29578691874E+02 -0.55742512278E+02  0.67415531145E+02  0.00000000000E+00 0.  1.
         14    1    4    4    0    0 -0.11277009231E+03  0.84880946916E+02 -0.63093015150E+03  0.64652511547E+03  0.00000000000E+00 0. -1.
        -11    1    3    3    0    0  0.93321464206E+02 -0.89243085428E+02  0.22921790355E+03  0.26308567290E+03  0.00000000000E+00 0.  1.
         11    1    3    3    0    0  0.30313278817E+02 -0.53925894947E+02  0.25002939489E+02  0.66723639001E+02  0.00000000000E+00 0. -1.
         21    1    1    2  502  501  0.12857220029E+02  0.28709341585E+02 -0.59933010999E+02  0.67686780161E+02  0.00000000000E+00 0.  1.
<scales pt_clust_5="13000.00000" pt_clust_6="13000.00000" pt_clust_7="13000.00000" pt_clust_8="13000.00000" pt_clust_9="31.45687"></scales>
<clustering>
<clus scale="   31.457">  2  9  1 -1</clus>
<clus scale="   80.379">  5  6 -1 -1</clus>
<clus scale="   91.450">  7  8 -1 -1</clus>
<clus scale="  204.910">  2  5  1 -1</clus>
<clus scale="   31.457">  2  5  1 -1</clus>
</clustering>
</event>
<event>
 9    2  0.4293093E-005  0.1728182E+03  0.7546771E-02  0.1177227E+00
         -1   -1    0    0    0  501 -0.00000000000E+00  0.00000000000E+00  0.43783559596E+03  0.43783559596E+03  0.00000000000E+00 0.  1.
          2   -1    0    0  502    0  0.00000000000E+00 -0.00000000000E+00 -0.37261964295E+03  0.37261964295E+03  0.00000000000E+00 0. -1.
         23    2    1    2    0    0 -0.10051955388E+03  0.10394314986E+03  0.38654805461E+03  0.42294877193E+03  0.92508951127E+02 0.  0.
         24    2    1    2    0    0  0.12196842093E+03 -0.11955407152E+03 -0.30090086829E+03  0.35402229061E+03  0.74973181788E+02 0.  0.
        -13    1    4    4    0    0 -0.28716712273E+01 -0.22408985210E+02 -0.74386894990E+02  0.77742004477E+02  0.00000000000E+00 0.  1.
         14    1    4    4    0    0  0.12484009216E+03 -0.97145086307E+02 -0.22651397330E+03  0.27628028613E+03  0.00000000000E+00 0. -1.
        -13    1    3    3    0    0 -0.59175819228E+02  0.32917266561E+02  0.28173330865E+03  0.28975676217E+03  0.00000000000E+00 0.  1.
         13    1    3    3    0    0 -0.41343734652E+02  0.71025883304E+02  0.10481474596E+03  0.13319200977E+03  0.00000000000E+00 0. -1.
         21    1    1    2  502  501 -0.21448867049E+02  0.15610921653E+02 -0.20431233313E+02  0.33484176371E+02  0.00000000000E+00 0. -1.
<scales pt_clust_5="13000.00000" pt_clust_6="13000.00000" pt_clust_7="13000.00000" pt_clust_8="13000.00000" pt_clust_9="26.52838"></scales>
<clustering>
<clus scale="   26.528">  2  9  1 -1</clus>
<clus scale="   74.973">  5  6 -1 -1</clus>
<clus scale="   92.509">  7  8 -1 -1</clus>
<clus scale="  164.101">  2  5  1 -1</clus>
<clus scale="   26.528">  2  5  1 -1</clus>
</clustering>
</event>
<event>
 9    2  0.3791909E-005  0.1166763E+03  0.7546771E-02  0.1254649E+00
          2   -1    0    0  502    0  0.00000000000E+00  0.00000000000E+00  0.26811654750E+03  0.26811654750E+03  0.00000000000E+00 0. -1.
         -1   -1    0    0    0  501 -0.00000000000E+00 -0.00000000000E+00 -0.64334408878E+02  0.64334408878E+02  0.00000000000E+00 0.  1.
         23    2    1    2    0    0 -0.62710439858E+02 -0.42602011068E+01  0.77183778677E+02  0.13500113250E+03  0.91198802103E+02 0.  0.
         24    2    1    2    0    0  0.73662445525E+02  0.38672536188E+02  0.11392652666E+03  0.15917802495E+03  0.73733772552E+02 0.  0.
        -11    1    4    4    0    0  0.58851223434E+02  0.50027888711E+02  0.48649539371E+02  0.91285452453E+02  0.00000000000E+00 0.  1.
         12    1    4    4    0    0  0.14811222091E+02 -0.11355352523E+02  0.65276987294E+02  0.67892572502E+02  0.00000000000E+00 0. -1.
        -11    1    3    3    0    0 -0.22059634781E+01 -0.27664865691E+02  0.62646803591E+02  0.68518851922E+02  0.00000000000E+00 0. -1.
         11    1    3    3    0    0 -0.60504476380E+02  0.23404664584E+02  0.14536975087E+02  0.66482280579E+02  0.00000000000E+00 0.  1.
         21    1    1    2  502  501 -0.10952005667E+02 -0.34412335082E+02  0.12671833278E+02  0.38271798919E+02  0.00000000000E+00 0.  1.
<scales pt_clust_5="13000.00000" pt_clust_6="13000.00000" pt_clust_7="13000.00000" pt_clust_8="13000.00000" pt_clust_9="36.11309"></scales>
<clustering>
<clus scale="   36.113">  2  9  1 -1</clus>
<clus scale="   73.734">  5  6 -1 -1</clus>
<clus scale="   91.199">  7  8 -1 -1</clus>
<clus scale="  103.599">  1  5  2 -1</clus>
<clus scale="  103.599">  1  5  2 -1</clus>
</clustering>
</event>
<event>
 9    2  0.3791909E-005  0.1468585E+03  0.7546771E-02  0.1230959E+00
          2   -1    0    0  502    0  0.00000000000E+00  0.00000000000E+00  0.84029862744E+03  0.84029862744E+03  0.00000000000E+00 0. -1.
         -1   -1    0    0    0  501 -0.00000000000E+00 -0.00000000000E+00 -0.66996629379E+02  0.66996629379E+02  0.00000000000E+00 0.  1.
         23    2    1    2    0    0 -0.11216803616E+03  0.43206501700E+02  0.46328810669E+02  0.15763586671E+03  0.90852835124E+02 0.  0.
         24    2    1    2    0    0  0.20895368773E+02 -0.67642824486E+01  0.37155334636E+03  0.38090201925E+03  0.80944963584E+02 0.  0.
        -13    1    4    4    0    0 -0.90302063029E+01  0.24989656615E+02  0.52119258398E+02  0.58501663733E+02  0.00000000000E+00 0.  1.
         14    1    4    4    0    0  0.29925575076E+02 -0.31753939064E+02  0.31943408796E+03  0.32240035552E+03  0.00000000000E+00 0. -1.
        -13    1    3    3    0    0 -0.30029932082E+02  0.59541195223E+02  0.16107846484E+02  0.68603305079E+02  0.00000000000E+00 0. -1.
         13    1    3    3    0    0 -0.82138104081E+02 -0.16334693523E+02  0.30220964185E+02  0.89032561633E+02  0.00000000000E+00 0.  1.
         21    1    1    2  502  501  0.91272667390E+02 -0.36442219251E+02  0.35541984103E+03  0.36875737085E+03  0.00000000000E+00 0. -1.
<scales pt_clust_5="13000.00000" pt_clust_6="13000.00000" pt_clust_7="13000.00000" pt_clust_8="13000.00000" pt_clust_9="115.38279"></scales>
<clustering>
<clus scale="   80.945">  5  6 -1 -1</clus>
<clus scale="   83.872">  1  5  2 -1</clus>
<clus scale="   90.853">  7  8 -1 -1</clus>
<clus scale="  115.383">  1  9  2 -1</clus>
<clus scale="   83.872">  1  5  2 -1</clus>
</clustering>
</event>
<event>
 9    2  0.3791909E-005  0.1565153E+03  0.7546771E-02  0.1215297E+00
          2   -1    0    0  502    0  0.00000000000E+00  0.00000000000E+00  0.24407390588E+03  0.24407390588E+03  0.00000000000E+00 0. -1.
         -1   -1    0    0    0  501 -0.00000000000E+00 -0.00000000000E+00 -0.23132299815E+03  0.23132299815E+03  0.00000000000E+00 0.  1.
         23    2    1    2    0    0 -0.33050869783E+02 -0.17726212109E+01 -0.54742760965E+01  0.96255817566E+02  0.90220355448E+02 0.  0.
         24    2    1    2    0    0 -0.16531922763E+02  0.12648215529E+03 -0.11443387128E+03  0.19043669831E+03  0.83066148868E+02 0.  0.
        -13    1    4    4    0    0 -0.26899491806E+02  0.12350246359E+03 -0.12322242687E+03  0.17652254150E+03  0.00000000000E+00 0.  1.
         14    1    4    4    0    0  0.10367569043E+02  0.29796916979E+01  0.87885555851E+01  0.13914156810E+02  0.00000000000E+00 0. -1.
        -13    1    3    3    0    0  0.25028973074E+02 -0.10475511626E+02 -0.22348199952E+02  0.35151498945E+02  0.00000000000E+00 0.  1.
         13    1    3    3    0    0 -0.58079842857E+02  0.87028904147E+01  0.16873923855E+02  0.61104318621E+02  0.00000000000E+00 0. -1.
         21    1    1    2  502  501  0.49582792546E+02 -0.12470953408E+03  0.13265905511E+03  0.18870438816E+03  0.00000000000E+00 0. -1.
<scales pt_clust_5="13000.00000" pt_clust_6="13000.00000" pt_clust_7="13000.00000" pt_clust_8="13000.00000" pt_clust_9="132.65384"></scales>
<clustering>
<clus scale="   83.066">  5  6 -1 -1</clus>
<clus scale="   90.220">  7  8 -1 -1</clus>
<clus scale="   96.100">  2  7  1 -1</clus>
<clus scale="  132.654">  1  9  2 -1</clus>
<clus scale="  132.654">  1  5  2 -1</clus>
</clustering>
</event>
<event>
 9    2  0.3791909E-005  0.1436651E+03  0.7546771E-02  0.1212984E+00
          2   -1    0    0  502    0  0.00000000000E+00  0.00000000000E+00  0.63220350714E+03  0.63220350714E+03  0.00000000000E+00 0. -1.
         -1   -1    0    0    0  501 -0.00000000000E+00 -0.00000000000E+00 -0.59758491085E+02  0.59758491085E+02  0.00000000000E+00 0.  1.
         23    2    1    2    0    0  0.81040480500E+02  0.72854758541E+02  0.56743833456E+02  0.15736583957E+03  0.98329901394E+02 0.  0.
         24    2    1    2    0    0 -0.67744350049E+02 -0.57248137639E+02  0.39824834057E+03  0.41536728714E+03  0.77856253651E+02 0.  0.
        -13    1    4    4    0    0 -0.13035782510E+02 -0.56870217657E+02  0.14543439111E+03  0.15670135737E+03  0.00000000000E+00 0.  1.
         14    1    4    4    0    0 -0.54708567539E+02 -0.37791998198E+00  0.25281394945E+03  0.25866592977E+03  0.00000000000E+00 0. -1.
        -13    1    3    3    0    0  0.80430223391E+02  0.95060827727E+02  0.49513173912E+02  0.13400423946E+03  0.00000000000E+00 0.  1.
         13    1    3    3    0    0  0.61025710903E+00 -0.22206069186E+02  0.72306595440E+01  0.23361600113E+02  0.00000000000E+00 0. -1.
         21    1    1    2  502  501 -0.13296130451E+02 -0.15606620902E+02  0.11745284203E+03  0.11922887151E+03  0.00000000000E+00 0.  1.
<scales pt_clust_5="13000.00000" pt_clust_6="13000.00000" pt_clust_7="13000.00000" pt_clust_8="13000.00000" pt_clust_9="20.50253"></scales>
<clustering>
<clus scale="   20.503">  1  9  2 -1</clus>
<clus scale="   77.856">  5  6 -1 -1</clus>
<clus scale="   98.330">  7  8 -1 -1</clus>
<clus scale="  130.509">  1  5  2 -1</clus>
<clus scale="   20.503">  1  5  2 -1</clus>
</clustering>
</event>
<event>
 9    2  0.3791909E-005  0.2370833E+03  0.7546771E-02  0.1157702E+00
         -1   -1    0    0    0  501 -0.00000000000E+00  0.00000000000E+00  0.10631256853E+04  0.10631256853E+04  0.00000000000E+00 0.  1.
          2   -1    0    0  502    0  0.00000000000E+00 -0.00000000000E+00 -0.86553136385E+03  0.86553136385E+03  0.00000000000E+00 0. -1.
         24    2    1    2    0    0 -0.21996943356E+03  0.32434914715E+02  0.98899490411E+03  0.10168513233E+04  0.80231651325E+02 0.  0.
         23    2    1    2    0    0 -0.40675771118E+02  0.18269428163E+02 -0.27795241901E+02  0.10335042754E+03  0.88996882187E+02 0.  0.
        -13    1    3    3    0    0 -0.50271019020E+02  0.39682139324E+02  0.34118353327E+03  0.34714269531E+03  0.00000000000E+00 0.  1.
         14    1    3    3    0    0 -0.16969841454E+03 -0.72472246087E+01  0.64781137084E+03  0.66970862795E+03  0.00000000000E+00 0. -1.
        -13    1    4    4    0    0  0.26556024431E+02  0.13670832846E+02 -0.18977054678E+02  0.35387041534E+02  0.00000000000E+00 0. -1.
         13    1    4    4    0    0 -0.67231795549E+02  0.45985953166E+01 -0.88181872228E+01  0.67963386007E+02  0.00000000000E+00 0.  1.
         21    1    1    2  502  501  0.26064520468E+03 -0.50704342878E+02 -0.76360534072E+03  0.80845529839E+03  0.00000000000E+00 0. -1.
<scales pt_clust_5="13000.00000" pt_clust_6="13000.00000" pt_clust_7="13000.00000" pt_clust_8="13000.00000" pt_clust_9="223.09501"></scales>
<clustering>
<clus scale="   80.232">  5  6 -1 -1</clus>
<clus scale="   88.997">  7  8 -1 -1</clus>
<clus scale="   99.543">  2  7  1 -1</clus>
<clus scale="  223.095">  2  9  1 -1</clus>
<clus scale="   99.543">  2  5  1 -1</clus>
</clustering>
</event>
<event>
 9    2  0.3791909E-005  0.1047452E+03  0.7546771E-02  0.1276111E+00
         -1   -1    0    0    0  501 -0.00000000000E+00  0.00000000000E+00  0.16158743031E+03  0.16158743031E+03  0.00000000000E+00 0.  1.
          2   -1    0    0  502    0  0.00000000000E+00 -0.00000000000E+00 -0.12851358926E+03  0.12851358926E+03  0.00000000000E+00 0. -1.
         23    2    1    2    0    0 -0.28723637556E+02 -0.41142339431E+02  0.75108606455E+02  0.12967253526E+03  0.93037219368E+02 0.  0.
         24    2    1    2    0    0  0.60578095432E+02  0.10339926433E+01 -0.14324290191E+02  0.10219398935E+03  0.81041047513E+02 0.  0.
        -13    1    4    4    0    0  0.14280031786E+02  0.33315999887E+02 -0.25935644125E+02  0.44570537269E+02  0.00000000000E+00 0.  1.
         14    1    4    4    0    0  0.46298063646E+02 -0.32282007244E+02  0.11611353934E+02  0.57623452076E+02  0.00000000000E+00 0. -1.
        -11    1    3    3    0    0 -0.30364867496E+02 -0.69150758627E+02  0.65637329875E+02  0.10006054002E+03  0.00000000000E+00 0.  1.
         11    1    3    3    0    0  0.16412299405E+01  0.28008419196E+02  0.94712765791E+01  0.29611995231E+02  0.00000000000E+00 0. -1.
         21    1    1    2  502  501 -0.31854457876E+02  0.40108346788E+02 -0.27710475214E+02  0.58234494977E+02  0.00000000000E+00 0. -1.
<scales pt_clust_5="13000.00000" pt_clust_6="13000.00000" pt_clust_7="13000.00000" pt_clust_8="13000.00000" pt_clust_9="51.21900"></scales>
<clustering>
<clus scale="   51.219">  2  9  1 -1</clus>
<clus scale="   81.041">  5  6 -1 -1</clus>
<clus scale="   93.037">  7  8 -1 -1</clus>
<clus scale="   94.251">  2  5  1 -1</clus>
<clus scale="   51.219">  2  5  1 -1</clus>
</clustering>
</event>
<event>
 9    2  0.3791909E-005  0.1416576E+03  0.7546771E-02  0.1235028E+00
          4   -1    0    0  502    0  0.00000000000E+00  0.00000000000E+00  0.71546943821E+03  0.71546943821E+03  0.00000000000E+00 0. -1.
         -3   -1    0    0    0  501 -0.00000000000E+00 -0.00000000000E+00 -0.19982292704E+03  0.19982292704E+03  0.00000000000E+00 0.  1.
         24    2    1    2    0    0  0.11346300069E+03 -0.38529779329E+02 -0.15843982726E+03  0.21452282238E+03  0.80984356735E+02 0.  0.
         23    2    1    2    0    0 -0.28954581757E+02  0.98742968223E+01  0.47336620846E+03  0.48110757501E+03  0.80330952181E+02 0.  0.
        -11    1    3    3    0    0  0.97491053941E+02 -0.62511980282E+02 -0.12650853193E+03  0.17151286228E+03  0.00000000000E+00 0.  1.
         12    1    3    3    0    0  0.15971946753E+02  0.23982200953E+02 -0.31931295332E+02  0.43009960093E+02  0.00000000000E+00 0. -1.
        -13    1    4    4    0    0 -0.15507963109E+02  0.45301548047E+02  0.27971826700E+03  0.28378695543E+03  0.00000000000E+00 0. -1.
         13    1    4    4    0    0 -0.13446618648E+02 -0.35427251224E+02  0.19364794146E+03  0.19732061959E+03  0.00000000000E+00 0.  1.
         21    1    1    2  502  501 -0.84508418938E+02  0.28655482507E+02  0.20072012997E+03  0.21966196786E+03  0.00000000000E+00 0.  1.
<scales pt_clust_5="13000.00000" pt_clust_6="13000.00000" pt_clust_7="13000.00000" pt_clust_8="13000.00000" pt_clust_9="116.22566"></scales>
<clustering>
<clus scale="   80.331">  7  8 -1 -1</clus>
<clus scale="   80.984">  5  6 -1 -1</clus>
<clus scale="   85.959">  1  7  2 -1</clus>
<clus scale="  116.226">  1  9  2 -1</clus>
<clus scale="   85.959">  1  5  2 -1</clus>
</clustering>
</event>
<event>
 9    2  0.3791909E-005  0.1233103E+03  0.7546771E-02  0.1241830E+00
         -1   -1    0    0    0  501 -0.00000000000E+00  0.00000000000E+00  0.70820561372E+02  0.70820561372E+02  0.00000000000E+00 0.  1.
          2   -1    0    0  502    0  0.00000000000E+00 -0.00000000000E+00 -0.36021138648E+03  0.36021138648E+03  0.00000000000E+00 0. -1.
         23    2    1    2    0    0 -0.78045642300E+02  0.64543539326E+01 -0.16459973388E+02  0.12309255147E+03  0.93531088609E+02 0.  0.
         24    2    1    2    0    0  0.84526817243E+02 -0.25993361353E+02 -0.20765983201E+03  0.23949902487E+03  0.80104553012E+02 0.  0.
        -11    1    4    4    0    0  0.29564254429E+02  0.26636877954E+02 -0.45999809285E+02  0.60823933293E+02  0.00000000000E+00 0.  1.
         12    1    4    4    0    0  0.54962562814E+02 -0.52630239306E+02 -0.16166002273E+03  0.17867509157E+03  0.00000000000E+00 0. -1.
        -11    1    3    3    0    0 -0.29686083260E+02  0.43963523240E+02  0.13808524414E+02  0.54815419925E+02  0.00000000000E+00 0.  1.
         11    1    3    3    0    0 -0.48359559040E+02 -0.37509169308E+02 -0.30268497802E+02  0.68277131544E+02  0.00000000000E+00 0. -1.
         21    1    1    2  502  501 -0.64811749431E+01  0.19539007420E+02 -0.65271019708E+02  0.68440371517E+02  0.00000000000E+00 0. -1.
<scales pt_clust_5="13000.00000" pt_clust_6="13000.00000" pt_clust_7="13000.00000" pt_clust_8="13000.00000" pt_clust_9="20.58588"></scales>
<clustering>
<clus scale="   20.586">  2  9  1 -1</clus>
<clus scale="   80.105">  5  6 -1 -1</clus>
<clus scale="   93.531">  7  8 -1 -1</clus>
<clus scale="  113.464">  2  5  1 -1</clus>
<clus scale="   20.586">  2  5  1 -1</clus>
</clustering>
</event>
<event>
 9    2  0.3791909E-005  0.9814907E+02  0.7546771E-02  0.1290041E+00
         -3   -1    0    0    0  501 -0.00000000000E+00  0.00000000000E+00  0.17531416146E+03  0.17531416146E+03  0.00000000000E+00 0.  1.
          4   -1    0    0  502    0  0.00000000000E+00 -0.00000000000E+00 -0.11237832225E+03  0.11237832225E+03  0.00000000000E+00 0. -1.
         23    2    1    2    0    0 -0.44515669432E+02 -0.29403737324E+01  0.13017139140E+03  0.16408216312E+03  0.89376028611E+02 0.  0.
         24    2    1    2    0    0  0.23736388591E+02 -0.25568881355E+01 -0.47724284153E+02  0.94581232066E+02  0.78090001542E+02 0.  0.
        -13    1    4    4    0    0  0.14503014238E+02 -0.21103122803E+02  0.14202212180E+02  0.29281086811E+02  0.00000000000E+00 0.  1.
         14    1    4    4    0    0  0.92333743536E+01  0.18546234667E+02 -0.61926496333E+02  0.65300145255E+02  0.00000000000E+00 0. -1.
        -13    1    3    3    0    0 -0.62074461286E+02  0.83576168707E+01  0.12872266273E+03  0.14315240971E+03  0.00000000000E+00 0.  1.
         13    1    3    3    0    0  0.17558791854E+02 -0.11297990603E+02  0.14487286711E+01  0.20929753410E+02  0.00000000000E+00 0. -1.
         21    1    1    2  502  501  0.20779280840E+02  0.54972618680E+01 -0.19511268039E+02  0.29029088528E+02  0.00000000000E+00 0. -1.
<scales pt_clust_5="13000.00000" pt_clust_6="13000.00000" pt_clust_7="13000.00000" pt_clust_8="13000.00000" pt_clust_9="21.49415"></scales>
<clustering>
<clus scale="   21.494">  2  9  1 -1</clus>
<clus scale="   78.090">  5  6 -1 -1</clus>
<clus scale="   87.996">  2  5  1 -1</clus>
<clus scale="   89.376">  7  8 -1 -1</clus>
<clus scale="   21.494">  2  5  1 -1</clus>
</clustering>
</event>
<event>
 9    2  0.3791909E-005  0.8944877E+02  0.7546771E-02  0.1308555E+00
          2   -1    0    0  502    0  0.00000000000E+00  0.00000000000E+00  0.70100825553E+03  0.70100825553E+03  0.00000000000E+00 0. -1.
         -1   -1    0    0    0  501 -0.00000000000E+00 -0.00000000000E+00 -0.23519324700E+02  0.23519324700E+02  0.00000000000E+00 0.  1.
         23    2    1    2    0    0  0.42821368785E+01  0.22375818832E+01  0.12084049337E+03  0.14962729048E+03  0.88105378678E+02 0.  0.
         24    2    1    2    0    0 -0.47646313310E+02  0.17126193900E+02  0.39540435852E+03  0.40680787289E+03  0.81145308048E+02 0.  0.
        -11    1    4    4    0    0 -0.68628587440E+02  0.20171794802E+01  0.31302064682E+03  0.32046197491E+03  0.00000000000E+00 0.  1.
         12    1    4    4    0    0  0.20982274130E+02  0.15109014420E+02  0.82383711693E+02  0.86345897973E+02  0.00000000000E+00 0. -1.
        -11    1    3    3    0    0 -0.21046946333E+02  0.91003489991E+01  0.12123256487E+03  0.12338202903E+03  0.00000000000E+00 0.  1.
         11    1    3    3    0    0  0.25329083211E+02 -0.68627671159E+01 -0.39207150631E+00  0.26245261456E+02  0.00000000000E+00 0. -1.
         21    1    1    2  502  501  0.43364176431E+02 -0.19363775783E+02  0.16124407894E+03  0.16809241686E+03  0.00000000000E+00 0. -1.
<scales pt_clust_5="13000.00000" pt_clust_6="13000.00000" pt_clust_7="13000.00000" pt_clust_8="13000.00000" pt_clust_9="47.49113"></scales>
<clustering>
<clus scale="   47.491">  1  9  2 -1</clus>
<clus scale="   81.145">  5  6 -1 -1</clus>
<clus scale="   82.602">  1  5  2 -1</clus>
<clus scale="   88.105">  7  8 -1 -1</clus>
<clus scale="   47.491">  1  5  2 -1</clus>
</clustering>
</event>
<event>
 9    2  0.3791909E-005  0.1041810E+03  0.7546771E-02  0.1275701E+00
          2   -1    0    0  502    0  0.00000000000E+00  0.00000000000E+00  0.26461516900E+03  0.26461516900E+03  0.00000000000E+00 0. -1.
         -1   -1    0    0    0  501 -0.00000000000E+00 -0.00000000000E+00 -0.20594065959E+03  0.20594065959E+03  0.00000000000E+00 0.  1.
         23    2    1    2    0    0  0.37725804038E+02 -0.30000002619E+02 -0.15781905591E+03  0.18852654737E+03  0.91171093043E+02 0.  0.
         24    2    1    2    0    0 -0.82285802098E+02  0.27308694800E+02  0.20264435211E+03  0.23528917777E+03  0.82337996684E+02 0.  0.
        -13    1    4    4    0    0 -0.81163430505E+02  0.23420941447E+02  0.93264321602E+02  0.12583432216E+03  0.00000000000E+00 0.  1.
         14    1    4    4    0    0 -0.11223715926E+01  0.38877533529E+01  0.10938003050E+03  0.10945485561E+03  0.00000000000E+00 0. -1.
        -13    1    3    3    0    0  0.29698243601E+02  0.29105063795E+02 -0.47617621716E+02  0.63218101121E+02  0.00000000000E+00 0.  1.
         13    1    3    3    0    0  0.80275604378E+01 -0.59105066414E+02 -0.11020143419E+03  0.12530844625E+03  0.00000000000E+00 0. -1.
         21    1    1    2  502  501  0.44559998059E+02  0.26913078187E+01  0.13849213212E+02  0.46740103460E+02  0.00000000000E+00 0.  1.
<scales pt_clust_5="13000.00000" pt_clust_6="13000.00000" pt_clust_7="13000.00000" pt_clust_8="13000.00000" pt_clust_9="44.64120"></scales>
<clustering>
<clus scale="   44.641">  1  9  2 -1</clus>
<clus scale="   82.338">  5  6 -1 -1</clus>
<clus scale="   91.171">  7  8 -1 -1</clus>
<clus scale="   96.546">  1  5  2 -1</clus>
<clus scale="   44.641">  1  5  2 -1</clus>
</clustering>
</event>
<event>
 9    2  0.3791909E-005  0.1611257E+03  0.7546771E-02  0.1193121E+00
          2   -1    0    0  502    0  0.00000000000E+00  0.00000000000E+00  0.29789105507E+03  0.29789105507E+03  0.00000000000E+00 0. -1.
         -1   -1    0    0    0  501 -0.00000000000E+00 -0.00000000000E+00 -0.28203989786E+03  0.28203989786E+03  0.00000000000E+00 0.  1.
         23    2    1    2    0    0  0.84122155517E+02 -0.88531990688E+02 -0.14804975825E+03  0.21813667438E+03  0.10368426771E+03 0.  0.
         24    2    1    2    0    0 -0.85416955207E+02 -0.78821796475E+02  0.24958604051E+02  0.14427661839E+03  0.81754992885E+02 0.  0.
        -13    1    4    4    0    0 -0.42657026747E+02  0.60040584622E+01 -0.78297272565E+01  0.43783276235E+02  0.00000000000E+00 0.  1.
         14    1    4    4    0    0 -0.42759928460E+02 -0.84825854937E+02  0.32788331307E+02  0.10049334216E+03  0.00000000000E+00 0. -1.
        -13    1    3    3    0    0  0.26225023775E+02 -0.81834491495E+02 -0.13230666774E+03  0.15776466714E+03  0.00000000000E+00 0.  1.
         13    1    3    3    0    0  0.57897131742E+02 -0.66974991929E+01 -0.15743090507E+02  0.60372007239E+02  0.00000000000E+00 0. -1.
         21    1    1    2  502  501  0.12947996899E+01  0.16735378716E+03  0.13894231140E+03  0.21751766016E+03  0.00000000000E+00 0. -1.
<scales pt_clust_5="13000.00000" pt_clust_6="13000.00000" pt_clust_7="13000.00000" pt_clust_8="13000.00000" pt_clust_9="123.33320"></scales>
<clustering>
<clus scale="   81.755">  5  6 -1 -1</clus>
<clus scale="  103.684">  7  8 -1 -1</clus>
<clus scale="  142.101">  1  5  2 -1</clus>
<clus scale="  123.333">  1  9  2 -1</clus>
<clus scale="  142.101">  1  5  2 -1</clus>
</clustering>
</event>
<event>
 9    2  0.3791909E-005  0.1213666E+03  0.7546771E-02  0.1244691E+00
         -1   -1    0    0    0  501 -0.00000000000E+00  0.00000000000E+00  0.37457631112E+03  0.37457631112E+03  0.00000000000E+00 0.  1.
          2   -1    0    0  502    0  0.00000000000E+00 -0.00000000000E+00 -0.62736519991E+03  0.62736519991E+03  0.00000000000E+00 0. -1.
         24    2    1    2    0    0 -0.64404478432E+02 -0.43658361986E+02  0.35553960885E+03  0.37278340959E+03  0.80653999232E+02 0.  0.
         23    2    1    2    0    0  0.86362814098E+02  0.48659413072E+02 -0.47893229001E+03  0.49781672347E+03  0.92838987600E+02 0.  0.
        -13    1    3    3    0    0 -0.62499993742E+02 -0.64911690556E+02  0.27081220276E+03  0.28541027653E+03  0.00000000000E+00 0.  1.
         14    1    3    3    0    0 -0.19044846901E+01  0.21253328570E+02  0.84727406091E+02  0.87373133057E+02  0.00000000000E+00 0. -1.
        -11    1    4    4    0    0  0.67370455174E+02 -0.13551629554E+02 -0.20279757220E+03  0.21412445022E+03  0.00000000000E+00 0. -1.
         11    1    4    4    0    0  0.18992358924E+02  0.62211042626E+02 -0.27613471781E+03  0.28369227325E+03  0.00000000000E+00 0.  1.
         21    1    1    2  502  501 -0.21958335666E+02 -0.50010510864E+01 -0.12939620763E+03  0.13134137797E+03  0.00000000000E+00 0. -1.
<scales pt_clust_5="13000.00000" pt_clust_6="13000.00000" pt_clust_7="13000.00000" pt_clust_8="13000.00000" pt_clust_9="22.52064"></scales>
<clustering>
<clus scale="   22.521">  2  9  1 -1</clus>
<clus scale="   80.654">  5  6 -1 -1</clus>
<clus scale="   92.839">  7  8 -1 -1</clus>
<clus scale="  112.320">  1  5  2 -1</clus>
<clus scale="   22.521">  2  5  1 -1</clus>
</clustering>
</event>
<event>
 9    2  0.3791909E-005  0.1339992E+03  0.7546771E-02  0.1239897E+00
          2   -1    0    0  502    0  0.00000000000E+00  0.00000000000E+00  0.37678594464E+03  0.37678594464E+03  0.00000000000E+00 0. -1.
         -1   -1    0    0    0  501 -0.00000000000E+00 -0.00000000000E+00 -0.75655483536E+02  0.75655483536E+02  0.00000000000E+00 0.  1.
         23    2    1    2    0    0  0.50240376428E+01 -0.16824897321E+02  0.63578549390E+02  0.11179398268E+03  0.90262641756E+02 0.  0.
         24    2    1    2    0    0 -0.12849120642E+02 -0.98612074008E+02  0.13723985447E+03  0.18751536165E+03  0.80235853332E+02 0.  0.
        -11    1    4    4    0    0  0.33161302286E+02 -0.30818337508E+02  0.57529085955E+02  0.73205448069E+02  0.00000000000E+00 0.  1.
         12    1    4    4    0    0 -0.46010422929E+02 -0.67793736500E+02  0.79710768514E+02  0.11430991358E+03  0.00000000000E+00 0. -1.
        -13    1    3    3    0    0 -0.38449855820E+02 -0.77757582099E+00  0.50815161643E+02  0.63727362173E+02  0.00000000000E+00 0.  1.
         13    1    3    3    0    0  0.43473893463E+02 -0.16047321500E+02  0.12763387747E+02  0.48066620507E+02  0.00000000000E+00 0. -1.
         21    1    1    2  502  501  0.78250829994E+01  0.11543697133E+03  0.10031205725E+03  0.15313208384E+03  0.00000000000E+00 0. -1.
<scales pt_clust_5="13000.00000" pt_clust_6="13000.00000" pt_clust_7="13000.00000" pt_clust_8="13000.00000" pt_clust_9="107.32190"></scales>
<clustering>
<clus scale="   80.236">  5  6 -1 -1</clus>
<clus scale="   90.263">  7  8 -1 -1</clus>
<clus scale="   91.955">  2  7  1 -1</clus>
<clus scale="  107.322">  2  9  1 -1</clus>
<clus scale="  133.999">  1  5  2 -1</clus>
</clustering>
</event>
<event>
 9    2  0.3791909E-005  0.1078567E+03  0.7546771E-02  0.1271279E+00
          2   -1    0    0  502    0  0.00000000000E+00  0.00000000000E+00  0.37129690552E+03  0.37129690552E+03  0.00000000000E+00 0. -1.
         -1   -1    0    0    0  501 -0.00000000000E+00 -0.00000000000E+00 -0.58763154757E+02  0.58763154757E+02  0.00000000000E+00 0.  1.
         24    2    1    2    0    0 -0.35000818934E+02 -0.11836954303E+02 -0.79420046840E+00  0.85745834159E+02  0.77372776272E+02 0.  0.
         23    2    1    2    0    0  0.58748812287E+02  0.53103316270E+01  0.29074708931E+03  0.31090076600E+03  0.92982760715E+02 0.  0.
        -11    1    3    3    0    0 -0.28524945364E+02 -0.92413112505E+01 -0.37709190116E+02  0.48177353195E+02  0.00000000000E+00 0.  1.
         12    1    3    3    0    0 -0.64758735694E+01 -0.25956430530E+01  0.36914989647E+02  0.37568480965E+02  0.00000000000E+00 0. -1.
        -13    1    4    4    0    0 -0.16368612702E+02  0.23167099057E+02  0.12313312772E+03  0.12635827279E+03  0.00000000000E+00 0.  1.
         13    1    4    4    0    0  0.75117424989E+02 -0.17856767430E+02  0.16761396159E+03  0.18454249321E+03  0.00000000000E+00 0. -1.
         21    1    1    2  502  501 -0.23747993354E+02  0.65266226765E+01  0.22580861921E+02  0.33413460117E+02  0.00000000000E+00 0.  1.
<scales pt_clust_5="13000.00000" pt_clust_6="13000.00000" pt_clust_7="13000.00000" pt_clust_8="13000.00000" pt_clust_9="24.62852"></scales>
<clustering>
<clus scale="   24.629">  2  9  1 -1</clus>
<clus scale="   77.373">  5  6 -1 -1</clus>
<clus scale="   92.983">  7  8 -1 -1</clus>
<clus scale="   94.730">  2  5  1 -1</clus>
<clus scale="  107.857">  1  5  2 -1</clus>
</clustering>
</event>
<event>
 9    2  0.3791909E-005  0.1200920E+03  0.7546771E-02  0.1246565E+00
         -1   -1    0    0    0  501 -0.00000000000E+00  0.00000000000E+00  0.40282477247E+02  0.40282477247E+02  0.00000000000E+00 0.  1.
          2   -1    0    0  502    0  0.00000000000E+00 -0.00000000000E+00 -0.82671176276E+03  0.82671176276E+03  0.00000000000E+00 0. -1.
         23    2    1    2    0    0 -0.42419533777E+02 -0.60462906062E+02 -0.10439509363E+03  0.15732971058E+03  0.91646726079E+02 0.  0.
         24    2    1    2    0    0  0.12465534864E+01  0.99788321447E+02 -0.34808274372E+03  0.37089429412E+03  0.80260313621E+02 0.  0.
        -11    1    4    4    0    0 -0.36249271569E+02  0.46528320149E+02 -0.12029230800E+03  0.13397437676E+03  0.00000000000E+00 0.  1.
         12    1    4    4    0    0  0.37495825055E+02  0.53260001298E+02 -0.22779043572E+03  0.23691991736E+03  0.00000000000E+00 0. -1.
        -11    1    3    3    0    0 -0.62300971984E+02 -0.71542090821E+02 -0.81895813654E+02  0.12532599955E+03  0.00000000000E+00 0.  1.
         11    1    3    3    0    0  0.19881438207E+02  0.11079184758E+02 -0.22499279972E+02  0.32003711025E+02  0.00000000000E+00 0. -1.
         21    1    1    2  502  501  0.41172980290E+02 -0.39325415385E+02 -0.33395144817E+03  0.33877023531E+03  0.00000000000E+00 0. -1.
<scales pt_clust_5="13000.00000" pt_clust_6="13000.00000" pt_clust_7="13000.00000" pt_clust_8="13000.00000" pt_clust_9="56.93595"></scales>
<clustering>
<clus scale="   56.936">  2  9  1 -1</clus>
<clus scale="   80.260">  5  6 -1 -1</clus>
<clus scale="   91.647">  7  8 -1 -1</clus>
<clus scale="  111.645">  2  5  1 -1</clus>
<clus scale="   56.936">  2  5  1 -1</clus>
</clustering>
</event>
<event>
 9    2  0.3791909E-005  0.1707479E+03  0.7546771E-02  0.1178442E+00
         -1   -1    0    0    0  501 -0.00000000000E+00  0.00000000000E+00  0.29437004145E+03  0.29437004145E+03  0.00000000000E+00 0.  1.
          2   -1    0    0  502    0  0.00000000000E+00 -0.00000000000E+00 -0.15375991765E+03  0.15375991765E+03  0.00000000000E+00 0. -1.
         24    2    1    2    0    0  0.15872022580E+03  0.48352983359E+01  0.17295243227E+03  0.24832926928E+03  0.80866507068E+02 0.  0.
         23    2    1    2    0    0 -0.11445035454E+03  0.13669611297E+02 -0.11035060767E+02  0.14730067090E+03  0.91049289700E+02 0.  0.
        -13    1    3    3    0    0  0.88452420346E+02  0.33719675860E+02  0.13075545574E+03  0.16142439843E+03  0.00000000000E+00 0.  1.
         14    1    3    3    0    0  0.70267805451E+02 -0.28884377524E+02  0.42196976534E+02  0.86904870844E+02  0.00000000000E+00 0. -1.
        -13    1    4    4    0    0 -0.52574410313E+02 -0.38866426599E+02 -0.98697049709E+01  0.66121696988E+02  0.00000000000E+00 0.  1.
         13    1    4    4    0    0 -0.61875944226E+02  0.52536037896E+02 -0.11653557957E+01  0.81178973914E+02  0.00000000000E+00 0. -1.
         21    1    1    2  502  501 -0.44269871257E+02 -0.18504909632E+02 -0.21307247709E+02  0.52500018920E+02  0.00000000000E+00 0. -1.
<scales pt_clust_5="13000.00000" pt_clust_6="13000.00000" pt_clust_7="13000.00000" pt_clust_8="13000.00000" pt_clust_9="47.98180"></scales>
<clustering>
<clus scale="   47.982">  2  9  1 -1</clus>
<clus scale="   80.867">  5  6 -1 -1</clus>
<clus scale="   91.049">  7  8 -1 -1</clus>
<clus scale="  165.542">  1  5  2 -1</clus>
<clus scale="   47.982">  2  5  1 -1</clus>
</clustering>
</event>
<event>
 9    2  0.3791909E-005  0.1025587E+03  0.7546771E-02  0.1280794E+00
         -3   -1    0    0    0  501 -0.00000000000E+00  0.00000000000E+00  0.10072708682E+03  0.10072708682E+03  0.00000000000E+00 0.  1.
          4   -1    0    0  502    0  0.00000000000E+00 -0.00000000000E+00 -0.31231571115E+03  0.31231571115E+03  0.00000000000E+00 0. -1.
         24    2    1    2    0    0 -0.30139400729E+02 -0.27760040407E+02  0.59881866283E+02  0.10907884553E+03  0.81445400811E+02 0.  0.
         23    2    1    2    0    0  0.53514058149E+02  0.26090395592E+02 -0.24332055020E+03  0.26733634716E+03  0.93377562605E+02 0.  0.
        -13    1    3    3    0    0  0.17066063132E+02 -0.11354003719E+02  0.55202270212E+02  0.58885096144E+02  0.00000000000E+00 0.  1.
         14    1    3    3    0    0 -0.47205463861E+02 -0.16406036688E+02  0.46795960703E+01  0.50193749387E+02  0.00000000000E+00 0. -1.
        -13    1    4    4    0    0  0.30867601029E+02  0.61268648640E+02 -0.16052287757E+03  0.17456875529E+03  0.00000000000E+00 0. -1.
         13    1    4    4    0    0  0.22646457120E+02 -0.35178253048E+02 -0.82797672635E+02  0.92767591870E+02  0.00000000000E+00 0.  1.
         21    1    1    2  502  501 -0.23374657420E+02  0.16696448150E+01 -0.28149940416E+02  0.36627605283E+02  0.00000000000E+00 0. -1.
<scales pt_clust_5="13000.00000" pt_clust_6="13000.00000" pt_clust_7="13000.00000" pt_clust_8="13000.00000" pt_clust_9="23.43421"></scales>
<clustering>
<clus scale="   23.434">  2  9  1 -1</clus>
<clus scale="   81.445">  5  6 -1 -1</clus>
<clus scale="   91.827">  1  5  2 -1</clus>
<clus scale="   93.378">  7  8 -1 -1</clus>
<clus scale="   23.434">  2  5  1 -1</clus>
</clustering>
</event>
<event>
 9    2  0.3791909E-005  0.1616667E+03  0.7546771E-02  0.1188854E+00
          2   -1    0    0  502    0  0.00000000000E+00  0.00000000000E+00  0.27240060047E+03  0.27240060047E+03  0.00000000000E+00 0. -1.
         -1   -1    0    0    0  501 -0.00000000000E+00 -0.00000000000E+00 -0.54570280925E+03  0.54570280925E+03  0.00000000000E+00 0.  1.
         23    2    1    2    0    0  0.42713099082E+02 -0.11377215642E+03 -0.38155439379E+03  0.41115296142E+03  0.93244248357E+02 0.  0.
         24    2    1    2    0    0 -0.67540827826E+02  0.24040795047E+03  0.59278948137E+02  0.26892357274E+03  0.80300362459E+02 0.  0.
        -11    1    4    4    0    0 -0.26044792192E+02  0.66581381532E+02  0.54930578258E+02  0.90159747087E+02  0.00000000000E+00 0.  1.
         12    1    4    4    0    0 -0.41496035634E+02  0.17382656894E+03  0.43483698793E+01  0.17876382565E+03  0.00000000000E+00 0. -1.
        -13    1    3    3    0    0  0.20427281900E+02 -0.30298762889E+02 -0.24987192114E+02  0.44267918950E+02  0.00000000000E+00 0. -1.
         13    1    3    3    0    0  0.22285817182E+02 -0.83473393536E+02 -0.35656720167E+03  0.36688504247E+03  0.00000000000E+00 0.  1.
         21    1    1    2  502  501  0.24827728744E+02 -0.12663579404E+03  0.48973236872E+02  0.13802687556E+03  0.00000000000E+00 0.  1.
<scales pt_clust_5="13000.00000" pt_clust_6="13000.00000" pt_clust_7="13000.00000" pt_clust_8="13000.00000" pt_clust_9="129.04666"></scales>
<clustering>
<clus scale="   80.300">  5  6 -1 -1</clus>
<clus scale="   93.244">  7  8 -1 -1</clus>
<clus scale="  129.047">  1  9  2 -1</clus>
<clus scale="  154.563">  1  5  2 -1</clus>
<clus scale="  129.047">  1  5  2 -1</clus>
</clustering>
</event>
<event>
 9    2  0.3791909E-005  0.1864978E+03  0.7546771E-02  0.1192166E+00
          2   -1    0    0  502    0  0.00000000000E+00  0.00000000000E+00  0.48090939706E+03  0.48090939706E+03  0.00000000000E+00 0. -1.
         -1   -1    0    0    0  501 -0.00000000000E+00 -0.00000000000E+00 -0.33917205958E+03  0.33917205958E+03  0.00000000000E+00 0.  1.
         24    2    1    2    0    0 -0.37785589764E+02  0.31424776692E+02 -0.24824828568E+03  0.26530122719E+03  0.79638322575E+02 0.  0.
         23    2    1    2    0    0 -0.83265949631E+02  0.12581409349E+03  0.27527084012E+03  0.32557067699E+03  0.86370283140E+02 0.  0.
        -13    1    3    3    0    0 -0.44472122761E+02 -0.50560404291E+01 -0.19711888890E+03  0.20213656178E+03  0.00000000000E+00 0.  1.
         14    1    3    3    0    0  0.66865329968E+01  0.36480817121E+02 -0.51129396781E+02  0.63164665411E+02  0.00000000000E+00 0. -1.
        -11    1    4    4    0    0 -0.56795178950E+02  0.17607998557E+02  0.68552341592E+02  0.90747768583E+02  0.00000000000E+00 0.  1.
         11    1    4    4    0    0 -0.26470770681E+02  0.10820609493E+03  0.20671849852E+03  0.23482290841E+03  0.00000000000E+00 0. -1.
         21    1    1    2  502  501  0.12105153940E+03 -0.15723887018E+03  0.11471478305E+03  0.22920955245E+03  0.00000000000E+00 0. -1.
<scales pt_clust_5="13000.00000" pt_clust_6="13000.00000" pt_clust_7="13000.00000" pt_clust_8="13000.00000" pt_clust_9="165.29249"></scales>
<clustering>
<clus scale="   79.638">  5  6 -1 -1</clus>
<clus scale="   86.370">  7  8 -1 -1</clus>
<clus scale="   93.582">  2  5  1 -1</clus>
<clus scale="  165.292">  2  9  1 -1</clus>
<clus scale="  186.498">  1  5  2 -1</clus>
</clustering>
</event>
<event>
 9    2  0.3791909E-005  0.2402113E+03  0.7546771E-02  0.1121045E+00
         -1   -1    0    0    0  501 -0.00000000000E+00  0.00000000000E+00  0.14302657546E+03  0.14302657546E+03  0.00000000000E+00 0.  1.
          2   -1    0    0  502    0  0.00000000000E+00 -0.00000000000E+00 -0.19952727946E+04  0.19952727946E+04  0.00000000000E+00 0. -1.
         24    2    1    2    0    0  0.16320350483E+03 -0.14908302290E+03 -0.24652052953E+02  0.23660626187E+03  0.80707296675E+02 0.  0.
         23    2    1    2    0    0 -0.27868446166E+03 -0.40505690399E+02 -0.92902157165E+03  0.97610548983E+03  0.10195639536E+03 0.  0.
        -13    1    3    3    0    0  0.52253480208E+02 -0.73211868261E+02  0.24936758917E+02  0.93339411790E+02  0.00000000000E+00 0.  1.
         14    1    3    3    0    0  0.11095002462E+03 -0.75871154642E+02 -0.49588811869E+02  0.14326685008E+03  0.00000000000E+00 0. -1.
        -13    1    4    4    0    0 -0.69711607296E+02 -0.52337567526E+02 -0.34013632590E+03  0.35112910640E+03  0.00000000000E+00 0.  1.
         13    1    4    4    0    0 -0.20897285436E+03  0.11831877128E+02 -0.58888524575E+03  0.62497638343E+03  0.00000000000E+00 0. -1.
         21    1    1    2  502  501  0.11548095683E+03  0.18958871330E+03 -0.89857259450E+03  0.92558761832E+03  0.00000000000E+00 0. -1.
<scales pt_clust_5="13000.00000" pt_clust_6="13000.00000" pt_clust_7="13000.00000" pt_clust_8="13000.00000" pt_clust_9="221.99039"></scales>
<clustering>
<clus scale="   80.707">  5  6 -1 -1</clus>
<clus scale="  101.956">  7  8 -1 -1</clus>
<clus scale="  221.990">  2  9  1 -1</clus>
<clus scale="  231.991">  1  5  2 -1</clus>
<clus scale="  221.990">  2  5  1 -1</clus>
</clustering>
</event>
<event>
 9    2  0.3791909E-005  0.9935903E+02  0.7546771E-02  0.1284316E+00
         -1   -1    0    0    0  501 -0.00000000000E+00  0.00000000000E+00  0.13703380665E+03  0.13703380665E+03  0.00000000000E+00 0.  1.
          2   -1    0    0  502    0  0.00000000000E+00 -0.00000000000E+00 -0.25140960875E+03  0.25140960875E+03  0.00000000000E+00 0. -1.
         23    2    1    2    0    0  0.27266694882E+02 -0.32138260676E+02  0.94848340897E+02  0.13836240340E+03  0.91496483296E+02 0.  0.
         24    2    1    2    0    0 -0.31858950154E+01  0.25814736189E+02 -0.86400042445E+02  0.12475890078E+03  0.86158374281E+02 0.  0.
        -11    1    4    4    0    0 -0.17266762455E+02  0.11516705983E+02  0.12241860899E+02  0.24096447054E+02  0.00000000000E+00 0.  1.
         12    1    4    4    0    0  0.14080867439E+02  0.14298030206E+02 -0.98641903344E+02  0.10066245373E+03  0.00000000000E+00 0. -1.
        -13    1    3    3    0    0  0.23604427894E+02 -0.60115348264E+02  0.88297874642E+02  0.10939624664E+03  0.00000000000E+00 0.  1.
         13    1    3    3    0    0  0.36622669887E+01  0.27977087587E+02  0.65504662547E+01  0.28966156761E+02  0.00000000000E+00 0. -1.
         21    1    1    2  502  501 -0.24080799867E+02  0.63235244876E+01 -0.12282410055E+03  0.12532211122E+03  0.00000000000E+00 0. -1.
<scales pt_clust_5="13000.00000" pt_clust_6="13000.00000" pt_clust_7="13000.00000" pt_clust_8="13000.00000" pt_clust_9="24.89723"></scales>
<clustering>
<clus scale="   24.897">  2  9  1 -1</clus>
<clus scale="   86.158">  5  6 -1 -1</clus>
<clus scale="   91.496">  7  8 -1 -1</clus>
<clus scale="   94.466">  2  5  1 -1</clus>
<clus scale="   24.897">  2  5  1 -1</clus>
</clustering>
</event>
<event>
 9    2  0.3791909E-005  0.2126851E+03  0.7546771E-02  0.1140507E+00
          2   -1    0    0  502    0  0.00000000000E+00  0.00000000000E+00  0.80227420497E+03  0.80227420497E+03  0.00000000000E+00 0. -1.
         -1   -1    0    0    0  501 -0.00000000000E+00 -0.00000000000E+00 -0.72367670106E+02  0.72367670106E+02  0.00000000000E+00 0.  1.
         23    2    1    2    0    0  0.82428260545E+02  0.18264740470E+03  0.19722247334E+03  0.29586247615E+03  0.92105419101E+02 0.  0.
         24    2    1    2    0    0 -0.61970360564E+02 -0.16545675007E+03  0.41243908973E+03  0.45560108297E+03  0.79057462223E+02 0.  0.
        -13    1    4    4    0    0 -0.26681832061E+02 -0.13868720818E+02  0.28993858776E+02  0.41772065139E+02  0.00000000000E+00 0.  1.
         14    1    4    4    0    0 -0.35288528502E+02 -0.15158802925E+03  0.38344523096E+03  0.41382901783E+03  0.00000000000E+00 0. -1.
        -13    1    3    3    0    0  0.86003030281E+02  0.14402543627E+03  0.11053318004E+03  0.20089159117E+03  0.00000000000E+00 0.  1.
         13    1    3    3    0    0 -0.35747697355E+01  0.38621968425E+02  0.86689293293E+02  0.94970884987E+02  0.00000000000E+00 0. -1.
         21    1    1    2  502  501 -0.20457899981E+02 -0.17190654629E+02  0.12024497179E+03  0.12317831595E+03  0.00000000000E+00 0. -1.
<scales pt_clust_5="13000.00000" pt_clust_6="13000.00000" pt_clust_7="13000.00000" pt_clust_8="13000.00000" pt_clust_9="26.72161"></scales>
<clustering>
<clus scale="   26.722">  1  9  2 -1</clus>
<clus scale="   79.057">  5  6 -1 -1</clus>
<clus scale="   92.105">  7  8 -1 -1</clus>
<clus scale="  207.368">  1  5  2 -1</clus>
<clus scale="   26.722">  1  5  2 -1</clus>
</clustering>
</event>
<event>
 9    2  0.3791909E-005  0.1016299E+03  0.7546771E-02  0.1281821E+00
         -1   -1    0    0    0  501 -0.00000000000E+00  0.00000000000E+00  0.17462106587E+03  0.17462106587E+03  0.00000000000E+00 0.  1.
          2   -1    0    0  502    0  0.00000000000E+00 -0.00000000000E+00 -0.22334267827E+03  0.22334267827E+03  0.00000000000E+00 0. -1.
         24    2    1    2    0    0  0.18973405946E+02 -0.32434283650E+02  0.11673520473E+03  0.14792003284E+03  0.82711880660E+02 0.  0.
         23    2    1    2    0    0 -0.17889312961E+02  0.59390777352E+02 -0.35183091589E+02  0.11700585438E+03  0.92764368556E+02 0.  0.
        -11    1    3    3    0    0  0.16832557663E+02 -0.13141141823E+02  0.12500819889E+03  0.12681906164E+03  0.00000000000E+00 0.  1.
         12    1    3    3    0    0  0.21408482829E+01 -0.19293141826E+02 -0.82729941633E+01  0.21100971194E+02  0.00000000000E+00 0. -1.
        -11    1    4    4    0    0  0.20664944314E+02  0.66792208862E+02 -0.33963238484E+02  0.77728634727E+02  0.00000000000E+00 0. -1.
         11    1    4    4    0    0 -0.38554257274E+02 -0.74014315095E+01 -0.12198531043E+01  0.39277219657E+02  0.00000000000E+00 0.  1.
         21    1    1    2  502  501 -0.10840929851E+01 -0.26956493703E+02 -0.13027372554E+03  0.13303785693E+03  0.00000000000E+00 0.  1.
<scales pt_clust_5="13000.00000" pt_clust_6="13000.00000" pt_clust_7="13000.00000" pt_clust_8="13000.00000" pt_clust_9="26.97828"></scales>
<clustering>
<clus scale="   26.978">  2  9  1 -1</clus>
<clus scale="   82.712">  5  6 -1 -1</clus>
<clus scale="   92.545">  1  5  2 -1</clus>
<clus scale="   92.764">  7  8 -1 -1</clus>
<clus scale="   26.978">  2  5  1 -1</clus>
</clustering>
</event>
<event>
 9    2  0.3791909E-005  0.2340022E+03  0.7546771E-02  0.1124571E+00
          2   -1    0    0  502    0  0.00000000000E+00  0.00000000000E+00  0.87076850949E+03  0.87076850949E+03  0.00000000000E+00 0. -1.
         -1   -1    0    0    0  501 -0.00000000000E+00 -0.00000000000E+00 -0.16012121226E+03  0.16012121226E+03  0.00000000000E+00 0.  1.
         24    2    1    2    0    0  0.14718348956E+03 -0.13690859313E+03 -0.48520415803E+02  0.22176682762E+03  0.80120862525E+02 0.  0.
         23    2    1    2    0    0 -0.17356974100E+03  0.13116743517E+03  0.73804876636E+03  0.77484163003E+03  0.91280989605E+02 0.  0.
        -11    1    3    3    0    0  0.12134704155E+03 -0.14297977368E+03 -0.52939498266E+02  0.19486126000E+03  0.00000000000E+00 0.  1.
         12    1    3    3    0    0  0.25836448009E+02  0.60711805478E+01  0.44190824631E+01  0.26905567617E+02  0.00000000000E+00 0. -1.
        -11    1    4    4    0    0 -0.81390176011E+02  0.48998212223E+02  0.47289538341E+03  0.48234347638E+03  0.00000000000E+00 0. -1.
         11    1    4    4    0    0 -0.92179564986E+02  0.82169222948E+02  0.26515338294E+03  0.29249815365E+03  0.00000000000E+00 0.  1.
         21    1    1    2  502  501  0.26386251436E+02  0.57411579566E+01  0.21118946677E+02  0.34281264099E+02  0.00000000000E+00 0.  1.
<scales pt_clust_5="13000.00000" pt_clust_6="13000.00000" pt_clust_7="13000.00000" pt_clust_8="13000.00000" pt_clust_9="27.00361"></scales>
<clustering>
<clus scale="   27.004">  2  9  1 -1</clus>
<clus scale="   80.121">  5  6 -1 -1</clus>
<clus scale="   91.281">  7  8 -1 -1</clus>
<clus scale="  229.879">  2  5  1 -1</clus>
<clus scale="  234.002">  1  5  2 -1</clus>
</clustering>
</event>
<event>
 9    2  0.3791909E-005  0.1392005E+03  0.7546771E-02  0.1214855E+00
         -1   -1    0    0    0  501 -0.00000000000E+00  0.00000000000E+00  0.95446334024E+02  0.95446334024E+02  0.00000000000E+00 0.  1.
          2   -1    0    0  502    0  0.00000000000E+00 -0.00000000000E+00 -0.44805985204E+03  0.44805985204E+03  0.00000000000E+00 0. -1.
         24    2    1    2    0    0 -0.11537098840E+03 -0.53106562463E+02 -0.10868696340E+02  0.15119347471E+03  0.81305389079E+02 0.  0.
         23    2    1    2    0    0  0.38493148683E+02  0.60605429451E+02 -0.24422842768E+03  0.26791061192E+03  0.83509463651E+02 0.  0.
        -11    1    3    3    0    0 -0.94384720573E+02 -0.46346366243E+01 -0.22427910808E+02  0.97123460181E+02  0.00000000000E+00 0.  1.
         12    1    3    3    0    0 -0.20986267825E+02 -0.48471925839E+02  0.11559214468E+02  0.54070014526E+02  0.00000000000E+00 0. -1.
        -11    1    4    4    0    0  0.36472060190E+02  0.20599999068E+02 -0.34141290695E+02  0.54038864407E+02  0.00000000000E+00 0.  1.
         11    1    4    4    0    0  0.20210884932E+01  0.40005430383E+02 -0.21008713698E+03  0.21387174751E+03  0.00000000000E+00 0. -1.
         21    1    1    2  502  501  0.76877839715E+02 -0.74988669880E+01 -0.97516393997E+02  0.12440209943E+03  0.00000000000E+00 0. -1.
<scales pt_clust_5="13000.00000" pt_clust_6="13000.00000" pt_clust_7="13000.00000" pt_clust_8="13000.00000" pt_clust_9="77.24270"></scales>
<clustering>
<clus scale="   77.243">  2  9  1 -1</clus>
<clus scale="   81.305">  5  6 -1 -1</clus>
<clus scale="   83.509">  7  8 -1 -1</clus>
<clus scale="  137.889">  1  5  2 -1</clus>
<clus scale="   77.243">  2  5  1 -1</clus>
</clustering>
</event>
<event>
 9    2  0.3791909E-005  0.9234079E+02  0.7546771E-02  0.1303579E+00
         -1   -1    0    0    0  501 -0.00000000000E+00  0.00000000000E+00  0.12130749274E+03  0.12130749274E+03  0.00000000000E+00 0.  1.
          2   -1    0    0  502    0  0.00000000000E+00 -0.00000000000E+00 -0.23797993286E+03  0.23797993286E+03  0.00000000000E+00 0. -1.
         24    2    1    2    0    0 -0.15002178727E+02 -0.12976462402E+02  0.85876241720E+02  0.11898826569E+03  0.79937629036E+02 0.  0.
         23    2    1    2    0    0  0.28485376640E+02 -0.16254624642E+02 -0.16404443346E+03  0.19011121097E+03  0.90310945535E+02 0.  0.
        -11    1    3    3    0    0 -0.24598149726E+02  0.29578024185E+02  0.45055681829E+02  0.59244771497E+02  0.00000000000E+00 0.  1.
         12    1    3    3    0    0  0.95959709983E+01 -0.42554486587E+02  0.40820559891E+02  0.59743494189E+02  0.00000000000E+00 0. -1.
        -11    1    4    4    0    0  0.25946012939E+02  0.28033593246E+02 -0.28976371568E+02  0.47944843800E+02  0.00000000000E+00 0.  1.
         11    1    4    4    0    0  0.25393637008E+01 -0.44288217888E+02 -0.13506806189E+03  0.14216636717E+03  0.00000000000E+00 0. -1.
         21    1    1    2  502  501 -0.13483197913E+02  0.29231087043E+02 -0.38504248382E+02  0.50187948943E+02  0.00000000000E+00 0. -1.
<scales pt_clust_5="13000.00000" pt_clust_6="13000.00000" pt_clust_7="13000.00000" pt_clust_8="13000.00000" pt_clust_9="32.19088"></scales>
<clustering>
<clus scale="   32.191">  2  9  1 -1</clus>
<clus scale="   79.938">  5  6 -1 -1</clus>
<clus scale="   82.224">  1  5  2 -1</clus>
<clus scale="   90.311">  7  8 -1 -1</clus>
<clus scale="   32.191">  2  5  1 -1</clus>
</clustering>
</event>
<event>
 9    2  0.3791909E-005  0.1585515E+03  0.7546771E-02  0.1192003E+00
          2   -1    0    0  502    0  0.00000000000E+00  0.00000000000E+00  0.32168234480E+03  0.32168234480E+03  0.00000000000E+00 0. -1.
         -1   -1    0    0    0  501 -0.00000000000E+00 -0.00000000000E+00 -0.26663159030E+03  0.26663159030E+03  0.00000000000E+00 0.  1.
         24    2    1    2    0    0 -0.57523721998E+01  0.13336743163E+03 -0.18097122181E+03  0.23910725324E+03  0.81251054306E+02 0.  0.
         23    2    1    2    0    0  0.29979571950E+02 -0.11382025392E+03  0.45113919524E+02  0.15577727482E+03  0.91528512934E+02 0.  0.
        -13    1    3    3    0    0 -0.25340184372E+02  0.81609280811E+02 -0.15710173412E+03  0.17883834746E+03  0.00000000000E+00 0.  1.
         14    1    3    3    0    0  0.19587812173E+02  0.51758150822E+02 -0.23869487688E+02  0.60268905786E+02  0.00000000000E+00 0. -1.
        -11    1    4    4    0    0 -0.76581780287E+01 -0.10107879340E+03  0.84656500271E+01  0.10172137138E+03  0.00000000000E+00 0.  1.
         11    1    4    4    0    0  0.37637749978E+02 -0.12741460521E+02  0.36648269497E+02  0.54055903441E+02  0.00000000000E+00 0. -1.
         21    1    1    2  502  501 -0.24227199750E+02 -0.19547177717E+02  0.19090805678E+03  0.19342940704E+03  0.00000000000E+00 0.  1.
<scales pt_clust_5="13000.00000" pt_clust_6="13000.00000" pt_clust_7="13000.00000" pt_clust_8="13000.00000" pt_clust_9="31.12956"></scales>
<clustering>
<clus scale="   31.130">  1  9  2 -1</clus>
<clus scale="   81.251">  5  6 -1 -1</clus>
<clus scale="   91.529">  7  8 -1 -1</clus>
<clus scale="  152.849">  2  5  1 -1</clus>
<clus scale="   31.130">  1  5  2 -1</clus>
</clustering>
</event>
<event>
 9    2  0.3791909E-005  0.1251528E+03  0.7546771E-02  0.1254150E+00
          2   -1    0    0  502    0  0.00000000000E+00  0.00000000000E+00  0.27077543407E+03  0.27077543407E+03  0.00000000000E+00 0. -1.
         -1   -1    0    0    0  501 -0.00000000000E+00 -0.00000000000E+00 -0.11402021631E+03  0.11402021631E+03  0.00000000000E+00 0.  1.
         23    2    1    2    0    0 -0.23349239597E+02 -0.80369998761E+02 -0.27833589442E+02  0.12631451667E+03  0.90421926149E+02 0.  0.
         24    2    1    2    0    0 -0.23510906708E+02 -0.29007205146E+01  0.76226960312E+02  0.11400907461E+03  0.81402350716E+02 0.  0.
        -13    1    4    4    0    0  0.17756728791E+02 -0.29626931626E+02  0.22718683902E+02  0.41342412764E+02  0.00000000000E+00 0.  1.
         14    1    4    4    0    0 -0.41267635499E+02  0.26726211111E+02  0.53508276409E+02  0.72666661849E+02  0.00000000000E+00 0. -1.
        -13    1    3    3    0    0  0.28782079092E+01 -0.27894095746E+02 -0.54945323011E+02  0.61687544765E+02  0.00000000000E+00 0.  1.
         13    1    3    3    0    0 -0.26227447506E+02 -0.52475903014E+02  0.27111733570E+02  0.64626971900E+02  0.00000000000E+00 0. -1.
         21    1    1    2  502  501  0.46860146305E+02  0.83270719276E+02  0.10836184689E+03  0.14447205910E+03  0.00000000000E+00 0. -1.
<scales pt_clust_5="13000.00000" pt_clust_6="13000.00000" pt_clust_7="13000.00000" pt_clust_8="13000.00000" pt_clust_9="86.52800"></scales>
<clustering>
<clus scale="   81.402">  5  6 -1 -1</clus>
<clus scale="   84.779">  1  5  2 -1</clus>
<clus scale="   86.528">  1  9  2 -1</clus>
<clus scale="   90.422">  7  8 -1 -1</clus>
<clus scale="   84.779">  1  5  2 -1</clus>
</clustering>
</event>
<event>
 9    2  0.3791909E-005  0.1409782E+03  0.7546771E-02  0.1213964E+00
         -1   -1    0    0    0  501 -0.00000000000E+00  0.00000000000E+00  0.39029420441E+02  0.39029420441E+02  0.00000000000E+00 0.  1.
          2   -1    0    0  502    0  0.00000000000E+00 -0.00000000000E+00 -0.10841797154E+04  0.10841797154E+04  0.00000000000E+00 0. -1.
         23    2    1    2    0    0  0.79170825391E+02  0.82237206977E+02 -0.14089729811E+03  0.20262592708E+03  0.90411503175E+02 0.  0.
         24    2    1    2    0    0 -0.36422733598E+02 -0.86281163345E+02 -0.55358250428E+03  0.56729360052E+03  0.81224291148E+02 0.  0.
        -11    1    4    4    0    0  0.21521857467E+02 -0.52868634370E+02 -0.25559669019E+03  0.26189301419E+03  0.00000000000E+00 0.  1.
         12    1    4    4    0    0 -0.57944591065E+02 -0.33412528975E+02 -0.29798581409E+03  0.30540058633E+03  0.00000000000E+00 0. -1.
        -11    1    3    3    0    0  0.87104373040E+02  0.29691473814E+02 -0.96896978814E+02  0.13363300462E+03  0.00000000000E+00 0. -1.
         11    1    3    3    0    0 -0.79335476490E+01  0.52545733162E+02 -0.44000319301E+02  0.68992922467E+02  0.00000000000E+00 0.  1.
         21    1    1    2  502  501 -0.42748091793E+02  0.40439563688E+01 -0.35067049253E+03  0.35328960820E+03  0.00000000000E+00 0. -1.
<scales pt_clust_5="13000.00000" pt_clust_6="13000.00000" pt_clust_7="13000.00000" pt_clust_8="13000.00000" pt_clust_9="42.93894"></scales>
<clustering>
<clus scale="   42.939">  2  9  1 -1</clus>
<clus scale="   81.224">  5  6 -1 -1</clus>
<clus scale="   90.412">  7  8 -1 -1</clus>
<clus scale="  135.270">  2  5  1 -1</clus>
<clus scale="   42.939">  2  5  1 -1</clus>
</clustering>
</event>
<event>
 9    2  0.3791909E-005  0.3504513E+03  0.7546771E-02  0.1100762E+00
          2   -1    0    0  502    0  0.00000000000E+00  0.00000000000E+00  0.15684225999E+04  0.15684225999E+04  0.00000000000E+00 0. -1.
         -1   -1    0    0    0  501 -0.00000000000E+00 -0.00000000000E+00 -0.18119317926E+03  0.18119317926E+03  0.00000000000E+00 0.  1.
         24    2    1    2    0    0  0.84333093742E+02 -0.45325613001E+02 -0.52592464144E+02  0.13574209218E+03  0.80582047696E+02 0.  0.
         23    2    1    2    0    0  0.14527310247E+03 -0.27084798524E+03  0.81798896872E+03  0.87946172828E+03  0.99418676036E+02 0.  0.
        -11    1    3    3    0    0  0.93554870252E+02 -0.57000559641E+02 -0.41355385040E+02  0.11709758930E+03  0.00000000000E+00 0.  1.
         12    1    3    3    0    0 -0.92217765094E+01  0.11674946640E+02 -0.11237079104E+02  0.18644502885E+02  0.00000000000E+00 0. -1.
        -11    1    4    4    0    0  0.15954271675E+03 -0.25137444644E+03  0.73439017096E+03  0.79244678938E+03  0.00000000000E+00 0. -1.
         11    1    4    4    0    0 -0.14269614274E+02 -0.19473538802E+02  0.83598797757E+02  0.87014938898E+02  0.00000000000E+00 0.  1.
         21    1    1    2  502  501 -0.22960619622E+03  0.31617359824E+03  0.62183291604E+03  0.73441195867E+03  0.00000000000E+00 0.  1.
<scales pt_clust_5="13000.00000" pt_clust_6="13000.00000" pt_clust_7="13000.00000" pt_clust_8="13000.00000" pt_clust_9="336.05362"></scales>
<clustering>
<clus scale="   80.582">  5  6 -1 -1</clus>
<clus scale="   99.419">  7  8 -1 -1</clus>
<clus scale="  125.140">  2  5  1 -1</clus>
<clus scale="  336.054">  2  9  1 -1</clus>
<clus scale="  350.451">  1  5  2 -1</clus>
</clustering>
</event>
<event>
 9    2  0.3791909E-005  0.9111147E+02  0.7546771E-02  0.1307480E+00
         -1   -1    0    0    0  501 -0.00000000000E+00  0.00000000000E+00  0.12507095168E+03  0.12507095168E+03  0.00000000000E+00 0.  1.
          2   -1    0    0  502    0  0.00000000000E+00 -0.00000000000E+00 -0.41035760564E+03  0.41035760564E+03  0.00000000000E+00 0. -1.
         24    2    1    2    0    0  0.43031472923E+01  0.10492804835E+02  0.52993579466E+02  0.95791810176E+02  0.78988197867E+02 0.  0.
         23    2    1    2    0    0  0.56038805369E+02  0.28521643061E+02 -0.18310848076E+02  0.11169820723E+03  0.90484089820E+02 0.  0.
        -11    1    3    3    0    0  0.29383340072E+02 -0.12812171533E+02  0.52546786765E+02  0.61552394044E+02  0.00000000000E+00 0.  1.
         12    1    3    3    0    0 -0.25080192780E+02  0.23304976367E+02  0.44679270132E+00  0.34239416132E+02  0.00000000000E+00 0. -1.
        -13    1    4    4    0    0  0.23447614636E+02  0.56658439095E+02 -0.28244077638E+02  0.67510719700E+02  0.00000000000E+00 0.  1.
         13    1    4    4    0    0  0.32591190734E+02 -0.28136796034E+02  0.99332295622E+01  0.44187487528E+02  0.00000000000E+00 0. -1.
         21    1    1    2  502  501 -0.60341952661E+02 -0.39014447896E+02 -0.31996938535E+03  0.32793853991E+03  0.00000000000E+00 0. -1.
<scales pt_clust_5="13000.00000" pt_clust_6="13000.00000" pt_clust_7="13000.00000" pt_clust_8="13000.00000" pt_clust_9="71.85596"></scales>
<clustering>
<clus scale="   71.856">  2  9  1 -1</clus>
<clus scale="   78.988">  5  6 -1 -1</clus>
<clus scale="   79.706">  1  5  2 -1</clus>
<clus scale="   90.484">  7  8 -1 -1</clus>
<clus scale="   71.856">  2  5  1 -1</clus>
</clustering>
</event>
<event>
 9    2  0.3791909E-005  0.8544946E+02  0.7546771E-02  0.1316453E+00
          4   -1    0    0  502    0  0.00000000000E+00  0.00000000000E+00  0.11124155980E+03  0.11124155980E+03  0.00000000000E+00 0. -1.
         -3   -1    0    0    0  501 -0.00000000000E+00 -0.00000000000E+00 -0.13201976579E+03  0.13201976579E+03  0.00000000000E+00 0.  1.
         23    2    1    2    0    0 -0.22853101010E+02 -0.28721143411E+01 -0.75665554086E+02  0.11495885516E+03  0.83425110354E+02 0.  0.
         24    2    1    2    0    0  0.76698543343E+01 -0.11183968259E+02  0.13858275274E+02  0.82351526439E+02  0.80036331136E+02 0.  0.
        -11    1    4    4    0    0  0.41899519370E+02 -0.40754402462E+01  0.20408173090E+02  0.46783249838E+02  0.00000000000E+00 0.  1.
         12    1    4    4    0    0 -0.34229665035E+02 -0.71085280126E+01 -0.65498978152E+01  0.35568276600E+02  0.00000000000E+00 0. -1.
        -13    1    3    3    0    0  0.28348499113E+02 -0.16978653239E+02 -0.34423067219E+02  0.47716450250E+02  0.00000000000E+00 0.  1.
         13    1    3    3    0    0 -0.51201600123E+02  0.14106538897E+02 -0.41242486868E+02  0.67242404908E+02  0.00000000000E+00 0. -1.
         21    1    1    2  502  501  0.15183246676E+02  0.14056082600E+02  0.41029072814E+02  0.45950943991E+02  0.00000000000E+00 0.  1.
<scales pt_clust_5="13000.00000" pt_clust_6="13000.00000" pt_clust_7="13000.00000" pt_clust_8="13000.00000" pt_clust_9="20.69068"></scales>
<clustering>
<clus scale="   20.691">  1  9  2 -1</clus>
<clus scale="   80.036">  5  6 -1 -1</clus>
<clus scale="   82.144">  1  5  2 -1</clus>
<clus scale="   83.425">  7  8 -1 -1</clus>
<clus scale="   20.691">  1  5  2 -1</clus>
</clustering>
</event>
<event>
 9    2  0.3791909E-005  0.2722632E+03  0.7546771E-02  0.1099991E+00
         -1   -1    0    0    0  501 -0.00000000000E+00  0.00000000000E+00  0.93128781323E+02  0.93128781323E+02  0.00000000000E+00 0.  1.
          2   -1    0    0  502    0  0.00000000000E+00 -0.00000000000E+00 -0.63046549728E+03  0.63046549728E+03  0.00000000000E+00 0. -1.
         24    2    1    2    0    0 -0.63184821407E+02 -0.10180112611E+03 -0.24921862862E+03  0.29069408099E+03  0.89651173634E+02 0.  0.
         23    2    1    2    0    0 -0.62816654811E+02 -0.49359153010E+02 -0.14980793393E+03  0.19236849383E+03  0.90448671856E+02 0.  0.
        -13    1    3    3    0    0 -0.41548286711E+02 -0.11450808185E+03 -0.22479639956E+03  0.25567906092E+03  0.00000000000E+00 0.  1.
         14    1    3    3    0    0 -0.21636534696E+02  0.12706955740E+02 -0.24422229061E+02  0.35015020065E+02  0.00000000000E+00 0. -1.
        -13    1    4    4    0    0  0.18138326525E+02 -0.15696587560E+02 -0.69312697685E+02  0.73345973376E+02  0.00000000000E+00 0.  1.
         13    1    4    4    0    0 -0.80954981336E+02 -0.33662565450E+02 -0.80495236246E+02  0.11902252045E+03  0.00000000000E+00 0. -1.
         21    1    1    2  502  501  0.12600147622E+03  0.15116027912E+03 -0.13831015340E+03  0.24053170379E+03  0.00000000000E+00 0.  1.
<scales pt_clust_5="13000.00000" pt_clust_6="13000.00000" pt_clust_7="13000.00000" pt_clust_8="13000.00000" pt_clust_9="196.78872"></scales>
<clustering>
<clus scale="   89.651">  5  6 -1 -1</clus>
<clus scale="   90.449">  7  8 -1 -1</clus>
<clus scale="   97.144">  5  7 -1 -1</clus>
<clus scale="  196.789">  1  9  2 -1</clus>
<clus scale="  272.263">  2  5  1 -1</clus>
</clustering>
</event>
<event>
 9    2  0.3791909E-005  0.1509892E+03  0.7546771E-02  0.1200451E+00
         -1   -1    0    0    0  501 -0.00000000000E+00  0.00000000000E+00  0.16583145967E+03  0.16583145967E+03  0.00000000000E+00 0.  1.
          2   -1    0    0  502    0  0.00000000000E+00 -0.00000000000E+00 -0.86128846113E+03  0.86128846113E+03  0.00000000000E+00 0. -1.
         24    2    1    2    0    0 -0.11032587310E+03 -0.50575442985E+02  0.11759791554E+03  0.18745090155E+03  0.81110400336E+02 0.  0.
         23    2    1    2    0    0  0.13900818763E+03  0.48175725108E+02 -0.57838369624E+03  0.60323929254E+03  0.87896343934E+02 0.  0.
        -13    1    3    3    0    0 -0.99890815135E+02 -0.29113573921E+02  0.49362233031E+02  0.11516251640E+03  0.00000000000E+00 0.  1.
         14    1    3    3    0    0 -0.10435057961E+02 -0.21461869064E+02  0.68235682514E+02  0.72288385143E+02  0.00000000000E+00 0. -1.
        -13    1    4    4    0    0  0.15820966957E+02  0.16353513139E+02 -0.19225308116E+02  0.29788468568E+02  0.00000000000E+00 0.  1.
         13    1    4    4    0    0  0.12318722067E+03  0.31822211969E+02 -0.55915838812E+03  0.57345082397E+03  0.00000000000E+00 0. -1.
         21    1    1    2  502  501 -0.28682314535E+02  0.23997178770E+01 -0.23467122078E+03  0.23642972671E+03  0.00000000000E+00 0. -1.
<scales pt_clust_5="13000.00000" pt_clust_6="13000.00000" pt_clust_7="13000.00000" pt_clust_8="13000.00000" pt_clust_9="28.78253"></scales>
<clustering>
<clus scale="   28.783">  2  9  1 -1</clus>
<clus scale="   81.110">  5  6 -1 -1</clus>
<clus scale="   87.896">  7  8 -1 -1</clus>
<clus scale="  147.142">  1  5  2 -1</clus>
<clus scale="   28.783">  2  5  1 -1</clus>
</clustering>
</event>
<event>
 9    2  0.3791909E-005  0.1667841E+03  0.7546771E-02  0.1204611E+00
         -1   -1    0    0    0  501 -0.00000000000E+00  0.00000000000E+00  0.14363898783E+03  0.14363898783E+03  0.00000000000E+00 0.  1.
          2   -1    0    0  502    0  0.00000000000E+00 -0.00000000000E+00 -0.64572170664E+03  0.64572170664E+03  0.00000000000E+00 0. -1.
         24    2    1    2    0    0  0.13636204056E+03 -0.57535043847E+02  0.61315694482E+02  0.18039930452E+03  0.82942192553E+02 0.  0.
         23    2    1    2    0    0 -0.10503077025E+02  0.39446241779E+02 -0.19163297774E+03  0.21605272051E+03  0.91045369257E+02 0.  0.
        -11    1    3    3    0    0  0.68208389372E+02  0.93933312035E+01  0.48050864590E+02  0.83961328239E+02  0.00000000000E+00 0.  1.
         12    1    3    3    0    0  0.68153651183E+02 -0.66928375050E+02  0.13264829893E+02  0.96437976278E+02  0.00000000000E+00 0. -1.
        -13    1    4    4    0    0  0.32902407078E+01 -0.29374156218E+02 -0.59259601403E+02  0.66222104284E+02  0.00000000000E+00 0.  1.
         13    1    4    4    0    0 -0.13793317732E+02  0.68820397997E+02 -0.13237337634E+03  0.14983061622E+03  0.00000000000E+00 0. -1.
         21    1    1    2  502  501 -0.12585896353E+03  0.18088802068E+02 -0.37176543555E+03  0.39290866945E+03  0.00000000000E+00 0. -1.
<scales pt_clust_5="13000.00000" pt_clust_6="13000.00000" pt_clust_7="13000.00000" pt_clust_8="13000.00000" pt_clust_9="144.69810"></scales>
<clustering>
<clus scale="   82.942">  5  6 -1 -1</clus>
<clus scale="   91.045">  7  8 -1 -1</clus>
<clus scale="   99.778">  2  7  1 -1</clus>
<clus scale="  144.698">  2  9  1 -1</clus>
<clus scale="   99.778">  2  5  1 -1</clus>
</clustering>
</event>
<event>
 9    2  0.3791909E-005  0.4004302E+03  0.7546771E-02  0.1099591E+00
         -1   -1    0    0    0  501 -0.00000000000E+00  0.00000000000E+00  0.87653136525E+02  0.87653136525E+02  0.00000000000E+00 0.  1.
          2   -1    0    0  502    0  0.00000000000E+00 -0.00000000000E+00 -0.24016497214E+04  0.24016497214E+04  0.00000000000E+00 0. -1.
         23    2    1    2    0    0  0.37153734881E+03  0.66346405551E+02 -0.88774682029E+03  0.96906284467E+03  0.92447460135E+02 0.  0.
         24    2    1    2    0    0  0.27778481365E+02 -0.18818589564E+02 -0.54185948920E+03  0.54871637242E+03  0.79700489243E+02 0.  0.
        -11    1    4    4    0    0 -0.21873842640E+02 -0.28382503072E+02 -0.21342908938E+03  0.21641628328E+03  0.00000000000E+00 0.  1.
         12    1    4    4    0    0  0.49652324005E+02  0.95639135082E+01 -0.32843039982E+03  0.33230008915E+03  0.00000000000E+00 0. -1.
        -11    1    3    3    0    0  0.32998115511E+03  0.78872167745E+02 -0.83122397548E+03  0.89779823958E+03  0.00000000000E+00 0.  1.
         11    1    3    3    0    0  0.41556193696E+02 -0.12525762194E+02 -0.56522844815E+02  0.71264605093E+02  0.00000000000E+00 0. -1.
         21    1    1    2  502  501 -0.39931583017E+03 -0.47527815987E+02 -0.88439027539E+03  0.97152364085E+03  0.00000000000E+00 0.  1.
<scales pt_clust_5="13000.00000" pt_clust_6="13000.00000" pt_clust_7="13000.00000" pt_clust_8="13000.00000" pt_clust_9="389.61239"></scales>
<clustering>
<clus scale="   79.700">  5  6 -1 -1</clus>
<clus scale="   86.475">  2  5  1 -1</clus>
<clus scale="   92.447">  7  8 -1 -1</clus>
<clus scale="  389.612">  2  9  1 -1</clus>
<clus scale="   86.475">  2  5  1 -1</clus>
</clustering>
</event>
<event>
 9    2  0.3791909E-005  0.1765469E+03  0.7546771E-02  0.1172559E+00
          2   -1    0    0  502    0  0.00000000000E+00  0.00000000000E+00  0.75054246762E+03  0.75054246762E+03  0.00000000000E+00 0. -1.
         -1   -1    0    0    0  501 -0.00000000000E+00 -0.00000000000E+00 -0.11160102620E+03  0.11160102620E+03  0.00000000000E+00 0.  1.
         23    2    1    2    0    0  0.11621281773E+02  0.14920747128E+03 -0.11365116237E+02  0.17586229563E+03  0.91654009643E+02 0.  0.
         24    2    1    2    0    0 -0.36953627353E+02 -0.15516361075E+03  0.44857464644E+03  0.48287773869E+03  0.80686928454E+02 0.  0.
        -13    1    4    4    0    0 -0.15732366786E+02 -0.10967250483E+03  0.39146934272E+03  0.40684617728E+03  0.00000000000E+00 0.  1.
         14    1    4    4    0    0 -0.21221260567E+02 -0.45491105918E+02  0.57105303718E+02  0.76031561410E+02  0.00000000000E+00 0. -1.
        -11    1    3    3    0    0 -0.17642735488E+02  0.25117782333E+02  0.28902520325E+02  0.42160701916E+02  0.00000000000E+00 0. -1.
         11    1    3    3    0    0  0.29264017261E+02  0.12408968895E+03 -0.40267636562E+02  0.13370159372E+03  0.00000000000E+00 0.  1.
         21    1    1    2  502  501  0.25332345580E+02  0.59561394728E+01  0.20173191122E+03  0.20340345949E+03  0.00000000000E+00 0.  1.
<scales pt_clust_5="13000.00000" pt_clust_6="13000.00000" pt_clust_7="13000.00000" pt_clust_8="13000.00000" pt_clust_9="26.02313"></scales>
<clustering>
<clus scale="   26.023">  1  9  2 -1</clus>
<clus scale="   80.687">  5  6 -1 -1</clus>
<clus scale="   91.654">  7  8 -1 -1</clus>
<clus scale="  171.110">  1  5  2 -1</clus>
<clus scale="   26.023">  1  5  2 -1</clus>
</clustering>
</event>
<event>
 9    2  0.3791909E-005  0.1304236E+03  0.7546771E-02  0.1229765E+00
          2   -1    0    0  502    0  0.00000000000E+00  0.00000000000E+00  0.44844628684E+03  0.44844628684E+03  0.00000000000E+00 0. -1.
         -1   -1    0    0    0  501 -0.00000000000E+00 -0.00000000000E+00 -0.14058275768E+03  0.14058275768E+03  0.00000000000E+00 0.  1.
         23    2    1    2    0    0  0.87650765685E+02 -0.19537608055E+02 -0.90782947826E+02  0.15799794928E+03  0.93045330385E+02 0.  0.
         24    2    1    2    0    0 -0.99338221423E+02  0.39559273797E+02  0.28744076107E+03  0.31743455051E+03  0.81911442150E+02 0.  0.
        -11    1    4    4    0    0 -0.39702421138E+02 -0.14610025622E+02  0.44131428985E+02  0.61133608737E+02  0.00000000000E+00 0.  1.
         12    1    4    4    0    0 -0.59635800285E+02  0.54169299418E+02  0.24330933208E+03  0.25630094177E+03  0.00000000000E+00 0. -1.
        -11    1    3    3    0    0  0.27719249604E+02  0.20967497263E+02  0.79001205634E+01  0.35642736216E+02  0.00000000000E+00 0. -1.
         11    1    3    3    0    0  0.59931516081E+02 -0.40505105318E+02 -0.98683068389E+02  0.12235521306E+03  0.00000000000E+00 0.  1.
         21    1    1    2  502  501  0.11687455739E+02 -0.20021665742E+02  0.11120571592E+03  0.11359654473E+03  0.00000000000E+00 0. -1.
<scales pt_clust_5="13000.00000" pt_clust_6="13000.00000" pt_clust_7="13000.00000" pt_clust_8="13000.00000" pt_clust_9="23.18326"></scales>
<clustering>
<clus scale="   23.183">  1  9  2 -1</clus>
<clus scale="   81.911">  5  6 -1 -1</clus>
<clus scale="   93.045">  7  8 -1 -1</clus>
<clus scale="  122.729">  1  5  2 -1</clus>
<clus scale="   23.183">  1  5  2 -1</clus>
</clustering>
</event>
<event>
 9    2  0.3791909E-005  0.1156445E+03  0.7546771E-02  0.1255184E+00
          2   -1    0    0  502    0  0.00000000000E+00  0.00000000000E+00  0.21422786135E+03  0.21422786135E+03  0.00000000000E+00 0. -1.
         -1   -1    0    0    0  501 -0.00000000000E+00 -0.00000000000E+00 -0.40338543620E+03  0.40338543620E+03  0.00000000000E+00 0.  1.
         24    2    1    2    0    0 -0.69687206363E+02  0.51248111766E+02 -0.33810350184E+03  0.35705534067E+03  0.75444434253E+02 0.  0.
         23    2    1    2    0    0  0.17931732611E+02  0.45177187681E+01 -0.22843578389E+01  0.91268099031E+02  0.89345905294E+02 0.  0.
        -13    1    3    3    0    0 -0.75934061684E+02  0.21499767149E+02 -0.28643898257E+03  0.29711195271E+03  0.00000000000E+00 0.  1.
         14    1    3    3    0    0  0.62468553208E+01  0.29748344617E+02 -0.51664519269E+02  0.59943387960E+02  0.00000000000E+00 0. -1.
        -11    1    4    4    0    0  0.16884893205E+02  0.45976241981E+02 -0.72036357959E+01  0.49505624064E+02  0.00000000000E+00 0.  1.
         11    1    4    4    0    0  0.10468394058E+01 -0.41458523213E+02  0.49192779570E+01  0.41762474967E+02  0.00000000000E+00 0. -1.
         21    1    1    2  502  501  0.51755473752E+02 -0.55765830534E+02  0.15123028483E+03  0.16928985784E+03  0.00000000000E+00 0. -1.
<scales pt_clust_5="13000.00000" pt_clust_6="13000.00000" pt_clust_7="13000.00000" pt_clust_8="13000.00000" pt_clust_9="76.08191"></scales>
<clustering>
<clus scale="   75.444">  5  6 -1 -1</clus>
<clus scale="   76.082">  1  9  2 -1</clus>
<clus scale="   89.346">  7  8 -1 -1</clus>
<clus scale="  105.275">  2  5  1 -1</clus>
<clus scale="   76.082">  1  5  2 -1</clus>
</clustering>
</event>
<event>
 9    2  0.3791909E-005  0.1149262E+03  0.7546771E-02  0.1254882E+00
          2   -1    0    0  502    0  0.00000000000E+00  0.00000000000E+00  0.23528237064E+03  0.23528237064E+03  0.00000000000E+00 0. -1.
         -1   -1    0    0    0  501 -0.00000000000E+00 -0.00000000000E+00 -0.18169197921E+03  0.18169197921E+03  0.00000000000E+00 0.  1.
         24    2    1    2    0    0 -0.65362428857E+02  0.19310049062E+02 -0.12620754136E+03  0.16454942537E+03  0.80641458277E+02 0.  0.
         23    2    1    2    0    0  0.10266039847E+03 -0.63644258060E+01  0.12687374355E+03  0.18639691900E+03  0.89817600076E+02 0.  0.
        -13    1    3    3    0    0 -0.61030501004E+02  0.32625431444E+01 -0.13317238119E+03  0.14652729900E+03  0.00000000000E+00 0.  1.
         14    1    3    3    0    0 -0.43319278538E+01  0.16047505918E+02  0.69648398293E+01  0.18022126372E+02  0.00000000000E+00 0. -1.
        -11    1    4    4    0    0  0.52241607385E+02 -0.10822300505E+02  0.12481559838E+03  0.13573960855E+03  0.00000000000E+00 0. -1.
         11    1    4    4    0    0  0.50418791081E+02  0.44578746994E+01  0.20581451672E+01  0.50657310454E+02  0.00000000000E+00 0.  1.
         21    1    1    2  502  501 -0.37297969609E+02 -0.12945623256E+02  0.52924189245E+02  0.66028005465E+02  0.00000000000E+00 0. -1.
<scales pt_clust_5="13000.00000" pt_clust_6="13000.00000" pt_clust_7="13000.00000" pt_clust_8="13000.00000" pt_clust_9="39.48073"></scales>
<clustering>
<clus scale="   39.481">  1  9  2 -1</clus>
<clus scale="   80.641">  5  6 -1 -1</clus>
<clus scale="   89.818">  7  8 -1 -1</clus>
<clus scale="  107.907">  2  5  1 -1</clus>
<clus scale="   39.481">  1  5  2 -1</clus>
</clustering>
</event>
<event>
 9    2  0.3791909E-005  0.2118186E+03  0.7546771E-02  0.1141239E+00
         -1   -1    0    0    0  501 -0.00000000000E+00  0.00000000000E+00  0.17873981639E+03  0.17873981639E+03  0.00000000000E+00 0.  1.
          2   -1    0    0  502    0  0.00000000000E+00 -0.00000000000E+00 -0.40366898161E+03  0.40366898161E+03  0.00000000000E+00 0. -1.
         24    2    1    2    0    0 -0.92079613777E+02  0.16958953464E+03 -0.16971239714E+02  0.20969033418E+03  0.80266728725E+02 0.  0.
         23    2    1    2    0    0  0.63938120746E+02 -0.17634768587E+03 -0.54596848197E+02  0.21665041369E+03  0.93648258513E+02 0.  0.
        -13    1    3    3    0    0 -0.21871922117E+02  0.43159753475E+02  0.30837996755E+02  0.57377062847E+02  0.00000000000E+00 0.  1.
         14    1    3    3    0    0 -0.70207691660E+02  0.12642978116E+03 -0.47809236469E+02  0.15231327133E+03  0.00000000000E+00 0. -1.
        -13    1    4    4    0    0  0.34231856975E+02 -0.12265520921E+03  0.97753229635E+01  0.12771717706E+03  0.00000000000E+00 0.  1.
         13    1    4    4    0    0  0.29706263771E+02 -0.53692476669E+02 -0.64372171160E+02  0.88933236633E+02  0.00000000000E+00 0. -1.
         21    1    1    2  502  501  0.28141493031E+02  0.67581512391E+01 -0.15336107731E+03  0.15606805013E+03  0.00000000000E+00 0. -1.
<scales pt_clust_5="13000.00000" pt_clust_6="13000.00000" pt_clust_7="13000.00000" pt_clust_8="13000.00000" pt_clust_9="28.94160"></scales>
<clustering>
<clus scale="   28.942">  2  9  1 -1</clus>
<clus scale="   80.267">  5  6 -1 -1</clus>
<clus scale="   93.648">  7  8 -1 -1</clus>
<clus scale="  206.252">  1  5  2 -1</clus>
<clus scale="   28.942">  2  5  1 -1</clus>
</clustering>
</event>
<event>
 9    2  0.3791909E-005  0.1382789E+03  0.7546771E-02  0.1219163E+00
         -1   -1    0    0    0  501 -0.00000000000E+00  0.00000000000E+00  0.56783740799E+03  0.56783740799E+03  0.00000000000E+00 0.  1.
          2   -1    0    0  502    0  0.00000000000E+00 -0.00000000000E+00 -0.32777994861E+03  0.32777994861E+03  0.00000000000E+00 0. -1.
         23    2    1    2    0    0  0.27910194063E+02 -0.57536931363E+02  0.27975692693E+03  0.30239348869E+03  0.95333133975E+02 0.  0.
         24    2    1    2    0    0 -0.30266926054E+02  0.97257303017E+02 -0.30159230135E+03  0.32832555061E+03  0.80403240907E+02 0.  0.
        -13    1    4    4    0    0  0.15560691359E+02  0.23746481178E+02 -0.22883170326E+02  0.36464639969E+02  0.00000000000E+00 0.  1.
         14    1    4    4    0    0 -0.45827617413E+02  0.73510821839E+02 -0.27870913102E+03  0.29186091064E+03  0.00000000000E+00 0. -1.
        -11    1    3    3    0    0  0.23648961026E+02 -0.79259467747E+02  0.15500317071E+03  0.17569097733E+03  0.00000000000E+00 0.  1.
         11    1    3    3    0    0  0.42612330372E+01  0.21722536384E+02  0.12475375621E+03  0.12670251135E+03  0.00000000000E+00 0. -1.
         21    1    1    2  502  501  0.23567319908E+01 -0.39720371654E+02  0.26189283380E+03  0.26489831730E+03  0.00000000000E+00 0. -1.
<scales pt_clust_5="13000.00000" pt_clust_6="13000.00000" pt_clust_7="13000.00000" pt_clust_8="13000.00000" pt_clust_9="39.79023"></scales>
<clustering>
<clus scale="   39.790">  1  9  2 -1</clus>
<clus scale="   80.403">  5  6 -1 -1</clus>
<clus scale="   95.333">  7  8 -1 -1</clus>
<clus scale="  128.442">  2  5  1 -1</clus>
<clus scale="  128.442">  2  5  1 -1</clus>
</clustering>
</event>
<event>
 9    2  0.3791909E-005  0.1281698E+03  0.7546771E-02  0.1236372E+00
          4   -1    0    0  502    0  0.00000000000E+00  0.00000000000E+00  0.38310034191E+02  0.38310034191E+02  0.00000000000E+00 0. -1.
         -3   -1    0    0    0  501 -0.00000000000E+00 -0.00000000000E+00 -0.83709321178E+03  0.83709321178E+03  0.00000000000E+00 0.  1.
         24    2    1    2    0    0 -0.71575914561E+02  0.40231342943E+02 -0.57378455926E+03  0.58500359832E+03  0.79112686129E+02 0.  0.
         23    2    1    2    0    0  0.56879129781E+02 -0.57355520860E+02 -0.98116621221E+02  0.16152655448E+03  0.99694860775E+02 0.  0.
        -13    1    3    3    0    0 -0.79619342129E+02  0.54299851759E+02 -0.51902397295E+03  0.52789544234E+03  0.00000000000E+00 0.  1.
         14    1    3    3    0    0  0.80434275679E+01 -0.14068508816E+02 -0.54760586304E+02  0.57108155983E+02  0.00000000000E+00 0. -1.
        -13    1    4    4    0    0 -0.10529704377E+02  0.20687692459E+02 -0.79340591172E+01  0.24531705763E+02  0.00000000000E+00 0. -1.
         13    1    4    4    0    0  0.67408834158E+02 -0.78043213319E+02 -0.90182562104E+02  0.13699484872E+03  0.00000000000E+00 0.  1.
         21    1    1    2  502  501  0.14696784781E+02  0.17124177916E+02 -0.12688199711E+03  0.12887309317E+03  0.00000000000E+00 0.  1.
<scales pt_clust_5="13000.00000" pt_clust_6="13000.00000" pt_clust_7="13000.00000" pt_clust_8="13000.00000" pt_clust_9="22.56619"></scales>
<clustering>
<clus scale="   22.566">  2  9  1 -1</clus>
<clus scale="   79.113">  5  6 -1 -1</clus>
<clus scale="   99.695">  7  8 -1 -1</clus>
<clus scale="  112.904">  2  5  1 -1</clus>
<clus scale="  128.170">  1  5  2 -1</clus>
</clustering>
</event>
<event>
 9    2  0.3791909E-005  0.1220738E+03  0.7546771E-02  0.1258853E+00
         -1   -1    0    0    0  501 -0.00000000000E+00  0.00000000000E+00  0.40155255681E+03  0.40155255681E+03  0.00000000000E+00 0.  1.
          2   -1    0    0  502    0  0.00000000000E+00 -0.00000000000E+00 -0.52813318312E+02  0.52813318312E+02  0.00000000000E+00 0. -1.
         24    2    1    2    0    0  0.92394523889E+01 -0.21655360052E+02  0.13677375881E+03  0.16011587165E+03  0.79848037896E+02 0.  0.
         23    2    1    2    0    0 -0.66007800541E+02 -0.40211848617E+02  0.13144728945E+03  0.17791696509E+03  0.91662609937E+02 0.  0.
        -13    1    3    3    0    0  0.27334207887E+02 -0.64659580755E+01  0.80178848845E+01  0.29210512023E+02  0.00000000000E+00 0.  1.
         14    1    3    3    0    0 -0.18094755498E+02 -0.15189401977E+02  0.12875587392E+03  0.13090535963E+03  0.00000000000E+00 0. -1.
        -11    1    4    4    0    0 -0.35392340548E+02 -0.39006886290E+02  0.13700255793E+03  0.14677825393E+03  0.00000000000E+00 0.  1.
         11    1    4    4    0    0 -0.30615459993E+02 -0.12049623269E+01 -0.55552684770E+01  0.31138711159E+02  0.00000000000E+00 0. -1.
         21    1    1    2  502  501  0.56768348152E+02  0.61867208670E+02  0.80518190241E+02  0.11633303839E+03  0.00000000000E+00 0. -1.
<scales pt_clust_5="13000.00000" pt_clust_6="13000.00000" pt_clust_7="13000.00000" pt_clust_8="13000.00000" pt_clust_9="80.62240"></scales>
<clustering>
<clus scale="   79.848">  5  6 -1 -1</clus>
<clus scale="   83.247">  1  5  2 -1</clus>
<clus scale="   80.622">  2  9  1 -1</clus>
<clus scale="   91.663">  7  8 -1 -1</clus>
<clus scale="   80.622">  2  5  1 -1</clus>
</clustering>
</event>
<event>
 9    2  0.3791909E-005  0.2586385E+03  0.7546771E-02  0.1108483E+00
          4   -1    0    0  502    0  0.00000000000E+00  0.00000000000E+00  0.41643945711E+03  0.41643945711E+03  0.00000000000E+00 0. -1.
         -3   -1    0    0    0  501 -0.00000000000E+00 -0.00000000000E+00 -0.25618905988E+03  0.25618905988E+03  0.00000000000E+00 0.  1.
         23    2    1    2    0    0 -0.80877586105E+02  0.23481079426E+03 -0.11340738794E+03  0.28769709653E+03  0.90725358537E+02 0.  0.
         24    2    1    2    0    0  0.91850907959E+02 -0.20309074785E+03  0.23519622986E+03  0.33388373321E+03  0.80489996921E+02 0.  0.
        -13    1    4    4    0    0  0.20938092552E+02 -0.14123312609E+03  0.14661801725E+03  0.20465102641E+03  0.00000000000E+00 0.  1.
         14    1    4    4    0    0  0.70912815408E+02 -0.61857621759E+02  0.88578212606E+02  0.12923270680E+03  0.00000000000E+00 0. -1.
        -13    1    3    3    0    0  0.64214737107E+01  0.11988017830E+03 -0.49597507027E+02  0.12989382271E+03  0.00000000000E+00 0. -1.
         13    1    3    3    0    0 -0.87299059816E+02  0.11493061595E+03 -0.63809880911E+02  0.15780327383E+03  0.00000000000E+00 0.  1.
         21    1    1    2  502  501 -0.10973321854E+02 -0.31720046405E+02  0.38461555309E+02  0.51047687247E+02  0.00000000000E+00 0. -1.
<scales pt_clust_5="13000.00000" pt_clust_6="13000.00000" pt_clust_7="13000.00000" pt_clust_8="13000.00000" pt_clust_9="33.56449"></scales>
<clustering>
<clus scale="   33.564">  1  9  2 -1</clus>
<clus scale="   80.490">  5  6 -1 -1</clus>
<clus scale="   90.725">  7  8 -1 -1</clus>
<clus scale="  255.228">  1  5  2 -1</clus>
<clus scale="   33.564">  1  5  2 -1</clus>
</clustering>
</event>
<event>
 9    2  0.3791909E-005  0.1211067E+03  0.7546771E-02  0.1245688E+00
         -1   -1    0    0    0  501 -0.00000000000E+00  0.00000000000E+00  0.61131804342E+02  0.61131804342E+02  0.00000000000E+00 0.  1.
          2   -1    0    0  502    0  0.00000000000E+00 -0.00000000000E+00 -0.59096508779E+03  0.59096508779E+03  0.00000000000E+00 0. -1.
         24    2    1    2    0    0 -0.65968220896E+02  0.34253640566E+02 -0.27244850337E+02  0.11004058452E+03  0.76429904560E+02 0.  0.
         23    2    1    2    0    0  0.11202273839E+03 -0.41003496073E+02 -0.43412805130E+03  0.45927102506E+03  0.90732182394E+02 0.  0.
        -13    1    3    3    0    0 -0.25233422132E+02  0.51139704379E+02  0.21133824684E+01  0.57065412835E+02  0.00000000000E+00 0.  1.
         14    1    3    3    0    0 -0.40734798764E+02 -0.16886063814E+02 -0.29358232806E+02  0.52975171684E+02  0.00000000000E+00 0. -1.
        -11    1    4    4    0    0  0.26547288653E+02 -0.56100752476E+02 -0.20776286777E+03  0.21683510368E+03  0.00000000000E+00 0. -1.
         11    1    4    4    0    0  0.85475449737E+02  0.15097256404E+02 -0.22636518353E+03  0.24243592138E+03  0.00000000000E+00 0.  1.
         21    1    1    2  502  501 -0.46054517493E+02  0.67498555070E+01 -0.68460381808E+02  0.82785282558E+02  0.00000000000E+00 0.  1.
<scales pt_clust_5="13000.00000" pt_clust_6="13000.00000" pt_clust_7="13000.00000" pt_clust_8="13000.00000" pt_clust_9="46.54653"></scales>
<clustering>
<clus scale="   46.547">  2  9  1 -1</clus>
<clus scale="   76.430">  5  6 -1 -1</clus>
<clus scale="   90.732">  7  8 -1 -1</clus>
<clus scale="  110.797">  1  5  2 -1</clus>
<clus scale="   46.547">  2  5  1 -1</clus>
</clustering>
</event>
<event>
 9    2  0.3791909E-005  0.1910391E+03  0.7546771E-02  0.1194422E+00
          2   -1    0    0  502    0  0.00000000000E+00  0.00000000000E+00  0.51521440984E+03  0.51521440984E+03  0.00000000000E+00 0. -1.
         -1   -1    0    0    0  501 -0.00000000000E+00 -0.00000000000E+00 -0.40310246488E+03  0.40310246488E+03  0.00000000000E+00 0.  1.
         23    2    1    2    0    0 -0.12476251142E+03 -0.10904495299E+03 -0.32865929267E+03  0.37997689036E+03  0.94387607880E+02 0.  0.
         24    2    1    2    0    0  0.84788809682E+01 -0.20312965915E+02  0.23281833291E+02  0.86064894805E+02  0.79878747797E+02 0.  0.
        -11    1    4    4    0    0  0.86101832648E+00 -0.40199535629E+02 -0.14459782172E+02  0.42729724055E+02  0.00000000000E+00 0.  1.
         12    1    4    4    0    0  0.76178626418E+01  0.19886569714E+02  0.37741615463E+02  0.43335170750E+02  0.00000000000E+00 0. -1.
        -11    1    3    3    0    0 -0.39663425148E+02 -0.85727853870E+02 -0.11503455377E+03  0.14884690385E+03  0.00000000000E+00 0. -1.
         11    1    3    3    0    0 -0.85099086271E+02 -0.23317099117E+02 -0.21362473890E+03  0.23112998651E+03  0.00000000000E+00 0.  1.
         21    1    1    2  502  501  0.11628363045E+03  0.12935791890E+03  0.41748940434E+03  0.45227508956E+03  0.00000000000E+00 0. -1.
<scales pt_clust_5="13000.00000" pt_clust_6="13000.00000" pt_clust_7="13000.00000" pt_clust_8="13000.00000" pt_clust_9="166.09315"></scales>
<clustering>
<clus scale="   79.879">  5  6 -1 -1</clus>
<clus scale="   82.856">  1  5  2 -1</clus>
<clus scale="   94.388">  7  8 -1 -1</clus>
<clus scale="  166.093">  1  9  2 -1</clus>
<clus scale="   82.856">  1  5  2 -1</clus>
</clustering>
</event>
<event>
 9    2  0.3791909E-005  0.2511858E+03  0.7546771E-02  0.1115940E+00
          4   -1    0    0  502    0  0.00000000000E+00  0.00000000000E+00  0.23400510550E+03  0.23400510550E+03  0.00000000000E+00 0. -1.
         -3   -1    0    0    0  501 -0.00000000000E+00 -0.00000000000E+00 -0.93358952525E+03  0.93358952525E+03  0.00000000000E+00 0.  1.
         23    2    1    2    0    0 -0.20752136605E+03 -0.68147458568E+02 -0.83379727766E+03  0.87134171883E+03  0.12770785904E+03 0.  0.
         24    2    1    2    0    0  0.19954613542E+03  0.20681015103E+02  0.10880456641E+03  0.24182636661E+03  0.79969952902E+02 0.  0.
        -11    1    4    4    0    0  0.50700376925E+02  0.14346221199E+02 -0.69693923372E+01  0.53149926741E+02  0.00000000000E+00 0.  1.
         12    1    4    4    0    0  0.14884575850E+03  0.63347939042E+01  0.11577395875E+03  0.18867643987E+03  0.00000000000E+00 0. -1.
        -11    1    3    3    0    0 -0.14878085429E+03 -0.98510756462E+01 -0.34879395079E+03  0.37932836225E+03  0.00000000000E+00 0. -1.
         11    1    3    3    0    0 -0.58740511763E+02 -0.58296382922E+02 -0.48500332686E+03  0.49201335658E+03  0.00000000000E+00 0.  1.
         21    1    1    2  502  501  0.79752306324E+01  0.47466443465E+02  0.25408291490E+02  0.54426545318E+02  0.00000000000E+00 0. -1.
<scales pt_clust_5="13000.00000" pt_clust_6="13000.00000" pt_clust_7="13000.00000" pt_clust_8="13000.00000" pt_clust_9="48.13177"></scales>
<clustering>
<clus scale="   48.132">  1  9  2 -1</clus>
<clus scale="   79.970">  5  6 -1 -1</clus>
<clus scale="  127.708">  7  8 -1 -1</clus>
<clus scale="  230.608">  1  5  2 -1</clus>
<clus scale="   48.132">  1  5  2 -1</clus>
</clustering>
</event>
<event>
 9    2  0.3791909E-005  0.1239078E+03  0.7546771E-02  0.1240093E+00
          2   -1    0    0  502    0  0.00000000000E+00  0.00000000000E+00  0.68714038305E+03  0.68714038305E+03  0.00000000000E+00 0. -1.
         -1   -1    0    0    0  501 -0.00000000000E+00 -0.00000000000E+00 -0.82636214099E+02  0.82636214099E+02  0.00000000000E+00 0.  1.
         23    2    1    2    0    0 -0.70643577572E+02  0.46408799765E+02 -0.22006842956E+02  0.12666235202E+03  0.91731992974E+02 0.  0.
         24    2    1    2    0    0  0.75315259630E+02 -0.13898573381E+02  0.51589613117E+03  0.52772624196E+03  0.80502233688E+02 0.  0.
        -13    1    4    4    0    0 -0.30531713365E+01 -0.26441805937E+02  0.71397011758E+02  0.76197271896E+02  0.00000000000E+00 0.  1.
         14    1    4    4    0    0  0.78368430967E+02  0.12543232556E+02  0.44449911941E+03  0.45152897007E+03  0.00000000000E+00 0. -1.
        -11    1    3    3    0    0 -0.31852779740E+02  0.71674053271E+02 -0.14594404881E+02  0.79779484476E+02  0.00000000000E+00 0.  1.
         11    1    3    3    0    0 -0.38790797831E+02 -0.25265253506E+02 -0.74124380744E+01  0.46882867546E+02  0.00000000000E+00 0. -1.
         21    1    1    2  502  501 -0.46716820586E+01 -0.32510226384E+02  0.11061488074E+03  0.11538800316E+03  0.00000000000E+00 0. -1.
<scales pt_clust_5="13000.00000" pt_clust_6="13000.00000" pt_clust_7="13000.00000" pt_clust_8="13000.00000" pt_clust_9="32.84417"></scales>
<clustering>
<clus scale="   32.844">  1  9  2 -1</clus>
<clus scale="   80.502">  5  6 -1 -1</clus>
<clus scale="   91.732">  7  8 -1 -1</clus>
<clus scale="  115.840">  1  5  2 -1</clus>
<clus scale="   32.844">  1  5  2 -1</clus>
</clustering>
</event>
<event>
 9    2  0.3791909E-005  0.9806994E+02  0.7546771E-02  0.1290362E+00
         -1   -1    0    0    0  501 -0.00000000000E+00  0.00000000000E+00  0.16260360910E+02  0.16260360910E+02  0.00000000000E+00 0.  1.
          2   -1    0    0  502    0  0.00000000000E+00 -0.00000000000E+00 -0.15572872659E+04  0.15572872659E+04  0.00000000000E+00 0. -1.
         23    2    1    2    0    0 -0.29002745462E+02 -0.49374939701E+01 -0.16182420146E+03  0.18852498722E+03  0.92136097906E+02 0.  0.
         24    2    1    2    0    0  0.21275221613E+02  0.27656317661E+02 -0.12769688709E+04  0.12800101826E+04  0.80988045561E+02 0.  0.
        -13    1    4    4    0    0 -0.71101342646E+01  0.20573985807E+02 -0.87005353326E+02  0.89687091650E+02  0.00000000000E+00 0.  1.
         14    1    4    4    0    0  0.28385355878E+02  0.70823318537E+01 -0.11899635175E+04  0.11903230910E+04  0.00000000000E+00 0. -1.
        -11    1    3    3    0    0 -0.59203649072E+01  0.32576247568E+02 -0.17136928179E+02  0.37281857969E+02  0.00000000000E+00 0.  1.
         11    1    3    3    0    0 -0.23082380555E+02 -0.37513741538E+02 -0.14468727328E+03  0.15124312925E+03  0.00000000000E+00 0. -1.
         21    1    1    2  502  501  0.77275238487E+01 -0.22718823691E+02 -0.10223383267E+03  0.10501245696E+03  0.00000000000E+00 0. -1.
<scales pt_clust_5="13000.00000" pt_clust_6="13000.00000" pt_clust_7="13000.00000" pt_clust_8="13000.00000" pt_clust_9="23.99707"></scales>
<clustering>
<clus scale="   23.997">  1  9  2 -1</clus>
<clus scale="   80.988">  5  6 -1 -1</clus>
<clus scale="   87.680">  2  5  1 -1</clus>
<clus scale="   92.136">  7  8 -1 -1</clus>
<clus scale="   87.680">  2  5  1 -1</clus>
</clustering>
</event>
<event>
 9    2  0.3791909E-005  0.1455515E+03  0.7546771E-02  0.1208628E+00
          2   -1    0    0  502    0  0.00000000000E+00  0.00000000000E+00  0.96472427758E+03  0.96472427758E+03  0.00000000000E+00 0. -1.
         -1   -1    0    0    0  501 -0.00000000000E+00 -0.00000000000E+00 -0.45166280646E+02  0.45166280646E+02  0.00000000000E+00 0.  1.
         23    2    1    2    0    0  0.10978643180E+03 -0.22390865535E+02  0.10548140386E+03  0.17932892969E+03  0.92076745134E+02 0.  0.
         24    2    1    2    0    0 -0.11725784194E+03  0.32636113135E+01  0.65106170725E+03  0.66625847330E+03  0.79113550900E+02 0.  0.
        -13    1    4    4    0    0 -0.36009830350E+02 -0.99831014058E+01  0.69587707705E+02  0.78986196637E+02  0.00000000000E+00 0.  1.
         14    1    4    4    0    0 -0.81248011587E+02  0.13246712719E+02  0.58147399955E+03  0.58727227666E+03  0.00000000000E+00 0. -1.
        -11    1    3    3    0    0  0.31064223929E+02 -0.46670703721E+02  0.17343938914E+02  0.58685200955E+02  0.00000000000E+00 0.  1.
         11    1    3    3    0    0  0.78722207874E+02  0.24279838185E+02  0.88137464946E+02  0.12064372873E+03  0.00000000000E+00 0. -1.
         21    1    1    2  502  501  0.74714101344E+01  0.19127254222E+02  0.16301488582E+03  0.16430315524E+03  0.00000000000E+00 0. -1.
<scales pt_clust_5="13000.00000" pt_clust_6="13000.00000" pt_clust_7="13000.00000" pt_clust_8="13000.00000" pt_clust_9="20.53470"></scales>
<clustering>
<clus scale="   20.535">  1  9  2 -1</clus>
<clus scale="   79.114">  5  6 -1 -1</clus>
<clus scale="   92.077">  7  8 -1 -1</clus>
<clus scale="  137.717">  1  5  2 -1</clus>
<clus scale="   20.535">  1  5  2 -1</clus>
</clustering>
</event>
<event>
 9    2  0.3791909E-005  0.9957294E+02  0.7546771E-02  0.1287986E+00
         -1   -1    0    0    0  501 -0.00000000000E+00  0.00000000000E+00  0.10166507715E+03  0.10166507715E+03  0.00000000000E+00 0.  1.
          2   -1    0    0  502    0  0.00000000000E+00 -0.00000000000E+00 -0.16892038466E+03  0.16892038466E+03  0.00000000000E+00 0. -1.
         23    2    1    2    0    0 -0.46714534954E+02  0.99367121690E+01  0.34771769476E+02  0.11018212355E+03  0.93005582484E+02 0.  0.
         24    2    1    2    0    0  0.13001446195E+02 -0.56388681375E+01 -0.42177076544E+02  0.91576988868E+02  0.80041268526E+02 0.  0.
        -13    1    4    4    0    0  0.27726349815E+02  0.73614021151E+01  0.14104054744E+02  0.31966624398E+02  0.00000000000E+00 0.  1.
         14    1    4    4    0    0 -0.14724903621E+02 -0.13000270253E+02 -0.56281131287E+02  0.59610364470E+02  0.00000000000E+00 0. -1.
        -11    1    3    3    0    0 -0.51218981805E+02  0.42264049159E+02  0.39403105578E+02  0.77215533914E+02  0.00000000000E+00 0.  1.
         11    1    3    3    0    0  0.45044468508E+01 -0.32327336990E+02 -0.46313361023E+01  0.32966589638E+02  0.00000000000E+00 0. -1.
         21    1    1    2  502  501  0.33713088759E+02 -0.42978440314E+01 -0.59850000444E+02  0.68826349388E+02  0.00000000000E+00 0. -1.
<scales pt_clust_5="13000.00000" pt_clust_6="13000.00000" pt_clust_7="13000.00000" pt_clust_8="13000.00000" pt_clust_9="33.98594"></scales>
<clustering>
<clus scale="   33.986">  2  9  1 -1</clus>
<clus scale="   80.041">  5  6 -1 -1</clus>
<clus scale="   87.586">  2  5  1 -1</clus>
<clus scale="   93.006">  7  8 -1 -1</clus>
<clus scale="   33.986">  2  5  1 -1</clus>
</clustering>
</event>
<event>
 9    2  0.3791909E-005  0.1046347E+03  0.7546771E-02  0.1276019E+00
          2   -1    0    0  502    0  0.00000000000E+00  0.00000000000E+00  0.40883016715E+03  0.40883016715E+03  0.00000000000E+00 0. -1.
         -1   -1    0    0    0  501 -0.00000000000E+00 -0.00000000000E+00 -0.45279915717E+02  0.45279915717E+02  0.00000000000E+00 0.  1.
         24    2    1    2    0    0  0.55194908074E+02 -0.68515349699E+01  0.60282708697E+02  0.11523861356E+03  0.80947585996E+02 0.  0.
         23    2    1    2    0    0 -0.24627211125E+02  0.41498513631E+02  0.19344956367E+03  0.21972959693E+03  0.92356569458E+02 0.  0.
        -11    1    3    3    0    0  0.39974477774E+02  0.11075342248E+02 -0.86779718142E+01  0.42378405751E+02  0.00000000000E+00 0.  1.
         12    1    3    3    0    0  0.15220430300E+02 -0.17926877218E+02  0.68960680511E+02  0.72860207808E+02  0.00000000000E+00 0. -1.
        -11    1    4    4    0    0  0.88118220273E+01  0.61379513950E+02  0.14420971676E+03  0.15697622542E+03  0.00000000000E+00 0.  1.
         11    1    4    4    0    0 -0.33439033152E+02 -0.19881000319E+02  0.49239846911E+02  0.62753371509E+02  0.00000000000E+00 0. -1.
         21    1    1    2  502  501 -0.30567696949E+02 -0.34646978661E+02  0.10981797906E+03  0.11914187237E+03  0.00000000000E+00 0. -1.
<scales pt_clust_5="13000.00000" pt_clust_6="13000.00000" pt_clust_7="13000.00000" pt_clust_8="13000.00000" pt_clust_9="46.20387"></scales>
<clustering>
<clus scale="   46.204">  1  9  2 -1</clus>
<clus scale="   80.948">  5  6 -1 -1</clus>
<clus scale="   92.357">  7  8 -1 -1</clus>
<clus scale="   94.716">  2  5  1 -1</clus>
<clus scale="   46.204">  1  5  2 -1</clus>
</clustering>
</event>
<event>
 9    2  0.3791909E-005  0.9584267E+02  0.7546771E-02  0.1297040E+00
         -3   -1    0    0    0  501 -0.00000000000E+00  0.00000000000E+00  0.36402948687E+02  0.36402948687E+02  0.00000000000E+00 0.  1.
          4   -1    0    0  502    0  0.00000000000E+00 -0.00000000000E+00 -0.81166639490E+03  0.81166639490E+03  0.00000000000E+00 0. -1.
         23    2    1    2    0    0 -0.14284767480E+01 -0.11898395802E+02 -0.49965401062E+02  0.10735214642E+03  0.94256722144E+02 0.  0.
         24    2    1    2    0    0  0.45266235105E+02  0.36026388751E+02 -0.44856281694E+03  0.45949433957E+03  0.81114207313E+02 0.  0.
        -13    1    4    4    0    0 -0.17988706221E+02  0.22865911386E+02 -0.76148893203E+02  0.81517466785E+02  0.00000000000E+00 0.  1.
         14    1    4    4    0    0  0.63254941326E+02  0.13160477365E+02 -0.37241392374E+03  0.37797687279E+03  0.00000000000E+00 0. -1.
        -11    1    3    3    0    0 -0.40142234963E+02 -0.17159422002E+02 -0.52404927285E+02  0.68206460068E+02  0.00000000000E+00 0.  1.
         11    1    3    3    0    0  0.38713758215E+02  0.52610261995E+01  0.24395262232E+01  0.39145686353E+02  0.00000000000E+00 0. -1.
         21    1    1    2  502  501 -0.43837758357E+02 -0.24127992949E+02 -0.27673522821E+03  0.28122285760E+03  0.00000000000E+00 0.  1.
<scales pt_clust_5="13000.00000" pt_clust_6="13000.00000" pt_clust_7="13000.00000" pt_clust_8="13000.00000" pt_clust_9="50.03908"></scales>
<clustering>
<clus scale="   50.039">  2  9  1 -1</clus>
<clus scale="   81.114">  5  6 -1 -1</clus>
<clus scale="   82.952">  2  5  1 -1</clus>
<clus scale="   94.257">  7  8 -1 -1</clus>
<clus scale="   50.039">  2  5  1 -1</clus>
</clustering>
</event>
<event>
 9    2  0.3791909E-005  0.9879486E+02  0.7546771E-02  0.1289482E+00
          2   -1    0    0  502    0  0.00000000000E+00  0.00000000000E+00  0.41225681902E+03  0.41225681902E+03  0.00000000000E+00 0. -1.
         -1   -1    0    0    0  501 -0.00000000000E+00 -0.00000000000E+00 -0.58011857663E+02  0.58011857663E+02  0.00000000000E+00 0.  1.
         23    2    1    2    0    0 -0.39831083418E+02 -0.17709559322E+02  0.50186071577E+01  0.10110247385E+03  0.91084466864E+02 0.  0.
         24    2    1    2    0    0  0.20416595276E+02 -0.14292413679E+02  0.23544488316E+03  0.24938610524E+03  0.78345555274E+02 0.  0.
        -11    1    4    4    0    0  0.35221282232E+01 -0.33197129190E+02  0.39107117170E+02  0.51418103690E+02  0.00000000000E+00 0.  1.
         12    1    4    4    0    0  0.16894467053E+02  0.18904715511E+02  0.19633776599E+03  0.19796800155E+03  0.00000000000E+00 0. -1.
        -11    1    3    3    0    0 -0.66304925026E+02 -0.23373119242E+02 -0.85460212153E+01  0.70821467539E+02  0.00000000000E+00 0.  1.
         11    1    3    3    0    0  0.26473841609E+02  0.56635599202E+01  0.13564628373E+02  0.30281006314E+02  0.00000000000E+00 0. -1.
         21    1    1    2  502  501  0.19414488141E+02  0.32001973001E+02  0.11378147104E+03  0.11978009759E+03  0.00000000000E+00 0. -1.
<scales pt_clust_5="13000.00000" pt_clust_6="13000.00000" pt_clust_7="13000.00000" pt_clust_8="13000.00000" pt_clust_9="37.43058"></scales>
<clustering>
<clus scale="   37.431">  1  9  2 -1</clus>
<clus scale="   78.346">  5  6 -1 -1</clus>
<clus scale="   87.190">  1  5  2 -1</clus>
<clus scale="   91.084">  7  8 -1 -1</clus>
<clus scale="   37.431">  1  5  2 -1</clus>
</clustering>
</event>
<event>
 9    2  0.3791909E-005  0.2026778E+03  0.7546771E-02  0.1149113E+00
          2   -1    0    0  502    0  0.00000000000E+00  0.00000000000E+00  0.12330611461E+03  0.12330611461E+03  0.00000000000E+00 0. -1.
         -1   -1    0    0    0  501 -0.00000000000E+00 -0.00000000000E+00 -0.55441851680E+03  0.55441851680E+03  0.00000000000E+00 0.  1.
         23    2    1    2    0    0 -0.15725898842E+03 -0.79001784365E+02 -0.29598883340E+03  0.35623509598E+03  0.91227094295E+02 0.  0.
         24    2    1    2    0    0  0.18495357138E+03  0.49008605593E+02 -0.17132283870E+03  0.26692793868E+03  0.72727865357E+02 0.  0.
        -11    1    4    4    0    0  0.14994955264E+03  0.33341974053E+02 -0.16918667850E+03  0.22851846261E+03  0.00000000000E+00 0.  1.
         12    1    4    4    0    0  0.35004018736E+02  0.15666631540E+02 -0.21361601985E+01  0.38409476069E+02  0.00000000000E+00 0. -1.
        -13    1    3    3    0    0 -0.76536924180E+02 -0.83569051795E+02 -0.20709880098E+03  0.23607541284E+03  0.00000000000E+00 0. -1.
         13    1    3    3    0    0 -0.80722064238E+02  0.45672674298E+01 -0.88890032428E+02  0.12015968314E+03  0.00000000000E+00 0.  1.
         21    1    1    2  502  501 -0.27694582960E+02  0.29993178773E+02  0.36199269908E+02  0.54561596752E+02  0.00000000000E+00 0.  1.
<scales pt_clust_5="13000.00000" pt_clust_6="13000.00000" pt_clust_7="13000.00000" pt_clust_8="13000.00000" pt_clust_9="40.82378"></scales>
<clustering>
<clus scale="   40.824">  1  9  2 -1</clus>
<clus scale="   72.728">  5  6 -1 -1</clus>
<clus scale="   91.227">  7  8 -1 -1</clus>
<clus scale="  195.052">  1  5  2 -1</clus>
<clus scale="   40.824">  1  5  2 -1</clus>
</clustering>
</event>
<event>
 9    2  0.3791909E-005  0.1262064E+03  0.7546771E-02  0.1236685E+00
          2   -1    0    0  502    0  0.00000000000E+00  0.00000000000E+00  0.23294991873E+03  0.23294991873E+03  0.00000000000E+00 0. -1.
         -1   -1    0    0    0  501 -0.00000000000E+00 -0.00000000000E+00 -0.14594872470E+03  0.14594872470E+03  0.00000000000E+00 0.  1.
         24    2    1    2    0    0 -0.80465764558E+02 -0.20777031418E+02 -0.79235816276E+02  0.13960952187E+03  0.79410828698E+02 0.  0.
         23    2    1    2    0    0  0.10246457352E+03  0.13333956740E+02  0.10433875060E+03  0.17317753777E+03  0.91799245546E+02 0.  0.
        -11    1    3    3    0    0 -0.72866211914E+02  0.15905728216E+02 -0.66840134124E+02  0.10015028986E+03  0.00000000000E+00 0.  1.
         12    1    3    3    0    0 -0.75995526437E+01 -0.36682759634E+02 -0.12395682151E+02  0.39459232009E+02  0.00000000000E+00 0. -1.
        -11    1    4    4    0    0  0.45561377073E+02 -0.32735669784E+02  0.15792372753E+02  0.58282606275E+02  0.00000000000E+00 0.  1.
         11    1    4    4    0    0  0.56903196448E+02  0.46069626524E+02  0.88546377843E+02  0.11489493149E+03  0.00000000000E+00 0. -1.
         21    1    1    2  502  501 -0.21998808963E+02  0.74430746785E+01  0.61898259708E+02  0.66111583791E+02  0.00000000000E+00 0. -1.
<scales pt_clust_5="13000.00000" pt_clust_6="13000.00000" pt_clust_7="13000.00000" pt_clust_8="13000.00000" pt_clust_9="23.22384"></scales>
<clustering>
<clus scale="   23.224">  1  9  2 -1</clus>
<clus scale="   79.411">  5  6 -1 -1</clus>
<clus scale="   91.799">  7  8 -1 -1</clus>
<clus scale="  117.503">  2  5  1 -1</clus>
<clus scale="   23.224">  1  5  2 -1</clus>
</clustering>
</event>
<event>
 9    2  0.3791909E-005  0.2137570E+03  0.7546771E-02  0.1180122E+00
          2   -1    0    0  502    0  0.00000000000E+00  0.00000000000E+00  0.86372232779E+03  0.86372232779E+03  0.00000000000E+00 0. -1.
         -1   -1    0    0    0  501 -0.00000000000E+00 -0.00000000000E+00 -0.71369444898E+02  0.71369444898E+02  0.00000000000E+00 0.  1.
         23    2    1    2    0    0  0.14657522371E+03  0.11409891143E+03  0.27761801136E+03  0.34614881043E+03  0.90798573412E+02 0.  0.
         24    2    1    2    0    0 -0.16522339774E+01  0.28554811135E+02  0.17616764218E+03  0.19399926208E+03  0.76043201027E+02 0.  0.
        -11    1    4    4    0    0  0.28159607072E+02  0.29759547726E+01  0.13150929541E+03  0.13452328630E+03  0.00000000000E+00 0.  1.
         12    1    4    4    0    0 -0.29811841049E+02  0.25578856362E+02  0.44658346766E+02  0.59475975784E+02  0.00000000000E+00 0. -1.
        -11    1    3    3    0    0  0.13988512995E+03  0.92600111733E+02  0.18035598230E+03  0.24631465775E+03  0.00000000000E+00 0.  1.
         11    1    3    3    0    0  0.66900937655E+01  0.21498799698E+02  0.97262029067E+02  0.99834152680E+02  0.00000000000E+00 0. -1.
         21    1    1    2  502  501 -0.14492298974E+03 -0.14265372257E+03  0.33856722935E+03  0.39494370017E+03  0.00000000000E+00 0. -1.
<scales pt_clust_5="13000.00000" pt_clust_6="13000.00000" pt_clust_7="13000.00000" pt_clust_8="13000.00000" pt_clust_9="193.51406"></scales>
<clustering>
<clus scale="   76.043">  5  6 -1 -1</clus>
<clus scale="   81.245">  1  5  2 -1</clus>
<clus scale="   90.799">  7  8 -1 -1</clus>
<clus scale="  193.514">  1  9  2 -1</clus>
<clus scale="   81.245">  1  5  2 -1</clus>
</clustering>
</event>
<event>
 9    2  0.3791909E-005  0.9182111E+02  0.7546771E-02  0.1301630E+00
         -1   -1    0    0    0  501 -0.00000000000E+00  0.00000000000E+00  0.11388138025E+03  0.11388138025E+03  0.00000000000E+00 0.  1.
          2   -1    0    0  502    0  0.00000000000E+00 -0.00000000000E+00 -0.15025264819E+03  0.15025264819E+03  0.00000000000E+00 0. -1.
         24    2    1    2    0    0 -0.18620666142E+02  0.15867170480E+02  0.62843108768E+02  0.10797890707E+03  0.84330846936E+02 0.  0.
         23    2    1    2    0    0  0.77783811319E+01  0.10933484346E+02 -0.83656292794E+02  0.12332397430E+03  0.89612404393E+02 0.  0.
        -13    1    3    3    0    0 -0.16257102657E+02 -0.32261051289E+02  0.42216670349E+02  0.55563621844E+02  0.00000000000E+00 0.  1.
         14    1    3    3    0    0 -0.23635634849E+01  0.48128221770E+02  0.20626438419E+02  0.52415285222E+02  0.00000000000E+00 0. -1.
        -13    1    4    4    0    0 -0.23828457664E+02  0.20332780088E+02  0.21516825068E+01  0.31398201833E+02  0.00000000000E+00 0.  1.
         13    1    4    4    0    0  0.31606838796E+02 -0.93992957418E+01 -0.85807975301E+02  0.91925772471E+02  0.00000000000E+00 0. -1.
         21    1    1    2  502  501  0.10842285010E+02 -0.26800654826E+02 -0.15558083913E+02  0.32831147077E+02  0.00000000000E+00 0. -1.
<scales pt_clust_5="13000.00000" pt_clust_6="13000.00000" pt_clust_7="13000.00000" pt_clust_8="13000.00000" pt_clust_9="28.91073"></scales>
<clustering>
<clus scale="   28.911">  2  9  1 -1</clus>
<clus scale="   84.331">  5  6 -1 -1</clus>
<clus scale="   86.674">  1  5  2 -1</clus>
<clus scale="   89.612">  7  8 -1 -1</clus>
<clus scale="   28.911">  2  5  1 -1</clus>
</clustering>
</event>
<event>
 9    2  0.3791909E-005  0.2147495E+03  0.7546771E-02  0.1138622E+00
         -1   -1    0    0    0  501 -0.00000000000E+00  0.00000000000E+00  0.13217555498E+03  0.13217555498E+03  0.00000000000E+00 0.  1.
          2   -1    0    0  502    0  0.00000000000E+00 -0.00000000000E+00 -0.63230152663E+03  0.63230152663E+03  0.00000000000E+00 0. -1.
         24    2    1    2    0    0  0.18757182980E+03  0.20748991519E+02 -0.31399364123E+02  0.20725339728E+03  0.79714105602E+02 0.  0.
         23    2    1    2    0    0 -0.20738783879E+03 -0.49985654422E+02 -0.27085414038E+03  0.35622375915E+03  0.89583033529E+02 0.  0.
        -11    1    3    3    0    0  0.92897696603E+02  0.44876992325E+02  0.42379849996E+01  0.10325641380E+03  0.00000000000E+00 0.  1.
         12    1    3    3    0    0  0.94674133198E+02 -0.24128000806E+02 -0.35637349123E+02  0.10399698348E+03  0.00000000000E+00 0. -1.
        -13    1    4    4    0    0 -0.28577004259E+02  0.24037565642E+02 -0.35544301621E+02  0.51554312255E+02  0.00000000000E+00 0.  1.
         13    1    4    4    0    0 -0.17881083453E+03 -0.74023220064E+02 -0.23530983876E+03  0.30466944690E+03  0.00000000000E+00 0. -1.
         21    1    1    2  502  501  0.19816008988E+02  0.29236662903E+02 -0.19787246714E+03  0.20099992518E+03  0.00000000000E+00 0.  1.
<scales pt_clust_5="13000.00000" pt_clust_6="13000.00000" pt_clust_7="13000.00000" pt_clust_8="13000.00000" pt_clust_9="35.31935"></scales>
<clustering>
<clus scale="   35.319">  2  9  1 -1</clus>
<clus scale="   79.714">  5  6 -1 -1</clus>
<clus scale="   89.583">  7  8 -1 -1</clus>
<clus scale="  210.824">  1  5  2 -1</clus>
<clus scale="   35.319">  2  5  1 -1</clus>
</clustering>
</event>
<event>
 9    2  0.3791909E-005  0.1268692E+03  0.7546771E-02  0.1245256E+00
         -1   -1    0    0    0  501 -0.00000000000E+00  0.00000000000E+00  0.14102371814E+03  0.14102371814E+03  0.00000000000E+00 0.  1.
          2   -1    0    0  502    0  0.00000000000E+00 -0.00000000000E+00 -0.85990291520E+03  0.85990291520E+03  0.00000000000E+00 0. -1.
         23    2    1    2    0    0  0.32829907865E+02  0.11334380377E+02  0.81128020946E+02  0.12662178938E+03  0.90802261719E+02 0.  0.
         24    2    1    2    0    0 -0.35781444717E+02  0.92211868146E+02 -0.74744540156E+03  0.75814425813E+03  0.79528280581E+02 0.  0.
        -11    1    4    4    0    0 -0.11797216629E+02  0.47457450525E+02 -0.13475995427E+03  0.14335839426E+03  0.00000000000E+00 0.  1.
         12    1    4    4    0    0 -0.23984228088E+02  0.44754417622E+02 -0.61268544729E+03  0.61478586387E+03  0.00000000000E+00 0. -1.
        -13    1    3    3    0    0 -0.16849164081E+02 -0.18119850085E+02 -0.26295204793E+01  0.24882477274E+02  0.00000000000E+00 0. -1.
         13    1    3    3    0    0  0.49679071946E+02  0.29454230463E+02  0.83757541425E+02  0.10173931210E+03  0.00000000000E+00 0.  1.
         21    1    1    2  502  501  0.29515368515E+01 -0.10354624852E+03 -0.52561816441E+02  0.11616058583E+03  0.00000000000E+00 0.  1.
<scales pt_clust_5="13000.00000" pt_clust_6="13000.00000" pt_clust_7="13000.00000" pt_clust_8="13000.00000" pt_clust_9="98.84861"></scales>
<clustering>
<clus scale="   79.528">  5  6 -1 -1</clus>
<clus scale="   90.802">  7  8 -1 -1</clus>
<clus scale="   97.218">  1  7  2 -1</clus>
<clus scale="   98.849">  1  9  2 -1</clus>
<clus scale="  126.869">  2  5  1 -1</clus>
</clustering>
</event>
<event>
 9    2  0.3791909E-005  0.4929341E+03  0.7546771E-02  0.1044490E+00
         -1   -1    0    0    0  501 -0.00000000000E+00  0.00000000000E+00  0.58689372080E+03  0.58689372080E+03  0.00000000000E+00 0.  1.
          2   -1    0    0  502    0  0.00000000000E+00 -0.00000000000E+00 -0.23269791554E+04  0.23269791554E+04  0.00000000000E+00 0. -1.
         24    2    1    2    0    0  0.71045968157E+02  0.18035612391E+03  0.71094964692E+02  0.22113673090E+03  0.79190269148E+02 0.  0.
         23    2    1    2    0    0  0.41697837307E+03 -0.13423156783E+03  0.29144409973E+03  0.53372595167E+03  0.89636213685E+02 0.  0.
        -13    1    3    3    0    0  0.52480995631E+02  0.14244377929E+03  0.17345361165E+02  0.15279184113E+03  0.00000000000E+00 0.  1.
         14    1    3    3    0    0  0.18564972526E+02  0.37912344617E+02  0.53749603527E+02  0.68344889777E+02  0.00000000000E+00 0. -1.
        -11    1    4    4    0    0  0.38410726527E+02  0.12489276011E+02  0.17970389506E+02  0.44207474782E+02  0.00000000000E+00 0. -1.
         11    1    4    4    0    0  0.37856764655E+03 -0.14672084384E+03  0.27347371023E+03  0.48951847689E+03  0.00000000000E+00 0.  1.
         21    1    1    2  502  501 -0.48802434123E+03 -0.46124556075E+02 -0.21026244990E+04  0.21590101936E+04  0.00000000000E+00 0. -1.
<scales pt_clust_5="13000.00000" pt_clust_6="13000.00000" pt_clust_7="13000.00000" pt_clust_8="13000.00000" pt_clust_9="484.71581"></scales>
<clustering>
<clus scale="   79.190">  5  6 -1 -1</clus>
<clus scale="   89.636">  7  8 -1 -1</clus>
<clus scale="  209.397">  1  5  2 -1</clus>
<clus scale="  484.716">  2  9  1 -1</clus>
<clus scale="  484.716">  2  5  1 -1</clus>
</clustering>
</event>
<event>
 9    2  0.3791909E-005  0.1097290E+03  0.7546771E-02  0.1264454E+00
         -1   -1    0    0    0  501 -0.00000000000E+00  0.00000000000E+00  0.25710990305E+02  0.25710990305E+02  0.00000000000E+00 0.  1.
          2   -1    0    0  502    0  0.00000000000E+00 -0.00000000000E+00 -0.11115808732E+04  0.11115808732E+04  0.00000000000E+00 0. -1.
         23    2    1    2    0    0 -0.21750310541E+02 -0.40406592149E+02 -0.10608516246E+03  0.14619374288E+03  0.89514133323E+02 0.  0.
         24    2    1    2    0    0  0.65156661625E+01  0.66305594090E+02 -0.89587336872E+03  0.90196918236E+03  0.80749163606E+02 0.  0.
        -13    1    4    4    0    0  0.32565647213E+02  0.47585857979E+02 -0.31659176899E+03  0.32180006751E+03  0.00000000000E+00 0.  1.
         14    1    4    4    0    0 -0.26049981051E+02  0.18719736111E+02 -0.57928159973E+03  0.58016911484E+03  0.00000000000E+00 0. -1.
        -11    1    3    3    0    0  0.21302162652E+02  0.17599520835E+02 -0.21856130665E+02  0.35230891487E+02  0.00000000000E+00 0. -1.
         11    1    3    3    0    0 -0.43052473194E+02 -0.58006112984E+02 -0.84229031799E+02  0.11096285139E+03  0.00000000000E+00 0.  1.
         21    1    1    2  502  501  0.15234644379E+02 -0.25899001941E+02 -0.83911351698E+02  0.89128938256E+02  0.00000000000E+00 0.  1.
<scales pt_clust_5="13000.00000" pt_clust_6="13000.00000" pt_clust_7="13000.00000" pt_clust_8="13000.00000" pt_clust_9="30.04751"></scales>
<clustering>
<clus scale="   30.048">  1  9  2 -1</clus>
<clus scale="   80.749">  5  6 -1 -1</clus>
<clus scale="   89.514">  7  8 -1 -1</clus>
<clus scale="  102.704">  2  5  1 -1</clus>
<clus scale="  102.704">  2  5  1 -1</clus>
</clustering>
</event>
<event>
 9    2  0.3791909E-005  0.9402946E+02  0.7546771E-02  0.1296749E+00
          2   -1    0    0  502    0  0.00000000000E+00  0.00000000000E+00  0.13066664860E+04  0.13066664860E+04  0.00000000000E+00 0. -1.
         -1   -1    0    0    0  501 -0.00000000000E+00 -0.00000000000E+00 -0.84994981362E+02  0.84994981362E+02  0.00000000000E+00 0.  1.
         23    2    1    2    0    0 -0.17005225402E+02 -0.10960925555E+02 -0.46328294643E+02  0.10429643636E+03  0.91225633313E+02 0.  0.
         24    2    1    2    0    0  0.10530942667E+03  0.12567271119E+02  0.83417332784E+03  0.84463981189E+03  0.79518924212E+02 0.  0.
        -13    1    4    4    0    0  0.60044884006E+02  0.23447651546E+02  0.23560952568E+03  0.24426835458E+03  0.00000000000E+00 0.  1.
         14    1    4    4    0    0  0.45264542669E+02 -0.10880380428E+02  0.59856380216E+03  0.60037145731E+03  0.00000000000E+00 0. -1.
        -11    1    3    3    0    0 -0.46584867074E+02 -0.12573344756E+02 -0.55254434059E+02  0.73357285404E+02  0.00000000000E+00 0.  1.
         11    1    3    3    0    0  0.29579641672E+02  0.16124192009E+01  0.89261394164E+01  0.30939150958E+02  0.00000000000E+00 0. -1.
         21    1    1    2  502  501 -0.88304201272E+02 -0.16063455639E+01  0.43382647141E+03  0.44272521908E+03  0.00000000000E+00 0. -1.
<scales pt_clust_5="13000.00000" pt_clust_6="13000.00000" pt_clust_7="13000.00000" pt_clust_8="13000.00000" pt_clust_9="88.31881"></scales>
<clustering>
<clus scale="   79.519">  5  6 -1 -1</clus>
<clus scale="   88.319">  1  9  2 -1</clus>
<clus scale="   88.319">  1  5  2 -1</clus>
<clus scale="   91.226">  7  8 -1 -1</clus>
<clus scale="   88.319">  1  5  2 -1</clus>
</clustering>
</event>
<event>
 9    2  0.3791909E-005  0.1515142E+03  0.7546771E-02  0.1201420E+00
         -1   -1    0    0    0  501 -0.00000000000E+00  0.00000000000E+00  0.10694991887E+03  0.10694991887E+03  0.00000000000E+00 0.  1.
          2   -1    0    0  502    0  0.00000000000E+00 -0.00000000000E+00 -0.60183073353E+03  0.60183073353E+03  0.00000000000E+00 0. -1.
         24    2    1    2    0    0  0.12482895581E+03 -0.42093664190E+02  0.23494962485E+02  0.15034153233E+03  0.68530418850E+02 0.  0.
         23    2    1    2    0    0 -0.93595734236E+02 -0.23587978808E+02 -0.39143647749E+03  0.41214086938E+03  0.85562994880E+02 0.  0.
        -11    1    3    3    0    0  0.12395708002E+03 -0.54856499936E+02  0.19556332733E+02  0.13695635590E+03  0.00000000000E+00 0.  1.
         12    1    3    3    0    0  0.87187578908E+00  0.12762835745E+02  0.39386297521E+01  0.13385176427E+02  0.00000000000E+00 0. -1.
        -13    1    4    4    0    0  0.49999771721E+01 -0.29385499392E+02 -0.77496353742E+02  0.83031272359E+02  0.00000000000E+00 0.  1.
         13    1    4    4    0    0 -0.98595711409E+02  0.57975205841E+01 -0.31394012375E+03  0.32910959702E+03  0.00000000000E+00 0. -1.
         21    1    1    2  502  501 -0.31233221571E+02  0.65681642998E+02 -0.12693929965E+03  0.14629825068E+03  0.00000000000E+00 0. -1.
<scales pt_clust_5="13000.00000" pt_clust_6="13000.00000" pt_clust_7="13000.00000" pt_clust_8="13000.00000" pt_clust_9="72.72958"></scales>
<clustering>
<clus scale="   68.530">  5  6 -1 -1</clus>
<clus scale="   72.730">  2  9  1 -1</clus>
<clus scale="   85.563">  7  8 -1 -1</clus>
<clus scale="  142.590">  1  5  2 -1</clus>
<clus scale="   72.730">  2  5  1 -1</clus>
</clustering>
</event>
<event>
 9    2  0.3791909E-005  0.9368251E+02  0.7546771E-02  0.1301718E+00
         -1   -1    0    0    0  501 -0.00000000000E+00  0.00000000000E+00  0.28342496433E+02  0.28342496433E+02  0.00000000000E+00 0.  1.
          2   -1    0    0  502    0  0.00000000000E+00 -0.00000000000E+00 -0.74739365712E+03  0.74739365712E+03  0.00000000000E+00 0. -1.
         23    2    1    2    0    0  0.24002770707E+02  0.77678131096E+00 -0.68576693396E+02  0.11624936111E+03  0.90743675763E+02 0.  0.
         24    2    1    2    0    0 -0.16476253100E+02 -0.24540587951E+02 -0.51854172219E+03  0.52521983373E+03  0.78081039382E+02 0.  0.
        -13    1    4    4    0    0  0.24894240589E+02  0.12036624868E+02 -0.14423559988E+03  0.14686222055E+03  0.00000000000E+00 0.  1.
         14    1    4    4    0    0 -0.41370493689E+02 -0.36577212819E+02 -0.37430612231E+03  0.37835761317E+03  0.00000000000E+00 0. -1.
        -13    1    3    3    0    0  0.15632964736E+02 -0.20682801571E+02 -0.84407681093E+02  0.88299629075E+02  0.00000000000E+00 0. -1.
         13    1    3    3    0    0  0.83698059706E+01  0.21459582882E+02  0.15830987697E+02  0.27949732037E+02  0.00000000000E+00 0.  1.
         21    1    1    2  502  501 -0.75265176065E+01  0.23763806640E+02 -0.13193274510E+03  0.13426695871E+03  0.00000000000E+00 0. -1.
<scales pt_clust_5="13000.00000" pt_clust_6="13000.00000" pt_clust_7="13000.00000" pt_clust_8="13000.00000" pt_clust_9="24.92723"></scales>
<clustering>
<clus scale="   24.927">  2  9  1 -1</clus>
<clus scale="   78.081">  5  6 -1 -1</clus>
<clus scale="   81.478">  2  5  1 -1</clus>
<clus scale="   90.744">  7  8 -1 -1</clus>
<clus scale="   24.927">  2  5  1 -1</clus>
</clustering>
</event>
<event>
 9    2  0.3791909E-005  0.1287847E+03  0.7546771E-02  0.1232752E+00
         -1   -1    0    0    0  501 -0.00000000000E+00  0.00000000000E+00  0.21614061139E+03  0.21614061139E+03  0.00000000000E+00 0.  1.
          2   -1    0    0  502    0  0.00000000000E+00 -0.00000000000E+00 -0.18841802960E+03  0.18841802960E+03  0.00000000000E+00 0. -1.
         24    2    1    2    0    0 -0.37821658725E+01  0.84963214848E+02  0.12484556051E+03  0.17117819675E+03  0.80514026150E+02 0.  0.
         23    2    1    2    0    0  0.62264876448E+02 -0.10114545519E+03 -0.61874684755E+02  0.16320541616E+03  0.93274933964E+02 0.  0.
        -13    1    3    3    0    0 -0.86987524541E+01  0.28096370920E+02  0.10760503333E+03  0.11155230858E+03  0.00000000000E+00 0.  1.
         14    1    3    3    0    0  0.49165865816E+01  0.56866843927E+02  0.17240527185E+02  0.59625888165E+02  0.00000000000E+00 0. -1.
        -11    1    4    4    0    0  0.31014720611E+02  0.10370163471E+02 -0.18300786288E+01  0.32753661975E+02  0.00000000000E+00 0.  1.
         11    1    4    4    0    0  0.31250155836E+02 -0.11151561866E+03 -0.60044606126E+02  0.13045175419E+03  0.00000000000E+00 0. -1.
         21    1    1    2  502  501 -0.58482710575E+02  0.16182240345E+02 -0.35248293970E+02  0.70175028084E+02  0.00000000000E+00 0.  1.
<scales pt_clust_5="13000.00000" pt_clust_6="13000.00000" pt_clust_7="13000.00000" pt_clust_8="13000.00000" pt_clust_9="60.68025"></scales>
<clustering>
<clus scale="   60.680">  2  9  1 -1</clus>
<clus scale="   80.514">  5  6 -1 -1</clus>
<clus scale="   93.275">  7  8 -1 -1</clus>
<clus scale="  119.866">  1  5  2 -1</clus>
<clus scale="   60.680">  2  5  1 -1</clus>
</clustering>
</event>
<event>
 9    2  0.3791909E-005  0.9431019E+02  0.7546771E-02  0.1293731E+00
         -1   -1    0    0    0  501 -0.00000000000E+00  0.00000000000E+00  0.13180709044E+03  0.13180709044E+03  0.00000000000E+00 0.  1.
          2   -1    0    0  502    0  0.00000000000E+00 -0.00000000000E+00 -0.41907628683E+03  0.41907628683E+03  0.00000000000E+00 0. -1.
         24    2    1    2    0    0  0.44665220862E+02 -0.17794130884E+02  0.85244351112E+02  0.12695602218E+03  0.80867911581E+02 0.  0.
         23    2    1    2    0    0  0.23063664439E+02  0.49180366104E+02 -0.31347248105E+03  0.32875306658E+03  0.82842871670E+02 0.  0.
        -11    1    3    3    0    0  0.33228472209E+02 -0.49006242231E+02  0.65491391344E+02  0.88288535400E+02  0.00000000000E+00 0.  1.
         12    1    3    3    0    0  0.11436748653E+02  0.31212111347E+02  0.19752959768E+02  0.38667486783E+02  0.00000000000E+00 0. -1.
        -11    1    4    4    0    0 -0.18381453595E+02  0.52201803849E+02 -0.14423120756E+03  0.15448478047E+03  0.00000000000E+00 0. -1.
         11    1    4    4    0    0  0.41445118033E+02 -0.30214377442E+01 -0.16924127348E+03  0.17426828611E+03  0.00000000000E+00 0.  1.
         21    1    1    2  502  501 -0.67728885301E+02 -0.31386235221E+02 -0.59041066451E+02  0.95174288508E+02  0.00000000000E+00 0. -1.
<scales pt_clust_5="13000.00000" pt_clust_6="13000.00000" pt_clust_7="13000.00000" pt_clust_8="13000.00000" pt_clust_9="74.64782"></scales>
<clustering>
<clus scale="   74.648">  2  9  1 -1</clus>
<clus scale="   80.868">  5  6 -1 -1</clus>
<clus scale="   82.843">  7  8 -1 -1</clus>
<clus scale="   92.580">  1  5  2 -1</clus>
<clus scale="   74.648">  2  5  1 -1</clus>
</clustering>
</event>
<event>
 9    2  0.3791909E-005  0.1009814E+03  0.7546771E-02  0.1284337E+00
         -1   -1    0    0    0  501 -0.00000000000E+00  0.00000000000E+00  0.40359349148E+03  0.40359349148E+03  0.00000000000E+00 0.  1.
          2   -1    0    0  502    0  0.00000000000E+00 -0.00000000000E+00 -0.53420324098E+02  0.53420324098E+02  0.00000000000E+00 0. -1.
         23    2    1    2    0    0  0.77503589229E+01  0.46266432732E+02  0.33039955276E+03  0.34609759248E+03  0.91755262504E+02 0.  0.
         24    2    1    2    0    0 -0.36182110485E+01 -0.19971146583E+02  0.10230659239E+02  0.82639294036E+02  0.79452176705E+02 0.  0.
        -13    1    4    4    0    0  0.25353939898E+02  0.68934484406E+01  0.28798416825E+02  0.38983210634E+02  0.00000000000E+00 0.  1.
         14    1    4    4    0    0 -0.28972150946E+02 -0.26864595023E+02 -0.18567757586E+02  0.43656083402E+02  0.00000000000E+00 0. -1.
        -11    1    3    3    0    0  0.30043752053E+02  0.66142604462E+02  0.21734893460E+03  0.22916812722E+03  0.00000000000E+00 0.  1.
         11    1    3    3    0    0 -0.22293393130E+02 -0.19876171731E+02  0.11305061816E+03  0.11692946526E+03  0.00000000000E+00 0. -1.
         21    1    1    2  502  501 -0.41321478744E+01 -0.26295286149E+02  0.95429553846E+01  0.28276929062E+02  0.00000000000E+00 0. -1.
<scales pt_clust_5="13000.00000" pt_clust_6="13000.00000" pt_clust_7="13000.00000" pt_clust_8="13000.00000" pt_clust_9="26.61798"></scales>
<clustering>
<clus scale="   26.618">  2  9  1 -1</clus>
<clus scale="   79.452">  5  6 -1 -1</clus>
<clus scale="   89.949">  2  5  1 -1</clus>
<clus scale="   91.755">  7  8 -1 -1</clus>
<clus scale="   26.618">  2  5  1 -1</clus>
</clustering>
</event>
<event>
 9    2  0.3791909E-005  0.1246937E+03  0.7546771E-02  0.1237186E+00
          2   -1    0    0  502    0  0.00000000000E+00  0.00000000000E+00  0.92137486544E+03  0.92137486544E+03  0.00000000000E+00 0. -1.
         -1   -1    0    0    0  501 -0.00000000000E+00 -0.00000000000E+00 -0.41891713686E+02  0.41891713686E+02  0.00000000000E+00 0.  1.
         23    2    1    2    0    0  0.68400540628E+02  0.44300270599E+02  0.91055961003E+02  0.15031681948E+03  0.87537479129E+02 0.  0.
         24    2    1    2    0    0 -0.11109740345E+03 -0.62438149755E+02  0.62587053441E+03  0.64390340128E+03  0.81587430019E+02 0.  0.
        -13    1    4    4    0    0 -0.23570372394E+01 -0.23770532436E+02  0.38549123626E+02  0.45350069120E+02  0.00000000000E+00 0.  1.
         14    1    4    4    0    0 -0.10874036621E+03 -0.38667617319E+02  0.58732141078E+03  0.59855333216E+03  0.00000000000E+00 0. -1.
        -11    1    3    3    0    0  0.66305965458E+02 -0.27964114741E+01  0.75844127039E+02  0.10078011996E+03  0.00000000000E+00 0.  1.
         11    1    3    3    0    0  0.20945751707E+01  0.47096682073E+02  0.15211833964E+02  0.49536699526E+02  0.00000000000E+00 0. -1.
         21    1    1    2  502  501  0.42696862821E+02  0.18137879156E+02  0.16255665634E+03  0.16904635836E+03  0.00000000000E+00 0. -1.
<scales pt_clust_5="13000.00000" pt_clust_6="13000.00000" pt_clust_7="13000.00000" pt_clust_8="13000.00000" pt_clust_9="46.38971"></scales>
<clustering>
<clus scale="   46.390">  1  9  2 -1</clus>
<clus scale="   81.587">  5  6 -1 -1</clus>
<clus scale="   87.537">  7  8 -1 -1</clus>
<clus scale="  120.591">  1  5  2 -1</clus>
<clus scale="   46.390">  1  5  2 -1</clus>
</clustering>
</event>
<event>
 9    2  0.3791909E-005  0.2514618E+03  0.7546771E-02  0.1112992E+00
         -1   -1    0    0    0  501 -0.00000000000E+00  0.00000000000E+00  0.75560119374E+03  0.75560119374E+03  0.00000000000E+00 0.  1.
          2   -1    0    0  502    0  0.00000000000E+00 -0.00000000000E+00 -0.32908410428E+03  0.32908410428E+03  0.00000000000E+00 0. -1.
         23    2    1    2    0    0 -0.21813692634E+03 -0.10053157304E+03  0.65280542472E+03  0.70155546622E+03  0.91295311098E+02 0.  0.
         24    2    1    2    0    0  0.16381046096E+03  0.11290320460E+03 -0.84020922162E+02  0.23034096134E+03  0.80102698964E+02 0.  0.
        -13    1    4    4    0    0  0.72477466021E+02  0.38678012118E+02  0.57024751005E+01  0.82349802213E+02  0.00000000000E+00 0.  1.
         14    1    4    4    0    0  0.91332994940E+02  0.74225192478E+02 -0.89723397263E+02  0.14799115913E+03  0.00000000000E+00 0. -1.
        -11    1    3    3    0    0 -0.23895974544E+02 -0.47674779334E+02  0.17858824151E+03  0.18638042330E+03  0.00000000000E+00 0. -1.
         11    1    3    3    0    0 -0.19424095180E+03 -0.52856793707E+02  0.47421718321E+03  0.51517504292E+03  0.00000000000E+00 0.  1.
         21    1    1    2  502  501  0.54326465382E+02 -0.12371631554E+02 -0.14226741310E+03  0.15278887047E+03  0.00000000000E+00 0. -1.
<scales pt_clust_5="13000.00000" pt_clust_6="13000.00000" pt_clust_7="13000.00000" pt_clust_8="13000.00000" pt_clust_9="55.71734"></scales>
<clustering>
<clus scale="   55.717">  2  9  1 -1</clus>
<clus scale="   80.103">  5  6 -1 -1</clus>
<clus scale="   91.295">  7  8 -1 -1</clus>
<clus scale="  247.618">  2  5  1 -1</clus>
<clus scale="   55.717">  2  5  1 -1</clus>
</clustering>
</event>
<event>
 9    2  0.3791909E-005  0.1876122E+03  0.7546771E-02  0.1161896E+00
         -1   -1    0    0    0  501 -0.00000000000E+00  0.00000000000E+00  0.23282012897E+03  0.23282012897E+03  0.00000000000E+00 0.  1.
          2   -1    0    0  502    0  0.00000000000E+00 -0.00000000000E+00 -0.97954737785E+03  0.97954737785E+03  0.00000000000E+00 0. -1.
         23    2    1    2    0    0 -0.10835466221E+01 -0.17318630945E+03  0.17555562150E+03  0.26336052952E+03  0.92435493250E+02 0.  0.
         24    2    1    2    0    0  0.15359902592E+02  0.83960831557E+02 -0.34000457372E+03  0.35975913895E+03  0.80859013491E+02 0.  0.
        -13    1    4    4    0    0 -0.66329918725E+01  0.66194168562E+02 -0.11398555277E+03  0.13197867545E+03  0.00000000000E+00 0.  1.
         14    1    4    4    0    0  0.21992894465E+02  0.17766662995E+02 -0.22601902096E+03  0.22778046351E+03  0.00000000000E+00 0. -1.
        -11    1    3    3    0    0  0.57026566132E+01 -0.14947319217E+03  0.18414491251E+03  0.23724271174E+03  0.00000000000E+00 0.  1.
         11    1    3    3    0    0 -0.67862032353E+01 -0.23713117279E+02 -0.85892910085E+01  0.26117817778E+02  0.00000000000E+00 0. -1.
         21    1    1    2  502  501 -0.14276355970E+02  0.89225477897E+02 -0.58227829665E+03  0.58924783835E+03  0.00000000000E+00 0. -1.
<scales pt_clust_5="13000.00000" pt_clust_6="13000.00000" pt_clust_7="13000.00000" pt_clust_8="13000.00000" pt_clust_9="90.36039"></scales>
<clustering>
<clus scale="   80.859">  5  6 -1 -1</clus>
<clus scale="   90.360">  2  9  1 -1</clus>
<clus scale="   92.435">  7  8 -1 -1</clus>
<clus scale="  182.187">  2  5  1 -1</clus>
<clus scale="   90.360">  2  5  1 -1</clus>
</clustering>
</event>
<event>
 9    2  0.3791909E-005  0.2648129E+03  0.7546771E-02  0.1104788E+00
          4   -1    0    0  502    0  0.00000000000E+00  0.00000000000E+00  0.22365213228E+03  0.22365213228E+03  0.00000000000E+00 0. -1.
         -3   -1    0    0    0  501 -0.00000000000E+00 -0.00000000000E+00 -0.10060101399E+04  0.10060101399E+04  0.00000000000E+00 0.  1.
         23    2    1    2    0    0  0.20367178562E+03 -0.14666844256E+03 -0.89176975662E+03  0.93078654136E+03  0.90091389376E+02 0.  0.
         24    2    1    2    0    0 -0.17344104374E+03  0.15488005263E+03  0.88478039116E+02  0.26119883464E+03  0.79541444909E+02 0.  0.
        -13    1    4    4    0    0 -0.51456577140E+02  0.48444232279E+01  0.10727494051E+02  0.52785669419E+02  0.00000000000E+00 0.  1.
         14    1    4    4    0    0 -0.12198446660E+03  0.15003562940E+03  0.77750545065E+02  0.20841316523E+03  0.00000000000E+00 0. -1.
        -13    1    3    3    0    0  0.13377203977E+03 -0.44664981327E+02 -0.53118283307E+03  0.54958631836E+03  0.00000000000E+00 0.  1.
         13    1    3    3    0    0  0.69899745844E+02 -0.10200346123E+03 -0.36058692355E+03  0.38120022299E+03  0.00000000000E+00 0. -1.
         21    1    1    2  502  501 -0.30230741878E+02 -0.82116100737E+01  0.20933709908E+02  0.37676896170E+02  0.00000000000E+00 0.  1.
<scales pt_clust_5="13000.00000" pt_clust_6="13000.00000" pt_clust_7="13000.00000" pt_clust_8="13000.00000" pt_clust_9="31.32616"></scales>
<clustering>
<clus scale="   31.326">  1  9  2 -1</clus>
<clus scale="   79.541">  5  6 -1 -1</clus>
<clus scale="   90.091">  7  8 -1 -1</clus>
<clus scale="  261.412">  1  5  2 -1</clus>
<clus scale="   31.326">  1  5  2 -1</clus>
</clustering>
</event>
<event>
 9    2  0.3791909E-005  0.9947408E+02  0.7546771E-02  0.1283014E+00
         -1   -1    0    0    0  501 -0.00000000000E+00  0.00000000000E+00  0.40891638403E+02  0.40891638403E+02  0.00000000000E+00 0.  1.
          2   -1    0    0  502    0  0.00000000000E+00 -0.00000000000E+00 -0.66592713049E+03  0.66592713049E+03  0.00000000000E+00 0. -1.
         23    2    1    2    0    0  0.27506088104E+02 -0.49902395294E+02 -0.83058702267E+02  0.13658170365E+03  0.92244131572E+02 0.  0.
         24    2    1    2    0    0  0.29745104896E+02 -0.91373558187E+01 -0.31552358281E+03  0.32931291478E+03  0.89014616764E+02 0.  0.
        -11    1    4    4    0    0  0.51108777420E+02  0.21254529884E+02 -0.15626153227E+03  0.16577553691E+03  0.00000000000E+00 0.  1.
         12    1    4    4    0    0 -0.21363672524E+02 -0.30391885702E+02 -0.15926205053E+03  0.16353737787E+03  0.00000000000E+00 0. -1.
        -13    1    3    3    0    0  0.60426114079E+02 -0.32910883721E+02 -0.67539763288E+02  0.96416083487E+02  0.00000000000E+00 0.  1.
         13    1    3    3    0    0 -0.32920025974E+02 -0.16991511573E+02 -0.15518938980E+02  0.40165620159E+02  0.00000000000E+00 0. -1.
         21    1    1    2  502  501 -0.57251193000E+02  0.59039751112E+02 -0.22645320701E+03  0.24092415046E+03  0.00000000000E+00 0. -1.
<scales pt_clust_5="13000.00000" pt_clust_6="13000.00000" pt_clust_7="13000.00000" pt_clust_8="13000.00000" pt_clust_9="82.23984"></scales>
<clustering>
<clus scale="   82.240">  2  9  1 -1</clus>
<clus scale="   89.015">  5  6 -1 -1</clus>
<clus scale="   92.244">  7  8 -1 -1</clus>
<clus scale="   96.487">  2  5  1 -1</clus>
<clus scale="   82.240">  2  5  1 -1</clus>
</clustering>
</event>
<event>
 9    2  0.3791909E-005  0.9786169E+02  0.7546771E-02  0.1294517E+00
         -1   -1    0    0    0  501 -0.00000000000E+00  0.00000000000E+00  0.15686594563E+03  0.15686594563E+03  0.00000000000E+00 0.  1.
          2   -1    0    0  502    0  0.00000000000E+00 -0.00000000000E+00 -0.12264991083E+03  0.12264991083E+03  0.00000000000E+00 0. -1.
         23    2    1    2    0    0 -0.17211701734E+02 -0.77625186901E+00  0.10448560307E+03  0.14261152378E+03  0.95519423274E+02 0.  0.
         24    2    1    2    0    0  0.38827718901E+02  0.14505658717E+02 -0.66198835760E+02  0.11097520478E+03  0.78836567213E+02 0.  0.
        -13    1    4    4    0    0  0.43500688755E+02  0.41118964036E+01  0.10949762352E+00  0.43694731993E+02  0.00000000000E+00 0.  1.
         14    1    4    4    0    0 -0.46729698537E+01  0.10393762314E+02 -0.66308333383E+02  0.67280472786E+02  0.00000000000E+00 0. -1.
        -11    1    3    3    0    0  0.98092474819E+01  0.25603361986E+02  0.10103774020E+03  0.10469182597E+03  0.00000000000E+00 0. -1.
         11    1    3    3    0    0 -0.27020949216E+02 -0.26379613855E+02  0.34478628744E+01  0.37919697811E+02  0.00000000000E+00 0.  1.
         21    1    1    2  502  501 -0.21616017167E+02 -0.13729406848E+02 -0.40707325169E+01  0.25929127903E+02  0.00000000000E+00 0.  1.
<scales pt_clust_5="13000.00000" pt_clust_6="13000.00000" pt_clust_7="13000.00000" pt_clust_8="13000.00000" pt_clust_9="25.60759"></scales>
<clustering>
<clus scale="   25.608">  2  9  1 -1</clus>
<clus scale="   78.837">  5  6 -1 -1</clus>
<clus scale="   81.659">  2  5  1 -1</clus>
<clus scale="   95.519">  7  8 -1 -1</clus>
<clus scale="   25.608">  2  5  1 -1</clus>
</clustering>
</event>
<event>
 9    2  0.3791909E-005  0.2768740E+03  0.7546771E-02  0.1097409E+00
          4   -1    0    0  502    0  0.00000000000E+00  0.00000000000E+00  0.64906178118E+03  0.64906178118E+03  0.00000000000E+00 0. -1.
         -3   -1    0    0    0  501 -0.00000000000E+00 -0.00000000000E+00 -0.10659798173E+03  0.10659798173E+03  0.00000000000E+00 0.  1.
         24    2    1    2    0    0  0.77508917502E+02 -0.12170635576E+03  0.79411800944E+02  0.18280060634E+03  0.79307995985E+02 0.  0.
         23    2    1    2    0    0  0.66601186690E+01 -0.64057769101E+02  0.74351419600E+02  0.13390485737E+03  0.90854951814E+02 0.  0.
        -11    1    3    3    0    0  0.63652892151E+02 -0.58594259974E+02  0.86048443860E+01  0.86942632397E+02  0.00000000000E+00 0.  1.
         12    1    3    3    0    0  0.13856025350E+02 -0.63112095781E+02  0.70806956558E+02  0.95857973948E+02  0.00000000000E+00 0. -1.
        -13    1    4    4    0    0 -0.35506807253E+02 -0.20401713763E+02  0.42374828070E+01  0.41169400606E+02  0.00000000000E+00 0.  1.
         13    1    4    4    0    0  0.42166925922E+02 -0.43656055338E+02  0.70113936793E+02  0.92735456769E+02  0.00000000000E+00 0. -1.
         21    1    1    2  502  501 -0.84169036171E+02  0.18576412486E+03  0.38870057891E+03  0.43895429919E+03  0.00000000000E+00 0. -1.
<scales pt_clust_5="13000.00000" pt_clust_6="13000.00000" pt_clust_7="13000.00000" pt_clust_8="13000.00000" pt_clust_9="203.94297"></scales>
<clustering>
<clus scale="   79.308">  5  6 -1 -1</clus>
<clus scale="   90.855">  7  8 -1 -1</clus>
<clus scale="   95.566">  5  7 -1 -1</clus>
<clus scale="  203.943">  1  9  2 -1</clus>
<clus scale="  203.943">  1  5  2 -1</clus>
</clustering>
</event>
<event>
 9    2  0.3791909E-005  0.9581346E+02  0.7546771E-02  0.1297521E+00
          2   -1    0    0  502    0  0.00000000000E+00  0.00000000000E+00  0.11659629842E+03  0.11659629842E+03  0.00000000000E+00 0. -1.
         -1   -1    0    0    0  501 -0.00000000000E+00 -0.00000000000E+00 -0.28355263305E+03  0.28355263305E+03  0.00000000000E+00 0.  1.
         24    2    1    2    0    0  0.18235589402E+02 -0.23324319554E+02 -0.22698305541E+03  0.24164078362E+03  0.77410595282E+02 0.  0.
         23    2    1    2    0    0  0.23542646584E+02  0.25582816822E+02  0.63060132598E+02  0.11655909066E+03  0.91655357546E+02 0.  0.
        -11    1    3    3    0    0 -0.30300804246E+02 -0.11425555560E+02 -0.10278910599E+03  0.10776957997E+03  0.00000000000E+00 0.  1.
         12    1    3    3    0    0  0.48536393648E+02 -0.11898763994E+02 -0.12419394943E+03  0.13387120365E+03  0.00000000000E+00 0. -1.
        -13    1    4    4    0    0  0.98651543970E+01 -0.27555367722E+02  0.53329121458E+02  0.60832678365E+02  0.00000000000E+00 0. -1.
         13    1    4    4    0    0  0.13677492187E+02  0.53138184544E+02  0.97310111399E+01  0.55726412293E+02  0.00000000000E+00 0.  1.
         21    1    1    2  502  501 -0.41778235986E+02 -0.22584972683E+01 -0.30334118231E+01  0.41949057192E+02  0.00000000000E+00 0.  1.
<scales pt_clust_5="13000.00000" pt_clust_6="13000.00000" pt_clust_7="13000.00000" pt_clust_8="13000.00000" pt_clust_9="41.83924"></scales>
<clustering>
<clus scale="   41.839">  1  9  2 -1</clus>
<clus scale="   77.411">  5  6 -1 -1</clus>
<clus scale="   82.292">  2  5  1 -1</clus>
<clus scale="   91.655">  7  8 -1 -1</clus>
<clus scale="   41.839">  1  5  2 -1</clus>
</clustering>
</event>
<event>
 9    2  0.3791909E-005  0.1351011E+03  0.7546771E-02  0.1222776E+00
          2   -1    0    0  502    0  0.00000000000E+00  0.00000000000E+00  0.13014027030E+03  0.13014027030E+03  0.00000000000E+00 0. -1.
         -1   -1    0    0    0  501 -0.00000000000E+00 -0.00000000000E+00 -0.19898944822E+03  0.19898944822E+03  0.00000000000E+00 0.  1.
         24    2    1    2    0    0 -0.11066069279E+03 -0.90549196578E+01 -0.88354090154E+02  0.16273504355E+03  0.79677278158E+02 0.  0.
         23    2    1    2    0    0  0.76191155447E+02  0.32298827289E+02  0.84127943806E+01  0.12336604119E+03  0.91104876913E+02 0.  0.
        -11    1    3    3    0    0 -0.80300701834E+01  0.26774820074E+02 -0.17649774090E+02  0.33058849687E+02  0.00000000000E+00 0.  1.
         12    1    3    3    0    0 -0.10263062260E+03 -0.35829739732E+02 -0.70704316064E+02  0.12967619386E+03  0.00000000000E+00 0. -1.
        -11    1    4    4    0    0  0.34094693289E+02  0.48221492341E+02 -0.28108529898E+02  0.65405274153E+02  0.00000000000E+00 0.  1.
         11    1    4    4    0    0  0.42096462159E+02 -0.15922665052E+02  0.36521324278E+02  0.57960767038E+02  0.00000000000E+00 0. -1.
         21    1    1    2  502  501  0.34469537338E+02 -0.23243907631E+02  0.11092117857E+02  0.43028633778E+02  0.00000000000E+00 0. -1.
<scales pt_clust_5="13000.00000" pt_clust_6="13000.00000" pt_clust_7="13000.00000" pt_clust_8="13000.00000" pt_clust_9="41.57437"></scales>
<clustering>
<clus scale="   41.574">  1  9  2 -1</clus>
<clus scale="   79.677">  5  6 -1 -1</clus>
<clus scale="   91.105">  7  8 -1 -1</clus>
<clus scale="  127.674">  2  5  1 -1</clus>
<clus scale="   41.574">  1  5  2 -1</clus>
</clustering>
</event>
<event>
 9    2  0.3791909E-005  0.1534125E+03  0.7546771E-02  0.1198009E+00
         -1   -1    0    0    0  501 -0.00000000000E+00  0.00000000000E+00  0.15027323125E+03  0.15027323125E+03  0.00000000000E+00 0.  1.
          2   -1    0    0  502    0  0.00000000000E+00 -0.00000000000E+00 -0.74752174106E+03  0.74752174106E+03  0.00000000000E+00 0. -1.
         23    2    1    2    0    0 -0.46221430865E+02 -0.12008970392E+03  0.95321612913E+02  0.18437577000E+03  0.91379740723E+02 0.  0.
         24    2    1    2    0    0  0.93906650891E+01  0.67473727643E+02 -0.45797060657E+03  0.47018705138E+03  0.81840688493E+02 0.  0.
        -13    1    4    4    0    0 -0.29026599378E+02  0.34133686821E+00 -0.11576933585E+03  0.11935325343E+03  0.00000000000E+00 0.  1.
         14    1    4    4    0    0  0.38417264467E+02  0.67132390775E+02 -0.34220127072E+03  0.35083379795E+03  0.00000000000E+00 0. -1.
        -13    1    3    3    0    0 -0.10591655206E+02 -0.10723275515E+03  0.98987723280E+02  0.14632025252E+03  0.00000000000E+00 0.  1.
         13    1    3    3    0    0 -0.35629775658E+02 -0.12856948766E+02 -0.36661103673E+01  0.38055517475E+02  0.00000000000E+00 0. -1.
         21    1    1    2  502  501  0.36830765775E+02  0.52615976275E+02 -0.23459951616E+03  0.24323215094E+03  0.00000000000E+00 0.  1.
<scales pt_clust_5="13000.00000" pt_clust_6="13000.00000" pt_clust_7="13000.00000" pt_clust_8="13000.00000" pt_clust_9="64.22574"></scales>
<clustering>
<clus scale="   64.226">  2  9  1 -1</clus>
<clus scale="   81.841">  5  6 -1 -1</clus>
<clus scale="   91.380">  7  8 -1 -1</clus>
<clus scale="  147.929">  2  5  1 -1</clus>
<clus scale="   64.226">  2  5  1 -1</clus>
</clustering>
</event>
<event>
 9    2  0.3791909E-005  0.1844484E+03  0.7546771E-02  0.1164175E+00
         -1   -1    0    0    0  501 -0.00000000000E+00  0.00000000000E+00  0.64788055164E+02  0.64788055164E+02  0.00000000000E+00 0.  1.
          2   -1    0    0  502    0  0.00000000000E+00 -0.00000000000E+00 -0.93457627129E+03  0.93457627129E+03  0.00000000000E+00 0. -1.
         24    2    1    2    0    0 -0.16589388763E+03 -0.77252738281E+01 -0.12184645058E+03  0.22645613574E+03  0.94102933475E+02 0.  0.
         23    2    1    2    0    0  0.13081831038E+03  0.14160648546E+02 -0.62848721158E+03  0.64824423991E+03  0.88940795774E+02 0.  0.
        -13    1    3    3    0    0 -0.17770663561E+03 -0.20415568777E+01 -0.11481409305E+03  0.21157999021E+03  0.00000000000E+00 0.  1.
         14    1    3    3    0    0  0.11812747987E+02 -0.56837169503E+01 -0.70323575292E+01  0.14876145529E+02  0.00000000000E+00 0. -1.
        -13    1    4    4    0    0  0.52543619775E+01  0.20023425910E+02 -0.28464753628E+02  0.35196421751E+02  0.00000000000E+00 0.  1.
         13    1    4    4    0    0  0.12556394840E+03 -0.58627773645E+01 -0.60002245795E+03  0.61304781816E+03  0.00000000000E+00 0. -1.
         21    1    1    2  502  501  0.35075577245E+02 -0.64353747179E+01 -0.11945455396E+03  0.12466395080E+03  0.00000000000E+00 0.  1.
<scales pt_clust_5="13000.00000" pt_clust_6="13000.00000" pt_clust_7="13000.00000" pt_clust_8="13000.00000" pt_clust_9="35.66105"></scales>
<clustering>
<clus scale="   35.661">  2  9  1 -1</clus>
<clus scale="   88.941">  7  8 -1 -1</clus>
<clus scale="   94.103">  5  6 -1 -1</clus>
<clus scale="  181.869">  2  7  1 -1</clus>
<clus scale="   35.661">  2  5  1 -1</clus>
</clustering>
</event>
<event>
 9    2  0.3791909E-005  0.1700886E+03  0.7546771E-02  0.1179415E+00
         -1   -1    0    0    0  501 -0.00000000000E+00  0.00000000000E+00  0.71504532534E+02  0.71504532534E+02  0.00000000000E+00 0.  1.
          2   -1    0    0  502    0  0.00000000000E+00 -0.00000000000E+00 -0.60334986997E+03  0.60334986997E+03  0.00000000000E+00 0. -1.
         24    2    1    2    0    0  0.12496014002E+03 -0.13434487760E+02 -0.17517991915E+03  0.22994903009E+03  0.79956427597E+02 0.  0.
         23    2    1    2    0    0 -0.16356760553E+03 -0.33921176651E+02 -0.19822357849E+03  0.27509102689E+03  0.92073221974E+02 0.  0.
        -13    1    3    3    0    0  0.18452346560E+02 -0.33326213494E+02 -0.28423871664E+02  0.47529381227E+02  0.00000000000E+00 0.  1.
         14    1    3    3    0    0  0.10650779346E+03  0.19891725734E+02 -0.14675604748E+03  0.18241964887E+03  0.00000000000E+00 0. -1.
        -13    1    4    4    0    0 -0.99248221209E+01 -0.35577026128E+02 -0.42895677541E+02  0.56606236705E+02  0.00000000000E+00 0.  1.
         13    1    4    4    0    0 -0.15364278340E+03  0.16558494774E+01 -0.15532790095E+03  0.21848479019E+03  0.00000000000E+00 0. -1.
         21    1    1    2  502  501  0.38607465509E+02  0.47355664411E+02 -0.15844183980E+03  0.16981434551E+03  0.00000000000E+00 0. -1.
<scales pt_clust_5="13000.00000" pt_clust_6="13000.00000" pt_clust_7="13000.00000" pt_clust_8="13000.00000" pt_clust_9="61.09906"></scales>
<clustering>
<clus scale="   61.099">  2  9  1 -1</clus>
<clus scale="   79.956">  5  6 -1 -1</clus>
<clus scale="   92.073">  7  8 -1 -1</clus>
<clus scale="  163.846">  1  5  2 -1</clus>
<clus scale="   61.099">  2  5  1 -1</clus>
</clustering>
</event>
<event>
 9    2  0.3791909E-005  0.1388492E+03  0.7546771E-02  0.1220622E+00
          2   -1    0    0  502    0  0.00000000000E+00  0.00000000000E+00  0.59436995205E+03  0.59436995205E+03  0.00000000000E+00 0. -1.
         -1   -1    0    0    0  501 -0.00000000000E+00 -0.00000000000E+00 -0.43813564085E+02  0.43813564085E+02  0.00000000000E+00 0.  1.
         23    2    1    2    0    0  0.72951295517E+02 -0.67016094754E+02  0.13035456605E+03  0.19304383165E+03  0.10227687704E+03 0.  0.
         24    2    1    2    0    0 -0.46832564870E+02  0.71971046819E+02  0.29955964540E+03  0.32160315387E+03  0.79495199316E+02 0.  0.
        -11    1    4    4    0    0  0.20581423202E+02  0.29273893779E+02  0.11737694658E+03  0.12271064920E+03  0.00000000000E+00 0.  1.
         12    1    4    4    0    0 -0.67413988072E+02  0.42697153040E+02  0.18218269882E+03  0.19889250467E+03  0.00000000000E+00 0. -1.
        -13    1    3    3    0    0 -0.18440003803E+02 -0.83327127436E+01 -0.36399614223E+01  0.20560086601E+02  0.00000000000E+00 0.  1.
         13    1    3    3    0    0  0.91391299319E+02 -0.58683382010E+02  0.13399452747E+03  0.17248374505E+03  0.00000000000E+00 0. -1.
         21    1    1    2  502  501 -0.26118730647E+02 -0.49549520653E+01  0.12064217652E+03  0.12353653062E+03  0.00000000000E+00 0. -1.
<scales pt_clust_5="13000.00000" pt_clust_6="13000.00000" pt_clust_7="13000.00000" pt_clust_8="13000.00000" pt_clust_9="26.58458"></scales>
<clustering>
<clus scale="   26.585">  1  9  2 -1</clus>
<clus scale="   79.495">  5  6 -1 -1</clus>
<clus scale="  102.277">  7  8 -1 -1</clus>
<clus scale="  123.037">  1  5  2 -1</clus>
<clus scale="   26.585">  1  5  2 -1</clus>
</clustering>
</event>
<event>
 9    2  0.3791909E-005  0.1096641E+03  0.7546771E-02  0.1264527E+00
         -3   -1    0    0    0  501 -0.00000000000E+00  0.00000000000E+00  0.28494633923E+03  0.28494633923E+03  0.00000000000E+00 0.  1.
          4   -1    0    0  502    0  0.00000000000E+00 -0.00000000000E+00 -0.27011395229E+03  0.27011395229E+03  0.00000000000E+00 0. -1.
         23    2    1    2    0    0 -0.22708678919E+02  0.58740340715E+02  0.25669019851E+03  0.27910155336E+03  0.89675567187E+02 0.  0.
         24    2    1    2    0    0  0.41493604746E+01 -0.68365244053E+02 -0.16398167798E+03  0.19532512699E+03  0.81061030928E+02 0.  0.
        -13    1    4    4    0    0  0.48858011599E+01 -0.29427623568E+02 -0.33245572882E+01  0.30015142229E+02  0.00000000000E+00 0.  1.
         14    1    4    4    0    0 -0.73644068537E+00 -0.38937620485E+02 -0.16065712069E+03  0.16530998477E+03  0.00000000000E+00 0. -1.
        -13    1    3    3    0    0  0.14434153605E+02  0.61169336556E+02  0.10047240548E+03  0.11851049231E+03  0.00000000000E+00 0. -1.
         13    1    3    3    0    0 -0.37142832524E+02 -0.24289958418E+01  0.15621779304E+03  0.16059106105E+03  0.00000000000E+00 0.  1.
         21    1    1    2  502  501  0.18559318444E+02  0.96249033381E+01 -0.77876133600E+02  0.80633611167E+02  0.00000000000E+00 0.  1.
<scales pt_clust_5="13000.00000" pt_clust_6="13000.00000" pt_clust_7="13000.00000" pt_clust_8="13000.00000" pt_clust_9="20.90663"></scales>
<clustering>
<clus scale="   20.907">  2  9  1 -1</clus>
<clus scale="   81.061">  5  6 -1 -1</clus>
<clus scale="   89.676">  7  8 -1 -1</clus>
<clus scale="  102.740">  2  5  1 -1</clus>
<clus scale="   20.907">  2  5  1 -1</clus>
</clustering>
</event>
<event>
 9    2  0.3791909E-005  0.1149738E+03  0.7546771E-02  0.1254079E+00
          2   -1    0    0  502    0  0.00000000000E+00  0.00000000000E+00  0.82804963080E+02  0.82804963080E+02  0.00000000000E+00 0. -1.
         -1   -1    0    0    0  501 -0.00000000000E+00 -0.00000000000E+00 -0.36860468376E+03  0.36860468376E+03  0.00000000000E+00 0.  1.
         24    2    1    2    0    0 -0.63846650859E+02  0.26741920317E+02 -0.23744884078E+03  0.26059075592E+03  0.82061348728E+02 0.  0.
         23    2    1    2    0    0  0.60655858904E+02 -0.76898170932E+02 -0.22809821893E+02  0.13444357475E+03  0.89231860366E+02 0.  0.
        -11    1    3    3    0    0 -0.69356256774E+02  0.28262550951E+02 -0.24197494932E+03  0.25330009522E+03  0.00000000000E+00 0.  1.
         12    1    3    3    0    0  0.55096059155E+01 -0.15206306339E+01  0.45261085425E+01  0.72906606976E+01  0.00000000000E+00 0. -1.
        -11    1    4    4    0    0  0.25292928519E+02 -0.51538242958E+01 -0.44610040706E+02  0.51539789190E+02  0.00000000000E+00 0.  1.
         11    1    4    4    0    0  0.35362930385E+02 -0.71744346636E+02  0.21800218813E+02  0.82903785559E+02  0.00000000000E+00 0. -1.
         21    1    1    2  502  501  0.31907919544E+01  0.50156250615E+02 -0.25541058002E+02  0.56375316167E+02  0.00000000000E+00 0.  1.
<scales pt_clust_5="13000.00000" pt_clust_6="13000.00000" pt_clust_7="13000.00000" pt_clust_8="13000.00000" pt_clust_9="50.25764"></scales>
<clustering>
<clus scale="   50.258">  1  9  2 -1</clus>
<clus scale="   82.061">  5  6 -1 -1</clus>
<clus scale="   89.232">  7  8 -1 -1</clus>
<clus scale="  109.502">  2  5  1 -1</clus>
<clus scale="   50.258">  1  5  2 -1</clus>
</clustering>
</event>
<event>
 9    2  0.3791909E-005  0.9079291E+02  0.7546771E-02  0.1305439E+00
          2   -1    0    0  502    0  0.00000000000E+00  0.00000000000E+00  0.22066739448E+03  0.22066739448E+03  0.00000000000E+00 0. -1.
         -1   -1    0    0    0  501 -0.00000000000E+00 -0.00000000000E+00 -0.82875197973E+02  0.82875197973E+02  0.00000000000E+00 0.  1.
         23    2    1    2    0    0 -0.14655884090E+02 -0.87802113551E+01 -0.29381580497E+02  0.94760273145E+02  0.88455327958E+02 0.  0.
         24    2    1    2    0    0  0.91187974662E+01  0.39715968323E+02  0.10255333676E+03  0.13692494888E+03  0.81060126684E+02 0.  0.
        -11    1    4    4    0    0 -0.35750791259E+02  0.22325139282E+02  0.41081593230E+02  0.58857694670E+02  0.00000000000E+00 0.  1.
         12    1    4    4    0    0  0.44869588725E+02  0.17390829042E+02  0.61471743531E+02  0.78067254210E+02  0.00000000000E+00 0. -1.
        -11    1    3    3    0    0 -0.19383429552E+02 -0.46769404569E+02 -0.24251608374E+02  0.56135862456E+02  0.00000000000E+00 0.  1.
         11    1    3    3    0    0  0.47275454627E+01  0.37989193214E+02 -0.51299721234E+01  0.38624410690E+02  0.00000000000E+00 0. -1.
         21    1    1    2  502  501  0.55370866234E+01 -0.30935756968E+02  0.64620440242E+02  0.71857370426E+02  0.00000000000E+00 0. -1.
<scales pt_clust_5="13000.00000" pt_clust_6="13000.00000" pt_clust_7="13000.00000" pt_clust_8="13000.00000" pt_clust_9="31.42738"></scales>
<clustering>
<clus scale="   31.427">  1  9  2 -1</clus>
<clus scale="   81.060">  5  6 -1 -1</clus>
<clus scale="   83.605">  1  5  2 -1</clus>
<clus scale="   88.455">  7  8 -1 -1</clus>
<clus scale="   31.427">  1  5  2 -1</clus>
</clustering>
</event>
<event>
 9    2  0.3791909E-005  0.1439758E+03  0.7546771E-02  0.1210094E+00
         -3   -1    0    0    0  501 -0.00000000000E+00  0.00000000000E+00  0.37417975931E+03  0.37417975931E+03  0.00000000000E+00 0.  1.
          4   -1    0    0  502    0  0.00000000000E+00 -0.00000000000E+00 -0.16842880417E+03  0.16842880417E+03  0.00000000000E+00 0. -1.
         23    2    1    2    0    0 -0.10217140778E+03  0.46698021829E+02  0.26989427203E+03  0.30582809418E+03  0.89823177996E+02 0.  0.
         24    2    1    2    0    0  0.89721077357E+02 -0.73628267503E+02  0.24842657218E+02  0.14297880382E+03  0.79716919320E+02 0.  0.
        -13    1    4    4    0    0 -0.14484297240E+02 -0.14365249501E+02 -0.68915424907E+00  0.20411521093E+02  0.00000000000E+00 0.  1.
         14    1    4    4    0    0  0.10420537460E+03 -0.59263018002E+02  0.25531811467E+02  0.12256728272E+03  0.00000000000E+00 0. -1.
        -13    1    3    3    0    0  0.12760616551E+02  0.16051149052E+02  0.72700751372E+02  0.75537222419E+02  0.00000000000E+00 0.  1.
         13    1    3    3    0    0 -0.11493202433E+03  0.30646872777E+02  0.19719352066E+03  0.23029087176E+03  0.00000000000E+00 0. -1.
         21    1    1    2  502  501  0.12450330418E+02  0.26930245674E+02 -0.88985974106E+02  0.93801665482E+02  0.00000000000E+00 0. -1.
<scales pt_clust_5="13000.00000" pt_clust_6="13000.00000" pt_clust_7="13000.00000" pt_clust_8="13000.00000" pt_clust_9="29.66899"></scales>
<clustering>
<clus scale="   29.669">  2  9  1 -1</clus>
<clus scale="   79.717">  5  6 -1 -1</clus>
<clus scale="   89.823">  7  8 -1 -1</clus>
<clus scale="  137.897">  2  5  1 -1</clus>
<clus scale="   29.669">  2  5  1 -1</clus>
</clustering>
</event>
<event>
 9    2  0.3791909E-005  0.1602302E+03  0.7546771E-02  0.1191097E+00
         -1   -1    0    0    0  501 -0.00000000000E+00  0.00000000000E+00  0.13281669179E+03  0.13281669179E+03  0.00000000000E+00 0.  1.
          2   -1    0    0  502    0  0.00000000000E+00 -0.00000000000E+00 -0.37621077021E+03  0.37621077021E+03  0.00000000000E+00 0. -1.
         24    2    1    2    0    0  0.77385111399E+02 -0.11901208217E+03  0.46900536900E+02  0.16711010019E+03  0.74657846578E+02 0.  0.
         23    2    1    2    0    0 -0.51611833506E+02  0.74274321038E+02 -0.21390766371E+03  0.24971814544E+03  0.91772585458E+02 0.  0.
        -13    1    3    3    0    0  0.91848517798E+02 -0.98089805614E+02  0.34112128963E+02  0.13864125479E+03  0.00000000000E+00 0.  1.
         14    1    3    3    0    0 -0.14463406399E+02 -0.20922276558E+02  0.12788407937E+02  0.28468845403E+02  0.00000000000E+00 0. -1.
        -13    1    4    4    0    0 -0.72915650572E+01 -0.21116206898E+02 -0.52590738452E+02  0.57138838679E+02  0.00000000000E+00 0.  1.
         13    1    4    4    0    0 -0.44320268449E+02  0.95390527936E+02 -0.16131692526E+03  0.19257930676E+03  0.00000000000E+00 0. -1.
         21    1    1    2  502  501 -0.25773277893E+02  0.44737761134E+02 -0.76386951603E+02  0.92199216373E+02  0.00000000000E+00 0. -1.
<scales pt_clust_5="13000.00000" pt_clust_6="13000.00000" pt_clust_7="13000.00000" pt_clust_8="13000.00000" pt_clust_9="51.63070"></scales>
<clustering>
<clus scale="   51.631">  2  9  1 -1</clus>
<clus scale="   74.658">  5  6 -1 -1</clus>
<clus scale="   91.773">  7  8 -1 -1</clus>
<clus scale="  151.080">  1  5  2 -1</clus>
<clus scale="   51.631">  2  5  1 -1</clus>
</clustering>
</event>
<event>
 9    2  0.3791909E-005  0.1238831E+03  0.7546771E-02  0.1239389E+00
         -1   -1    0    0    0  501 -0.00000000000E+00  0.00000000000E+00  0.21543247818E+03  0.21543247818E+03  0.00000000000E+00 0.  1.
          2   -1    0    0  502    0  0.00000000000E+00 -0.00000000000E+00 -0.49688573078E+03  0.49688573078E+03  0.00000000000E+00 0. -1.
         23    2    1    2    0    0  0.47430235542E+02 -0.68739562998E+02  0.18792836227E+03  0.22549125434E+03  0.92490440979E+02 0.  0.
         24    2    1    2    0    0 -0.29458429756E+02  0.54563608500E+02 -0.34745731788E+03  0.36277262101E+03  0.83859408243E+02 0.  0.
        -13    1    4    4    0    0  0.13363658946E+02  0.53046396288E+02 -0.25594085201E+03  0.26172165991E+03  0.00000000000E+00 0.  1.
         14    1    4    4    0    0 -0.42822088702E+02  0.15172122115E+01 -0.91516465870E+02  0.10105096110E+03  0.00000000000E+00 0. -1.
        -13    1    3    3    0    0  0.11077778792E+02 -0.68313333402E+02  0.17274680807E+03  0.18609376240E+03  0.00000000000E+00 0.  1.
         13    1    3    3    0    0  0.36352456750E+02 -0.42622959598E+00  0.15181554198E+02  0.39397491942E+02  0.00000000000E+00 0. -1.
         21    1    1    2  502  501 -0.17971805786E+02  0.14175954498E+02 -0.12192429700E+03  0.12405433361E+03  0.00000000000E+00 0.  1.
<scales pt_clust_5="13000.00000" pt_clust_6="13000.00000" pt_clust_7="13000.00000" pt_clust_8="13000.00000" pt_clust_9="22.88981"></scales>
<clustering>
<clus scale="   22.890">  2  9  1 -1</clus>
<clus scale="   83.859">  5  6 -1 -1</clus>
<clus scale="   92.490">  7  8 -1 -1</clus>
<clus scale="  117.580">  2  5  1 -1</clus>
<clus scale="   22.890">  2  5  1 -1</clus>
</clustering>
</event>
<event>
 9    2  0.3791909E-005  0.1126588E+03  0.7546771E-02  0.1260195E+00
         -3   -1    0    0    0  501 -0.00000000000E+00  0.00000000000E+00  0.67449527338E+03  0.67449527338E+03  0.00000000000E+00 0.  1.
          4   -1    0    0  502    0  0.00000000000E+00 -0.00000000000E+00 -0.48033299007E+02  0.48033299007E+02  0.00000000000E+00 0. -1.
         24    2    1    2    0    0 -0.65632953136E+02  0.36159353947E+02  0.48901321855E+03  0.50091442644E+03  0.78524844998E+02 0.  0.
         23    2    1    2    0    0  0.33927610755E+02 -0.33197505948E+02  0.15463673426E+03  0.18542812818E+03  0.90652710735E+02 0.  0.
        -11    1    3    3    0    0 -0.74596428042E+02  0.22208381882E+02  0.46652819589E+03  0.47297610601E+03  0.00000000000E+00 0.  1.
         12    1    3    3    0    0  0.89634749063E+01  0.13950972065E+02  0.22485022661E+02  0.27938320422E+02  0.00000000000E+00 0. -1.
        -11    1    4    4    0    0  0.59889752272E+01 -0.60128966076E+02  0.71037319744E+02  0.93261252308E+02  0.00000000000E+00 0.  1.
         11    1    4    4    0    0  0.27938635528E+02  0.26931460128E+02  0.83599414521E+02  0.92166875872E+02  0.00000000000E+00 0. -1.
         21    1    1    2  502  501  0.31705342380E+02 -0.29618479987E+01 -0.17187978442E+02  0.36186017768E+02  0.00000000000E+00 0. -1.
<scales pt_clust_5="13000.00000" pt_clust_6="13000.00000" pt_clust_7="13000.00000" pt_clust_8="13000.00000" pt_clust_9="31.84339"></scales>
<clustering>
<clus scale="   31.843">  2  9  1 -1</clus>
<clus scale="   78.525">  5  6 -1 -1</clus>
<clus scale="   90.653">  7  8 -1 -1</clus>
<clus scale="  103.152">  1  5  2 -1</clus>
<clus scale="   31.843">  2  5  1 -1</clus>
</clustering>
</event>
<event>
 9    2  0.3791909E-005  0.1321289E+03  0.7546771E-02  0.1227112E+00
         -1   -1    0    0    0  501 -0.00000000000E+00  0.00000000000E+00  0.17636481323E+03  0.17636481323E+03  0.00000000000E+00 0.  1.
          2   -1    0    0  502    0  0.00000000000E+00 -0.00000000000E+00 -0.21022933246E+03  0.21022933246E+03  0.00000000000E+00 0. -1.
         23    2    1    2    0    0 -0.66608588008E+02  0.72295831858E+02  0.89721858133E+02  0.16108852010E+03  0.90753006462E+02 0.  0.
         24    2    1    2    0    0  0.97207900671E+02 -0.24803363090E+02 -0.10633164123E+03  0.16643297165E+03  0.79554593529E+02 0.  0.
        -13    1    4    4    0    0  0.10611617377E+03 -0.11144792338E+02 -0.72867922529E+02  0.12920751861E+03  0.00000000000E+00 0.  1.
         14    1    4    4    0    0 -0.89082730984E+01 -0.13658570752E+02 -0.33463718702E+02  0.37225453039E+02  0.00000000000E+00 0. -1.
        -11    1    3    3    0    0 -0.70783643770E+02  0.33820249660E+02  0.93675979907E+02  0.12218560768E+03  0.00000000000E+00 0.  1.
         11    1    3    3    0    0  0.41750557624E+01  0.38475582197E+02 -0.39541217744E+01  0.38902912424E+02  0.00000000000E+00 0. -1.
         21    1    1    2  502  501 -0.30599312663E+02 -0.47492468768E+02 -0.17254736130E+02  0.59072653944E+02  0.00000000000E+00 0.  1.
<scales pt_clust_5="13000.00000" pt_clust_6="13000.00000" pt_clust_7="13000.00000" pt_clust_8="13000.00000" pt_clust_9="56.49648"></scales>
<clustering>
<clus scale="   56.496">  2  9  1 -1</clus>
<clus scale="   79.555">  5  6 -1 -1</clus>
<clus scale="   90.753">  7  8 -1 -1</clus>
<clus scale="  124.703">  2  5  1 -1</clus>
<clus scale="   56.496">  2  5  1 -1</clus>
</clustering>
</event>
<event>
 9    2  0.3791909E-005  0.1521737E+03  0.7546771E-02  0.1200395E+00
         -1   -1    0    0    0  501 -0.00000000000E+00  0.00000000000E+00  0.24762624738E+02  0.24762624738E+02  0.00000000000E+00 0.  1.
          2   -1    0    0  502    0  0.00000000000E+00 -0.00000000000E+00 -0.16559562264E+04  0.16559562264E+04  0.00000000000E+00 0. -1.
         24    2    1    2    0    0 -0.90498492662E+02  0.82100115488E+02 -0.55043145757E+03  0.56948307851E+03  0.80036123700E+02 0.  0.
         23    2    1    2    0    0  0.13465122542E+03 -0.96117327736E+00 -0.62665277272E+03  0.64782632848E+03  0.94092390485E+02 0.  0.
        -11    1    3    3    0    0 -0.44938571227E+02  0.61434296699E+02 -0.17640779620E+03  0.19212849491E+03  0.00000000000E+00 0.  1.
         12    1    3    3    0    0 -0.45559921435E+02  0.20665818790E+02 -0.37402366136E+03  0.37735458360E+03  0.00000000000E+00 0. -1.
        -13    1    4    4    0    0  0.24023162625E+02 -0.25942332341E+02 -0.57633072829E+02  0.67614259099E+02  0.00000000000E+00 0.  1.
         13    1    4    4    0    0  0.11062806280E+03  0.24981159064E+02 -0.56901969989E+03  0.58021206938E+03  0.00000000000E+00 0. -1.
         21    1    1    2  502  501 -0.44152732763E+02 -0.81138942211E+02 -0.45410937135E+03  0.46340944412E+03  0.00000000000E+00 0.  1.
<scales pt_clust_5="13000.00000" pt_clust_6="13000.00000" pt_clust_7="13000.00000" pt_clust_8="13000.00000" pt_clust_9="92.37419"></scales>
<clustering>
<clus scale="   80.036">  5  6 -1 -1</clus>
<clus scale="   92.374">  2  9  1 -1</clus>
<clus scale="   94.092">  7  8 -1 -1</clus>
<clus scale="  143.907">  1  5  2 -1</clus>
<clus scale="   92.374">  2  5  1 -1</clus>
</clustering>
</event>
<event>
 9    2  0.3791909E-005  0.1110224E+03  0.7546771E-02  0.1260456E+00
          2   -1    0    0  502    0  0.00000000000E+00  0.00000000000E+00  0.49162909658E+03  0.49162909658E+03  0.00000000000E+00 0. -1.
         -1   -1    0    0    0  501 -0.00000000000E+00 -0.00000000000E+00 -0.57681411591E+02  0.57681411591E+02  0.00000000000E+00 0.  1.
         24    2    1    2    0    0  0.81045276042E+01 -0.47415114626E+02  0.72832268214E+02  0.12871880484E+03  0.94605047242E+02 0.  0.
         23    2    1    2    0    0 -0.28342652142E+02  0.54449474705E+02  0.37793604434E+03  0.39335207377E+03  0.90122966565E+02 0.  0.
        -13    1    3    3    0    0 -0.11414926940E+02 -0.71637821680E+02  0.63038821941E+02  0.96105000514E+02  0.00000000000E+00 0.  1.
         14    1    3    3    0    0  0.19519454545E+02  0.24222707054E+02  0.97934462728E+01  0.32613804326E+02  0.00000000000E+00 0. -1.
        -13    1    4    4    0    0 -0.60290027219E+02  0.39099657812E+02  0.21808310452E+03  0.22961687895E+03  0.00000000000E+00 0. -1.
         13    1    4    4    0    0  0.31947375077E+02  0.15349816893E+02  0.15985293982E+03  0.16373519482E+03  0.00000000000E+00 0.  1.
         21    1    1    2  502  501  0.20238124538E+02 -0.70343600793E+01 -0.16820627568E+02  0.27239629556E+02  0.00000000000E+00 0.  1.
<scales pt_clust_5="13000.00000" pt_clust_6="13000.00000" pt_clust_7="13000.00000" pt_clust_8="13000.00000" pt_clust_9="21.42578"></scales>
<clustering>
<clus scale="   21.426">  2  9  1 -1</clus>
<clus scale="   90.123">  7  8 -1 -1</clus>
<clus scale="   94.605">  5  6 -1 -1</clus>
<clus scale="  107.229">  1  7  2 -1</clus>
<clus scale="  107.229">  1  5  2 -1</clus>
</clustering>
</event>
<event>
 9    2  0.3791909E-005  0.1134350E+03  0.7546771E-02  0.1258999E+00
         -1   -1    0    0    0  501 -0.00000000000E+00  0.00000000000E+00  0.96884419693E+02  0.96884419693E+02  0.00000000000E+00 0.  1.
          2   -1    0    0  502    0  0.00000000000E+00 -0.00000000000E+00 -0.19703249414E+03  0.19703249414E+03  0.00000000000E+00 0. -1.
         23    2    1    2    0    0 -0.21075715394E+02  0.83295650306E+02 -0.50799268002E+01  0.12554492837E+03  0.91396784652E+02 0.  0.
         24    2    1    2    0    0 -0.35286265818E+00 -0.40424474065E+02 -0.76612189944E+02  0.11701301268E+03  0.78666097360E+02 0.  0.
        -11    1    4    4    0    0  0.36502914984E+02 -0.22257272130E+02 -0.57612381644E+02  0.71742842735E+02  0.00000000000E+00 0.  1.
         12    1    4    4    0    0 -0.36855777642E+02 -0.18167201935E+02 -0.18999808300E+02  0.45270169949E+02  0.00000000000E+00 0. -1.
        -11    1    3    3    0    0  0.19588363035E+02  0.69571624675E+02  0.21073810144E+02  0.75286256384E+02  0.00000000000E+00 0.  1.
         11    1    3    3    0    0 -0.40664078429E+02  0.13724025631E+02 -0.26153736944E+02  0.50258671990E+02  0.00000000000E+00 0. -1.
         21    1    1    2  502  501  0.21428578052E+02 -0.42871176241E+02 -0.18455957700E+02  0.51358972773E+02  0.00000000000E+00 0. -1.
<scales pt_clust_5="13000.00000" pt_clust_6="13000.00000" pt_clust_7="13000.00000" pt_clust_8="13000.00000" pt_clust_9="47.92830"></scales>
<clustering>
<clus scale="   47.928">  2  9  1 -1</clus>
<clus scale="   78.666">  5  6 -1 -1</clus>
<clus scale="   91.397">  7  8 -1 -1</clus>
<clus scale="  103.453">  2  5  1 -1</clus>
<clus scale="   47.928">  2  5  1 -1</clus>
</clustering>
</event>
<event>
 9    2  0.3791909E-005  0.1036210E+03  0.7546771E-02  0.1276415E+00
          2   -1    0    0  502    0  0.00000000000E+00  0.00000000000E+00  0.10881573588E+04  0.10881573588E+04  0.00000000000E+00 0. -1.
         -1   -1    0    0    0  501 -0.00000000000E+00 -0.00000000000E+00 -0.40953105703E+02  0.40953105703E+02  0.00000000000E+00 0.  1.
         24    2    1    2    0    0  0.28227347847E+02  0.54985814594E+02  0.69953514726E+02  0.12344669989E+03  0.80779765526E+02 0.  0.
         23    2    1    2    0    0 -0.71753062772E+02  0.20163904339E+02  0.28061560303E+03  0.30363635781E+03  0.88852890010E+02 0.  0.
        -13    1    3    3    0    0  0.45939802897E+02  0.66322246606E+02  0.55964362377E+02  0.98189183423E+02  0.00000000000E+00 0.  1.
         14    1    3    3    0    0 -0.17712455050E+02 -0.11336432012E+02  0.13989152349E+02  0.25257516467E+02  0.00000000000E+00 0. -1.
        -13    1    4    4    0    0 -0.39103308485E+02  0.52075777138E+02  0.20710219519E+03  0.21709968805E+03  0.00000000000E+00 0.  1.
         13    1    4    4    0    0 -0.32649754286E+02 -0.31911872799E+02  0.73513407849E+02  0.86536669765E+02  0.00000000000E+00 0. -1.
         21    1    1    2  502  501  0.43525714925E+02 -0.75149718933E+02  0.69663513536E+03  0.70202740683E+03  0.00000000000E+00 0. -1.
<scales pt_clust_5="13000.00000" pt_clust_6="13000.00000" pt_clust_7="13000.00000" pt_clust_8="13000.00000" pt_clust_9="86.84451"></scales>
<clustering>
<clus scale="   80.780">  5  6 -1 -1</clus>
<clus scale="   86.845">  1  9  2 -1</clus>
<clus scale="   88.853">  7  8 -1 -1</clus>
<clus scale="   96.788">  2  5  1 -1</clus>
<clus scale="   86.845">  1  5  2 -1</clus>
</clustering>
</event>
<event>
 9    2  0.3791909E-005  0.1426319E+03  0.7546771E-02  0.1213335E+00
         -1   -1    0    0    0  501 -0.00000000000E+00  0.00000000000E+00  0.32383791332E+03  0.32383791332E+03  0.00000000000E+00 0.  1.
          2   -1    0    0  502    0  0.00000000000E+00 -0.00000000000E+00 -0.11584004305E+03  0.11584004305E+03  0.00000000000E+00 0. -1.
         23    2    1    2    0    0  0.93087455770E+02 -0.41256558234E+02  0.22183693242E+03  0.26248430924E+03  0.96535019512E+02 0.  0.
         24    2    1    2    0    0 -0.11390889941E+03  0.26366216123E+02  0.97952838278E+01  0.14235348190E+03  0.80611112796E+02 0.  0.
        -11    1    4    4    0    0 -0.17712259338E+02  0.20775196497E+02  0.33407282072E+02  0.43143706561E+02  0.00000000000E+00 0.  1.
         12    1    4    4    0    0 -0.96196640074E+02  0.55910196261E+01 -0.23611998244E+02  0.99209775340E+02  0.00000000000E+00 0. -1.
        -11    1    3    3    0    0  0.10275298383E+03 -0.14338010212E+02  0.13015920298E+03  0.16644870784E+03  0.00000000000E+00 0.  1.
         11    1    3    3    0    0 -0.96655280576E+01 -0.26918548022E+02  0.91677729436E+02  0.96035601392E+02  0.00000000000E+00 0. -1.
         21    1    1    2  502  501  0.20821443642E+02  0.14890342111E+02 -0.23634345980E+02  0.34840165232E+02  0.00000000000E+00 0. -1.
<scales pt_clust_5="13000.00000" pt_clust_6="13000.00000" pt_clust_7="13000.00000" pt_clust_8="13000.00000" pt_clust_9="25.59795"></scales>
<clustering>
<clus scale="   25.598">  2  9  1 -1</clus>
<clus scale="   80.611">  5  6 -1 -1</clus>
<clus scale="   96.535">  7  8 -1 -1</clus>
<clus scale="  132.374">  2  5  1 -1</clus>
<clus scale="   25.598">  2  5  1 -1</clus>
</clustering>
</event>
<event>
 9    2  0.3791909E-005  0.1155105E+03  0.7546771E-02  0.1254927E+00
          2   -1    0    0  502    0  0.00000000000E+00  0.00000000000E+00  0.55950963846E+03  0.55950963846E+03  0.00000000000E+00 0. -1.
         -1   -1    0    0    0  501 -0.00000000000E+00 -0.00000000000E+00 -0.14391134388E+03  0.14391134388E+03  0.00000000000E+00 0.  1.
         23    2    1    2    0    0  0.66809375311E+02 -0.18327466416E+02 -0.10839438125E+03  0.15811465450E+03  0.91932113132E+02 0.  0.
         24    2    1    2    0    0 -0.82189353930E+02 -0.27486181831E+01  0.32544538673E+03  0.34505206172E+03  0.79897313821E+02 0.  0.
        -11    1    4    4    0    0 -0.31126907432E+02 -0.40553796405E+02  0.14553633460E+03  0.15425407437E+03  0.00000000000E+00 0.  1.
         12    1    4    4    0    0 -0.51062446499E+02  0.37805178222E+02  0.17990905212E+03  0.19079798735E+03  0.00000000000E+00 0. -1.
        -11    1    3    3    0    0  0.51378917385E+02  0.33270765500E+02 -0.59886098485E+02  0.85633415092E+02  0.00000000000E+00 0.  1.
         11    1    3    3    0    0  0.15430457926E+02 -0.51598231916E+02 -0.48508282768E+02  0.72481239405E+02  0.00000000000E+00 0. -1.
         21    1    1    2  502  501  0.15379978619E+02  0.21076084599E+02  0.19854728911E+03  0.20025426612E+03  0.00000000000E+00 0.  1.
<scales pt_clust_5="13000.00000" pt_clust_6="13000.00000" pt_clust_7="13000.00000" pt_clust_8="13000.00000" pt_clust_9="26.09109"></scales>
<clustering>
<clus scale="   26.091">  1  9  2 -1</clus>
<clus scale="   79.897">  5  6 -1 -1</clus>
<clus scale="   91.932">  7  8 -1 -1</clus>
<clus scale="  106.183">  1  5  2 -1</clus>
<clus scale="   26.091">  1  5  2 -1</clus>
</clustering>
</event>
<event>
 9    2  0.3791909E-005  0.1377722E+03  0.7546771E-02  0.1223350E+00
         -1   -1    0    0    0  501 -0.00000000000E+00  0.00000000000E+00  0.58135350411E+02  0.58135350411E+02  0.00000000000E+00 0.  1.
          2   -1    0    0  502    0  0.00000000000E+00 -0.00000000000E+00 -0.82702774673E+03  0.82702774673E+03  0.00000000000E+00 0. -1.
         23    2    1    2    0    0 -0.52345425850E+02  0.56646890275E+02 -0.87782188892E+02  0.14783867513E+03  0.90562947119E+02 0.  0.
         24    2    1    2    0    0  0.81579086685E+02  0.73418455140E+02 -0.45627158355E+03  0.47593580752E+03  0.79282520018E+02 0.  0.
        -11    1    4    4    0    0  0.44309805574E+02 -0.42810168020E+00 -0.24637195426E+03  0.25032515253E+03  0.00000000000E+00 0.  1.
         12    1    4    4    0    0  0.37269281111E+02  0.73846556820E+02 -0.20989962929E+03  0.22561065499E+03  0.00000000000E+00 0. -1.
        -13    1    3    3    0    0  0.25052495213E+02  0.20459430197E+02 -0.33752292581E+02  0.46748615539E+02  0.00000000000E+00 0. -1.
         13    1    3    3    0    0 -0.77397921062E+02  0.36187460078E+02 -0.54029896311E+02  0.10109005959E+03  0.00000000000E+00 0.  1.
         21    1    1    2  502  501 -0.29233660836E+02 -0.13006534542E+03 -0.22483862388E+03  0.26138861450E+03  0.00000000000E+00 0.  1.
<scales pt_clust_5="13000.00000" pt_clust_6="13000.00000" pt_clust_7="13000.00000" pt_clust_8="13000.00000" pt_clust_9="112.67409"></scales>
<clustering>
<clus scale="   79.283">  5  6 -1 -1</clus>
<clus scale="   90.563">  7  8 -1 -1</clus>
<clus scale="  118.956">  1  7  2 -1</clus>
<clus scale="  112.674">  1  9  2 -1</clus>
<clus scale="  137.772">  2  5  1 -1</clus>
</clustering>
</event>
<event>
 9    2  0.3791909E-005  0.9323198E+02  0.7546771E-02  0.1301136E+00
         -1   -1    0    0    0  501 -0.00000000000E+00  0.00000000000E+00  0.19930792654E+03  0.19930792654E+03  0.00000000000E+00 0.  1.
          2   -1    0    0  502    0  0.00000000000E+00 -0.00000000000E+00 -0.87267307311E+02  0.87267307311E+02  0.00000000000E+00 0. -1.
         23    2    1    2    0    0  0.31755605319E+02 -0.49591505074E+01  0.11583362799E+03  0.14931428080E+03  0.88568128771E+02 0.  0.
         24    2    1    2    0    0 -0.18600219494E+02 -0.40260429218E+02  0.15097314752E+00  0.90001778711E+02  0.78316199168E+02 0.  0.
        -13    1    4    4    0    0  0.17461475501E+02  0.14772220409E+02 -0.67457037273E+01  0.23845883109E+02  0.00000000000E+00 0.  1.
         14    1    4    4    0    0 -0.36061694995E+02 -0.55032649627E+02  0.68966768748E+01  0.66155895602E+02  0.00000000000E+00 0. -1.
        -13    1    3    3    0    0  0.60703725917E+02 -0.12157335864E+02  0.93118954031E+02  0.11182076174E+03  0.00000000000E+00 0.  1.
         13    1    3    3    0    0 -0.28948120598E+02  0.71981853563E+01  0.22714673958E+02  0.37493519061E+02  0.00000000000E+00 0. -1.
         21    1    1    2  502  501 -0.13155385825E+02  0.45219579725E+02 -0.39439819028E+01  0.47259174347E+02  0.00000000000E+00 0. -1.
<scales pt_clust_5="13000.00000" pt_clust_6="13000.00000" pt_clust_7="13000.00000" pt_clust_8="13000.00000" pt_clust_9="47.09432"></scales>
<clustering>
<clus scale="   47.094">  2  9  1 -1</clus>
<clus scale="   78.316">  5  6 -1 -1</clus>
<clus scale="   83.554">  2  5  1 -1</clus>
<clus scale="   88.568">  7  8 -1 -1</clus>
<clus scale="   47.094">  2  5  1 -1</clus>
</clustering>
</event>
<event>
 9    2  0.3791909E-005  0.9278339E+02  0.7546771E-02  0.1302459E+00
          4   -1    0    0  502    0  0.00000000000E+00  0.00000000000E+00  0.25501895117E+02  0.25501895117E+02  0.00000000000E+00 0. -1.
         -3   -1    0    0    0  501 -0.00000000000E+00 -0.00000000000E+00 -0.56094876431E+03  0.56094876431E+03  0.00000000000E+00 0.  1.
         23    2    1    2    0    0 -0.91865116584E+01 -0.25294343407E+02 -0.39792095308E+03  0.40902407641E+03  0.90749183886E+02 0.  0.
         24    2    1    2    0    0 -0.11255657407E+02  0.22641254942E+01 -0.97465213557E+02  0.12689804551E+03  0.80447684949E+02 0.  0.
        -13    1    4    4    0    0  0.51136841279E+01 -0.34062752461E+02 -0.20112978717E+02  0.39886749472E+02  0.00000000000E+00 0.  1.
         14    1    4    4    0    0 -0.16369341535E+02  0.36326877955E+02 -0.77352234839E+02  0.87011296042E+02  0.00000000000E+00 0. -1.
        -13    1    3    3    0    0  0.28746651304E+02  0.18993540665E+02 -0.11048110771E+03  0.11572899252E+03  0.00000000000E+00 0.  1.
         13    1    3    3    0    0 -0.37933162963E+02 -0.44287884072E+02 -0.28743984537E+03  0.29329508389E+03  0.00000000000E+00 0. -1.
         21    1    1    2  502  501  0.20442169066E+02  0.23030217913E+02 -0.40060702555E+02  0.50528537505E+02  0.00000000000E+00 0. -1.
<scales pt_clust_5="13000.00000" pt_clust_6="13000.00000" pt_clust_7="13000.00000" pt_clust_8="13000.00000" pt_clust_9="30.79405"></scales>
<clustering>
<clus scale="   30.794">  1  9  2 -1</clus>
<clus scale="   80.448">  5  6 -1 -1</clus>
<clus scale="   82.736">  1  5  2 -1</clus>
<clus scale="   90.749">  7  8 -1 -1</clus>
<clus scale="   30.794">  1  5  2 -1</clus>
</clustering>
</event>
<event>
 9    2  0.3791909E-005  0.1431162E+03  0.7546771E-02  0.1211152E+00
          2   -1    0    0  502    0  0.00000000000E+00  0.00000000000E+00  0.47694075185E+03  0.47694075185E+03  0.00000000000E+00 0. -1.
         -1   -1    0    0    0  501 -0.00000000000E+00 -0.00000000000E+00 -0.38996859583E+03  0.38996859583E+03  0.00000000000E+00 0.  1.
         24    2    1    2    0    0  0.48775142676E+02  0.10881854314E+03 -0.35453758617E+03  0.38181765744E+03  0.76598522531E+02 0.  0.
         23    2    1    2    0    0 -0.35466330717E+02 -0.45862997087E+02  0.12818767684E+03  0.16523040485E+03  0.86647164267E+02 0.  0.
        -11    1    3    3    0    0  0.43692949337E+02  0.99073225295E+02 -0.35466513290E+03  0.37082601620E+03  0.00000000000E+00 0.  1.
         12    1    3    3    0    0  0.50821933394E+01  0.97453178477E+01  0.12754673402E+00  0.10991641245E+02  0.00000000000E+00 0. -1.
        -11    1    4    4    0    0  0.28880459629E+02 -0.14712920363E+02  0.33860139639E+02  0.46872806940E+02  0.00000000000E+00 0.  1.
         11    1    4    4    0    0 -0.64346790346E+02 -0.31150076724E+02  0.94327537201E+02  0.11835759791E+03  0.00000000000E+00 0. -1.
         21    1    1    2  502  501 -0.13308811959E+02 -0.62955546055E+02  0.31332206535E+03  0.31986128539E+03  0.00000000000E+00 0. -1.
<scales pt_clust_5="13000.00000" pt_clust_6="13000.00000" pt_clust_7="13000.00000" pt_clust_8="13000.00000" pt_clust_9="64.34691"></scales>
<clustering>
<clus scale="   64.347">  1  9  2 -1</clus>
<clus scale="   76.599">  5  6 -1 -1</clus>
<clus scale="   86.647">  7  8 -1 -1</clus>
<clus scale="  137.266">  2  5  1 -1</clus>
<clus scale="   64.347">  1  5  2 -1</clus>
</clustering>
</event>
<event>
 9    2  0.3791909E-005  0.1436499E+03  0.7546771E-02  0.1217506E+00
          2   -1    0    0  502    0  0.00000000000E+00  0.00000000000E+00  0.37065774709E+03  0.37065774709E+03  0.00000000000E+00 0. -1.
         -1   -1    0    0    0  501 -0.00000000000E+00 -0.00000000000E+00 -0.28446052141E+03  0.28446052141E+03  0.00000000000E+00 0.  1.
         24    2    1    2    0    0 -0.55336354406E+02 -0.63387909139E+02 -0.21064927196E+03  0.24175946125E+03  0.83632423045E+02 0.  0.
         23    2    1    2    0    0 -0.69849126232E+02  0.52344896438E+02  0.48787070920E+02  0.13528178216E+03  0.91115825612E+02 0.  0.
        -13    1    3    3    0    0 -0.59047486667E+02 -0.58743421570E+02 -0.21737318624E+03  0.23278422918E+03  0.00000000000E+00 0.  1.
         14    1    3    3    0    0  0.37111322613E+01 -0.46444875694E+01  0.67239142821E+01  0.89752320703E+01  0.00000000000E+00 0. -1.
        -11    1    4    4    0    0  0.21120159576E+02 -0.28543128040E-01  0.62895800280E+01  0.22036804944E+02  0.00000000000E+00 0. -1.
         11    1    4    4    0    0 -0.90969285808E+02  0.52373439566E+02  0.42497490892E+02  0.11324497722E+03  0.00000000000E+00 0.  1.
         21    1    1    2  502  501  0.12518548064E+03  0.11043012701E+02  0.24805942672E+03  0.27807702508E+03  0.00000000000E+00 0. -1.
<scales pt_clust_5="13000.00000" pt_clust_6="13000.00000" pt_clust_7="13000.00000" pt_clust_8="13000.00000" pt_clust_9="111.05489"></scales>
<clustering>
<clus scale="   83.632">  5  6 -1 -1</clus>
<clus scale="   91.116">  7  8 -1 -1</clus>
<clus scale="  118.636">  2  5  1 -1</clus>
<clus scale="  111.055">  1  9  2 -1</clus>
<clus scale="  111.055">  1  5  2 -1</clus>
</clustering>
</event>
<event>
 9    2  0.3791909E-005  0.1470208E+03  0.7546771E-02  0.1208283E+00
         -1   -1    0    0    0  501 -0.00000000000E+00  0.00000000000E+00  0.71328166801E+02  0.71328166801E+02  0.00000000000E+00 0.  1.
          2   -1    0    0  502    0  0.00000000000E+00 -0.00000000000E+00 -0.59809806330E+03  0.59809806330E+03  0.00000000000E+00 0. -1.
         23    2    1    2    0    0  0.35772391791E+02 -0.11293280892E+03 -0.32164613838E+02  0.15378460438E+03  0.92637243128E+02 0.  0.
         24    2    1    2    0    0 -0.37502486573E+02  0.88989272766E+02 -0.37866568183E+03  0.39724282002E+03  0.71334650017E+02 0.  0.
        -11    1    4    4    0    0 -0.13407349230E+02  0.76129046970E+02 -0.16941442403E+03  0.18621663695E+03  0.00000000000E+00 0.  1.
         12    1    4    4    0    0 -0.24095137343E+02  0.12860225796E+02 -0.20925125780E+03  0.21102618307E+03  0.00000000000E+00 0. -1.
        -13    1    3    3    0    0 -0.14480026532E+02 -0.14287620703E+02  0.22486447877E+02  0.30322394560E+02  0.00000000000E+00 0. -1.
         13    1    3    3    0    0  0.50252418323E+02 -0.98645188220E+02 -0.54651061715E+02  0.12346220982E+03  0.00000000000E+00 0.  1.
         21    1    1    2  502  501  0.17300947822E+01  0.23943536158E+02 -0.11593960083E+03  0.11839880571E+03  0.00000000000E+00 0. -1.
<scales pt_clust_5="13000.00000" pt_clust_6="13000.00000" pt_clust_7="13000.00000" pt_clust_8="13000.00000" pt_clust_9="24.00596"></scales>
<clustering>
<clus scale="   24.006">  2  9  1 -1</clus>
<clus scale="   71.335">  5  6 -1 -1</clus>
<clus scale="   92.637">  7  8 -1 -1</clus>
<clus scale="  134.618">  2  5  1 -1</clus>
<clus scale="   24.006">  2  5  1 -1</clus>
</clustering>
</event>
<event>
 9    2  0.3791909E-005  0.9419024E+02  0.7546771E-02  0.1297178E+00
         -1   -1    0    0    0  501 -0.00000000000E+00  0.00000000000E+00  0.21340215885E+03  0.21340215885E+03  0.00000000000E+00 0.  1.
          2   -1    0    0  502    0  0.00000000000E+00 -0.00000000000E+00 -0.95979576310E+02  0.95979576310E+02  0.00000000000E+00 0. -1.
         23    2    1    2    0    0  0.16918066285E+02  0.28767302205E+02  0.14663539047E+03  0.17486315225E+03  0.89226709193E+02 0.  0.
         24    2    1    2    0    0 -0.30937836577E+02 -0.50314082364E+01 -0.49209649099E+02  0.10046244869E+03  0.81784162469E+02 0.  0.
        -13    1    4    4    0    0  0.20406077262E+02 -0.21693402634E+02 -0.32210045723E+02  0.43869109320E+02  0.00000000000E+00 0.  1.
         14    1    4    4    0    0 -0.51343913839E+02  0.16661994398E+02 -0.16999603376E+02  0.56593339366E+02  0.00000000000E+00 0. -1.
        -13    1    3    3    0    0  0.36041108101E+02 -0.87576283330E+01  0.21591003473E+02  0.42916534787E+02  0.00000000000E+00 0.  1.
         13    1    3    3    0    0 -0.19123041816E+02  0.37524930538E+02  0.12504438700E+03  0.13194661747E+03  0.00000000000E+00 0. -1.
         21    1    1    2  502  501  0.14019770292E+02 -0.23735893969E+02  0.19996841166E+02  0.34056134222E+02  0.00000000000E+00 0.  1.
<scales pt_clust_5="13000.00000" pt_clust_6="13000.00000" pt_clust_7="13000.00000" pt_clust_8="13000.00000" pt_clust_9="27.56713"></scales>
<clustering>
<clus scale="   27.567">  1  9  2 -1</clus>
<clus scale="   81.784">  5  6 -1 -1</clus>
<clus scale="   87.173">  2  5  1 -1</clus>
<clus scale="   89.227">  7  8 -1 -1</clus>
<clus scale="   87.173">  2  5  1 -1</clus>
</clustering>
</event>
<event>
 9    2  0.3791909E-005  0.9274232E+02  0.7546771E-02  0.1304153E+00
          2   -1    0    0  502    0  0.00000000000E+00  0.00000000000E+00  0.78190713278E+03  0.78190713278E+03  0.00000000000E+00 0. -1.
         -1   -1    0    0    0  501 -0.00000000000E+00 -0.00000000000E+00 -0.48651736009E+02  0.48651736009E+02  0.00000000000E+00 0.  1.
         23    2    1    2    0    0 -0.88861850223E+01 -0.16298305102E+02  0.69676895584E+01  0.93269367149E+02  0.91137407891E+02 0.  0.
         24    2    1    2    0    0  0.30834392726E+02 -0.14649554241E+02  0.41724370244E+03  0.42592526043E+03  0.78451583993E+02 0.  0.
        -13    1    4    4    0    0 -0.23557724788E+02  0.10069362639E+01  0.64612625985E+02  0.68780605947E+02  0.00000000000E+00 0.  1.
         14    1    4    4    0    0  0.54392117514E+02 -0.15656490505E+02  0.35263107645E+03  0.35714465448E+03  0.00000000000E+00 0. -1.
        -11    1    3    3    0    0 -0.31801922331E+02  0.22605620545E+02 -0.16523965101E+02  0.42372370324E+02  0.00000000000E+00 0.  1.
         11    1    3    3    0    0  0.22915737309E+02 -0.38903925647E+02  0.23491654659E+02  0.50896996825E+02  0.00000000000E+00 0. -1.
         21    1    1    2  502  501 -0.21948207703E+02  0.30947859343E+02  0.30904400478E+03  0.31136424122E+03  0.00000000000E+00 0.  1.
<scales pt_clust_5="13000.00000" pt_clust_6="13000.00000" pt_clust_7="13000.00000" pt_clust_8="13000.00000" pt_clust_9="37.94066"></scales>
<clustering>
<clus scale="   37.941">  1  9  2 -1</clus>
<clus scale="   78.452">  5  6 -1 -1</clus>
<clus scale="   80.310">  1  5  2 -1</clus>
<clus scale="   91.137">  7  8 -1 -1</clus>
<clus scale="   37.941">  1  5  2 -1</clus>
</clustering>
</event>
<event>
 9    2  0.3791909E-005  0.9739274E+02  0.7546771E-02  0.1292147E+00
          2   -1    0    0  502    0  0.00000000000E+00  0.00000000000E+00  0.47300135867E+03  0.47300135867E+03  0.00000000000E+00 0. -1.
         -1   -1    0    0    0  501 -0.00000000000E+00 -0.00000000000E+00 -0.73632380278E+02  0.73632380278E+02  0.00000000000E+00 0.  1.
         24    2    1    2    0    0 -0.22486463082E+01 -0.29807711308E+02 -0.27472474165E+02  0.89516332784E+02  0.79780203902E+02 0.  0.
         23    2    1    2    0    0  0.28723979049E+01  0.74601681606E+02  0.32843839086E+03  0.34899686514E+03  0.91396792695E+02 0.  0.
        -13    1    3    3    0    0 -0.18328262277E+02 -0.44290199902E+02 -0.41770530822E+02  0.63579275323E+02  0.00000000000E+00 0.  1.
         14    1    3    3    0    0  0.16079615969E+02  0.14482488593E+02  0.14298056657E+02  0.25937057461E+02  0.00000000000E+00 0. -1.
        -13    1    4    4    0    0 -0.93710243617E+01 -0.19155003939E+02  0.38247520356E+02  0.43790445155E+02  0.00000000000E+00 0.  1.
         13    1    4    4    0    0  0.12243422267E+02  0.93756685545E+02  0.29019087051E+03  0.30520641998E+03  0.00000000000E+00 0. -1.
         21    1    1    2  502  501 -0.62375159671E+00 -0.44793970298E+02  0.98403061694E+02  0.10812054103E+03  0.00000000000E+00 0. -1.
<scales pt_clust_5="13000.00000" pt_clust_6="13000.00000" pt_clust_7="13000.00000" pt_clust_8="13000.00000" pt_clust_9="44.79831"></scales>
<clustering>
<clus scale="   44.798">  1  9  2 -1</clus>
<clus scale="   79.780">  5  6 -1 -1</clus>
<clus scale="   86.584">  2  5  1 -1</clus>
<clus scale="   91.397">  7  8 -1 -1</clus>
<clus scale="   44.798">  1  5  2 -1</clus>
</clustering>
</event>
<event>
 9    2  0.3791909E-005  0.1022395E+03  0.7546771E-02  0.1280444E+00
          4   -1    0    0  502    0  0.00000000000E+00  0.00000000000E+00  0.25217262384E+03  0.25217262384E+03  0.00000000000E+00 0. -1.
         -3   -1    0    0    0  501 -0.00000000000E+00 -0.00000000000E+00 -0.12560697584E+03  0.12560697584E+03  0.00000000000E+00 0.  1.
         23    2    1    2    0    0 -0.28970137327E+02  0.37897886322E+02 -0.76052231445E+02  0.12834828246E+03  0.91726882957E+02 0.  0.
         24    2    1    2    0    0 -0.20983299157E+01 -0.43833841817E+02  0.78888131107E+02  0.12172252407E+03  0.81653089094E+02 0.  0.
        -13    1    4    4    0    0 -0.41208771765E+02 -0.21674467052E+02  0.49821518650E+02  0.68191855180E+02  0.00000000000E+00 0.  1.
         14    1    4    4    0    0  0.39110441849E+02 -0.22159374765E+02  0.29066612457E+02  0.53530668886E+02  0.00000000000E+00 0. -1.
        -13    1    3    3    0    0  0.26657396509E+02 -0.92718855680E+01 -0.99806195618E+01  0.29936556540E+02  0.00000000000E+00 0. -1.
         13    1    3    3    0    0 -0.55627533836E+02  0.47169771890E+02 -0.66071611884E+02  0.98411725916E+02  0.00000000000E+00 0.  1.
         21    1    1    2  502  501  0.31068467243E+02  0.59359554953E+01  0.12372974835E+03  0.12770879316E+03  0.00000000000E+00 0. -1.
<scales pt_clust_5="13000.00000" pt_clust_6="13000.00000" pt_clust_7="13000.00000" pt_clust_8="13000.00000" pt_clust_9="31.63045"></scales>
<clustering>
<clus scale="   31.630">  1  9  2 -1</clus>
<clus scale="   81.653">  5  6 -1 -1</clus>
<clus scale="   91.727">  7  8 -1 -1</clus>
<clus scale="   93.308">  1  5  2 -1</clus>
<clus scale="   31.630">  1  5  2 -1</clus>
</clustering>
</event>
<event>
 9    2  0.3791909E-005  0.9921733E+02  0.7546771E-02  0.1287914E+00
         -1   -1    0    0    0  501 -0.00000000000E+00  0.00000000000E+00  0.21458777072E+03  0.21458777072E+03  0.00000000000E+00 0.  1.
          2   -1    0    0  502    0  0.00000000000E+00 -0.00000000000E+00 -0.83617409471E+02  0.83617409471E+02  0.00000000000E+00 0. -1.
         23    2    1    2    0    0  0.43848298754E+02 -0.22862257713E+01  0.89828963771E+02  0.13624152561E+03  0.92545180511E+02 0.  0.
         24    2    1    2    0    0 -0.20622237590E+02 -0.33430710495E+02  0.66842786703E+02  0.11220713881E+03  0.81114701373E+02 0.  0.
        -11    1    4    4    0    0 -0.87255131680E+01 -0.53484920478E+02  0.70163005772E+02  0.88654490454E+02  0.00000000000E+00 0.  1.
         12    1    4    4    0    0 -0.11896724423E+02  0.20054209983E+02 -0.33202190691E+01  0.23552648359E+02  0.00000000000E+00 0. -1.
        -11    1    3    3    0    0  0.29286684589E+02  0.25335673729E+02  0.96790524154E+02  0.10424975695E+03  0.00000000000E+00 0.  1.
         11    1    3    3    0    0  0.14561614165E+02 -0.27621899500E+02 -0.69615603827E+01  0.31991768661E+02  0.00000000000E+00 0. -1.
         21    1    1    2  502  501 -0.23226061163E+02  0.35716936266E+02 -0.25701389227E+02  0.49756515770E+02  0.00000000000E+00 0. -1.
<scales pt_clust_5="13000.00000" pt_clust_6="13000.00000" pt_clust_7="13000.00000" pt_clust_8="13000.00000" pt_clust_9="42.60457"></scales>
<clustering>
<clus scale="   42.605">  2  9  1 -1</clus>
<clus scale="   81.115">  5  6 -1 -1</clus>
<clus scale="   88.651">  2  5  1 -1</clus>
<clus scale="   92.545">  7  8 -1 -1</clus>
<clus scale="   42.605">  2  5  1 -1</clus>
</clustering>
</event>
<event>
 9    2  0.3791909E-005  0.2832721E+03  0.7546771E-02  0.1128416E+00
          2   -1    0    0  502    0  0.00000000000E+00  0.00000000000E+00  0.16708630660E+04  0.16708630660E+04  0.00000000000E+00 0. -1.
         -1   -1    0    0    0  501 -0.00000000000E+00 -0.00000000000E+00 -0.58814198194E+03  0.58814198194E+03  0.00000000000E+00 0.  1.
         23    2    1    2    0    0 -0.66346584860E+02  0.11465304546E+02 -0.21084763602E+03  0.24153987532E+03  0.96702963867E+02 0.  0.
         24    2    1    2    0    0 -0.63679223438E+01  0.25114777701E+03 -0.30072814425E+03  0.40004886203E+03  0.80535203059E+02 0.  0.
        -13    1    4    4    0    0 -0.38177099064E+02  0.71465072891E+02 -0.10172566162E+03  0.13004944355E+03  0.00000000000E+00 0.  1.
         14    1    4    4    0    0  0.31809176720E+02  0.17968270412E+03 -0.19900248264E+03  0.26999941848E+03  0.00000000000E+00 0. -1.
        -13    1    3    3    0    0 -0.35944252036E+02 -0.97840309354E+01 -0.11815575055E+02  0.39080997040E+02  0.00000000000E+00 0. -1.
         13    1    3    3    0    0 -0.30402332824E+02  0.21249335482E+02 -0.19903206097E+03  0.20245887828E+03  0.00000000000E+00 0.  1.
         21    1    1    2  502  501  0.72714507204E+02 -0.26261308155E+03  0.15942968643E+04  0.16174163106E+04  0.00000000000E+00 0. -1.
<scales pt_clust_5="13000.00000" pt_clust_6="13000.00000" pt_clust_7="13000.00000" pt_clust_8="13000.00000" pt_clust_9="271.58272"></scales>
<clustering>
<clus scale="   80.535">  5  6 -1 -1</clus>
<clus scale="   96.703">  7  8 -1 -1</clus>
<clus scale="  117.834">  2  7  1 -1</clus>
<clus scale="  271.583">  1  9  2 -1</clus>
<clus scale="  271.583">  1  5  2 -1</clus>
</clustering>
</event>
<event>
 9    2  0.3791909E-005  0.1018222E+03  0.7546771E-02  0.1279679E+00
          2   -1    0    0  502    0  0.00000000000E+00  0.00000000000E+00  0.47585499740E+03  0.47585499740E+03  0.00000000000E+00 0. -1.
         -1   -1    0    0    0  501 -0.00000000000E+00 -0.00000000000E+00 -0.40209510205E+02  0.40209510205E+02  0.00000000000E+00 0.  1.
         23    2    1    2    0    0 -0.36814380803E+02  0.42378981960E+02  0.54959773992E+02  0.11656363979E+03  0.86111721719E+02 0.  0.
         24    2    1    2    0    0  0.12509127866E+02 -0.50657690949E+02  0.31726557529E+03  0.33108013824E+03  0.78955257842E+02 0.  0.
        -11    1    4    4    0    0  0.29052285568E+02 -0.36336796794E+02  0.78033095198E+02  0.90849116915E+02  0.00000000000E+00 0.  1.
         12    1    4    4    0    0 -0.16543157702E+02 -0.14320894155E+02  0.23923248010E+03  0.24023102133E+03  0.00000000000E+00 0. -1.
        -11    1    3    3    0    0 -0.33934251903E+02 -0.19604859985E+02  0.31299003931E+02  0.50154876476E+02  0.00000000000E+00 0. -1.
         11    1    3    3    0    0 -0.28801288997E+01  0.61983841945E+02  0.23660770060E+02  0.66408763312E+02  0.00000000000E+00 0.  1.
         21    1    1    2  502  501  0.24305252937E+02  0.82787089883E+01  0.63420137906E+02  0.68420729570E+02  0.00000000000E+00 0. -1.
<scales pt_clust_5="13000.00000" pt_clust_6="13000.00000" pt_clust_7="13000.00000" pt_clust_8="13000.00000" pt_clust_9="25.67649"></scales>
<clustering>
<clus scale="   25.676">  1  9  2 -1</clus>
<clus scale="   78.955">  5  6 -1 -1</clus>
<clus scale="   86.112">  7  8 -1 -1</clus>
<clus scale="   95.846">  1  5  2 -1</clus>
<clus scale="   25.676">  1  5  2 -1</clus>
</clustering>
</event>
<event>
 9    2  0.3791909E-005  0.1006656E+03  0.7546771E-02  0.1281331E+00
         -1   -1    0    0    0  501 -0.00000000000E+00  0.00000000000E+00  0.14360261702E+03  0.14360261702E+03  0.00000000000E+00 0.  1.
          2   -1    0    0  502    0  0.00000000000E+00 -0.00000000000E+00 -0.23969557962E+03  0.23969557962E+03  0.00000000000E+00 0. -1.
         23    2    1    2    0    0  0.54268745061E+02  0.13681783709E+02  0.10562074101E+03  0.14704888721E+03  0.85646636837E+02 0.  0.
         24    2    1    2    0    0 -0.21669288560E+02 -0.20845700873E+02 -0.16912740103E+03  0.18960262264E+03  0.80255687764E+02 0.  0.
        -13    1    4    4    0    0 -0.30334898281E-01  0.21469679128E+02 -0.10292164134E+02  0.23809172279E+02  0.00000000000E+00 0.  1.
         14    1    4    4    0    0 -0.21638953662E+02 -0.42315380001E+02 -0.15883523690E+03  0.16579345036E+03  0.00000000000E+00 0. -1.
        -11    1    3    3    0    0 -0.17913361997E+02  0.21216425416E+02  0.43035524613E+02  0.51216028978E+02  0.00000000000E+00 0. -1.
         11    1    3    3    0    0  0.72182107058E+02 -0.75346417069E+01  0.62585216395E+02  0.95832858228E+02  0.00000000000E+00 0.  1.
         21    1    1    2  502  501 -0.32599456501E+02  0.71639171640E+01 -0.32586302574E+02  0.46646686793E+02  0.00000000000E+00 0. -1.
<scales pt_clust_5="13000.00000" pt_clust_6="13000.00000" pt_clust_7="13000.00000" pt_clust_8="13000.00000" pt_clust_9="33.37733"></scales>
<clustering>
<clus scale="   33.377">  2  9  1 -1</clus>
<clus scale="   80.256">  5  6 -1 -1</clus>
<clus scale="   85.647">  7  8 -1 -1</clus>
<clus scale="   96.121">  2  5  1 -1</clus>
<clus scale="   33.377">  2  5  1 -1</clus>
</clustering>
</event>
<event>
 9    2  0.3791909E-005  0.1264287E+03  0.7546771E-02  0.1254990E+00
         -1   -1    0    0    0  501 -0.00000000000E+00  0.00000000000E+00  0.16591036471E+03  0.16591036471E+03  0.00000000000E+00 0.  1.
          2   -1    0    0  502    0  0.00000000000E+00 -0.00000000000E+00 -0.27520651505E+03  0.27520651505E+03  0.00000000000E+00 0. -1.
         24    2    1    2    0    0  0.20470793486E+02 -0.46948952198E+01  0.10456950243E+03  0.13219787087E+03  0.78105062562E+02 0.  0.
         23    2    1    2    0    0  0.79356034002E+02  0.23856800494E+01 -0.14190289727E+03  0.18583624754E+03  0.89975591392E+02 0.  0.
        -11    1    3    3    0    0  0.46101256467E+02 -0.20241876888E+02  0.57896890944E+02  0.76727500994E+02  0.00000000000E+00 0.  1.
         12    1    3    3    0    0 -0.25630462981E+02  0.15546981668E+02  0.46672611481E+02  0.55470369875E+02  0.00000000000E+00 0. -1.
        -13    1    4    4    0    0  0.35789415153E+02 -0.17021480134E+02 -0.13106629971E+03  0.13692694382E+03  0.00000000000E+00 0. -1.
         13    1    4    4    0    0  0.43566618849E+02  0.19407160183E+02 -0.10836597554E+02  0.48909303725E+02  0.00000000000E+00 0.  1.
         21    1    1    2  502  501 -0.99826827488E+02  0.23092151705E+01 -0.71962755500E+02  0.12308276134E+03  0.00000000000E+00 0.  1.
<scales pt_clust_5="13000.00000" pt_clust_6="13000.00000" pt_clust_7="13000.00000" pt_clust_8="13000.00000" pt_clust_9="88.81783"></scales>
<clustering>
<clus scale="   78.105">  5  6 -1 -1</clus>
<clus scale="   80.880">  1  5  2 -1</clus>
<clus scale="   88.818">  1  9  2 -1</clus>
<clus scale="   89.976">  7  8 -1 -1</clus>
<clus scale="  126.429">  2  5  1 -1</clus>
</clustering>
</event>
<event>
 9    2  0.3791909E-005  0.1740709E+03  0.7546771E-02  0.1174481E+00
          2   -1    0    0  502    0  0.00000000000E+00  0.00000000000E+00  0.16781841638E+03  0.16781841638E+03  0.00000000000E+00 0. -1.
         -1   -1    0    0    0  501 -0.00000000000E+00 -0.00000000000E+00 -0.40916746181E+03  0.40916746181E+03  0.00000000000E+00 0.  1.
         23    2    1    2    0    0 -0.44793109209E+02 -0.16506506051E+03 -0.30355568666E+03  0.35908888993E+03  0.86867019843E+02 0.  0.
         24    2    1    2    0    0  0.19119086533E+02  0.80302472106E+02  0.58714685602E+02  0.12926265187E+03  0.80295655967E+02 0.  0.
        -13    1    4    4    0    0 -0.59882752111E+01  0.31897214198E+02 -0.16462858363E+02  0.36391172268E+02  0.00000000000E+00 0.  1.
         14    1    4    4    0    0  0.25107361744E+02  0.48405257908E+02  0.75177543966E+02  0.92871479603E+02  0.00000000000E+00 0. -1.
        -13    1    3    3    0    0 -0.52380601231E+02 -0.55855619277E+02 -0.83426764450E+02  0.11324134676E+03  0.00000000000E+00 0. -1.
         13    1    3    3    0    0  0.75874920218E+01 -0.10920944123E+03 -0.22012892221E+03  0.24584754317E+03  0.00000000000E+00 0.  1.
         21    1    1    2  502  501  0.25674022676E+02  0.84762588400E+02  0.34919556266E+01  0.88634336387E+02  0.00000000000E+00 0. -1.
<scales pt_clust_5="13000.00000" pt_clust_6="13000.00000" pt_clust_7="13000.00000" pt_clust_8="13000.00000" pt_clust_9="88.56552"></scales>
<clustering>
<clus scale="   80.296">  5  6 -1 -1</clus>
<clus scale="   86.867">  7  8 -1 -1</clus>
<clus scale="   88.566">  1  9  2 -1</clus>
<clus scale="  170.886">  1  5  2 -1</clus>
<clus scale="   88.566">  1  5  2 -1</clus>
</clustering>
</event>
<event>
 9    2  0.3791909E-005  0.9748227E+02  0.7546771E-02  0.1291293E+00
         -1   -1    0    0    0  501 -0.00000000000E+00  0.00000000000E+00  0.11257527059E+03  0.11257527059E+03  0.00000000000E+00 0.  1.
          2   -1    0    0  502    0  0.00000000000E+00 -0.00000000000E+00 -0.14907642120E+03  0.14907642120E+03  0.00000000000E+00 0. -1.
         23    2    1    2    0    0  0.85277374734E+01 -0.28448161704E+02  0.45438603714E+02  0.10614460679E+03  0.91213982664E+02 0.  0.
         24    2    1    2    0    0 -0.43162702367E+02  0.32332033301E+02 -0.56052986873E+02  0.11209291702E+03  0.80712486374E+02 0.  0.
        -13    1    4    4    0    0 -0.18119267874E+02  0.94870511538E+01  0.20137173607E+02  0.28702225851E+02  0.00000000000E+00 0.  1.
         14    1    4    4    0    0 -0.25043434492E+02  0.22844982147E+02 -0.76190160480E+02  0.83390691174E+02  0.00000000000E+00 0. -1.
        -13    1    3    3    0    0  0.41219538193E+02 -0.32084405645E+02  0.50745820018E+02  0.72825803557E+02  0.00000000000E+00 0.  1.
         13    1    3    3    0    0 -0.32691800720E+02  0.36362439414E+01 -0.53072163035E+01  0.33318803238E+02  0.00000000000E+00 0. -1.
         21    1    1    2  502  501  0.34634964893E+02 -0.38838715976E+01 -0.25886767444E+02  0.43414167969E+02  0.00000000000E+00 0.  1.
<scales pt_clust_5="13000.00000" pt_clust_6="13000.00000" pt_clust_7="13000.00000" pt_clust_8="13000.00000" pt_clust_9="34.85205"></scales>
<clustering>
<clus scale="   34.852">  2  9  1 -1</clus>
<clus scale="   80.712">  5  6 -1 -1</clus>
<clus scale="   87.734">  2  5  1 -1</clus>
<clus scale="   91.214">  7  8 -1 -1</clus>
<clus scale="   34.852">  2  5  1 -1</clus>
</clustering>
</event>
<event>
 9    2  0.3791909E-005  0.1537142E+03  0.7546771E-02  0.1196308E+00
          2   -1    0    0  502    0  0.00000000000E+00  0.00000000000E+00  0.84649081320E+02  0.84649081320E+02  0.00000000000E+00 0. -1.
         -1   -1    0    0    0  501 -0.00000000000E+00 -0.00000000000E+00 -0.39839586774E+03  0.39839586774E+03  0.00000000000E+00 0.  1.
         24    2    1    2    0    0  0.36079275887E+02  0.12197681774E+03 -0.24461198053E+03  0.28996754941E+03  0.89811471854E+02 0.  0.
         23    2    1    2    0    0 -0.56832383908E+02 -0.10861710710E+03 -0.47521402593E+02  0.16027019674E+03  0.91655095017E+02 0.  0.
        -11    1    3    3    0    0  0.16742129337E+02  0.13032002964E+03 -0.18632560049E+03  0.22799306660E+03  0.00000000000E+00 0.  1.
         12    1    3    3    0    0  0.19337146550E+02 -0.83432118953E+01 -0.58286380040E+02  0.61974482810E+02  0.00000000000E+00 0. -1.
        -13    1    4    4    0    0 -0.65055677027E+02 -0.26750302148E+02 -0.27989409888E+02  0.75704866715E+02  0.00000000000E+00 0. -1.
         13    1    4    4    0    0  0.82232931193E+01 -0.81866804954E+02 -0.19531992704E+02  0.84565330024E+02  0.00000000000E+00 0.  1.
         21    1    1    2  502  501  0.20753108021E+02 -0.13359710639E+02 -0.21613403294E+02  0.32807202911E+02  0.00000000000E+00 0. -1.
<scales pt_clust_5="13000.00000" pt_clust_6="13000.00000" pt_clust_7="13000.00000" pt_clust_8="13000.00000" pt_clust_9="24.68144"></scales>
<clustering>
<clus scale="   24.681">  2  9  1 -1</clus>
<clus scale="   89.811">  5  6 -1 -1</clus>
<clus scale="   91.655">  7  8 -1 -1</clus>
<clus scale="  152.622">  2  5  1 -1</clus>
<clus scale="  153.714">  1  5  2 -1</clus>
</clustering>
</event>
<event>
 9    2  0.3791909E-005  0.1077015E+03  0.7546771E-02  0.1270146E+00
          2   -1    0    0  502    0  0.00000000000E+00  0.00000000000E+00  0.56466747252E+02  0.56466747252E+02  0.00000000000E+00 0. -1.
         -1   -1    0    0    0  501 -0.00000000000E+00 -0.00000000000E+00 -0.31990387379E+03  0.31990387379E+03  0.00000000000E+00 0.  1.
         23    2    1    2    0    0 -0.54135382612E+02 -0.38159483247E+02 -0.21128829176E+03  0.24010691661E+03  0.92853666355E+02 0.  0.
         24    2    1    2    0    0  0.34089245114E+02  0.99318109007E+01 -0.50859574350E+02  0.10161819524E+03  0.80491265369E+02 0.  0.
        -13    1    4    4    0    0  0.13020028048E+02  0.32184055787E+02 -0.60276180989E+02  0.69559705088E+02  0.00000000000E+00 0.  1.
         14    1    4    4    0    0  0.21069217066E+02 -0.22252244886E+02  0.94166066394E+01  0.32058490152E+02  0.00000000000E+00 0. -1.
        -11    1    3    3    0    0 -0.80317831278E+02 -0.35097521995E+02 -0.16516673597E+03  0.18698353067E+03  0.00000000000E+00 0.  1.
         11    1    3    3    0    0  0.26182448665E+02 -0.30619612522E+01 -0.46121555791E+02  0.53123385937E+02  0.00000000000E+00 0. -1.
         21    1    1    2  502  501  0.20046137498E+02  0.28227672347E+02 -0.12892604256E+01  0.34645509191E+02  0.00000000000E+00 0. -1.
<scales pt_clust_5="13000.00000" pt_clust_6="13000.00000" pt_clust_7="13000.00000" pt_clust_8="13000.00000" pt_clust_9="34.62151"></scales>
<clustering>
<clus scale="   34.622">  1  9  2 -1</clus>
<clus scale="   80.491">  5  6 -1 -1</clus>
<clus scale="   92.854">  7  8 -1 -1</clus>
<clus scale="   97.245">  1  5  2 -1</clus>
<clus scale="   34.622">  1  5  2 -1</clus>
</clustering>
</event>
<event>
 9    2  0.3791909E-005  0.1285797E+03  0.7546771E-02  0.1232452E+00
         -1   -1    0    0    0  501 -0.00000000000E+00  0.00000000000E+00  0.54731957190E+02  0.54731957190E+02  0.00000000000E+00 0.  1.
          2   -1    0    0  502    0  0.00000000000E+00 -0.00000000000E+00 -0.68120230113E+03  0.68120230113E+03  0.00000000000E+00 0. -1.
         23    2    1    2    0    0 -0.59481836847E+02 -0.10557243028E+03 -0.21055294691E+03  0.25964789784E+03  0.91656207919E+02 0.  0.
         24    2    1    2    0    0  0.46396221670E+02  0.65963775739E+02 -0.41914974928E+03  0.43444706149E+03  0.80956209289E+02 0.  0.
        -13    1    4    4    0    0 -0.84835122870E+01  0.57816469038E+02 -0.23204866688E+03  0.23929333019E+03  0.00000000000E+00 0.  1.
         14    1    4    4    0    0  0.54879733957E+02  0.81473067006E+01 -0.18710108240E+03  0.19515373130E+03  0.00000000000E+00 0. -1.
        -11    1    3    3    0    0 -0.31617339998E+02 -0.10866596530E+03 -0.12041445475E+03  0.16525008053E+03  0.00000000000E+00 0.  1.
         11    1    3    3    0    0 -0.27864496849E+02  0.30935350186E+01 -0.90138492162E+02  0.94397817310E+02  0.00000000000E+00 0. -1.
         21    1    1    2  502  501  0.13085615177E+02  0.39608654542E+02  0.32323522459E+01  0.41839298993E+02  0.00000000000E+00 0. -1.
<scales pt_clust_5="13000.00000" pt_clust_6="13000.00000" pt_clust_7="13000.00000" pt_clust_8="13000.00000" pt_clust_9="41.71425"></scales>
<clustering>
<clus scale="   41.714">  1  9  2 -1</clus>
<clus scale="   80.956">  5  6 -1 -1</clus>
<clus scale="   91.656">  7  8 -1 -1</clus>
<clus scale="  121.185">  2  5  1 -1</clus>
<clus scale="  121.185">  2  5  1 -1</clus>
</clustering>
</event>
<event>
 9    2  0.3791909E-005  0.3077816E+03  0.7546771E-02  0.1083214E+00
          2   -1    0    0  502    0  0.00000000000E+00  0.00000000000E+00  0.14848965524E+04  0.14848965524E+04  0.00000000000E+00 0. -1.
         -1   -1    0    0    0  501 -0.00000000000E+00 -0.00000000000E+00 -0.10370597112E+03  0.10370597112E+03  0.00000000000E+00 0.  1.
         23    2    1    2    0    0  0.22904118943E+03  0.16940679179E+03  0.21007545704E+03  0.37457583954E+03  0.12254319385E+03 0.  0.
         24    2    1    2    0    0 -0.20177011987E+03 -0.18634726221E+03  0.10068509012E+04  0.10466545663E+04  0.79376071341E+02 0.  0.
        -11    1    4    4    0    0 -0.88404580331E+02 -0.41104662185E+02  0.26816903477E+03  0.28534118926E+03  0.00000000000E+00 0.  1.
         12    1    4    4    0    0 -0.11336553954E+03 -0.14524260003E+03  0.73868186638E+03  0.76131337709E+03  0.00000000000E+00 0. -1.
        -13    1    3    3    0    0  0.16663280736E+03  0.71443602278E+02  0.74407490976E+02  0.19597743623E+03  0.00000000000E+00 0.  1.
         13    1    3    3    0    0  0.62408382069E+02  0.97963189511E+02  0.13566796607E+03  0.17859840332E+03  0.00000000000E+00 0. -1.
         21    1    1    2  502  501 -0.27271069564E+02  0.16940470426E+02  0.16426422310E+03  0.16737211764E+03  0.00000000000E+00 0. -1.
<scales pt_clust_5="13000.00000" pt_clust_6="13000.00000" pt_clust_7="13000.00000" pt_clust_8="13000.00000" pt_clust_9="32.10437"></scales>
<clustering>
<clus scale="   32.104">  1  9  2 -1</clus>
<clus scale="   79.376">  5  6 -1 -1</clus>
<clus scale="  122.543">  7  8 -1 -1</clus>
<clus scale="  293.280">  1  5  2 -1</clus>
<clus scale="   32.104">  1  5  2 -1</clus>
</clustering>
</event>
<event>
 9    2  0.3791909E-005  0.1048666E+03  0.7546771E-02  0.1275995E+00
          2   -1    0    0  502    0  0.00000000000E+00  0.00000000000E+00  0.88130848601E+03  0.88130848601E+03  0.00000000000E+00 0. -1.
         -1   -1    0    0    0  501 -0.00000000000E+00 -0.00000000000E+00 -0.10026160090E+03  0.10026160090E+03  0.00000000000E+00 0.  1.
         23    2    1    2    0    0 -0.76185796211E+00  0.51498453497E+02 -0.66836771245E+02  0.12408724786E+03  0.90982525523E+02 0.  0.
         24    2    1    2    0    0  0.13022632385E+02 -0.68804892832E+02  0.74998520283E+03  0.75731324967E+03  0.78369965146E+02 0.  0.
        -11    1    4    4    0    0  0.40852120233E+02 -0.38371737089E+02  0.28207525370E+03  0.28758952465E+03  0.00000000000E+00 0.  1.
         12    1    4    4    0    0 -0.27829487848E+02 -0.30433155743E+02  0.46790994913E+03  0.46972372503E+03  0.00000000000E+00 0. -1.
        -11    1    3    3    0    0 -0.37438745400E+02  0.50284718584E+02 -0.22669732281E+02  0.66664303356E+02  0.00000000000E+00 0. -1.
         11    1    3    3    0    0  0.36676887438E+02  0.12137349128E+01 -0.44167038964E+02  0.57422944503E+02  0.00000000000E+00 0.  1.
         21    1    1    2  502  501 -0.12260774423E+02  0.17306439336E+02  0.97898453531E+02  0.10016958938E+03  0.00000000000E+00 0.  1.
<scales pt_clust_5="13000.00000" pt_clust_6="13000.00000" pt_clust_7="13000.00000" pt_clust_8="13000.00000" pt_clust_9="21.20942"></scales>
<clustering>
<clus scale="   21.209">  1  9  2 -1</clus>
<clus scale="   78.370">  5  6 -1 -1</clus>
<clus scale="   90.983">  7  8 -1 -1</clus>
<clus scale="   94.133">  1  5  2 -1</clus>
<clus scale="   21.209">  1  5  2 -1</clus>
</clustering>
</event>
<event>
 9    2  0.3791909E-005  0.1121755E+03  0.7546771E-02  0.1264463E+00
         -1   -1    0    0    0  501 -0.00000000000E+00  0.00000000000E+00  0.39775742976E+03  0.39775742976E+03  0.00000000000E+00 0.  1.
          2   -1    0    0  502    0  0.00000000000E+00 -0.00000000000E+00 -0.85788801762E+02  0.85788801762E+02  0.00000000000E+00 0. -1.
         23    2    1    2    0    0 -0.30863584643E+01 -0.51816670168E+02  0.31570389277E+03  0.33525572145E+03  0.10016465414E+03 0.  0.
         24    2    1    2    0    0  0.35731966270E+02  0.40802337019E+02  0.27370908878E+02  0.10187235326E+03  0.81775336055E+02 0.  0.
        -11    1    4    4    0    0  0.56641266703E+02  0.13146103803E+02  0.32829487801E+02  0.66774459251E+02  0.00000000000E+00 0.  1.
         12    1    4    4    0    0 -0.20909300433E+02  0.27656233216E+02 -0.54585789231E+01  0.35097894013E+02  0.00000000000E+00 0. -1.
        -11    1    3    3    0    0  0.55526097933E+01  0.29477483033E+02  0.65672195761E+02  0.72198274062E+02  0.00000000000E+00 0.  1.
         11    1    3    3    0    0 -0.86389682576E+01 -0.81294153200E+02  0.25003169700E+03  0.26305744738E+03  0.00000000000E+00 0. -1.
         21    1    1    2  502  501 -0.32645607806E+02  0.11014333148E+02 -0.31106173641E+02  0.46418156817E+02  0.00000000000E+00 0.  1.
<scales pt_clust_5="13000.00000" pt_clust_6="13000.00000" pt_clust_7="13000.00000" pt_clust_8="13000.00000" pt_clust_9="34.45361"></scales>
<clustering>
<clus scale="   34.454">  2  9  1 -1</clus>
<clus scale="   81.775">  5  6 -1 -1</clus>
<clus scale="   96.112">  2  5  1 -1</clus>
<clus scale="  100.165">  7  8 -1 -1</clus>
<clus scale="   34.454">  2  5  1 -1</clus>
</clustering>
</event>
<event>
 9    2  0.3791909E-005  0.9755224E+02  0.7546771E-02  0.1302246E+00
         -3   -1    0    0    0  501 -0.00000000000E+00  0.00000000000E+00  0.12499330931E+03  0.12499330931E+03  0.00000000000E+00 0.  1.
          4   -1    0    0  502    0  0.00000000000E+00 -0.00000000000E+00 -0.27805238277E+03  0.27805238277E+03  0.00000000000E+00 0. -1.
         24    2    1    2    0    0  0.25691567207E+02  0.80384538850E+01  0.93584647594E+02  0.11732808444E+03  0.65445548108E+02 0.  0.
         23    2    1    2    0    0 -0.57197894387E+02 -0.35710640818E+01 -0.16402732100E+03  0.19718469973E+03  0.93233535554E+02 0.  0.
        -11    1    3    3    0    0  0.41364631589E+02 -0.13814145478E+02  0.52892327756E+02  0.68552619915E+02  0.00000000000E+00 0.  1.
         12    1    3    3    0    0 -0.15673064382E+02  0.21852599363E+02  0.40692319838E+02  0.48775464527E+02  0.00000000000E+00 0. -1.
        -11    1    4    4    0    0  0.10904285858E+02 -0.18872251008E+02 -0.10039287647E+03  0.10273166481E+03  0.00000000000E+00 0. -1.
         11    1    4    4    0    0 -0.68102180245E+02  0.15301186926E+02 -0.63634444535E+02  0.94453034926E+02  0.00000000000E+00 0.  1.
         21    1    1    2  502  501  0.31506327180E+02 -0.44673898032E+01 -0.82616400058E+02  0.88532907908E+02  0.00000000000E+00 0. -1.
<scales pt_clust_5="13000.00000" pt_clust_6="13000.00000" pt_clust_7="13000.00000" pt_clust_8="13000.00000" pt_clust_9="31.82147"></scales>
<clustering>
<clus scale="   31.821">  2  9  1 -1</clus>
<clus scale="   65.446">  5  6 -1 -1</clus>
<clus scale="   71.464">  1  5  2 -1</clus>
<clus scale="   93.234">  7  8 -1 -1</clus>
<clus scale="   31.821">  2  5  1 -1</clus>
</clustering>
</event>
<event>
 9    2  0.3791909E-005  0.9351270E+02  0.7546771E-02  0.1300364E+00
         -1   -1    0    0    0  501 -0.00000000000E+00  0.00000000000E+00  0.21245350473E+03  0.21245350473E+03  0.00000000000E+00 0.  1.
          2   -1    0    0  502    0  0.00000000000E+00 -0.00000000000E+00 -0.11020322019E+03  0.11020322019E+03  0.00000000000E+00 0. -1.
         24    2    1    2    0    0  0.44848723680E+00 -0.83723653969E+01  0.15471507093E+03  0.17427591957E+03  0.79781234161E+02 0.  0.
         23    2    1    2    0    0  0.30048866973E+02  0.26057851620E+01 -0.65063035526E+02  0.11488367200E+03  0.89751517973E+02 0.  0.
        -13    1    3    3    0    0 -0.27783843635E+02 -0.17138811819E+02  0.13464206300E+03  0.13854301125E+03  0.00000000000E+00 0.  1.
         14    1    3    3    0    0  0.28232330872E+02  0.87664464218E+01  0.20073007934E+02  0.35732908318E+02  0.00000000000E+00 0. -1.
        -11    1    4    4    0    0  0.56816019585E+02  0.19668574388E+02 -0.55260084474E+02  0.81661434203E+02  0.00000000000E+00 0. -1.
         11    1    4    4    0    0 -0.26767152613E+02 -0.17062789226E+02 -0.98029510528E+01  0.33222237801E+02  0.00000000000E+00 0.  1.
         21    1    1    2  502  501 -0.30497354210E+02  0.57665802349E+01  0.12598249130E+02  0.33497133348E+02  0.00000000000E+00 0.  1.
<scales pt_clust_5="13000.00000" pt_clust_6="13000.00000" pt_clust_7="13000.00000" pt_clust_8="13000.00000" pt_clust_9="31.03775"></scales>
<clustering>
<clus scale="   31.038">  1  9  2 -1</clus>
<clus scale="   79.781">  5  6 -1 -1</clus>
<clus scale="   83.990">  1  5  2 -1</clus>
<clus scale="   89.752">  7  8 -1 -1</clus>
<clus scale="   93.513">  2  5  1 -1</clus>
</clustering>
</event>
<event>
 9    2  0.3791909E-005  0.1373850E+03  0.7546771E-02  0.1218288E+00
          2   -1    0    0  502    0  0.00000000000E+00  0.00000000000E+00  0.73623012791E+03  0.73623012791E+03  0.00000000000E+00 0. -1.
         -1   -1    0    0    0  501 -0.00000000000E+00 -0.00000000000E+00 -0.35408254906E+02  0.35408254906E+02  0.00000000000E+00 0.  1.
         24    2    1    2    0    0 -0.87344650960E+02 -0.73074010265E+02  0.18333804844E+03  0.23104196188E+03  0.82453921172E+02 0.  0.
         23    2    1    2    0    0  0.75473478267E+02  0.43496059545E+02  0.42105352959E+03  0.43903569182E+03  0.88758722342E+02 0.  0.
        -13    1    3    3    0    0 -0.61940553420E+02 -0.58124622628E+02  0.59409367219E+02  0.10365605060E+03  0.00000000000E+00 0.  1.
         14    1    3    3    0    0 -0.25404097540E+02 -0.14949387637E+02  0.12392868122E+03  0.12738591128E+03  0.00000000000E+00 0. -1.
        -13    1    4    4    0    0  0.67997289006E+02 -0.49668600049E+01  0.16858913905E+03  0.18185323427E+03  0.00000000000E+00 0.  1.
         13    1    4    4    0    0  0.74761892618E+01  0.48462919550E+02  0.25246439054E+03  0.25718245754E+03  0.00000000000E+00 0. -1.
         21    1    1    2  502  501  0.11871172693E+02  0.29577950719E+02  0.96430294972E+02  0.10156072911E+03  0.00000000000E+00 0. -1.
<scales pt_clust_5="13000.00000" pt_clust_6="13000.00000" pt_clust_7="13000.00000" pt_clust_8="13000.00000" pt_clust_9="31.87130"></scales>
<clustering>
<clus scale="   31.871">  1  9  2 -1</clus>
<clus scale="   82.454">  5  6 -1 -1</clus>
<clus scale="   88.759">  7  8 -1 -1</clus>
<clus scale="  133.399">  2  5  1 -1</clus>
<clus scale="   31.871">  1  5  2 -1</clus>
</clustering>
</event>
<event>
 9    2  0.3791909E-005  0.1147345E+03  0.7546771E-02  0.1255905E+00
         -1   -1    0    0    0  501 -0.00000000000E+00  0.00000000000E+00  0.36550829402E+02  0.36550829402E+02  0.00000000000E+00 0.  1.
          2   -1    0    0  502    0  0.00000000000E+00 -0.00000000000E+00 -0.63448716389E+03  0.63448716389E+03  0.00000000000E+00 0. -1.
         23    2    1    2    0    0 -0.49169592321E+02  0.47207386467E+02 -0.93458166852E+02  0.14708623452E+03  0.90850125420E+02 0.  0.
         24    2    1    2    0    0  0.39674561842E+02 -0.69388280191E+02 -0.45606482926E+03  0.46985925483E+03  0.79898601817E+02 0.  0.
        -13    1    4    4    0    0 -0.18401673983E+00 -0.60219283132E+02 -0.15953588118E+03  0.17052299935E+03  0.00000000000E+00 0.  1.
         14    1    4    4    0    0  0.39858578582E+02 -0.91689970589E+01 -0.29652894808E+03  0.29933625547E+03  0.00000000000E+00 0. -1.
        -11    1    3    3    0    0 -0.69650953221E+01 -0.27174043110E+02 -0.22518872081E+02  0.35972778203E+02  0.00000000000E+00 0. -1.
         11    1    3    3    0    0 -0.42204496999E+02  0.74381429577E+02 -0.70939294771E+02  0.11111345632E+03  0.00000000000E+00 0.  1.
         21    1    1    2  502  501  0.94950304796E+01  0.22180893724E+02 -0.48413338380E+02  0.54092503948E+02  0.00000000000E+00 0.  1.
<scales pt_clust_5="13000.00000" pt_clust_6="13000.00000" pt_clust_7="13000.00000" pt_clust_8="13000.00000" pt_clust_9="24.12774"></scales>
<clustering>
<clus scale="   24.128">  2  9  1 -1</clus>
<clus scale="   79.899">  5  6 -1 -1</clus>
<clus scale="   90.850">  7  8 -1 -1</clus>
<clus scale="  106.273">  2  5  1 -1</clus>
<clus scale="   24.128">  2  5  1 -1</clus>
</clustering>
</event>
<event>
 9    2  0.3791909E-005  0.1009714E+03  0.7546771E-02  0.1281871E+00
         -3   -1    0    0    0  501 -0.00000000000E+00  0.00000000000E+00  0.12363618485E+03  0.12363618485E+03  0.00000000000E+00 0.  1.
          4   -1    0    0  502    0  0.00000000000E+00 -0.00000000000E+00 -0.15802879362E+03  0.15802879362E+03  0.00000000000E+00 0. -1.
         23    2    1    2    0    0 -0.42165736838E+01  0.94168246867E+01  0.13317524162E+02  0.89847858967E+02  0.88254321313E+02 0.  0.
         24    2    1    2    0    0  0.66938505407E+02 -0.39651692083E+02 -0.48913264649E+02  0.12217779548E+03  0.80510161209E+02 0.  0.
        -11    1    4    4    0    0  0.30387436090E+02  0.23718514905E+02 -0.20836390705E+02  0.43819167028E+02  0.00000000000E+00 0.  1.
         12    1    4    4    0    0  0.36551069317E+02 -0.63370206989E+02 -0.28076873943E+02  0.78358628449E+02  0.00000000000E+00 0. -1.
        -11    1    3    3    0    0 -0.27010849851E+02  0.34143706020E+02 -0.14830166447E+02  0.45992526646E+02  0.00000000000E+00 0.  1.
         11    1    3    3    0    0  0.22794276167E+02 -0.24726881333E+02  0.28147690609E+02  0.43855332322E+02  0.00000000000E+00 0. -1.
         21    1    1    2  502  501 -0.62721931723E+02  0.30234867397E+02  0.12031317129E+01  0.69639324031E+02  0.00000000000E+00 0.  1.
<scales pt_clust_5="13000.00000" pt_clust_6="13000.00000" pt_clust_7="13000.00000" pt_clust_8="13000.00000" pt_clust_9="69.62893"></scales>
<clustering>
<clus scale="   69.629">  1  9  2 -1</clus>
<clus scale="   80.510">  5  6 -1 -1</clus>
<clus scale="   88.254">  7  8 -1 -1</clus>
<clus scale="   94.278">  2  5  1 -1</clus>
<clus scale="   94.278">  2  5  1 -1</clus>
</clustering>
</event>
<event>
 9    2  0.3791909E-005  0.1207837E+03  0.7546771E-02  0.1245039E+00
         -1   -1    0    0    0  501 -0.00000000000E+00  0.00000000000E+00  0.76111364472E+02  0.76111364472E+02  0.00000000000E+00 0.  1.
          2   -1    0    0  502    0  0.00000000000E+00 -0.00000000000E+00 -0.51153553918E+03  0.51153553918E+03  0.00000000000E+00 0. -1.
         24    2    1    2    0    0  0.69857200156E+02 -0.19939760730E+02  0.90872846197E+00  0.10949901085E+03  0.81924264527E+02 0.  0.
         23    2    1    2    0    0 -0.11546679626E+03  0.69548631885E+01 -0.33986092437E+03  0.37065051835E+03  0.92170535849E+02 0.  0.
        -11    1    3    3    0    0  0.33070375388E+02  0.13987147355E+02  0.34044090234E+02  0.49480199062E+02  0.00000000000E+00 0.  1.
         12    1    3    3    0    0  0.36786824768E+02 -0.33926908085E+02 -0.33135361772E+02  0.60018811789E+02  0.00000000000E+00 0. -1.
        -11    1    4    4    0    0 -0.10661986197E+02 -0.33786612218E+02 -0.84778840199E+02  0.91883974992E+02  0.00000000000E+00 0.  1.
         11    1    4    4    0    0 -0.10480481006E+03  0.40741475407E+02 -0.25508208417E+03  0.27876654336E+03  0.00000000000E+00 0. -1.
         21    1    1    2  502  501  0.45609596101E+02  0.12984897541E+02 -0.96471978801E+02  0.10749737445E+03  0.00000000000E+00 0.  1.
<scales pt_clust_5="13000.00000" pt_clust_6="13000.00000" pt_clust_7="13000.00000" pt_clust_8="13000.00000" pt_clust_9="47.42197"></scales>
<clustering>
<clus scale="   47.422">  2  9  1 -1</clus>
<clus scale="   81.924">  5  6 -1 -1</clus>
<clus scale="   92.171">  7  8 -1 -1</clus>
<clus scale="  113.159">  1  5  2 -1</clus>
<clus scale="   47.422">  2  5  1 -1</clus>
</clustering>
</event>
<event>
 9    2  0.3791909E-005  0.1015527E+03  0.7546771E-02  0.1283378E+00
         -1   -1    0    0    0  501 -0.00000000000E+00  0.00000000000E+00  0.12551323426E+03  0.12551323426E+03  0.00000000000E+00 0.  1.
          2   -1    0    0  502    0  0.00000000000E+00 -0.00000000000E+00 -0.26408838068E+03  0.26408838068E+03  0.00000000000E+00 0. -1.
         23    2    1    2    0    0 -0.47910416840E+02 -0.21793398855E+02  0.75402247127E+02  0.12881206258E+03  0.90203593714E+02 0.  0.
         24    2    1    2    0    0  0.12729150126E+02 -0.18981729539E+02 -0.17997691045E+03  0.19709994980E+03  0.77034827159E+02 0.  0.
        -11    1    4    4    0    0  0.23955803483E+02 -0.34994354695E+02 -0.49572825918E+02  0.65237645961E+02  0.00000000000E+00 0.  1.
         12    1    4    4    0    0 -0.11226653357E+02  0.16012625156E+02 -0.13040408454E+03  0.13186230384E+03  0.00000000000E+00 0. -1.
        -11    1    3    3    0    0 -0.40559000783E+02 -0.56160560570E+02  0.51120619537E+02  0.86095057058E+02  0.00000000000E+00 0.  1.
         11    1    3    3    0    0 -0.73514160574E+01  0.34367161714E+02  0.24281627591E+02  0.42717005523E+02  0.00000000000E+00 0. -1.
         21    1    1    2  502  501  0.35181266715E+02  0.40775128394E+02 -0.34000483088E+02  0.63689602554E+02  0.00000000000E+00 0.  1.
<scales pt_clust_5="13000.00000" pt_clust_6="13000.00000" pt_clust_7="13000.00000" pt_clust_8="13000.00000" pt_clust_9="53.85474"></scales>
<clustering>
<clus scale="   53.855">  2  9  1 -1</clus>
<clus scale="   77.035">  5  6 -1 -1</clus>
<clus scale="   90.059">  2  5  1 -1</clus>
<clus scale="   90.204">  7  8 -1 -1</clus>
<clus scale="   53.855">  2  5  1 -1</clus>
</clustering>
</event>
<event>
 9    2  0.3791909E-005  0.1041243E+03  0.7546771E-02  0.1275281E+00
          2   -1    0    0  502    0  0.00000000000E+00  0.00000000000E+00  0.27626003212E+03  0.27626003212E+03  0.00000000000E+00 0. -1.
         -1   -1    0    0    0  501 -0.00000000000E+00 -0.00000000000E+00 -0.54971146926E+02  0.54971146926E+02  0.00000000000E+00 0.  1.
         24    2    1    2    0    0 -0.70614505014E+02  0.32051961911E+01  0.53310945410E+02  0.11919641765E+03  0.79806312284E+02 0.  0.
         23    2    1    2    0    0  0.48149822245E+02 -0.12206500417E+02  0.15397791546E+03  0.18407611101E+03  0.87791868432E+02 0.  0.
        -11    1    3    3    0    0 -0.35349876187E+02 -0.11099467780E+01 -0.17882068899E+02  0.39630974204E+02  0.00000000000E+00 0.  1.
         12    1    3    3    0    0 -0.35264628827E+02  0.43151429690E+01  0.71193014309E+02  0.79565443451E+02  0.00000000000E+00 0. -1.
        -13    1    4    4    0    0  0.99191163956E+01 -0.24741305543E+02  0.18520458776E+01  0.26719864221E+02  0.00000000000E+00 0.  1.
         13    1    4    4    0    0  0.38230705850E+02  0.12534805126E+02  0.15212586958E+03  0.15735624679E+03  0.00000000000E+00 0. -1.
         21    1    1    2  502  501  0.22464682768E+02  0.90013042260E+01  0.14000024323E+02  0.27958650373E+02  0.00000000000E+00 0.  1.
<scales pt_clust_5="13000.00000" pt_clust_6="13000.00000" pt_clust_7="13000.00000" pt_clust_8="13000.00000" pt_clust_9="24.20094"></scales>
<clustering>
<clus scale="   24.201">  2  9  1 -1</clus>
<clus scale="   79.806">  5  6 -1 -1</clus>
<clus scale="   87.792">  7  8 -1 -1</clus>
<clus scale="   97.486">  2  5  1 -1</clus>
<clus scale="  104.124">  1  5  2 -1</clus>
</clustering>
</event>
<event>
 9    2  0.3791909E-005  0.9289940E+02  0.7546771E-02  0.1300022E+00
          2   -1    0    0  502    0  0.00000000000E+00  0.00000000000E+00  0.49536100797E+03  0.49536100797E+03  0.00000000000E+00 0. -1.
         -1   -1    0    0    0  501 -0.00000000000E+00 -0.00000000000E+00 -0.22122168222E+03  0.22122168222E+03  0.00000000000E+00 0.  1.
         23    2    1    2    0    0 -0.11095833603E+02 -0.27423394981E+02 -0.20453248391E+03  0.22468869626E+03  0.88183406267E+02 0.  0.
         24    2    1    2    0    0 -0.15195323460E+02  0.24121006290E+02  0.33894780460E+03  0.34967961948E+03  0.81101795512E+02 0.  0.
        -13    1    4    4    0    0  0.32291852865E+02  0.47558619443E+01  0.17057512643E+03  0.17366996212E+03  0.00000000000E+00 0.  1.
         14    1    4    4    0    0 -0.47487176325E+02  0.19365144345E+02  0.16837267817E+03  0.17600965736E+03  0.00000000000E+00 0. -1.
        -11    1    3    3    0    0  0.13766673813E+02  0.22638910130E+02 -0.12309273034E+03  0.12591211944E+03  0.00000000000E+00 0.  1.
         11    1    3    3    0    0 -0.24862507416E+02 -0.50062305111E+02 -0.81439753565E+02  0.98776576823E+02  0.00000000000E+00 0. -1.
         21    1    1    2  502  501  0.26291157063E+02  0.33023886913E+01  0.13972400506E+03  0.14221437445E+03  0.00000000000E+00 0. -1.
<scales pt_clust_5="13000.00000" pt_clust_6="13000.00000" pt_clust_7="13000.00000" pt_clust_8="13000.00000" pt_clust_9="26.49775"></scales>
<clustering>
<clus scale="   26.498">  1  9  2 -1</clus>
<clus scale="   81.102">  5  6 -1 -1</clus>
<clus scale="   86.206">  1  5  2 -1</clus>
<clus scale="   88.183">  7  8 -1 -1</clus>
<clus scale="   26.498">  1  5  2 -1</clus>
</clustering>
</event>
<event>
 9    2  0.3791909E-005  0.1130065E+03  0.7546771E-02  0.1260536E+00
         -1   -1    0    0    0  501 -0.00000000000E+00  0.00000000000E+00  0.37186066128E+03  0.37186066128E+03  0.00000000000E+00 0.  1.
          2   -1    0    0  502    0  0.00000000000E+00 -0.00000000000E+00 -0.38053638614E+03  0.38053638614E+03  0.00000000000E+00 0. -1.
         23    2    1    2    0    0 -0.61358070848E+02 -0.44650471645E+01  0.29740618526E+03  0.31763799347E+03  0.93052170079E+02 0.  0.
         24    2    1    2    0    0  0.75324528202E+02  0.97608668203E+02 -0.38745449488E+02  0.15131668018E+03  0.78703819390E+02 0.  0.
        -11    1    4    4    0    0  0.51792425841E+02  0.85423643361E+02  0.51627645271E+01  0.10003153681E+03  0.00000000000E+00 0.  1.
         12    1    4    4    0    0  0.23532102361E+02  0.12185024842E+02 -0.43908214015E+02  0.51285143364E+02  0.00000000000E+00 0. -1.
        -13    1    3    3    0    0  0.54750745859E+01 -0.31190715667E+02  0.44023591159E+02  0.54230192367E+02  0.00000000000E+00 0. -1.
         13    1    3    3    0    0 -0.66833145434E+02  0.26725668503E+02  0.25338259410E+03  0.26340780110E+03  0.00000000000E+00 0.  1.
         21    1    1    2  502  501 -0.13966457354E+02 -0.93143621039E+02 -0.26733646064E+03  0.28344237378E+03  0.00000000000E+00 0. -1.
<scales pt_clust_5="13000.00000" pt_clust_6="13000.00000" pt_clust_7="13000.00000" pt_clust_8="13000.00000" pt_clust_9="94.18490"></scales>
<clustering>
<clus scale="   78.704">  5  6 -1 -1</clus>
<clus scale="   93.052">  7  8 -1 -1</clus>
<clus scale="   94.185">  2  9  1 -1</clus>
<clus scale="  101.519">  2  5  1 -1</clus>
<clus scale="   94.185">  2  5  1 -1</clus>
</clustering>
</event>
<event>
 9    2  0.3791909E-005  0.1055030E+03  0.7546771E-02  0.1275600E+00
          2   -1    0    0  502    0  0.00000000000E+00  0.00000000000E+00  0.86647506916E+02  0.86647506916E+02  0.00000000000E+00 0. -1.
         -1   -1    0    0    0  501 -0.00000000000E+00 -0.00000000000E+00 -0.20189185238E+03  0.20189185238E+03  0.00000000000E+00 0.  1.
         23    2    1    2    0    0 -0.39256992533E+02  0.42143462819E+02 -0.10920004856E+03  0.15604464764E+03  0.95436358528E+02 0.  0.
         24    2    1    2    0    0 -0.38036934384E+01 -0.29438137865E+02  0.23083908781E+01  0.86828363525E+02  0.81564477557E+02 0.  0.
        -13    1    4    4    0    0 -0.13169344388E+01 -0.50907053276E+02  0.23921933929E+02  0.56262965728E+02  0.00000000000E+00 0.  1.
         14    1    4    4    0    0 -0.24867589996E+01  0.21468915411E+02 -0.21613543051E+02  0.30565397797E+02  0.00000000000E+00 0. -1.
        -13    1    3    3    0    0 -0.50004588408E+02  0.66850948217E+02 -0.91205332556E+02  0.12364433196E+03  0.00000000000E+00 0.  1.
         13    1    3    3    0    0  0.10747595875E+02 -0.24707485397E+02 -0.17994716005E+02  0.32400315676E+02  0.00000000000E+00 0. -1.
         21    1    1    2  502  501  0.43060685972E+02 -0.12705324954E+02 -0.83526877764E+01  0.45666348131E+02  0.00000000000E+00 0. -1.
<scales pt_clust_5="13000.00000" pt_clust_6="13000.00000" pt_clust_7="13000.00000" pt_clust_8="13000.00000" pt_clust_9="44.89597"></scales>
<clustering>
<clus scale="   44.896">  1  9  2 -1</clus>
<clus scale="   81.564">  5  6 -1 -1</clus>
<clus scale="   93.143">  1  5  2 -1</clus>
<clus scale="   95.436">  7  8 -1 -1</clus>
<clus scale="   44.896">  1  5  2 -1</clus>
</clustering>
</event>
<event>
 9    2  0.3791909E-005  0.1666329E+03  0.7546771E-02  0.1182967E+00
          2   -1    0    0  502    0  0.00000000000E+00  0.00000000000E+00  0.30124211282E+03  0.30124211282E+03  0.00000000000E+00 0. -1.
         -1   -1    0    0    0  501 -0.00000000000E+00 -0.00000000000E+00 -0.12800697693E+03  0.12800697693E+03  0.00000000000E+00 0.  1.
         24    2    1    2    0    0 -0.17097849041E+02  0.14722432982E+03 -0.57524568150E+01  0.16852556034E+03  0.80002712438E+02 0.  0.
         23    2    1    2    0    0  0.25831264567E+02 -0.12082715644E+03  0.11755859764E+03  0.19329501360E+03  0.90975174850E+02 0.  0.
        -11    1    3    3    0    0  0.24780248781E+02  0.63594098151E+02 -0.25633247757E+02  0.72906333332E+02  0.00000000000E+00 0.  1.
         12    1    3    3    0    0 -0.41878097822E+02  0.83630231667E+02  0.19880790942E+02  0.95619227012E+02  0.00000000000E+00 0. -1.
        -13    1    4    4    0    0  0.27529282005E+02 -0.71084473027E+02  0.12142892084E+03  0.14337310239E+03  0.00000000000E+00 0. -1.
         13    1    4    4    0    0 -0.16980174389E+01 -0.49742683415E+02 -0.38703231989E+01  0.49921911204E+02  0.00000000000E+00 0.  1.
         21    1    1    2  502  501 -0.87334155260E+01 -0.26397173376E+02  0.61428995065E+02  0.67428515805E+02  0.00000000000E+00 0. -1.
<scales pt_clust_5="13000.00000" pt_clust_6="13000.00000" pt_clust_7="13000.00000" pt_clust_8="13000.00000" pt_clust_9="27.80438"></scales>
<clustering>
<clus scale="   27.804">  1  9  2 -1</clus>
<clus scale="   80.003">  5  6 -1 -1</clus>
<clus scale="   90.975">  7  8 -1 -1</clus>
<clus scale="  160.905">  2  5  1 -1</clus>
<clus scale="   27.804">  1  5  2 -1</clus>
</clustering>
</event>
<event>
 9    2  0.3791909E-005  0.1274249E+03  0.7546771E-02  0.1231669E+00
          4   -1    0    0  502    0  0.00000000000E+00  0.00000000000E+00  0.62583101857E+02  0.62583101857E+02  0.00000000000E+00 0. -1.
         -3   -1    0    0    0  501 -0.00000000000E+00 -0.00000000000E+00 -0.41092966483E+03  0.41092966483E+03  0.00000000000E+00 0.  1.
         24    2    1    2    0    0 -0.30685782395E+02  0.97557423604E+02 -0.20929763139E+03  0.24637063017E+03  0.80211724594E+02 0.  0.
         23    2    1    2    0    0 -0.18642590218E+02 -0.99600787749E+02 -0.11450542406E+03  0.17200732498E+03  0.78785560972E+02 0.  0.
        -11    1    3    3    0    0 -0.14140629169E+02  0.38283687453E+02 -0.16645858913E+03  0.17138862276E+03  0.00000000000E+00 0.  1.
         12    1    3    3    0    0 -0.16545153226E+02  0.59273736151E+02 -0.42839042265E+02  0.74982007407E+02  0.00000000000E+00 0. -1.
        -11    1    4    4    0    0 -0.33168910986E+02 -0.62581602350E+02 -0.11154217745E+03  0.13212982615E+03  0.00000000000E+00 0.  1.
         11    1    4    4    0    0  0.14526320768E+02 -0.37019185400E+02 -0.29632466159E+01  0.39877498833E+02  0.00000000000E+00 0. -1.
         21    1    1    2  502  501  0.49328372613E+02  0.20433641454E+01 -0.24543507517E+02  0.55134811535E+02  0.00000000000E+00 0.  1.
<scales pt_clust_5="13000.00000" pt_clust_6="13000.00000" pt_clust_7="13000.00000" pt_clust_8="13000.00000" pt_clust_9="49.37068"></scales>
<clustering>
<clus scale="   49.371">  1  9  2 -1</clus>
<clus scale="   78.786">  7  8 -1 -1</clus>
<clus scale="   80.212">  5  6 -1 -1</clus>
<clus scale="  126.532">  1  7  2 -1</clus>
<clus scale="   49.371">  1  5  2 -1</clus>
</clustering>
</event>
<event>
 9    2  0.3791909E-005  0.1124947E+03  0.7546771E-02  0.1260480E+00
          2   -1    0    0  502    0  0.00000000000E+00  0.00000000000E+00  0.17585252532E+03  0.17585252532E+03  0.00000000000E+00 0. -1.
         -1   -1    0    0    0  501 -0.00000000000E+00 -0.00000000000E+00 -0.12901682255E+03  0.12901682255E+03  0.00000000000E+00 0.  1.
         24    2    1    2    0    0 -0.72980809809E+01 -0.80414856913E+02 -0.30286765193E+02  0.11650849862E+03  0.78339842399E+02 0.  0.
         23    2    1    2    0    0 -0.42052322420E+02  0.40376147020E+02  0.40178235955E+02  0.11485277564E+03  0.90433612994E+02 0.  0.
        -11    1    3    3    0    0 -0.25343355579E+01 -0.68513541827E+02 -0.55509712167E+02  0.88214831039E+02  0.00000000000E+00 0.  1.
         12    1    3    3    0    0 -0.47637454230E+01 -0.11901315085E+02  0.25222946974E+02  0.28293667583E+02  0.00000000000E+00 0. -1.
        -13    1    4    4    0    0 -0.64184467183E+02  0.23466506586E+02  0.50685326076E+02  0.85084223205E+02  0.00000000000E+00 0. -1.
         13    1    4    4    0    0  0.22132144763E+02  0.16909640434E+02 -0.10507090121E+02  0.29768552438E+02  0.00000000000E+00 0.  1.
         21    1    1    2  502  501  0.49350403401E+02  0.40038709892E+02  0.36944232008E+02  0.73508073600E+02  0.00000000000E+00 0. -1.
<scales pt_clust_5="13000.00000" pt_clust_6="13000.00000" pt_clust_7="13000.00000" pt_clust_8="13000.00000" pt_clust_9="63.54967"></scales>
<clustering>
<clus scale="   63.550">  1  9  2 -1</clus>
<clus scale="   78.340">  5  6 -1 -1</clus>
<clus scale="   90.434">  7  8 -1 -1</clus>
<clus scale="  103.024">  2  5  1 -1</clus>
<clus scale="   63.550">  1  5  2 -1</clus>
</clustering>
</event>
<event>
 9    2  0.3791909E-005  0.9199044E+02  0.7546771E-02  0.1303151E+00
          2   -1    0    0  502    0  0.00000000000E+00  0.00000000000E+00  0.56481429054E+03  0.56481429054E+03  0.00000000000E+00 0. -1.
         -1   -1    0    0    0  501 -0.00000000000E+00 -0.00000000000E+00 -0.31271915732E+02  0.31271915732E+02  0.00000000000E+00 0.  1.
         23    2    1    2    0    0 -0.25997697729E+02 -0.81872600744E+01  0.62643052169E+02  0.11236592468E+03  0.89213438060E+02 0.  0.
         24    2    1    2    0    0  0.36440274386E+01 -0.86723273613E+01  0.38021017991E+03  0.38880741169E+03  0.80764684589E+02 0.  0.
        -11    1    4    4    0    0  0.25734497431E+02 -0.25049067552E+02  0.84413564689E+02  0.91735326057E+02  0.00000000000E+00 0.  1.
         12    1    4    4    0    0 -0.22090469992E+02  0.16376740191E+02  0.29579661522E+03  0.29707208563E+03  0.00000000000E+00 0. -1.
        -11    1    3    3    0    0  0.11588142162E+02 -0.39089524465E+02  0.12856050882E+02  0.42749900654E+02  0.00000000000E+00 0.  1.
         11    1    3    3    0    0 -0.37585839891E+02  0.30902264390E+02  0.49787001286E+02  0.69616024031E+02  0.00000000000E+00 0. -1.
         21    1    1    2  502  501  0.22353670290E+02  0.16859587436E+02  0.90689142728E+02  0.94912869900E+02  0.00000000000E+00 0. -1.
<scales pt_clust_5="13000.00000" pt_clust_6="13000.00000" pt_clust_7="13000.00000" pt_clust_8="13000.00000" pt_clust_9="27.99879"></scales>
<clustering>
<clus scale="   27.999">  1  9  2 -1</clus>
<clus scale="   80.765">  5  6 -1 -1</clus>
<clus scale="   83.822">  1  5  2 -1</clus>
<clus scale="   89.213">  7  8 -1 -1</clus>
<clus scale="   27.999">  1  5  2 -1</clus>
</clustering>
</event>
<event>
 9    2  0.3791909E-005  0.9986438E+02  0.7546771E-02  0.1285549E+00
         -1   -1    0    0    0  501 -0.00000000000E+00  0.00000000000E+00  0.99327482846E+02  0.99327482846E+02  0.00000000000E+00 0.  1.
          2   -1    0    0  502    0  0.00000000000E+00 -0.00000000000E+00 -0.38076719601E+03  0.38076719601E+03  0.00000000000E+00 0. -1.
         23    2    1    2    0    0 -0.44251433705E+02  0.21670478485E+00  0.54077964917E+02  0.11438787684E+03  0.90564472795E+02 0.  0.
         24    2    1    2    0    0  0.23575912988E+02  0.45164609131E+02 -0.20888700750E+03  0.22961026444E+03  0.80569386499E+02 0.  0.
        -11    1    4    4    0    0 -0.26108617093E+02  0.62613681547E+01 -0.31814094392E+02  0.41629331242E+02  0.00000000000E+00 0.  1.
         12    1    4    4    0    0  0.49684530081E+02  0.38903240976E+02 -0.17707291311E+03  0.18798093320E+03  0.00000000000E+00 0. -1.
        -11    1    3    3    0    0 -0.62002444714E+02  0.24892248437E+02  0.22357358694E+02  0.70454089097E+02  0.00000000000E+00 0.  1.
         11    1    3    3    0    0  0.17751011009E+02 -0.24675543652E+02  0.31720606223E+02  0.43933787744E+02  0.00000000000E+00 0. -1.
         21    1    1    2  502  501  0.20675520717E+02 -0.45381313916E+02 -0.12663067058E+03  0.13609653758E+03  0.00000000000E+00 0. -1.
<scales pt_clust_5="13000.00000" pt_clust_6="13000.00000" pt_clust_7="13000.00000" pt_clust_8="13000.00000" pt_clust_9="49.86924"></scales>
<clustering>
<clus scale="   49.869">  2  9  1 -1</clus>
<clus scale="   80.569">  5  6 -1 -1</clus>
<clus scale="   90.564">  7  8 -1 -1</clus>
<clus scale="   90.898">  2  5  1 -1</clus>
<clus scale="   49.869">  2  5  1 -1</clus>
</clustering>
</event>
<event>
 9    2  0.3791909E-005  0.1186608E+03  0.7546771E-02  0.1249306E+00
         -1   -1    0    0    0  501 -0.00000000000E+00  0.00000000000E+00  0.75256352167E+02  0.75256352167E+02  0.00000000000E+00 0.  1.
          2   -1    0    0  502    0  0.00000000000E+00 -0.00000000000E+00 -0.54480676586E+03  0.54480676586E+03  0.00000000000E+00 0. -1.
         23    2    1    2    0    0  0.72561030320E+02 -0.25780438858E+02  0.10881889558E+02  0.12130793840E+03  0.93099227979E+02 0.  0.
         24    2    1    2    0    0 -0.41009883131E+02  0.39246082721E+02 -0.33515077051E+03  0.34947851631E+03  0.81161129049E+02 0.  0.
        -11    1    4    4    0    0 -0.28567162253E+02 -0.18158862438E+02 -0.18826229571E+03  0.19128125635E+03  0.00000000000E+00 0.  1.
         12    1    4    4    0    0 -0.12442720879E+02  0.57404945160E+02 -0.14688847480E+03  0.15819725996E+03  0.00000000000E+00 0. -1.
        -11    1    3    3    0    0 -0.13498403856E+02 -0.28966379878E+02  0.14545468906E+02  0.35111660962E+02  0.00000000000E+00 0. -1.
         11    1    3    3    0    0  0.86059434176E+02  0.31859410191E+01 -0.36635793478E+01  0.86196277440E+02  0.00000000000E+00 0.  1.
         21    1    1    2  502  501 -0.31551147189E+02 -0.13465643863E+02 -0.14528153275E+03  0.14927666332E+03  0.00000000000E+00 0. -1.
<scales pt_clust_5="13000.00000" pt_clust_6="13000.00000" pt_clust_7="13000.00000" pt_clust_8="13000.00000" pt_clust_9="34.30450"></scales>
<clustering>
<clus scale="   34.304">  2  9  1 -1</clus>
<clus scale="   81.161">  5  6 -1 -1</clus>
<clus scale="   93.099">  7  8 -1 -1</clus>
<clus scale="  109.545">  2  5  1 -1</clus>
<clus scale="   34.304">  2  5  1 -1</clus>
</clustering>
</event>
<event>
 9    2  0.3791909E-005  0.2062726E+03  0.7546771E-02  0.1157820E+00
          2   -1    0    0  502    0  0.00000000000E+00  0.00000000000E+00  0.22412980244E+04  0.22412980244E+04  0.00000000000E+00 0. -1.
         -1   -1    0    0    0  501 -0.00000000000E+00 -0.00000000000E+00 -0.36870829011E+02  0.36870829011E+02  0.00000000000E+00 0.  1.
         23    2    1    2    0    0 -0.11315241917E+03  0.42112209089E+02  0.45107031430E+03  0.47558762680E+03  0.90234440208E+02 0.  0.
         24    2    1    2    0    0  0.13354839677E+03 -0.20275310342E+03  0.10963808215E+04  0.11259431877E+04  0.82177618272E+02 0.  0.
        -13    1    4    4    0    0  0.79285845397E+02 -0.75076563532E+02  0.62903071700E+03  0.63843745081E+03  0.00000000000E+00 0.  1.
         14    1    4    4    0    0  0.54262551377E+02 -0.12767653989E+03  0.46735010453E+03  0.48750573691E+03  0.00000000000E+00 0. -1.
        -11    1    3    3    0    0 -0.21030065209E+02 -0.13302608307E+02  0.21871679047E+02  0.33129946797E+02  0.00000000000E+00 0.  1.
         11    1    3    3    0    0 -0.92122353963E+02  0.55414817396E+02  0.42919863525E+03  0.44245768000E+03  0.00000000000E+00 0. -1.
         21    1    1    2  502  501 -0.20395977602E+02  0.16064089434E+03  0.65697605955E+03  0.67663803888E+03  0.00000000000E+00 0.  1.
<scales pt_clust_5="13000.00000" pt_clust_6="13000.00000" pt_clust_7="13000.00000" pt_clust_8="13000.00000" pt_clust_9="189.19628"></scales>
<clustering>
<clus scale="   82.178">  5  6 -1 -1</clus>
<clus scale="   90.234">  7  8 -1 -1</clus>
<clus scale="  150.729">  2  7  1 -1</clus>
<clus scale="  189.196">  1  9  2 -1</clus>
<clus scale="  189.196">  1  5  2 -1</clus>
</clustering>
</event>
<event>
 9    2  0.3791909E-005  0.1009786E+03  0.7546771E-02  0.1283569E+00
          2   -1    0    0  502    0  0.00000000000E+00  0.00000000000E+00  0.19988522916E+03  0.19988522916E+03  0.00000000000E+00 0. -1.
         -1   -1    0    0    0  501 -0.00000000000E+00 -0.00000000000E+00 -0.17164398060E+03  0.17164398060E+03  0.00000000000E+00 0.  1.
         24    2    1    2    0    0 -0.27446231881E+02 -0.34784051667E+02 -0.11640606123E+03  0.14842939187E+03  0.80732195471E+02 0.  0.
         23    2    1    2    0    0  0.42450269614E+02  0.91113246664E+01  0.31510418114E+02  0.10612047647E+03  0.91562041534E+02 0.  0.
        -11    1    3    3    0    0 -0.69663697072E+01 -0.58859549994E+02 -0.86910171511E+02  0.10519674351E+03  0.00000000000E+00 0.  1.
         12    1    3    3    0    0 -0.20479862174E+02  0.24075498327E+02 -0.29495889720E+02  0.43232648366E+02  0.00000000000E+00 0. -1.
        -11    1    4    4    0    0  0.60429365641E+02  0.26738233842E+02  0.42585330040E+02  0.78613940974E+02  0.00000000000E+00 0. -1.
         11    1    4    4    0    0 -0.17979096028E+02 -0.17626909176E+02 -0.11074911926E+02  0.27506535500E+02  0.00000000000E+00 0.  1.
         21    1    1    2  502  501 -0.15004037733E+02  0.25672727000E+02  0.11313689167E+03  0.11697934141E+03  0.00000000000E+00 0. -1.
<scales pt_clust_5="13000.00000" pt_clust_6="13000.00000" pt_clust_7="13000.00000" pt_clust_8="13000.00000" pt_clust_9="29.73567"></scales>
<clustering>
<clus scale="   29.736">  1  9  2 -1</clus>
<clus scale="   80.732">  5  6 -1 -1</clus>
<clus scale="   91.273">  2  5  1 -1</clus>
<clus scale="   91.562">  7  8 -1 -1</clus>
<clus scale="   29.736">  1  5  2 -1</clus>
</clustering>
</event>
<event>
 9    2  0.3791909E-005  0.1010533E+03  0.7546771E-02  0.1284813E+00
          2   -1    0    0  502    0  0.00000000000E+00  0.00000000000E+00  0.15921222876E+02  0.15921222876E+02  0.00000000000E+00 0. -1.
         -1   -1    0    0    0  501 -0.00000000000E+00 -0.00000000000E+00 -0.81359378608E+03  0.81359378608E+03  0.00000000000E+00 0.  1.
         23    2    1    2    0    0 -0.37569846830E+01  0.36468976706E+02 -0.50052214522E+03  0.51025186475E+03  0.92143618540E+02 0.  0.
         24    2    1    2    0    0 -0.12259123398E+02 -0.49696167514E+02 -0.26346988547E+03  0.27969228920E+03  0.78685455567E+02 0.  0.
        -11    1    4    4    0    0 -0.22413659151E+02 -0.56840286076E+02 -0.25959106373E+03  0.26668466511E+03  0.00000000000E+00 0.  1.
         12    1    4    4    0    0  0.10154535753E+02  0.71441185617E+01 -0.38788217403E+01  0.13007624090E+02  0.00000000000E+00 0. -1.
        -11    1    3    3    0    0 -0.47461398144E+02  0.11541222593E+02 -0.24273789413E+03  0.24760345188E+03  0.00000000000E+00 0. -1.
         11    1    3    3    0    0  0.43704413461E+02  0.24927754113E+02 -0.25778425108E+03  0.26264841288E+03  0.00000000000E+00 0.  1.
         21    1    1    2  502  501  0.16016108081E+02  0.13227190808E+02 -0.33680532525E+02  0.39570855006E+02  0.00000000000E+00 0.  1.
<scales pt_clust_5="13000.00000" pt_clust_6="13000.00000" pt_clust_7="13000.00000" pt_clust_8="13000.00000" pt_clust_9="20.77196"></scales>
<clustering>
<clus scale="   20.772">  1  9  2 -1</clus>
<clus scale="   78.685">  5  6 -1 -1</clus>
<clus scale="   88.954">  1  5  2 -1</clus>
<clus scale="   92.144">  7  8 -1 -1</clus>
<clus scale="   20.772">  1  5  2 -1</clus>
</clustering>
</event>
<event>
 9    2  0.3791909E-005  0.9720085E+02  0.7546771E-02  0.1290870E+00
         -1   -1    0    0    0  501 -0.00000000000E+00  0.00000000000E+00  0.13597035609E+03  0.13597035609E+03  0.00000000000E+00 0.  1.
          2   -1    0    0  502    0  0.00000000000E+00 -0.00000000000E+00 -0.38836234232E+03  0.38836234232E+03  0.00000000000E+00 0. -1.
         24    2    1    2    0    0 -0.39750864093E+02  0.10691497705E+02  0.10359353435E+03  0.13779886971E+03  0.81009066248E+02 0.  0.
         23    2    1    2    0    0  0.59232591839E+01  0.72853416683E+01 -0.13582486324E+03  0.16306528808E+03  0.89742595784E+02 0.  0.
        -11    1    3    3    0    0 -0.62830118440E+02  0.33134793556E+01  0.90602666947E+02  0.11030614755E+03  0.00000000000E+00 0.  1.
         12    1    3    3    0    0  0.23079254347E+02  0.73780183490E+01  0.12990867404E+02  0.27492722162E+02  0.00000000000E+00 0. -1.
        -13    1    4    4    0    0 -0.24453495327E+01 -0.35860686158E+02 -0.10032251355E+03  0.10656723358E+03  0.00000000000E+00 0. -1.
         13    1    4    4    0    0  0.83686087166E+01  0.43146027826E+02 -0.35502349688E+02  0.56498054501E+02  0.00000000000E+00 0.  1.
         21    1    1    2  502  501  0.33827604909E+02 -0.17976839373E+02 -0.22016065734E+03  0.22346854063E+03  0.00000000000E+00 0. -1.
<scales pt_clust_5="13000.00000" pt_clust_6="13000.00000" pt_clust_7="13000.00000" pt_clust_8="13000.00000" pt_clust_9="38.30762"></scales>
<clustering>
<clus scale="   38.308">  2  9  1 -1</clus>
<clus scale="   81.009">  5  6 -1 -1</clus>
<clus scale="   89.201">  1  5  2 -1</clus>
<clus scale="   89.743">  7  8 -1 -1</clus>
<clus scale="   38.308">  2  5  1 -1</clus>
</clustering>
</event>
<event>
 9    2  0.3791909E-005  0.1276356E+03  0.7546771E-02  0.1238179E+00
         -1   -1    0    0    0  501 -0.00000000000E+00  0.00000000000E+00  0.18610156780E+03  0.18610156780E+03  0.00000000000E+00 0.  1.
          2   -1    0    0  502    0  0.00000000000E+00 -0.00000000000E+00 -0.50082265446E+03  0.50082265446E+03  0.00000000000E+00 0. -1.
         23    2    1    2    0    0  0.78381478863E+02  0.76231662205E+00  0.13182953771E+03  0.18136580362E+03  0.96800260087E+02 0.  0.
         24    2    1    2    0    0 -0.14658240297E+03  0.22396447602E+02 -0.30605103347E+03  0.34767292388E+03  0.72258045822E+02 0.  0.
        -13    1    4    4    0    0 -0.35079298606E+02 -0.24828597972E+02 -0.65119211902E+02  0.78022613559E+02  0.00000000000E+00 0.  1.
         14    1    4    4    0    0 -0.11150310437E+03  0.47225045573E+02 -0.24093182157E+03  0.26965031032E+03  0.00000000000E+00 0. -1.
        -11    1    3    3    0    0  0.78366454951E+02  0.25934140986E+02  0.13258628984E+03  0.15618260205E+03  0.00000000000E+00 0.  1.
         11    1    3    3    0    0  0.15023912083E-01 -0.25171824364E+02 -0.75675212159E+00  0.25183201570E+02  0.00000000000E+00 0. -1.
         21    1    1    2  502  501  0.68200924111E+02 -0.23158764224E+02 -0.14049959090E+03  0.15788549475E+03  0.00000000000E+00 0.  1.
<scales pt_clust_5="13000.00000" pt_clust_6="13000.00000" pt_clust_7="13000.00000" pt_clust_8="13000.00000" pt_clust_9="72.02565"></scales>
<clustering>
<clus scale="   72.026">  2  9  1 -1</clus>
<clus scale="   72.258">  5  6 -1 -1</clus>
<clus scale="   96.800">  7  8 -1 -1</clus>
<clus scale="  110.190">  2  5  1 -1</clus>
<clus scale="   72.026">  2  5  1 -1</clus>
</clustering>
</event>
<event>
 9    2  0.3791909E-005  0.1259030E+03  0.7546771E-02  0.1249528E+00
          2   -1    0    0  502    0  0.00000000000E+00  0.00000000000E+00  0.43384782446E+03  0.43384782446E+03  0.00000000000E+00 0. -1.
         -1   -1    0    0    0  501 -0.00000000000E+00 -0.00000000000E+00 -0.43546430932E+02  0.43546430932E+02  0.00000000000E+00 0.  1.
         24    2    1    2    0    0  0.53875686396E+02 -0.17164933182E+02  0.81771408592E+02  0.12755718174E+03  0.79919001708E+02 0.  0.
         23    2    1    2    0    0 -0.93369455581E+01  0.15019726836E+02  0.24153595090E+03  0.26936035689E+03  0.11790935305E+03 0.  0.
        -13    1    3    3    0    0  0.18832778243E+02 -0.33688655361E+02  0.79941522458E+02  0.88770749965E+02  0.00000000000E+00 0.  1.
         14    1    3    3    0    0  0.35042908153E+02  0.16523722178E+02  0.18298861341E+01  0.38786431773E+02  0.00000000000E+00 0. -1.
        -13    1    4    4    0    0 -0.63396496366E+01 -0.48962360909E+02  0.14781763562E+03  0.15584465773E+03  0.00000000000E+00 0.  1.
         13    1    4    4    0    0 -0.29972959215E+01  0.63982087745E+02  0.93718315279E+02  0.11351569915E+03  0.00000000000E+00 0. -1.
         21    1    1    2  502  501 -0.44538740837E+02  0.21452063464E+01  0.66994034030E+02  0.80476716765E+02  0.00000000000E+00 0.  1.
<scales pt_clust_5="13000.00000" pt_clust_6="13000.00000" pt_clust_7="13000.00000" pt_clust_8="13000.00000" pt_clust_9="44.59037"></scales>
<clustering>
<clus scale="   44.590">  1  9  2 -1</clus>
<clus scale="   79.919">  5  6 -1 -1</clus>
<clus scale="   91.302">  2  5  1 -1</clus>
<clus scale="  117.909">  7  8 -1 -1</clus>
<clus scale="   44.590">  1  5  2 -1</clus>
</clustering>
</event>
<event>
 9    2  0.6172781E-005  0.1072137E+03  0.7546771E-02  0.1272251E+00
         -1   -1    0    0    0  501 -0.00000000000E+00  0.00000000000E+00  0.45382690171E+03  0.45382690171E+03  0.00000000000E+00 0.  1.
          2   -1    0    0  502    0  0.00000000000E+00 -0.00000000000E+00 -0.45639782832E+03  0.45639782832E+03  0.00000000000E+00 0. -1.
         24    2    1    2    0    0  0.34372316285E+02  0.38342353399E+02  0.40884008579E+03  0.41974264874E+03  0.79887941723E+02 0.  0.
         23    2    1    2    0    0 -0.55284772140E+02  0.50588772307E+02 -0.37189331518E+03  0.39094452897E+03  0.94431758092E+02 0.  0.
        -11    1    3    3    0    0  0.56140572608E+02  0.19603302377E+02  0.19170025260E+03  0.20071133552E+03  0.00000000000E+00 0.  1.
         12    1    3    3    0    0 -0.21768256323E+02  0.18739051023E+02  0.21713983319E+03  0.21903131323E+03  0.00000000000E+00 0. -1.
        -11    1    4    4    0    0  0.22850438692E+02  0.20709862430E+02 -0.16359208977E+03  0.16647345971E+03  0.00000000000E+00 0.  1.
         11    1    4    4    0    0 -0.78135210831E+02  0.29878909878E+02 -0.20830122541E+03  0.22447106926E+03  0.00000000000E+00 0. -1.
         21    1    1    2  502  501  0.20912455855E+02 -0.88931125707E+02 -0.39517697214E+02  0.99537552323E+02  0.00000000000E+00 0.  1.
<scales pt_clust_5="13000.00000" pt_clust_6="13000.00000" pt_clust_7="13000.00000" pt_clust_8="13000.00000" pt_clust_9="91.35686"></scales>
<clustering>
<clus scale="   79.888">  5  6 -1 -1</clus>
<clus scale="   91.357">  2  9  1 -1</clus>
<clus scale="   94.432">  7  8 -1 -1</clus>
<clus scale="   94.655">  1  5  2 -1</clus>
<clus scale="   91.357">  2  5  1 -1</clus>
</clustering>
</event>
<event>
 9    2  0.3791909E-005  0.9825813E+02  0.7546771E-02  0.1288465E+00
         -1   -1    0    0    0  501 -0.00000000000E+00  0.00000000000E+00  0.93954269208E+02  0.93954269208E+02  0.00000000000E+00 0.  1.
          2   -1    0    0  502    0  0.00000000000E+00 -0.00000000000E+00 -0.42356952610E+03  0.42356952610E+03  0.00000000000E+00 0. -1.
         23    2    1    2    0    0 -0.12622111944E+02 -0.31723700443E+02  0.48894744032E+02  0.10837308606E+03  0.90489330351E+02 0.  0.
         24    2    1    2    0    0  0.26941274814E+02  0.72120756079E+02 -0.26579092282E+03  0.28855820908E+03  0.81815583039E+02 0.  0.
        -11    1    4    4    0    0  0.27550047796E+02  0.14033723518E+02 -0.22011930708E+02  0.37953598286E+02  0.00000000000E+00 0.  1.
         12    1    4    4    0    0 -0.60877298214E+00  0.58087032561E+02 -0.24377899211E+03  0.25060461080E+03  0.00000000000E+00 0. -1.
        -11    1    3    3    0    0  0.38521948237E+02 -0.14397669894E+02  0.30952113280E+02  0.51471027879E+02  0.00000000000E+00 0.  1.
         11    1    3    3    0    0 -0.51144060182E+02 -0.17326030549E+02  0.17942630752E+02  0.56902058177E+02  0.00000000000E+00 0. -1.
         21    1    1    2  502  501 -0.14319162870E+02 -0.40397055635E+02 -0.11271907811E+03  0.12059250017E+03  0.00000000000E+00 0.  1.
<scales pt_clust_5="13000.00000" pt_clust_6="13000.00000" pt_clust_7="13000.00000" pt_clust_8="13000.00000" pt_clust_9="42.85978"></scales>
<clustering>
<clus scale="   42.860">  2  9  1 -1</clus>
<clus scale="   81.816">  5  6 -1 -1</clus>
<clus scale="   90.333">  2  5  1 -1</clus>
<clus scale="   90.489">  7  8 -1 -1</clus>
<clus scale="   42.860">  2  5  1 -1</clus>
</clustering>
</event>
<event>
 9    2  0.3791909E-005  0.2999112E+03  0.7546771E-02  0.1085756E+00
          2   -1    0    0  502    0  0.00000000000E+00  0.00000000000E+00  0.32489077046E+03  0.32489077046E+03  0.00000000000E+00 0. -1.
         -1   -1    0    0    0  501 -0.00000000000E+00 -0.00000000000E+00 -0.40851111910E+03  0.40851111910E+03  0.00000000000E+00 0.  1.
         23    2    1    2    0    0 -0.27791627863E+03 -0.37016251931E+02 -0.20444417256E+03  0.35873965715E+03  0.91044280904E+02 0.  0.
         24    2    1    2    0    0  0.30191679679E+03  0.38952012900E+01  0.93702527629E+02  0.32558480807E+03  0.77822739509E+02 0.  0.
        -11    1    4    4    0    0  0.94996566580E+02  0.34051377531E+02  0.14358550501E+02  0.10193140805E+03  0.00000000000E+00 0.  1.
         12    1    4    4    0    0  0.20692023021E+03 -0.30156176241E+02  0.79343977128E+02  0.22365340003E+03  0.00000000000E+00 0. -1.
        -13    1    3    3    0    0 -0.23226359901E+03 -0.41879341585E+02 -0.20532000661E+03  0.31282033788E+03  0.00000000000E+00 0.  1.
         13    1    3    3    0    0 -0.45652679618E+02  0.48630896543E+01  0.87583404632E+00  0.45919319274E+02  0.00000000000E+00 0. -1.
         21    1    1    2  502  501 -0.24000518163E+02  0.33121050641E+02  0.27121296290E+02  0.49077424343E+02  0.00000000000E+00 0. -1.
<scales pt_clust_5="13000.00000" pt_clust_6="13000.00000" pt_clust_7="13000.00000" pt_clust_8="13000.00000" pt_clust_9="40.90268"></scales>
<clustering>
<clus scale="   40.903">  1  9  2 -1</clus>
<clus scale="   77.823">  5  6 -1 -1</clus>
<clus scale="   91.044">  7  8 -1 -1</clus>
<clus scale="  296.166">  1  5  2 -1</clus>
<clus scale="   40.903">  1  5  2 -1</clus>
</clustering>
</event>
<event>
 9    2  0.3791909E-005  0.1758601E+03  0.7546771E-02  0.1173255E+00
          2   -1    0    0  502    0  0.00000000000E+00  0.00000000000E+00  0.50056701683E+03  0.50056701683E+03  0.00000000000E+00 0. -1.
         -1   -1    0    0    0  501 -0.00000000000E+00 -0.00000000000E+00 -0.16991482768E+03  0.16991482768E+03  0.00000000000E+00 0.  1.
         24    2    1    2    0    0 -0.11931236916E+03 -0.92517612490E+02 -0.96056688447E+02  0.19620085595E+03  0.80454573689E+02 0.  0.
         23    2    1    2    0    0  0.13372187611E+03  0.62481781436E+02  0.36294988757E+03  0.40234355848E+03  0.91445092805E+02 0.  0.
        -13    1    3    3    0    0 -0.10268634711E+03 -0.10643892098E+03 -0.91890669668E+02  0.17411957085E+03  0.00000000000E+00 0.  1.
         14    1    3    3    0    0 -0.16626022045E+02  0.13921308492E+02 -0.41660187791E+01  0.22081285099E+02  0.00000000000E+00 0. -1.
        -11    1    4    4    0    0  0.54274993816E+02  0.74362319111E+02  0.21757589517E+03  0.23625156003E+03  0.00000000000E+00 0. -1.
         11    1    4    4    0    0  0.79446882295E+02 -0.11880537675E+02  0.14537399241E+03  0.16609199845E+03  0.00000000000E+00 0.  1.
         21    1    1    2  502  501 -0.14409506956E+02  0.30035831054E+02  0.63758990024E+02  0.71937430081E+02  0.00000000000E+00 0. -1.
<scales pt_clust_5="13000.00000" pt_clust_6="13000.00000" pt_clust_7="13000.00000" pt_clust_8="13000.00000" pt_clust_9="33.31344"></scales>
<clustering>
<clus scale="   33.313">  1  9  2 -1</clus>
<clus scale="   80.455">  5  6 -1 -1</clus>
<clus scale="   91.445">  7  8 -1 -1</clus>
<clus scale="  170.404">  2  5  1 -1</clus>
<clus scale="   33.313">  1  5  2 -1</clus>
</clustering>
</event>
<event>
 9    2  0.3791909E-005  0.1529871E+03  0.7546771E-02  0.1198958E+00
          2   -1    0    0  502    0  0.00000000000E+00  0.00000000000E+00  0.54218913845E+03  0.54218913845E+03  0.00000000000E+00 0. -1.
         -1   -1    0    0    0  501 -0.00000000000E+00 -0.00000000000E+00 -0.82114453839E+02  0.82114453839E+02  0.00000000000E+00 0.  1.
         24    2    1    2    0    0 -0.10830569818E+03 -0.15169629236E+02  0.16351219056E+02  0.13626462272E+03  0.79626899544E+02 0.  0.
         23    2    1    2    0    0  0.11637119041E+03  0.49284078264E+02  0.41267352753E+03  0.44121006344E+03  0.91628082110E+02 0.  0.
        -11    1    3    3    0    0 -0.69364862514E+02  0.15491504865E+02 -0.21103902418E+02  0.74140714671E+02  0.00000000000E+00 0.  1.
         12    1    3    3    0    0 -0.38940835666E+02 -0.30661134101E+02  0.37455121474E+02  0.62123908049E+02  0.00000000000E+00 0. -1.
        -11    1    4    4    0    0  0.22604538177E+02  0.54810728389E+02  0.20252612543E+03  0.21102609453E+03  0.00000000000E+00 0.  1.
         11    1    4    4    0    0  0.93766652238E+02 -0.55266501253E+01  0.21014740210E+03  0.23018396891E+03  0.00000000000E+00 0. -1.
         21    1    1    2  502  501 -0.80654922352E+01 -0.34114449028E+02  0.31049938025E+02  0.46828906124E+02  0.00000000000E+00 0.  1.
<scales pt_clust_5="13000.00000" pt_clust_6="13000.00000" pt_clust_7="13000.00000" pt_clust_8="13000.00000" pt_clust_9="35.05493"></scales>
<clustering>
<clus scale="   35.055">  2  9  1 -1</clus>
<clus scale="   79.627">  5  6 -1 -1</clus>
<clus scale="   91.628">  7  8 -1 -1</clus>
<clus scale="  146.116">  2  5  1 -1</clus>
<clus scale="  152.987">  1  5  2 -1</clus>
</clustering>
</event>
<event>
 9    2  0.3791909E-005  0.2033929E+03  0.7546771E-02  0.1147770E+00
          2   -1    0    0  502    0  0.00000000000E+00  0.00000000000E+00  0.27211823914E+03  0.27211823914E+03  0.00000000000E+00 0. -1.
         -1   -1    0    0    0  501 -0.00000000000E+00 -0.00000000000E+00 -0.38146383010E+03  0.38146383010E+03  0.00000000000E+00 0.  1.
         23    2    1    2    0    0  0.16426044265E+03 -0.88445943752E+02 -0.29949450351E+03  0.36427764860E+03  0.90537669780E+02 0.  0.
         24    2    1    2    0    0 -0.12372117397E+03  0.96119509255E+02  0.16140552635E+03  0.23902024657E+03  0.80827256454E+02 0.  0.
        -11    1    4    4    0    0 -0.71145034990E+02  0.14007883300E+02  0.38376220159E+02  0.82040057728E+02  0.00000000000E+00 0.  1.
         12    1    4    4    0    0 -0.52576138984E+02  0.82111625955E+02  0.12302930620E+03  0.15698018885E+03  0.00000000000E+00 0. -1.
        -11    1    3    3    0    0  0.85824283137E+02 -0.54632178497E+01 -0.83012440906E+02  0.11952706669E+03  0.00000000000E+00 0. -1.
         11    1    3    3    0    0  0.78436159517E+02 -0.82982725902E+02 -0.21648206260E+03  0.24475058191E+03  0.00000000000E+00 0.  1.
         21    1    1    2  502  501 -0.40539268680E+02 -0.76735655037E+01  0.28743386190E+02  0.50284174074E+02  0.00000000000E+00 0.  1.
<scales pt_clust_5="13000.00000" pt_clust_6="13000.00000" pt_clust_7="13000.00000" pt_clust_8="13000.00000" pt_clust_9="41.25913"></scales>
<clustering>
<clus scale="   41.259">  1  9  2 -1</clus>
<clus scale="   80.827">  5  6 -1 -1</clus>
<clus scale="   90.538">  7  8 -1 -1</clus>
<clus scale="  199.260">  1  5  2 -1</clus>
<clus scale="   41.259">  1  5  2 -1</clus>
</clustering>
</event>
<event>
 9    2  0.3791909E-005  0.1411035E+03  0.7546771E-02  0.1214672E+00
         -1   -1    0    0    0  501 -0.00000000000E+00  0.00000000000E+00  0.12487394432E+03  0.12487394432E+03  0.00000000000E+00 0.  1.
          2   -1    0    0  502    0  0.00000000000E+00 -0.00000000000E+00 -0.87600340651E+03  0.87600340651E+03  0.00000000000E+00 0. -1.
         23    2    1    2    0    0 -0.15969115822E+02  0.11389918118E+03  0.63154092859E+02  0.16064662431E+03  0.92686904821E+02 0.  0.
         24    2    1    2    0    0  0.62772172866E+02 -0.38637877247E+02 -0.31568250954E+03  0.33381410691E+03  0.79644082671E+02 0.  0.
        -13    1    4    4    0    0  0.65064452375E+01 -0.25812568654E+02 -0.22055286723E+02  0.34569613862E+02  0.00000000000E+00 0.  1.
         14    1    4    4    0    0  0.56265727629E+02 -0.12825308593E+02 -0.29362722281E+03  0.29924449305E+03  0.00000000000E+00 0. -1.
        -11    1    3    3    0    0 -0.71145713790E+01  0.46361966644E+02 -0.21828407004E+02  0.51735175938E+02  0.00000000000E+00 0. -1.
         11    1    3    3    0    0 -0.88545444432E+01  0.67537214534E+02  0.84982499863E+02  0.10891144838E+03  0.00000000000E+00 0.  1.
         21    1    1    2  502  501 -0.46803057044E+02 -0.75261303931E+02 -0.49860104551E+03  0.50641661960E+03  0.00000000000E+00 0. -1.
<scales pt_clust_5="13000.00000" pt_clust_6="13000.00000" pt_clust_7="13000.00000" pt_clust_8="13000.00000" pt_clust_9="88.62725"></scales>
<clustering>
<clus scale="   79.644">  5  6 -1 -1</clus>
<clus scale="   88.627">  2  9  1 -1</clus>
<clus scale="   92.687">  7  8 -1 -1</clus>
<clus scale="  132.900">  2  5  1 -1</clus>
<clus scale="   88.627">  2  5  1 -1</clus>
</clustering>
</event>
<event>
 9    2  0.3791909E-005  0.9690094E+02  0.7546771E-02  0.1293262E+00
          4   -1    0    0  502    0  0.00000000000E+00  0.00000000000E+00  0.18401969120E+03  0.18401969120E+03  0.00000000000E+00 0. -1.
         -3   -1    0    0    0  501 -0.00000000000E+00 -0.00000000000E+00 -0.29219584381E+03  0.29219584381E+03  0.00000000000E+00 0.  1.
         24    2    1    2    0    0 -0.23217552322E+02 -0.23434249773E+02 -0.25286630950E+03  0.26704637310E+03  0.79272795508E+02 0.  0.
         23    2    1    2    0    0  0.11509193625E+02  0.54309070743E+02  0.13986554084E+03  0.17579825911E+03  0.90888512423E+02 0.  0.
        -13    1    3    3    0    0 -0.32190832558E+02  0.16032601570E+02 -0.18125938891E+03  0.18479247842E+03  0.00000000000E+00 0.  1.
         14    1    3    3    0    0  0.89732802357E+01 -0.39466851343E+02 -0.71606920588E+02  0.82253894676E+02  0.00000000000E+00 0. -1.
        -13    1    4    4    0    0  0.43171670945E+02  0.87466923868E+01  0.94009579473E+02  0.10381762294E+03  0.00000000000E+00 0. -1.
         13    1    4    4    0    0 -0.31662477320E+02  0.45562378356E+02  0.45855961367E+02  0.71980636177E+02  0.00000000000E+00 0.  1.
         21    1    1    2  502  501  0.11708358697E+02 -0.30874820970E+02  0.48246160573E+01  0.33370902796E+02  0.00000000000E+00 0.  1.
<scales pt_clust_5="13000.00000" pt_clust_6="13000.00000" pt_clust_7="13000.00000" pt_clust_8="13000.00000" pt_clust_9="33.02030"></scales>
<clustering>
<clus scale="   33.020">  1  9  2 -1</clus>
<clus scale="   79.273">  5  6 -1 -1</clus>
<clus scale="   86.100">  2  5  1 -1</clus>
<clus scale="   90.889">  7  8 -1 -1</clus>
<clus scale="   33.020">  1  5  2 -1</clus>
</clustering>
</event>
<event>
 9    2  0.3791909E-005  0.3557801E+03  0.7546771E-02  0.1073299E+00
         -1   -1    0    0    0  501 -0.00000000000E+00  0.00000000000E+00  0.48922837411E+03  0.48922837411E+03  0.00000000000E+00 0.  1.
          2   -1    0    0  502    0  0.00000000000E+00 -0.00000000000E+00 -0.93946478943E+03  0.93946478943E+03  0.00000000000E+00 0. -1.
         23    2    1    2    0    0  0.28782582809E+03 -0.42767602373E+02  0.10349303173E+03  0.32185322495E+03  0.90586509305E+02 0.  0.
         24    2    1    2    0    0  0.17087841782E+03  0.16179995927E+03 -0.58136303206E+03  0.63213802978E+03  0.78973749763E+02 0.  0.
        -11    1    4    4    0    0  0.14394305888E+03  0.85760762703E+02 -0.39338883013E+03  0.42758541169E+03  0.00000000000E+00 0.  1.
         12    1    4    4    0    0  0.26935358938E+02  0.76039196571E+02 -0.18797420193E+03  0.20455261809E+03  0.00000000000E+00 0. -1.
        -13    1    3    3    0    0  0.18225503189E+02  0.20640617637E+02  0.55563750879E+01  0.28090520946E+02  0.00000000000E+00 0. -1.
         13    1    3    3    0    0  0.26960032490E+03 -0.63408220010E+02  0.97936656640E+02  0.29376270400E+03  0.00000000000E+00 0.  1.
         21    1    1    2  502  501 -0.45870424591E+03 -0.11903235690E+03  0.27633585005E+02  0.47470190881E+03  0.00000000000E+00 0. -1.
<scales pt_clust_5="13000.00000" pt_clust_6="13000.00000" pt_clust_7="13000.00000" pt_clust_8="13000.00000" pt_clust_9="344.05456"></scales>
<clustering>
<clus scale="   78.974">  5  6 -1 -1</clus>
<clus scale="   90.587">  7  8 -1 -1</clus>
<clus scale="  248.225">  2  5  1 -1</clus>
<clus scale="  344.055">  2  9  1 -1</clus>
<clus scale="  248.225">  2  5  1 -1</clus>
</clustering>
</event>
<event>
 9    2  0.3791909E-005  0.9520690E+02  0.7546771E-02  0.1296156E+00
          2   -1    0    0  502    0  0.00000000000E+00  0.00000000000E+00  0.10156591209E+04  0.10156591209E+04  0.00000000000E+00 0. -1.
         -1   -1    0    0    0  501 -0.00000000000E+00 -0.00000000000E+00 -0.27507311245E+02  0.27507311245E+02  0.00000000000E+00 0.  1.
         23    2    1    2    0    0 -0.15431844695E+02 -0.30073044473E+02  0.74325357264E+02  0.12166463715E+03  0.90196980909E+02 0.  0.
         24    2    1    2    0    0  0.23449283576E+02 -0.38002614392E+01  0.64739788612E+03  0.65280891994E+03  0.80443471572E+02 0.  0.
        -13    1    4    4    0    0  0.44749414821E+02 -0.17344877749E+01  0.20232812542E+03  0.20722497173E+03  0.00000000000E+00 0.  1.
         14    1    4    4    0    0 -0.21300131244E+02 -0.20657736643E+01  0.44506976070E+03  0.44558394821E+03  0.00000000000E+00 0. -1.
        -13    1    3    3    0    0 -0.14107715669E+02 -0.58773012894E+02  0.70206464167E+02  0.92640392361E+02  0.00000000000E+00 0.  1.
         13    1    3    3    0    0 -0.13241290263E+01  0.28699968421E+02  0.41188930968E+01  0.29024244786E+02  0.00000000000E+00 0. -1.
         21    1    1    2  502  501 -0.80174388812E+01  0.33873305912E+02  0.26642856630E+03  0.26869287508E+03  0.00000000000E+00 0. -1.
<scales pt_clust_5="13000.00000" pt_clust_6="13000.00000" pt_clust_7="13000.00000" pt_clust_8="13000.00000" pt_clust_9="34.80920"></scales>
<clustering>
<clus scale="   34.809">  1  9  2 -1</clus>
<clus scale="   80.443">  5  6 -1 -1</clus>
<clus scale="   86.023">  1  5  2 -1</clus>
<clus scale="   90.197">  7  8 -1 -1</clus>
<clus scale="   34.809">  1  5  2 -1</clus>
</clustering>
</event>
<event>
 9    2  0.3791909E-005  0.1198657E+03  0.7546771E-02  0.1246952E+00
         -3   -1    0    0    0  501 -0.00000000000E+00  0.00000000000E+00  0.26069547325E+03  0.26069547325E+03  0.00000000000E+00 0.  1.
          4   -1    0    0  502    0  0.00000000000E+00 -0.00000000000E+00 -0.16399888152E+03  0.16399888152E+03  0.00000000000E+00 0. -1.
         24    2    1    2    0    0  0.36785653501E+02 -0.69023396379E+02  0.21012373740E+03  0.23832483850E+03  0.80804270161E+02 0.  0.
         23    2    1    2    0    0 -0.54817169450E+02  0.43587721574E+02 -0.80115139578E+02  0.14074278211E+03  0.92115599045E+02 0.  0.
        -13    1    3    3    0    0  0.42893832374E+02 -0.59492626974E+02  0.21410985058E+03  0.22632340055E+03  0.00000000000E+00 0.  1.
         14    1    3    3    0    0 -0.61081788730E+01 -0.95307694054E+01 -0.39861131818E+01  0.12001437951E+02  0.00000000000E+00 0. -1.
        -11    1    4    4    0    0 -0.32494795378E+02  0.69702111801E+02 -0.72206011184E+02  0.10548935571E+03  0.00000000000E+00 0. -1.
         11    1    4    4    0    0 -0.22322374071E+02 -0.26114390227E+02 -0.79091283936E+01  0.35253426402E+02  0.00000000000E+00 0.  1.
         21    1    1    2  502  501  0.18031515948E+02  0.25435674806E+02 -0.33312006089E+02  0.45626734157E+02  0.00000000000E+00 0. -1.
<scales pt_clust_5="13000.00000" pt_clust_6="13000.00000" pt_clust_7="13000.00000" pt_clust_8="13000.00000" pt_clust_9="31.17866"></scales>
<clustering>
<clus scale="   31.179">  2  9  1 -1</clus>
<clus scale="   80.804">  5  6 -1 -1</clus>
<clus scale="   92.116">  7  8 -1 -1</clus>
<clus scale="  111.408">  1  5  2 -1</clus>
<clus scale="   31.179">  2  5  1 -1</clus>
</clustering>
</event>
<event>
 9    2  0.3791909E-005  0.1470957E+03  0.7546771E-02  0.1205917E+00
          2   -1    0    0  502    0  0.00000000000E+00  0.00000000000E+00  0.27959062863E+03  0.27959062863E+03  0.00000000000E+00 0. -1.
         -1   -1    0    0    0  501 -0.00000000000E+00 -0.00000000000E+00 -0.11134231065E+03  0.11134231065E+03  0.00000000000E+00 0.  1.
         23    2    1    2    0    0 -0.23483543607E+02 -0.11331009527E+03  0.16006889192E+02  0.14796396026E+03  0.90810013339E+02 0.  0.
         24    2    1    2    0    0 -0.18890511234E+02  0.11935726671E+03  0.12728163384E+03  0.19341980981E+03  0.81287145241E+02 0.  0.
        -11    1    4    4    0    0  0.28852614944E+02  0.73792380354E+02  0.62191812114E+02  0.10072542023E+03  0.00000000000E+00 0.  1.
         12    1    4    4    0    0 -0.47743126178E+02  0.45564886360E+02  0.65089821724E+02  0.92694389573E+02  0.00000000000E+00 0. -1.
        -11    1    3    3    0    0  0.15572198760E+02 -0.34004603834E+02  0.41592308405E+02  0.55935021002E+02  0.00000000000E+00 0. -1.
         11    1    3    3    0    0 -0.39055742367E+02 -0.79305491439E+02 -0.25585419212E+02  0.92028939255E+02  0.00000000000E+00 0.  1.
         21    1    1    2  502  501  0.42374054841E+02 -0.60471714412E+01  0.24959794942E+02  0.49549169213E+02  0.00000000000E+00 0. -1.
<scales pt_clust_5="13000.00000" pt_clust_6="13000.00000" pt_clust_7="13000.00000" pt_clust_8="13000.00000" pt_clust_9="42.80337"></scales>
<clustering>
<clus scale="   42.803">  1  9  2 -1</clus>
<clus scale="   81.287">  5  6 -1 -1</clus>
<clus scale="   90.810">  7  8 -1 -1</clus>
<clus scale="  141.415">  1  5  2 -1</clus>
<clus scale="   42.803">  1  5  2 -1</clus>
</clustering>
</event>
<event>
 9    2  0.3791909E-005  0.1651739E+03  0.7546771E-02  0.1183361E+00
         -3   -1    0    0    0  501 -0.00000000000E+00  0.00000000000E+00  0.68365013833E+03  0.68365013833E+03  0.00000000000E+00 0.  1.
          4   -1    0    0  502    0  0.00000000000E+00 -0.00000000000E+00 -0.13646231024E+03  0.13646231024E+03  0.00000000000E+00 0. -1.
         24    2    1    2    0    0 -0.13143796638E+03  0.51619204224E+02  0.61239539724E+03  0.63436451282E+03  0.86311826063E+02 0.  0.
         23    2    1    2    0    0  0.11277408295E+03 -0.36043556292E+02 -0.64214305427E+02  0.16141836678E+03  0.88967861489E+02 0.  0.
        -11    1    3    3    0    0 -0.10284071167E+03  0.44636613177E+02  0.57939850205E+03  0.59014512062E+03  0.00000000000E+00 0.  1.
         12    1    3    3    0    0 -0.28597254710E+02  0.69825910463E+01  0.32996895185E+02  0.44219392199E+02  0.00000000000E+00 0. -1.
        -13    1    4    4    0    0  0.64030192687E+02 -0.64188389972E+02 -0.29756207129E+02  0.95422465098E+02  0.00000000000E+00 0.  1.
         13    1    4    4    0    0  0.48743890263E+02  0.28144833680E+02 -0.34458098297E+02  0.65995901684E+02  0.00000000000E+00 0. -1.
         21    1    1    2  502  501  0.18663883431E+02 -0.15575647932E+02 -0.99326372757E+00  0.24329568966E+02  0.00000000000E+00 0.  1.
<scales pt_clust_5="13000.00000" pt_clust_6="13000.00000" pt_clust_7="13000.00000" pt_clust_8="13000.00000" pt_clust_9="24.30929"></scales>
<clustering>
<clus scale="   24.309">  2  9  1 -1</clus>
<clus scale="   86.312">  5  6 -1 -1</clus>
<clus scale="   88.968">  7  8 -1 -1</clus>
<clus scale="  163.759">  1  5  2 -1</clus>
<clus scale="   24.309">  2  5  1 -1</clus>
</clustering>
</event>
<event>
 9    2  0.3791909E-005  0.1673210E+03  0.7546771E-02  0.1181573E+00
          2   -1    0    0  502    0  0.00000000000E+00  0.00000000000E+00  0.83478235912E+03  0.83478235912E+03  0.00000000000E+00 0. -1.
         -1   -1    0    0    0  501 -0.00000000000E+00 -0.00000000000E+00 -0.64476465416E+02  0.64476465416E+02  0.00000000000E+00 0.  1.
         23    2    1    2    0    0 -0.53177338485E+02  0.13482498364E+03  0.81140983967E+02  0.18890694827E+03  0.89979832653E+02 0.  0.
         24    2    1    2    0    0  0.52519242064E+02 -0.11200269587E+03  0.60450038893E+03  0.62266281769E+03  0.83578643459E+02 0.  0.
        -11    1    4    4    0    0  0.51903089390E+02 -0.45996584495E+02  0.17709214575E+03  0.19018739327E+03  0.00000000000E+00 0.  1.
         12    1    4    4    0    0  0.61615267452E+00 -0.66006111372E+02  0.42740824318E+03  0.43247542442E+03  0.00000000000E+00 0. -1.
        -11    1    3    3    0    0 -0.48064145445E+02  0.96238010715E+02  0.98896085512E+02  0.14612444188E+03  0.00000000000E+00 0. -1.
         11    1    3    3    0    0 -0.51131930398E+01  0.38586972930E+02 -0.17755101545E+02  0.42782506400E+02  0.00000000000E+00 0.  1.
         21    1    1    2  502  501  0.65809642050E+00 -0.22822287778E+02  0.84664520808E+02  0.87689058576E+02  0.00000000000E+00 0. -1.
<scales pt_clust_5="13000.00000" pt_clust_6="13000.00000" pt_clust_7="13000.00000" pt_clust_8="13000.00000" pt_clust_9="22.83177"></scales>
<clustering>
<clus scale="   22.832">  1  9  2 -1</clus>
<clus scale="   83.579">  5  6 -1 -1</clus>
<clus scale="   89.980">  7  8 -1 -1</clus>
<clus scale="  163.968">  1  5  2 -1</clus>
<clus scale="   22.832">  1  5  2 -1</clus>
</clustering>
</event>
<event>
 9    2  0.3791909E-005  0.1120326E+03  0.7546771E-02  0.1262987E+00
         -1   -1    0    0    0  501 -0.00000000000E+00  0.00000000000E+00  0.91276057968E+02  0.91276057968E+02  0.00000000000E+00 0.  1.
          2   -1    0    0  502    0  0.00000000000E+00 -0.00000000000E+00 -0.22996744673E+03  0.22996744673E+03  0.00000000000E+00 0. -1.
         24    2    1    2    0    0  0.31033624948E+02  0.31613587968E+02 -0.30095586985E+02  0.92861265998E+02  0.75861489210E+02 0.  0.
         23    2    1    2    0    0 -0.76064824149E+02 -0.47664826583E+02 -0.23236646742E+02  0.13054749788E+03  0.91896214749E+02 0.  0.
        -11    1    3    3    0    0 -0.25368357708E+02  0.12269845896E+02 -0.83164572567E+01  0.29381391261E+02  0.00000000000E+00 0.  1.
         12    1    3    3    0    0  0.56401982656E+02  0.19343742072E+02 -0.21779129728E+02  0.63479874737E+02  0.00000000000E+00 0. -1.
        -11    1    4    4    0    0 -0.25215333453E+02 -0.24962396828E+02  0.35092497450E+02  0.49904084741E+02  0.00000000000E+00 0.  1.
         11    1    4    4    0    0 -0.50849490697E+02 -0.22702429755E+02 -0.58329144192E+02  0.80643413141E+02  0.00000000000E+00 0. -1.
         21    1    1    2  502  501  0.45031199201E+02  0.16051238615E+02 -0.85359155037E+02  0.97834740820E+02  0.00000000000E+00 0. -1.
<scales pt_clust_5="13000.00000" pt_clust_6="13000.00000" pt_clust_7="13000.00000" pt_clust_8="13000.00000" pt_clust_9="47.80639"></scales>
<clustering>
<clus scale="   47.806">  2  9  1 -1</clus>
<clus scale="   75.861">  5  6 -1 -1</clus>
<clus scale="   91.896">  7  8 -1 -1</clus>
<clus scale="   99.304">  1  5  2 -1</clus>
<clus scale="   47.806">  2  5  1 -1</clus>
</clustering>
</event>
<event>
 9    2  0.3791909E-005  0.1113899E+03  0.7546771E-02  0.1263408E+00
         -1   -1    0    0    0  501 -0.00000000000E+00  0.00000000000E+00  0.32353018103E+03  0.32353018103E+03  0.00000000000E+00 0.  1.
          2   -1    0    0  502    0  0.00000000000E+00 -0.00000000000E+00 -0.79296244765E+02  0.79296244765E+02  0.00000000000E+00 0. -1.
         24    2    1    2    0    0 -0.63535734445E+02  0.20626444488E+02  0.22137281947E+03  0.24495162848E+03  0.80827812846E+02 0.  0.
         23    2    1    2    0    0  0.37232460882E+02  0.24160498494E+02  0.14341107351E+02  0.10524093918E+03  0.94339822385E+02 0.  0.
        -11    1    3    3    0    0 -0.34875901981E+02  0.51010695072E+02  0.11271116966E+03  0.12853881639E+03  0.00000000000E+00 0.  1.
         12    1    3    3    0    0 -0.28659832464E+02 -0.30384250584E+02  0.10866164981E+03  0.11641281209E+03  0.00000000000E+00 0. -1.
        -13    1    4    4    0    0  0.42280043815E+02 -0.25200967546E+02 -0.95998706837E+01  0.50148264051E+02  0.00000000000E+00 0. -1.
         13    1    4    4    0    0 -0.50475829327E+01  0.49361466040E+02  0.23940978034E+02  0.55092675124E+02  0.00000000000E+00 0.  1.
         21    1    1    2  502  501  0.26303273563E+02 -0.44786942983E+02  0.85200094415E+01  0.52633858141E+02  0.00000000000E+00 0. -1.
<scales pt_clust_5="13000.00000" pt_clust_6="13000.00000" pt_clust_7="13000.00000" pt_clust_8="13000.00000" pt_clust_9="51.93970"></scales>
<clustering>
<clus scale="   51.940">  2  9  1 -1</clus>
<clus scale="   80.828">  5  6 -1 -1</clus>
<clus scale="   94.340">  7  8 -1 -1</clus>
<clus scale="  100.204">  1  5  2 -1</clus>
<clus scale="   51.940">  2  5  1 -1</clus>
</clustering>
</event>
<event>
 9    2  0.3791909E-005  0.1498374E+03  0.7546771E-02  0.1203195E+00
         -1   -1    0    0    0  501 -0.00000000000E+00  0.00000000000E+00  0.95357050459E+02  0.95357050459E+02  0.00000000000E+00 0.  1.
          2   -1    0    0  502    0  0.00000000000E+00 -0.00000000000E+00 -0.27420564034E+03  0.27420564034E+03  0.00000000000E+00 0. -1.
         24    2    1    2    0    0  0.54118471055E+02 -0.89260759265E+02 -0.77221229455E+02  0.15243694902E+03  0.79859959275E+02 0.  0.
         23    2    1    2    0    0 -0.71265939775E+02  0.10991696762E+03 -0.69314149597E+02  0.17511552610E+03  0.93276053757E+02 0.  0.
        -11    1    3    3    0    0  0.60099717688E+02 -0.41285149899E+02 -0.74148320870E+02  0.10399237066E+03  0.00000000000E+00 0.  1.
         12    1    3    3    0    0 -0.59812466339E+01 -0.47975609366E+02 -0.30729085850E+01  0.48444578360E+02  0.00000000000E+00 0. -1.
        -11    1    4    4    0    0 -0.49059291362E+02  0.12051068520E+02 -0.53397548436E+02  0.73507417996E+02  0.00000000000E+00 0. -1.
         11    1    4    4    0    0 -0.22206648413E+02  0.97865899097E+02 -0.15916601161E+02  0.10160810810E+03  0.00000000000E+00 0.  1.
         21    1    1    2  502  501  0.17147468720E+02 -0.20656208353E+02 -0.32313210826E+02  0.42010215673E+02  0.00000000000E+00 0. -1.
<scales pt_clust_5="13000.00000" pt_clust_6="13000.00000" pt_clust_7="13000.00000" pt_clust_8="13000.00000" pt_clust_9="26.84613"></scales>
<clustering>
<clus scale="   26.846">  2  9  1 -1</clus>
<clus scale="   79.860">  5  6 -1 -1</clus>
<clus scale="   93.276">  7  8 -1 -1</clus>
<clus scale="  141.875">  1  5  2 -1</clus>
<clus scale="   26.846">  2  5  1 -1</clus>
</clustering>
</event>
<event>
 9    2  0.3791909E-005  0.8737880E+02  0.7546771E-02  0.1314734E+00
         -1   -1    0    0    0  501 -0.00000000000E+00  0.00000000000E+00  0.13340036081E+03  0.13340036081E+03  0.00000000000E+00 0.  1.
          2   -1    0    0  502    0  0.00000000000E+00 -0.00000000000E+00 -0.10902429866E+03  0.10902429866E+03  0.00000000000E+00 0. -1.
         23    2    1    2    0    0 -0.16253247516E+02 -0.26379821394E+02  0.80164382600E+02  0.11264164798E+03  0.72813114144E+02 0.  0.
         24    2    1    2    0    0  0.38260908979E+02  0.12091788336E+02 -0.42601135605E+02  0.10041658685E+03  0.81599789571E+02 0.  0.
        -13    1    4    4    0    0  0.63922730372E+02  0.11315856826E+02 -0.26534737158E+02  0.70130281262E+02  0.00000000000E+00 0.  1.
         14    1    4    4    0    0 -0.25661821393E+02  0.77593151015E+00 -0.16066398447E+02  0.30286305584E+02  0.00000000000E+00 0. -1.
        -13    1    3    3    0    0  0.14595143950E+02  0.17341379881E+02  0.10996796136E+02  0.25192681643E+02  0.00000000000E+00 0. -1.
         13    1    3    3    0    0 -0.30848391466E+02 -0.43721201275E+02  0.69167586463E+02  0.87448966341E+02  0.00000000000E+00 0.  1.
         21    1    1    2  502  501 -0.22007661463E+02  0.14288033058E+02 -0.13187184852E+02  0.29366424639E+02  0.00000000000E+00 0. -1.
<scales pt_clust_5="13000.00000" pt_clust_6="13000.00000" pt_clust_7="13000.00000" pt_clust_8="13000.00000" pt_clust_9="26.23900"></scales>
<clustering>
<clus scale="   26.239">  2  9  1 -1</clus>
<clus scale="   72.813">  7  8 -1 -1</clus>
<clus scale="   79.236">  1  7  2 -1</clus>
<clus scale="   81.600">  5  6 -1 -1</clus>
<clus scale="   26.239">  2  5  1 -1</clus>
</clustering>
</event>
<event>
 9    2  0.3791909E-005  0.1734764E+03  0.7546771E-02  0.1175629E+00
          2   -1    0    0  502    0  0.00000000000E+00  0.00000000000E+00  0.16971142616E+03  0.16971142616E+03  0.00000000000E+00 0. -1.
         -1   -1    0    0    0  501 -0.00000000000E+00 -0.00000000000E+00 -0.64037027841E+03  0.64037027841E+03  0.00000000000E+00 0.  1.
         24    2    1    2    0    0  0.14091474574E+03  0.43038105935E+02 -0.54228891956E+03  0.56764890347E+03  0.80241891813E+02 0.  0.
         23    2    1    2    0    0 -0.13240332963E+03 -0.85032565884E+02  0.32771353119E+02  0.18458836716E+03  0.90761912417E+02 0.  0.
        -11    1    3    3    0    0  0.10914300224E+03  0.66467241774E+02 -0.43220768048E+03  0.45070341494E+03  0.00000000000E+00 0.  1.
         12    1    3    3    0    0  0.31771743500E+02 -0.23429135839E+02 -0.11008123908E+03  0.11694548853E+03  0.00000000000E+00 0. -1.
        -11    1    4    4    0    0 -0.18802404366E+02 -0.61390013916E+02  0.22770423013E+02  0.68123097278E+02  0.00000000000E+00 0.  1.
         11    1    4    4    0    0 -0.11360092527E+03 -0.23642551968E+02  0.10000930107E+02  0.11646526988E+03  0.00000000000E+00 0. -1.
         21    1    1    2  502  501 -0.85114161091E+01  0.41994459949E+02  0.38858714188E+02  0.57844433950E+02  0.00000000000E+00 0.  1.
<scales pt_clust_5="13000.00000" pt_clust_6="13000.00000" pt_clust_7="13000.00000" pt_clust_8="13000.00000" pt_clust_9="42.84832"></scales>
<clustering>
<clus scale="   42.848">  1  9  2 -1</clus>
<clus scale="   80.242">  5  6 -1 -1</clus>
<clus scale="   90.762">  7  8 -1 -1</clus>
<clus scale="  168.211">  2  5  1 -1</clus>
<clus scale="   42.848">  1  5  2 -1</clus>
</clustering>
</event>
<event>
 9    2  0.3791909E-005  0.1014760E+03  0.7546771E-02  0.1288863E+00
         -1   -1    0    0    0  501 -0.00000000000E+00  0.00000000000E+00  0.51104851448E+02  0.51104851448E+02  0.00000000000E+00 0.  1.
          2   -1    0    0  502    0  0.00000000000E+00 -0.00000000000E+00 -0.25322748095E+03  0.25322748095E+03  0.00000000000E+00 0. -1.
         24    2    1    2    0    0 -0.95600464159E+01  0.13410514105E+02 -0.32462591989E+02  0.86296358743E+02  0.78243244294E+02 0.  0.
         23    2    1    2    0    0  0.36446045847E+01 -0.37749731594E+02 -0.10721600822E+03  0.15075561430E+03  0.98962909453E+02 0.  0.
        -11    1    3    3    0    0 -0.31643130594E+02  0.26251410759E+02  0.45055555616E+01  0.41360903176E+02  0.00000000000E+00 0.  1.
         12    1    3    3    0    0  0.22083084178E+02 -0.12840896654E+02 -0.36968147550E+02  0.44935455567E+02  0.00000000000E+00 0. -1.
        -13    1    4    4    0    0  0.28074001872E+02 -0.41213948826E+02 -0.11461746536E+03  0.12499561002E+03  0.00000000000E+00 0. -1.
         13    1    4    4    0    0 -0.24429397288E+02  0.34642172322E+01  0.74014571399E+01  0.25760004283E+02  0.00000000000E+00 0.  1.
         21    1    1    2  502  501  0.59154418312E+01  0.24339217489E+02 -0.62444029289E+02  0.67280359347E+02  0.00000000000E+00 0.  1.
<scales pt_clust_5="13000.00000" pt_clust_6="13000.00000" pt_clust_7="13000.00000" pt_clust_8="13000.00000" pt_clust_9="25.04775"></scales>
<clustering>
<clus scale="   25.048">  2  9  1 -1</clus>
<clus scale="   78.243">  5  6 -1 -1</clus>
<clus scale="   81.399">  1  5  2 -1</clus>
<clus scale="   98.963">  7  8 -1 -1</clus>
<clus scale="   25.048">  2  5  1 -1</clus>
</clustering>
</event>
<event>
 9    2  0.3791909E-005  0.1647759E+03  0.7546771E-02  0.1185139E+00
          2   -1    0    0  502    0  0.00000000000E+00  0.00000000000E+00  0.86011213613E+03  0.86011213613E+03  0.00000000000E+00 0. -1.
         -1   -1    0    0    0  501 -0.00000000000E+00 -0.00000000000E+00 -0.24841050852E+03  0.24841050852E+03  0.00000000000E+00 0.  1.
         23    2    1    2    0    0 -0.39277649149E+02  0.13180043893E+03 -0.21058659177E+03  0.26782114786E+03  0.92018287207E+02 0.  0.
         24    2    1    2    0    0  0.14404108627E+02 -0.11555724769E+03  0.73522389180E+03  0.74870839152E+03  0.80306466818E+02 0.  0.
        -11    1    4    4    0    0 -0.27071167003E+02 -0.84352854544E+02  0.42017309975E+03  0.42941085909E+03  0.00000000000E+00 0.  1.
         12    1    4    4    0    0  0.41475275630E+02 -0.31204393148E+02  0.31505079206E+03  0.31929753243E+03  0.00000000000E+00 0. -1.
        -11    1    3    3    0    0 -0.65508653991E+01  0.82405146475E+02 -0.18623868221E+03  0.20376056722E+03  0.00000000000E+00 0.  1.
         11    1    3    3    0    0 -0.32726783750E+02  0.49395292459E+02 -0.24347909564E+02  0.64060580640E+02  0.00000000000E+00 0. -1.
         21    1    1    2  502  501  0.24873540522E+02 -0.16243191242E+02  0.87064327581E+02  0.91993105269E+02  0.00000000000E+00 0. -1.
<scales pt_clust_5="13000.00000" pt_clust_6="13000.00000" pt_clust_7="13000.00000" pt_clust_8="13000.00000" pt_clust_9="29.70748"></scales>
<clustering>
<clus scale="   29.707">  1  9  2 -1</clus>
<clus scale="   80.306">  5  6 -1 -1</clus>
<clus scale="   92.018">  7  8 -1 -1</clus>
<clus scale="  158.533">  1  5  2 -1</clus>
<clus scale="   29.707">  1  5  2 -1</clus>
</clustering>
</event>
<event>
 9    2  0.3791909E-005  0.1406355E+03  0.7546771E-02  0.1213762E+00
          2   -1    0    0  502    0  0.00000000000E+00  0.00000000000E+00  0.45041878306E+03  0.45041878306E+03  0.00000000000E+00 0. -1.
         -1   -1    0    0    0  501 -0.00000000000E+00 -0.00000000000E+00 -0.65773609619E+02  0.65773609619E+02  0.00000000000E+00 0.  1.
         23    2    1    2    0    0  0.41679042924E+02  0.90386806677E+02  0.70599661747E+02  0.15219603371E+03  0.90952751465E+02 0.  0.
         24    2    1    2    0    0 -0.61236156425E+02 -0.11240383056E+03  0.27603438828E+03  0.31591231241E+03  0.84977159541E+02 0.  0.
        -13    1    4    4    0    0 -0.26372367769E+02  0.85523205371E+01  0.52506266147E+02  0.59376358536E+02  0.00000000000E+00 0.  1.
         14    1    4    4    0    0 -0.34863788656E+02 -0.12095615110E+03  0.22352812213E+03  0.25653595388E+03  0.00000000000E+00 0. -1.
        -13    1    3    3    0    0  0.93160128661E+01  0.86626735831E+02  0.15954013231E+02  0.88574883543E+02  0.00000000000E+00 0.  1.
         13    1    3    3    0    0  0.32363030058E+02  0.37600708460E+01  0.54645648516E+02  0.63621150171E+02  0.00000000000E+00 0. -1.
         21    1    1    2  502  501  0.19557113501E+02  0.22017023887E+02  0.38011123415E+02  0.48084046550E+02  0.00000000000E+00 0. -1.
<scales pt_clust_5="13000.00000" pt_clust_6="13000.00000" pt_clust_7="13000.00000" pt_clust_8="13000.00000" pt_clust_9="29.44877"></scales>
<clustering>
<clus scale="   29.449">  1  9  2 -1</clus>
<clus scale="   84.977">  5  6 -1 -1</clus>
<clus scale="   90.953">  7  8 -1 -1</clus>
<clus scale="  136.847">  1  5  2 -1</clus>
<clus scale="   29.449">  1  5  2 -1</clus>
</clustering>
</event>
<event>
 9    2  0.3791909E-005  0.1608949E+03  0.7546771E-02  0.1189619E+00
          2   -1    0    0  502    0  0.00000000000E+00  0.00000000000E+00  0.83570617712E+03  0.83570617712E+03  0.00000000000E+00 0. -1.
         -1   -1    0    0    0  501 -0.00000000000E+00 -0.00000000000E+00 -0.62033419327E+02  0.62033419327E+02  0.00000000000E+00 0.  1.
         24    2    1    2    0    0  0.86812141452E+02 -0.95513551263E+02  0.77550245201E+02  0.17081093140E+03  0.80642094313E+02 0.  0.
         23    2    1    2    0    0 -0.12015487468E+03  0.81458317003E+02  0.54830294964E+03  0.57474485953E+03  0.92859451122E+02 0.  0.
        -11    1    3    3    0    0  0.21067066341E+02 -0.30876962788E+02 -0.14905485949E+02  0.40241541056E+02  0.00000000000E+00 0.  1.
         12    1    3    3    0    0  0.65745075111E+02 -0.64636588476E+02  0.92455731150E+02  0.13056939034E+03  0.00000000000E+00 0. -1.
        -11    1    4    4    0    0 -0.29428404213E+02 -0.10030558590E+02  0.41707292995E+02  0.52020586013E+02  0.00000000000E+00 0.  1.
         11    1    4    4    0    0 -0.90726470469E+02  0.91488875593E+02  0.50659565664E+03  0.52272427352E+03  0.00000000000E+00 0. -1.
         21    1    1    2  502  501  0.33342733230E+02  0.14055234260E+02  0.14781956296E+03  0.15218380552E+03  0.00000000000E+00 0.  1.
<scales pt_clust_5="13000.00000" pt_clust_6="13000.00000" pt_clust_7="13000.00000" pt_clust_8="13000.00000" pt_clust_9="36.18408"></scales>
<clustering>
<clus scale="   36.184">  1  9  2 -1</clus>
<clus scale="   80.642">  5  6 -1 -1</clus>
<clus scale="   92.859">  7  8 -1 -1</clus>
<clus scale="  154.167">  2  5  1 -1</clus>
<clus scale="   36.184">  1  5  2 -1</clus>
</clustering>
</event>
<event>
 9    2  0.3791909E-005  0.9398360E+02  0.7546771E-02  0.1304085E+00
          2   -1    0    0  502    0  0.00000000000E+00  0.00000000000E+00  0.50252181592E+03  0.50252181592E+03  0.00000000000E+00 0. -1.
         -1   -1    0    0    0  501 -0.00000000000E+00 -0.00000000000E+00 -0.20023400828E+03  0.20023400828E+03  0.00000000000E+00 0.  1.
         24    2    1    2    0    0 -0.12850353291E+02 -0.14429176027E+02 -0.18225386892E+03  0.19805550787E+03  0.75074488082E+02 0.  0.
         23    2    1    2    0    0 -0.19710726289E+02 -0.39291291607E+01  0.25027683881E+03  0.26747201812E+03  0.92189118904E+02 0.  0.
        -13    1    3    3    0    0  0.93964609149E+01  0.21847676189E+02 -0.12195614181E+03  0.12425343037E+03  0.00000000000E+00 0.  1.
         14    1    3    3    0    0 -0.22246814206E+02 -0.36276852217E+02 -0.60297727104E+02  0.73802077497E+02  0.00000000000E+00 0. -1.
        -11    1    4    4    0    0  0.34375018062E+02  0.13009592943E+02  0.80727146578E+02  0.88700414711E+02  0.00000000000E+00 0. -1.
         11    1    4    4    0    0 -0.54085744351E+02 -0.16938722104E+02  0.16954969223E+03  0.17877160341E+03  0.00000000000E+00 0.  1.
         21    1    1    2  502  501  0.32561079580E+02  0.18358305188E+02  0.23426483775E+03  0.23722829822E+03  0.00000000000E+00 0. -1.
<scales pt_clust_5="13000.00000" pt_clust_6="13000.00000" pt_clust_7="13000.00000" pt_clust_8="13000.00000" pt_clust_9="37.37982"></scales>
<clustering>
<clus scale="   37.380">  1  9  2 -1</clus>
<clus scale="   75.074">  5  6 -1 -1</clus>
<clus scale="   77.267">  2  5  1 -1</clus>
<clus scale="   92.189">  7  8 -1 -1</clus>
<clus scale="   37.380">  1  5  2 -1</clus>
</clustering>
</event>
<event>
 9    2  0.3791909E-005  0.1035539E+03  0.7546771E-02  0.1274732E+00
         -1   -1    0    0    0  501 -0.00000000000E+00  0.00000000000E+00  0.83445220506E+02  0.83445220506E+02  0.00000000000E+00 0.  1.
          2   -1    0    0  502    0  0.00000000000E+00 -0.00000000000E+00 -0.23240947075E+03  0.23240947075E+03  0.00000000000E+00 0. -1.
         23    2    1    2    0    0  0.30471813717E+01  0.37706636426E+02  0.17918160589E+02  0.99816643760E+02  0.90615816212E+02 0.  0.
         24    2    1    2    0    0 -0.91413663011E+01 -0.61114632300E+02 -0.14184726151E+03  0.18122666915E+03  0.94360463935E+02 0.  0.
        -13    1    4    4    0    0  0.26498448383E+02 -0.68043188474E+02 -0.11437599178E+03  0.13569786572E+03  0.00000000000E+00 0.  1.
         14    1    4    4    0    0 -0.35639814684E+02  0.69285561739E+01 -0.27471269727E+02  0.45528803430E+02  0.00000000000E+00 0. -1.
        -13    1    3    3    0    0 -0.91176832756E+01 -0.22680721366E+02 -0.16270615701E+02  0.29364608039E+02  0.00000000000E+00 0. -1.
         13    1    3    3    0    0  0.12164864647E+02  0.60387357791E+02  0.34188776290E+02  0.70452035720E+02  0.00000000000E+00 0.  1.
         21    1    1    2  502  501  0.60941849293E+01  0.23407995875E+02 -0.25035149329E+02  0.34811378352E+02  0.00000000000E+00 0. -1.
<scales pt_clust_5="13000.00000" pt_clust_6="13000.00000" pt_clust_7="13000.00000" pt_clust_8="13000.00000" pt_clust_9="24.18829"></scales>
<clustering>
<clus scale="   24.188">  2  9  1 -1</clus>
<clus scale="   90.616">  7  8 -1 -1</clus>
<clus scale="   94.360">  5  6 -1 -1</clus>
<clus scale="  100.154">  1  7  2 -1</clus>
<clus scale="   24.188">  2  5  1 -1</clus>
</clustering>
</event>
<event>
 9    2  0.3791909E-005  0.1347970E+03  0.7546771E-02  0.1231651E+00
         -1   -1    0    0    0  501 -0.00000000000E+00  0.00000000000E+00  0.34883642352E+03  0.34883642352E+03  0.00000000000E+00 0.  1.
          2   -1    0    0  502    0  0.00000000000E+00 -0.00000000000E+00 -0.10813071520E+03  0.10813071520E+03  0.00000000000E+00 0. -1.
         24    2    1    2    0    0  0.24674131361E+02 -0.59392707761E+02  0.20701745369E+03  0.23108783784E+03  0.80056581068E+02 0.  0.
         23    2    1    2    0    0 -0.41032113633E+02  0.85882950643E+02  0.80721611942E+02  0.16947492824E+03  0.11465712846E+03 0.  0.
        -13    1    3    3    0    0  0.45097756716E+02 -0.62524329294E+02  0.18722478191E+03  0.20247522905E+03  0.00000000000E+00 0.  1.
         14    1    3    3    0    0 -0.20423625355E+02  0.31316215328E+01  0.19792671779E+02  0.28612608798E+02  0.00000000000E+00 0. -1.
        -13    1    4    4    0    0 -0.27284459234E+02  0.27512922986E+02  0.99384396994E+02  0.10667080675E+03  0.00000000000E+00 0.  1.
         13    1    4    4    0    0 -0.13747654399E+02  0.58370027657E+02 -0.18662785052E+02  0.62804121489E+02  0.00000000000E+00 0. -1.
         21    1    1    2  502  501  0.16357982272E+02 -0.26490242882E+02 -0.47033357311E+02  0.56404372631E+02  0.00000000000E+00 0. -1.
<scales pt_clust_5="13000.00000" pt_clust_6="13000.00000" pt_clust_7="13000.00000" pt_clust_8="13000.00000" pt_clust_9="31.13385"></scales>
<clustering>
<clus scale="   31.134">  2  9  1 -1</clus>
<clus scale="   80.057">  5  6 -1 -1</clus>
<clus scale="  106.925">  1  5  2 -1</clus>
<clus scale="  114.657">  7  8 -1 -1</clus>
<clus scale="   31.134">  2  5  1 -1</clus>
</clustering>
</event>
<event>
 9    2  0.3791909E-005  0.1793673E+03  0.7546771E-02  0.1168705E+00
         -1   -1    0    0    0  501 -0.00000000000E+00  0.00000000000E+00  0.22171081142E+03  0.22171081142E+03  0.00000000000E+00 0.  1.
          2   -1    0    0  502    0  0.00000000000E+00 -0.00000000000E+00 -0.44295680150E+03  0.44295680150E+03  0.00000000000E+00 0. -1.
         23    2    1    2    0    0  0.23839231076E+02  0.16732458797E+03  0.14947120059E+03  0.23899280905E+03  0.78804164189E+02 0.  0.
         24    2    1    2    0    0  0.83357403726E+01 -0.11517734077E+03 -0.20492808418E+03  0.24892472040E+03  0.81441342970E+02 0.  0.
        -13    1    4    4    0    0  0.36744055572E+02 -0.21047439539E+02 -0.72918468348E+02  0.84322140374E+02  0.00000000000E+00 0.  1.
         14    1    4    4    0    0 -0.28408315199E+02 -0.94129901232E+02 -0.13200961584E+03  0.16460258003E+03  0.00000000000E+00 0. -1.
        -13    1    3    3    0    0  0.19537547595E+02  0.10146989561E+02  0.45338228013E+02  0.50400715099E+02  0.00000000000E+00 0. -1.
         13    1    3    3    0    0  0.43016834814E+01  0.15717759841E+03  0.10413297258E+03  0.18859209395E+03  0.00000000000E+00 0.  1.
         21    1    1    2  502  501 -0.32174971449E+02 -0.52147247200E+02 -0.16578910648E+03  0.17675008347E+03  0.00000000000E+00 0. -1.
<scales pt_clust_5="13000.00000" pt_clust_6="13000.00000" pt_clust_7="13000.00000" pt_clust_8="13000.00000" pt_clust_9="61.27450"></scales>
<clustering>
<clus scale="   61.274">  2  9  1 -1</clus>
<clus scale="   78.804">  7  8 -1 -1</clus>
<clus scale="   81.441">  5  6 -1 -1</clus>
<clus scale="  178.185">  1  7  2 -1</clus>
<clus scale="   61.274">  2  5  1 -1</clus>
</clustering>
</event>
<event>
 9    2  0.3791909E-005  0.1014210E+03  0.7546771E-02  0.1283841E+00
         -1   -1    0    0    0  501 -0.00000000000E+00  0.00000000000E+00  0.36598600158E+03  0.36598600158E+03  0.00000000000E+00 0.  1.
          2   -1    0    0  502    0  0.00000000000E+00 -0.00000000000E+00 -0.63893067966E+02  0.63893067966E+02  0.00000000000E+00 0. -1.
         23    2    1    2    0    0 -0.80635710042E+00 -0.41500618941E+02  0.28395252981E+03  0.30090869590E+03  0.90521005847E+02 0.  0.
         24    2    1    2    0    0  0.24352012560E+01  0.66240055212E+02  0.21640588327E+02  0.10393152120E+03  0.77069909280E+02 0.  0.
        -11    1    4    4    0    0 -0.32069440917E+02  0.16089344533E+02  0.23738352270E+02  0.43021220540E+02  0.00000000000E+00 0.  1.
         12    1    4    4    0    0  0.34504642173E+02  0.50150710679E+02 -0.20977639435E+01  0.60910300661E+02  0.00000000000E+00 0. -1.
        -11    1    3    3    0    0  0.39891738023E+02 -0.13782908378E+00  0.14348740474E+03  0.14892953057E+03  0.00000000000E+00 0. -1.
         11    1    3    3    0    0 -0.40698095124E+02 -0.41362789857E+02  0.14046512507E+03  0.15197916533E+03  0.00000000000E+00 0.  1.
         21    1    1    2  502  501 -0.16288441556E+01 -0.24739436270E+02 -0.35001845185E+01  0.25038852448E+02  0.00000000000E+00 0.  1.
<scales pt_clust_5="13000.00000" pt_clust_6="13000.00000" pt_clust_7="13000.00000" pt_clust_8="13000.00000" pt_clust_9="24.79300"></scales>
<clustering>
<clus scale="   24.793">  2  9  1 -1</clus>
<clus scale="   77.070">  5  6 -1 -1</clus>
<clus scale="   89.621">  2  5  1 -1</clus>
<clus scale="   90.521">  7  8 -1 -1</clus>
<clus scale="   24.793">  2  5  1 -1</clus>
</clustering>
</event>
<event>
 9    2  0.3791909E-005  0.9894683E+02  0.7546771E-02  0.1288089E+00
         -1   -1    0    0    0  501 -0.00000000000E+00  0.00000000000E+00  0.16977467001E+03  0.16977467001E+03  0.00000000000E+00 0.  1.
          2   -1    0    0  502    0  0.00000000000E+00 -0.00000000000E+00 -0.47375754921E+03  0.47375754921E+03  0.00000000000E+00 0. -1.
         23    2    1    2    0    0  0.25116646092E+02  0.30455173912E+02  0.14417214412E+03  0.17530249772E+03  0.91580538529E+02 0.  0.
         24    2    1    2    0    0 -0.23931934780E+02  0.18560790022E+02 -0.27091906779E+03  0.28433694786E+03  0.80827706869E+02 0.  0.
        -13    1    4    4    0    0 -0.18080474238E+00  0.20892155391E+02 -0.11551373419E+02  0.23873606244E+02  0.00000000000E+00 0.  1.
         14    1    4    4    0    0 -0.23751130038E+02 -0.23313653683E+01 -0.25936769438E+03  0.26046334162E+03  0.00000000000E+00 0. -1.
        -11    1    3    3    0    0 -0.34607149339E+02  0.11265070998E+02  0.62429765095E+02  0.72263629716E+02  0.00000000000E+00 0.  1.
         11    1    3    3    0    0  0.59723795431E+02  0.19190102914E+02  0.81742379027E+02  0.10303886800E+03  0.00000000000E+00 0. -1.
         21    1    1    2  502  501 -0.11847113121E+01 -0.49015963934E+02 -0.17723595553E+03  0.18389277363E+03  0.00000000000E+00 0.  1.
<scales pt_clust_5="13000.00000" pt_clust_6="13000.00000" pt_clust_7="13000.00000" pt_clust_8="13000.00000" pt_clust_9="49.03028"></scales>
<clustering>
<clus scale="   49.030">  2  9  1 -1</clus>
<clus scale="   80.828">  5  6 -1 -1</clus>
<clus scale="   89.088">  2  5  1 -1</clus>
<clus scale="   91.581">  7  8 -1 -1</clus>
<clus scale="   49.030">  2  5  1 -1</clus>
</clustering>
</event>
<event>
 9    2  0.3791909E-005  0.1085832E+03  0.7546771E-02  0.1268220E+00
         -1   -1    0    0    0  501 -0.00000000000E+00  0.00000000000E+00  0.27844185361E+02  0.27844185361E+02  0.00000000000E+00 0.  1.
          2   -1    0    0  502    0  0.00000000000E+00 -0.00000000000E+00 -0.97824254686E+03  0.97824254686E+03  0.00000000000E+00 0. -1.
         24    2    1    2    0    0  0.51777253202E+02 -0.16581318725E+02 -0.10318710272E+03  0.14250213714E+03  0.81874641009E+02 0.  0.
         23    2    1    2    0    0 -0.64269855622E+02 -0.27918533311E+02 -0.51249457377E+03  0.52569177011E+03  0.93760813649E+02 0.  0.
        -13    1    3    3    0    0  0.57505191329E+02  0.11262801297E+01 -0.26030023906E+02  0.63132223794E+02  0.00000000000E+00 0.  1.
         14    1    3    3    0    0 -0.57279381269E+01 -0.17707598855E+02 -0.77157078817E+02  0.79369913342E+02  0.00000000000E+00 0. -1.
        -13    1    4    4    0    0 -0.40947067694E+02 -0.57448969852E+02 -0.41918736328E+03  0.42508245320E+03  0.00000000000E+00 0.  1.
         13    1    4    4    0    0 -0.23322787928E+02  0.29530436541E+02 -0.93307210496E+02  0.10060931691E+03  0.00000000000E+00 0. -1.
         21    1    1    2  502  501  0.12492602421E+02  0.44499852036E+02 -0.33471668500E+03  0.33789282497E+03  0.00000000000E+00 0.  1.
<scales pt_clust_5="13000.00000" pt_clust_6="13000.00000" pt_clust_7="13000.00000" pt_clust_8="13000.00000" pt_clust_9="46.22015"></scales>
<clustering>
<clus scale="   46.220">  2  9  1 -1</clus>
<clus scale="   81.875">  5  6 -1 -1</clus>
<clus scale="   93.761">  7  8 -1 -1</clus>
<clus scale="   98.502">  1  5  2 -1</clus>
<clus scale="   46.220">  2  5  1 -1</clus>
</clustering>
</event>
<event>
 9    2  0.3791909E-005  0.2838666E+03  0.7546771E-02  0.1093904E+00
         -1   -1    0    0    0  501 -0.00000000000E+00  0.00000000000E+00  0.15835439191E+03  0.15835439191E+03  0.00000000000E+00 0.  1.
          2   -1    0    0  502    0  0.00000000000E+00 -0.00000000000E+00 -0.62877952360E+03  0.62877952360E+03  0.00000000000E+00 0. -1.
         24    2    1    2    0    0 -0.79967526020E+02 -0.27925222807E+03 -0.24581918870E+03  0.39049525298E+03  0.87651907956E+02 0.  0.
         23    2    1    2    0    0  0.10636726267E+03  0.22365649962E+03 -0.18770397786E+03  0.32487804555E+03  0.94745642574E+02 0.  0.
        -13    1    3    3    0    0 -0.11471505242E+02 -0.17352409181E+03 -0.11276018994E+03  0.20726086535E+03  0.00000000000E+00 0.  1.
         14    1    3    3    0    0 -0.68496020779E+02 -0.10572813626E+03 -0.13305899876E+03  0.18323438763E+03  0.00000000000E+00 0. -1.
        -11    1    4    4    0    0  0.67850289869E+02  0.14418308090E+03 -0.61421003534E+02  0.17077752290E+03  0.00000000000E+00 0.  1.
         11    1    4    4    0    0  0.38516972806E+02  0.79473418721E+02 -0.12628297432E+03  0.15410052265E+03  0.00000000000E+00 0. -1.
         21    1    1    2  502  501 -0.26399736654E+02  0.55595728447E+02 -0.36901965136E+02  0.71760616970E+02  0.00000000000E+00 0.  1.
<scales pt_clust_5="13000.00000" pt_clust_6="13000.00000" pt_clust_7="13000.00000" pt_clust_8="13000.00000" pt_clust_9="61.54536"></scales>
<clustering>
<clus scale="   61.545">  1  9  2 -1</clus>
<clus scale="   87.652">  5  6 -1 -1</clus>
<clus scale="   94.746">  7  8 -1 -1</clus>
<clus scale="  281.578">  1  5  2 -1</clus>
<clus scale="  283.867">  2  5  1 -1</clus>
</clustering>
</event>
<event>
 9    2  0.3791909E-005  0.9910240E+02  0.7546771E-02  0.1288583E+00
         -3   -1    0    0    0  501 -0.00000000000E+00  0.00000000000E+00  0.16929010461E+03  0.16929010461E+03  0.00000000000E+00 0.  1.
          4   -1    0    0  502    0  0.00000000000E+00 -0.00000000000E+00 -0.17750852476E+03  0.17750852476E+03  0.00000000000E+00 0. -1.
         24    2    1    2    0    0  0.33188054573E+02 -0.17079853661E+02  0.11478730472E+03  0.14477605023E+03  0.79942548297E+02 0.  0.
         23    2    1    2    0    0 -0.24494874278E+01  0.51184206139E+02 -0.11388925537E+03  0.15521364426E+03  0.92166642165E+02 0.  0.
        -13    1    3    3    0    0 -0.25704901783E+02 -0.92328622135E+01  0.24483432683E+02  0.36680051748E+02  0.00000000000E+00 0.  1.
         14    1    3    3    0    0  0.58892956356E+02 -0.78469914474E+01  0.90303872041E+02  0.10809599849E+03  0.00000000000E+00 0. -1.
        -13    1    4    4    0    0 -0.20446645363E+02  0.32515764875E+02 -0.51183775841E-03  0.38410158451E+02  0.00000000000E+00 0.  1.
         13    1    4    4    0    0  0.17997157935E+02  0.18668441264E+02 -0.11388874353E+03  0.11680348581E+03  0.00000000000E+00 0. -1.
         21    1    1    2  502  501 -0.30738567145E+02 -0.34104352478E+02 -0.91164695069E+01  0.46808934878E+02  0.00000000000E+00 0.  1.
<scales pt_clust_5="13000.00000" pt_clust_6="13000.00000" pt_clust_7="13000.00000" pt_clust_8="13000.00000" pt_clust_9="45.91259"></scales>
<clustering>
<clus scale="   45.913">  2  9  1 -1</clus>
<clus scale="   79.943">  5  6 -1 -1</clus>
<clus scale="   87.849">  1  5  2 -1</clus>
<clus scale="   92.167">  7  8 -1 -1</clus>
<clus scale="   45.913">  2  5  1 -1</clus>
</clustering>
</event>
<event>
 9    2  0.3791909E-005  0.2935262E+03  0.7546771E-02  0.1088837E+00
          2   -1    0    0  502    0  0.00000000000E+00  0.00000000000E+00  0.68141640575E+03  0.68141640575E+03  0.00000000000E+00 0. -1.
         -1   -1    0    0    0  501 -0.00000000000E+00 -0.00000000000E+00 -0.22237667576E+03  0.22237667576E+03  0.00000000000E+00 0.  1.
         23    2    1    2    0    0 -0.13850455177E+03 -0.23713487371E+03 -0.49546710035E+02  0.29358237257E+03  0.91210053282E+02 0.  0.
         24    2    1    2    0    0  0.16425991723E+03  0.24833590858E+03  0.46611655252E+03  0.55929417550E+03  0.83025841250E+02 0.  0.
        -13    1    4    4    0    0  0.13472655362E+03  0.19544555513E+03  0.30051966832E+03  0.38296511632E+03  0.00000000000E+00 0.  1.
         14    1    4    4    0    0  0.29533363613E+02  0.52890353448E+02  0.16559688421E+03  0.17632905918E+03  0.00000000000E+00 0. -1.
        -11    1    3    3    0    0 -0.93360613609E+02 -0.21725179455E+03 -0.58153662617E+02  0.24350851090E+03  0.00000000000E+00 0.  1.
         11    1    3    3    0    0 -0.45143938161E+02 -0.19883079166E+02  0.86069525819E+01  0.50073861670E+02  0.00000000000E+00 0. -1.
         21    1    1    2  502  501 -0.25755365462E+02 -0.11201034867E+02  0.42469887508E+02  0.50916533435E+02  0.00000000000E+00 0. -1.
<scales pt_clust_5="13000.00000" pt_clust_6="13000.00000" pt_clust_7="13000.00000" pt_clust_8="13000.00000" pt_clust_9="28.08562"></scales>
<clustering>
<clus scale="   28.086">  1  9  2 -1</clus>
<clus scale="   83.026">  5  6 -1 -1</clus>
<clus scale="   91.210">  7  8 -1 -1</clus>
<clus scale="  291.087">  1  5  2 -1</clus>
<clus scale="   28.086">  1  5  2 -1</clus>
</clustering>
</event>
<event>
 9    2  0.3791909E-005  0.1043953E+03  0.7546771E-02  0.1275695E+00
          2   -1    0    0  502    0  0.00000000000E+00  0.00000000000E+00  0.37785768515E+03  0.37785768515E+03  0.00000000000E+00 0. -1.
         -1   -1    0    0    0  501 -0.00000000000E+00 -0.00000000000E+00 -0.60167611803E+02  0.60167611803E+02  0.00000000000E+00 0.  1.
         24    2    1    2    0    0  0.17023399542E+02 -0.11833283056E+02  0.12829806123E+02  0.84028625621E+02  0.80413825171E+02 0.  0.
         23    2    1    2    0    0 -0.38858520744E+01  0.64565945723E+02  0.26268321621E+03  0.28520544735E+03  0.90309545025E+02 0.  0.
        -11    1    3    3    0    0  0.45242817793E+02 -0.18801742168E+02 -0.60530798612E+01  0.49366566077E+02  0.00000000000E+00 0.  1.
         12    1    3    3    0    0 -0.28219418250E+02  0.69684591119E+01  0.18882885984E+02  0.34662059544E+02  0.00000000000E+00 0. -1.
        -11    1    4    4    0    0 -0.18990853071E+02  0.15227037695E+02  0.84160453720E+01  0.25755484795E+02  0.00000000000E+00 0.  1.
         11    1    4    4    0    0  0.15105000996E+02  0.49338908028E+02  0.25426717084E+03  0.25944996255E+03  0.00000000000E+00 0. -1.
         21    1    1    2  502  501 -0.13137547468E+02 -0.52732662667E+02  0.42177051008E+02  0.68791223983E+02  0.00000000000E+00 0.  1.
<scales pt_clust_5="13000.00000" pt_clust_6="13000.00000" pt_clust_7="13000.00000" pt_clust_8="13000.00000" pt_clust_9="54.34454"></scales>
<clustering>
<clus scale="   54.345">  2  9  1 -1</clus>
<clus scale="   80.414">  5  6 -1 -1</clus>
<clus scale="   90.310">  7  8 -1 -1</clus>
<clus scale="   95.963">  2  5  1 -1</clus>
<clus scale="  104.395">  1  5  2 -1</clus>
</clustering>
</event>
<event>
 9    2  0.3791909E-005  0.2044807E+03  0.7546771E-02  0.1171049E+00
          2   -1    0    0  502    0  0.00000000000E+00  0.00000000000E+00  0.17908487909E+04  0.17908487909E+04  0.00000000000E+00 0. -1.
         -1   -1    0    0    0  501 -0.00000000000E+00 -0.00000000000E+00 -0.90180324364E+02  0.90180324364E+02  0.00000000000E+00 0.  1.
         23    2    1    2    0    0  0.44263473250E+02  0.17444899182E+03  0.76692945725E+02  0.21532507653E+03  0.89952069720E+02 0.  0.
         24    2    1    2    0    0 -0.65213579730E+02  0.53700129310E+02  0.27954613881E+03  0.30189272787E+03  0.76528821706E+02 0.  0.
        -13    1    4    4    0    0 -0.40995503124E+02  0.68801385146E+02  0.15922065058E+03  0.17822872228E+03  0.00000000000E+00 0.  1.
         14    1    4    4    0    0 -0.24218076606E+02 -0.15101255836E+02  0.12032548823E+03  0.12366400559E+03  0.00000000000E+00 0. -1.
        -13    1    3    3    0    0 -0.74116049039E+01  0.11882729470E+03  0.20359407863E+02  0.12078643691E+03  0.00000000000E+00 0.  1.
         13    1    3    3    0    0  0.51675078154E+02  0.55621697120E+02  0.56333537862E+02  0.94538639618E+02  0.00000000000E+00 0. -1.
         21    1    1    2  502  501  0.20950106480E+02 -0.22814912113E+03  0.13444293821E+04  0.13638113109E+04  0.00000000000E+00 0. -1.
<scales pt_clust_5="13000.00000" pt_clust_6="13000.00000" pt_clust_7="13000.00000" pt_clust_8="13000.00000" pt_clust_9="183.63274"></scales>
<clustering>
<clus scale="   76.529">  5  6 -1 -1</clus>
<clus scale="   89.952">  7  8 -1 -1</clus>
<clus scale="  113.988">  1  5  2 -1</clus>
<clus scale="  183.633">  1  9  2 -1</clus>
<clus scale="  113.988">  1  5  2 -1</clus>
</clustering>
</event>
<event>
 9    2  0.3791909E-005  0.9176127E+02  0.7546771E-02  0.1306187E+00
          2   -1    0    0  502    0  0.00000000000E+00  0.00000000000E+00  0.46554464831E+03  0.46554464831E+03  0.00000000000E+00 0. -1.
         -1   -1    0    0    0  501 -0.00000000000E+00 -0.00000000000E+00 -0.27980145888E+02  0.27980145888E+02  0.00000000000E+00 0.  1.
         23    2    1    2    0    0 -0.41127655667E+01 -0.30958785733E+01  0.84980133996E+02  0.12498240889E+03  0.91501257108E+02 0.  0.
         24    2    1    2    0    0 -0.12438264504E+02  0.15203348624E+02  0.22817281511E+03  0.24245209216E+03  0.79588511776E+02 0.  0.
        -11    1    4    4    0    0 -0.16682286050E+02 -0.31166744704E+02  0.93814780322E+02  0.10025406550E+03  0.00000000000E+00 0.  1.
         12    1    4    4    0    0  0.42440215456E+01  0.46370093328E+02  0.13435803479E+03  0.14219802666E+03  0.00000000000E+00 0. -1.
        -13    1    3    3    0    0  0.21313433631E+01  0.38783347003E+02  0.70026168160E+02  0.80077180623E+02  0.00000000000E+00 0. -1.
         13    1    3    3    0    0 -0.62441089297E+01 -0.41879225576E+02  0.14953965836E+02  0.44905228264E+02  0.00000000000E+00 0.  1.
         21    1    1    2  502  501  0.16551030071E+02 -0.12107470050E+02  0.12441155332E+03  0.12609029315E+03  0.00000000000E+00 0. -1.
<scales pt_clust_5="13000.00000" pt_clust_6="13000.00000" pt_clust_7="13000.00000" pt_clust_8="13000.00000" pt_clust_9="20.50677"></scales>
<clustering>
<clus scale="   20.507">  1  9  2 -1</clus>
<clus scale="   79.589">  5  6 -1 -1</clus>
<clus scale="   79.887">  1  5  2 -1</clus>
<clus scale="   91.501">  7  8 -1 -1</clus>
<clus scale="   20.507">  1  5  2 -1</clus>
</clustering>
</event>
<event>
 9    2  0.3791909E-005  0.1190683E+03  0.7546771E-02  0.1249385E+00
         -1   -1    0    0    0  501 -0.00000000000E+00  0.00000000000E+00  0.33357662466E+03  0.33357662466E+03  0.00000000000E+00 0.  1.
          2   -1    0    0  502    0  0.00000000000E+00 -0.00000000000E+00 -0.13818873095E+03  0.13818873095E+03  0.00000000000E+00 0. -1.
         24    2    1    2    0    0  0.15129337082E+01  0.69205628074E+02  0.26089808107E+03  0.28175554817E+03  0.80787822670E+02 0.  0.
         23    2    1    2    0    0 -0.36633558160E+01 -0.10268523974E+03 -0.69686588010E+02  0.15620224860E+03  0.94790523168E+02 0.  0.
        -13    1    3    3    0    0 -0.19885683287E+01  0.75386519409E+02  0.26358485073E+03  0.27416063767E+03  0.00000000000E+00 0.  1.
         14    1    3    3    0    0  0.35015020369E+01 -0.61808913350E+01 -0.26867696635E+01  0.75949104955E+01  0.00000000000E+00 0. -1.
        -13    1    4    4    0    0 -0.28123978773E+02 -0.92035837009E+01 -0.49218577945E+02  0.57429370099E+02  0.00000000000E+00 0. -1.
         13    1    4    4    0    0  0.24460622957E+02 -0.93481656038E+02 -0.20468010065E+02  0.98772878500E+02  0.00000000000E+00 0.  1.
         21    1    1    2  502  501  0.21504221078E+01  0.33479611665E+02  0.41764006555E+01  0.33807558843E+02  0.00000000000E+00 0.  1.
<scales pt_clust_5="13000.00000" pt_clust_6="13000.00000" pt_clust_7="13000.00000" pt_clust_8="13000.00000" pt_clust_9="33.54860"></scales>
<clustering>
<clus scale="   33.549">  2  9  1 -1</clus>
<clus scale="   80.788">  5  6 -1 -1</clus>
<clus scale="   94.791">  7  8 -1 -1</clus>
<clus scale="  108.253">  1  5  2 -1</clus>
<clus scale="   33.549">  2  5  1 -1</clus>
</clustering>
</event>
<event>
 9    2  0.3791909E-005  0.9109618E+02  0.7546771E-02  0.1309335E+00
         -1   -1    0    0    0  501 -0.00000000000E+00  0.00000000000E+00  0.87633998152E+02  0.87633998152E+02  0.00000000000E+00 0.  1.
          2   -1    0    0  502    0  0.00000000000E+00 -0.00000000000E+00 -0.30797222677E+03  0.30797222677E+03  0.00000000000E+00 0. -1.
         23    2    1    2    0    0  0.40734931980E+01 -0.17276309868E+02  0.42853204945E+02  0.10173166307E+03  0.90542088926E+02 0.  0.
         24    2    1    2    0    0  0.24164291599E+01 -0.24461338976E+02 -0.11850430985E+03  0.14314794114E+03  0.76445178824E+02 0.  0.
        -13    1    4    4    0    0  0.10982194553E+02 -0.41871173043E+02 -0.30309022012E+02  0.52843547804E+02  0.00000000000E+00 0.  1.
         14    1    4    4    0    0 -0.85657653934E+01  0.17409834067E+02 -0.88195287839E+02  0.90304393338E+02  0.00000000000E+00 0. -1.
        -11    1    3    3    0    0  0.45047147115E+02  0.42153617707E+01  0.14703372373E+02  0.47573142604E+02  0.00000000000E+00 0. -1.
         11    1    3    3    0    0 -0.40973653917E+02 -0.21491671638E+02  0.28149832572E+02  0.54158520465E+02  0.00000000000E+00 0.  1.
         21    1    1    2  502  501 -0.64899223579E+01  0.41737648843E+02 -0.14468712371E+03  0.15072662071E+03  0.00000000000E+00 0. -1.
<scales pt_clust_5="13000.00000" pt_clust_6="13000.00000" pt_clust_7="13000.00000" pt_clust_8="13000.00000" pt_clust_9="42.23920"></scales>
<clustering>
<clus scale="   42.239">  2  9  1 -1</clus>
<clus scale="   76.445">  5  6 -1 -1</clus>
<clus scale="   77.101">  2  5  1 -1</clus>
<clus scale="   90.542">  7  8 -1 -1</clus>
<clus scale="   42.239">  2  5  1 -1</clus>
</clustering>
</event>
<event>
 9    2  0.3791909E-005  0.9616626E+02  0.7546771E-02  0.1293989E+00
          2   -1    0    0  502    0  0.00000000000E+00  0.00000000000E+00  0.13986135433E+03  0.13986135433E+03  0.00000000000E+00 0. -1.
         -1   -1    0    0    0  501 -0.00000000000E+00 -0.00000000000E+00 -0.38142985544E+03  0.38142985544E+03  0.00000000000E+00 0.  1.
         24    2    1    2    0    0  0.90330250879E+01  0.24944395946E+02 -0.25059985058E+03  0.26415990740E+03  0.79223438051E+02 0.  0.
         23    2    1    2    0    0 -0.45703273871E+02 -0.63562898266E+02 -0.87077874064E+02  0.14725373998E+03  0.89286485582E+02 0.  0.
        -11    1    3    3    0    0  0.35658831285E+02 -0.80669631019E+01 -0.16001462937E+03  0.16413808137E+03  0.00000000000E+00 0.  1.
         12    1    3    3    0    0 -0.26625806197E+02  0.33011359048E+02 -0.90585221209E+02  0.10002182603E+03  0.00000000000E+00 0. -1.
        -13    1    4    4    0    0 -0.61584324791E+02 -0.76163351614E+02 -0.77142613257E+02  0.12467745574E+03  0.00000000000E+00 0. -1.
         13    1    4    4    0    0  0.15881050919E+02  0.12600453347E+02 -0.99352608071E+01  0.22576284242E+02  0.00000000000E+00 0.  1.
         21    1    1    2  502  501  0.36670248783E+02  0.38618502320E+02  0.96109223539E+02  0.10987756239E+03  0.00000000000E+00 0.  1.
<scales pt_clust_5="13000.00000" pt_clust_6="13000.00000" pt_clust_7="13000.00000" pt_clust_8="13000.00000" pt_clust_9="53.25501"></scales>
<clustering>
<clus scale="   53.255">  1  9  2 -1</clus>
<clus scale="   79.223">  5  6 -1 -1</clus>
<clus scale="   86.904">  2  5  1 -1</clus>
<clus scale="   89.286">  7  8 -1 -1</clus>
<clus scale="   53.255">  1  5  2 -1</clus>
</clustering>
</event>
<event>
 9    2  0.3791909E-005  0.2304751E+03  0.7546771E-02  0.1126980E+00
          2   -1    0    0  502    0  0.00000000000E+00  0.00000000000E+00  0.27767938372E+03  0.27767938372E+03  0.00000000000E+00 0. -1.
         -1   -1    0    0    0  501 -0.00000000000E+00 -0.00000000000E+00 -0.33953439866E+03  0.33953439866E+03  0.00000000000E+00 0.  1.
         23    2    1    2    0    0 -0.24845221510E+03 -0.90016718742E+02 -0.52381725922E+01  0.27896878459E+03  0.89244784047E+02 0.  0.
         24    2    1    2    0    0  0.17898605738E+03 -0.26753060432E+02 -0.38991162822E+02  0.20123626458E+03  0.78892258345E+02 0.  0.
        -13    1    4    4    0    0  0.17812896992E+03 -0.40021669297E+02 -0.29589578120E+02  0.18495190475E+03  0.00000000000E+00 0.  1.
         14    1    4    4    0    0  0.85708745576E+00  0.13268608865E+02 -0.94015847022E+01  0.16284359829E+02  0.00000000000E+00 0. -1.
        -13    1    3    3    0    0 -0.10477632207E+03 -0.40775410620E+02 -0.46370184104E+02  0.12161786773E+03  0.00000000000E+00 0.  1.
         13    1    3    3    0    0 -0.14367589304E+03 -0.49241308122E+02  0.41132011512E+02  0.15735091686E+03  0.00000000000E+00 0. -1.
         21    1    1    2  502  501  0.69466157724E+02  0.11676977917E+03 -0.17625679534E+02  0.13700873321E+03  0.00000000000E+00 0. -1.
<scales pt_clust_5="13000.00000" pt_clust_6="13000.00000" pt_clust_7="13000.00000" pt_clust_8="13000.00000" pt_clust_9="135.87026"></scales>
<clustering>
<clus scale="   78.892">  5  6 -1 -1</clus>
<clus scale="   89.245">  7  8 -1 -1</clus>
<clus scale="  135.870">  2  9  1 -1</clus>
<clus scale="  226.667">  1  5  2 -1</clus>
<clus scale="  226.667">  1  5  2 -1</clus>
</clustering>
</event>
<event>
 9    2  0.3791909E-005  0.1881452E+03  0.7546771E-02  0.1161135E+00
         -1   -1    0    0    0  501 -0.00000000000E+00  0.00000000000E+00  0.79961494140E+02  0.79961494140E+02  0.00000000000E+00 0.  1.
          2   -1    0    0  502    0  0.00000000000E+00 -0.00000000000E+00 -0.62794257312E+03  0.62794257312E+03  0.00000000000E+00 0. -1.
         24    2    1    2    0    0 -0.58188569763E+02 -0.16015739394E+03 -0.16077285302E+03  0.24798014376E+03  0.81301543323E+02 0.  0.
         23    2    1    2    0    0  0.26609569085E+02  0.15766637086E+03 -0.20635631048E+03  0.27631876614E+03  0.90566991646E+02 0.  0.
        -13    1    3    3    0    0 -0.53164699787E+02 -0.36030484246E+02 -0.62039498116E+02  0.89294907050E+02  0.00000000000E+00 0.  1.
         14    1    3    3    0    0 -0.50238699755E+01 -0.12412690969E+03 -0.98733354905E+02  0.15868523671E+03  0.00000000000E+00 0. -1.
        -11    1    4    4    0    0  0.35629594295E+02  0.61761835397E+02 -0.14644242691E+03  0.16287841079E+03  0.00000000000E+00 0.  1.
         11    1    4    4    0    0 -0.90200252091E+01  0.95904535461E+02 -0.59913883574E+02  0.11344035535E+03  0.00000000000E+00 0. -1.
         21    1    1    2  502  501  0.31579000677E+02  0.24910230790E+01 -0.18085191547E+03  0.18360515736E+03  0.00000000000E+00 0. -1.
<scales pt_clust_5="13000.00000" pt_clust_6="13000.00000" pt_clust_7="13000.00000" pt_clust_8="13000.00000" pt_clust_9="31.67710"></scales>
<clustering>
<clus scale="   31.677">  2  9  1 -1</clus>
<clus scale="   81.302">  5  6 -1 -1</clus>
<clus scale="   90.567">  7  8 -1 -1</clus>
<clus scale="  183.865">  1  5  2 -1</clus>
<clus scale="   31.677">  2  5  1 -1</clus>
</clustering>
</event>
<event>
 9    2  0.3791909E-005  0.2397129E+03  0.7546771E-02  0.1120687E+00
         -1   -1    0    0    0  501 -0.00000000000E+00  0.00000000000E+00  0.34636989936E+03  0.34636989936E+03  0.00000000000E+00 0.  1.
          2   -1    0    0  502    0  0.00000000000E+00 -0.00000000000E+00 -0.38612104126E+03  0.38612104126E+03  0.00000000000E+00 0. -1.
         23    2    1    2    0    0 -0.36659764392E+02  0.24753947474E+03  0.20524168893E+03  0.33633206696E+03  0.91517094112E+02 0.  0.
         24    2    1    2    0    0 -0.13032176273E+02 -0.16549548447E+03 -0.70969564292E+02  0.19745154465E+03  0.79948986429E+02 0.  0.
        -11    1    4    4    0    0 -0.29225365315E+02 -0.14171758085E+03 -0.30632157573E+02  0.14790646969E+03  0.00000000000E+00 0.  1.
         12    1    4    4    0    0  0.16193189042E+02 -0.23777903624E+02 -0.40337406719E+02  0.49545074961E+02  0.00000000000E+00 0. -1.
        -13    1    3    3    0    0  0.20500014114E+01  0.21691423404E+03  0.17172792175E+03  0.27667032104E+03  0.00000000000E+00 0.  1.
         13    1    3    3    0    0 -0.38709765803E+02  0.30625240699E+02  0.33513767182E+02  0.59661745928E+02  0.00000000000E+00 0. -1.
         21    1    1    2  502  501  0.49691940665E+02 -0.82043990269E+02 -0.17402326653E+03  0.19870732901E+03  0.00000000000E+00 0. -1.
<scales pt_clust_5="13000.00000" pt_clust_6="13000.00000" pt_clust_7="13000.00000" pt_clust_8="13000.00000" pt_clust_9="95.91926"></scales>
<clustering>
<clus scale="   79.949">  5  6 -1 -1</clus>
<clus scale="   91.517">  7  8 -1 -1</clus>
<clus scale="   95.919">  2  9  1 -1</clus>
<clus scale="  235.539">  2  5  1 -1</clus>
<clus scale="   95.919">  2  5  1 -1</clus>
</clustering>
</event>
<event>
 9    2  0.3791909E-005  0.1615124E+03  0.7546771E-02  0.1192685E+00
         -1   -1    0    0    0  501 -0.00000000000E+00  0.00000000000E+00  0.12607896343E+03  0.12607896343E+03  0.00000000000E+00 0.  1.
          2   -1    0    0  502    0  0.00000000000E+00 -0.00000000000E+00 -0.86597985737E+03  0.86597985737E+03  0.00000000000E+00 0. -1.
         23    2    1    2    0    0  0.93019597645E+02 -0.79421087244E+02  0.59246712818E+02  0.17538814221E+03  0.11086240483E+03 0.  0.
         24    2    1    2    0    0 -0.50175348397E+02  0.41606076227E+02 -0.62076243702E+03  0.62935577386E+03  0.80585704165E+02 0.  0.
        -11    1    4    4    0    0 -0.20637748009E+02 -0.40753545200E+01 -0.33353142665E+02  0.39432946669E+02  0.00000000000E+00 0.  1.
         12    1    4    4    0    0 -0.29537600387E+02  0.45681430747E+02 -0.58740929435E+03  0.58992282720E+03  0.00000000000E+00 0. -1.
        -11    1    3    3    0    0 -0.24370871082E+02 -0.21057514725E+02  0.22327615083E+02  0.39190313586E+02  0.00000000000E+00 0. -1.
         11    1    3    3    0    0  0.11739046873E+03 -0.58363572519E+02  0.36919097735E+02  0.13619782863E+03  0.00000000000E+00 0.  1.
         21    1    1    2  502  501 -0.42844249249E+02  0.37815011017E+02 -0.17838516974E+03  0.18731490473E+03  0.00000000000E+00 0. -1.
<scales pt_clust_5="13000.00000" pt_clust_6="13000.00000" pt_clust_7="13000.00000" pt_clust_8="13000.00000" pt_clust_9="57.14547"></scales>
<clustering>
<clus scale="   57.145">  2  9  1 -1</clus>
<clus scale="   80.586">  5  6 -1 -1</clus>
<clus scale="  110.862">  7  8 -1 -1</clus>
<clus scale="  142.442">  2  5  1 -1</clus>
<clus scale="   57.145">  2  5  1 -1</clus>
</clustering>
</event>
<event>
 9    2  0.3791909E-005  0.1107243E+03  0.7546771E-02  0.1263662E+00
         -1   -1    0    0    0  501 -0.00000000000E+00  0.00000000000E+00  0.25646846403E+03  0.25646846403E+03  0.00000000000E+00 0.  1.
          2   -1    0    0  502    0  0.00000000000E+00 -0.00000000000E+00 -0.13741367872E+03  0.13741367872E+03  0.00000000000E+00 0. -1.
         24    2    1    2    0    0 -0.48012364038E+02  0.38012878694E+02  0.17762403883E+03  0.20427568404E+03  0.80175369508E+02 0.  0.
         23    2    1    2    0    0  0.34808435631E+02 -0.61141227642E+02  0.10147040662E+02  0.11590982828E+03  0.91554622760E+02 0.  0.
        -13    1    3    3    0    0 -0.33384605065E+02 -0.44309094720E+01  0.14479327879E+03  0.14865819317E+03  0.00000000000E+00 0.  1.
         14    1    3    3    0    0 -0.14627758973E+02  0.42443788166E+02  0.32830760035E+02  0.55617490872E+02  0.00000000000E+00 0. -1.
        -13    1    4    4    0    0  0.20959005144E+02  0.13035565021E+02  0.29049906457E+02  0.38119587054E+02  0.00000000000E+00 0.  1.
         13    1    4    4    0    0  0.13849430488E+02 -0.74176792662E+02 -0.18902865795E+02  0.77790241225E+02  0.00000000000E+00 0. -1.
         21    1    1    2  502  501  0.13203928406E+02  0.23128348948E+02 -0.68716294177E+02  0.73696630424E+02  0.00000000000E+00 0. -1.
<scales pt_clust_5="13000.00000" pt_clust_6="13000.00000" pt_clust_7="13000.00000" pt_clust_8="13000.00000" pt_clust_9="26.63202"></scales>
<clustering>
<clus scale="   26.632">  2  9  1 -1</clus>
<clus scale="   80.175">  5  6 -1 -1</clus>
<clus scale="   91.555">  7  8 -1 -1</clus>
<clus scale="  101.517">  1  5  2 -1</clus>
<clus scale="   26.632">  2  5  1 -1</clus>
</clustering>
</event>
<event>
 9    2  0.3791909E-005  0.9769715E+02  0.7546771E-02  0.1301326E+00
         -1   -1    0    0    0  501 -0.00000000000E+00  0.00000000000E+00  0.44013620058E+02  0.44013620058E+02  0.00000000000E+00 0.  1.
          2   -1    0    0  502    0  0.00000000000E+00 -0.00000000000E+00 -0.71068609927E+03  0.71068609927E+03  0.00000000000E+00 0. -1.
         23    2    1    2    0    0  0.22623568865E+02 -0.24902243874E+02 -0.20658995164E+02  0.99240080292E+02  0.91048623477E+02 0.  0.
         24    2    1    2    0    0 -0.19021653723E+02  0.51055872567E+02 -0.52702590304E+03  0.53357842424E+03  0.63096013365E+02 0.  0.
        -13    1    4    4    0    0  0.54125442798E+01  0.52737818932E+02 -0.25502730885E+03  0.26047936856E+03  0.00000000000E+00 0.  1.
         14    1    4    4    0    0 -0.24434198003E+02 -0.16819463654E+01 -0.27199859419E+03  0.27309905569E+03  0.00000000000E+00 0. -1.
        -11    1    3    3    0    0 -0.22139544143E+01 -0.55928880496E+02 -0.20162319615E+02  0.59493364336E+02  0.00000000000E+00 0.  1.
         11    1    3    3    0    0  0.24837523279E+02  0.31026636622E+02 -0.49667554824E+00  0.39746715957E+02  0.00000000000E+00 0. -1.
         21    1    1    2  502  501 -0.36019151425E+01 -0.26153628692E+02 -0.11898758100E+03  0.12188121479E+03  0.00000000000E+00 0. -1.
<scales pt_clust_5="13000.00000" pt_clust_6="13000.00000" pt_clust_7="13000.00000" pt_clust_8="13000.00000" pt_clust_9="26.40049"></scales>
<clustering>
<clus scale="   26.400">  2  9  1 -1</clus>
<clus scale="   63.096">  5  6 -1 -1</clus>
<clus scale="   72.360">  2  5  1 -1</clus>
<clus scale="   91.049">  7  8 -1 -1</clus>
<clus scale="   26.400">  2  5  1 -1</clus>
</clustering>
</event>
<event>
 9    2  0.3791909E-005  0.1200186E+03  0.7546771E-02  0.1245641E+00
          4   -1    0    0  502    0  0.00000000000E+00  0.00000000000E+00  0.18310632964E+03  0.18310632964E+03  0.00000000000E+00 0. -1.
         -3   -1    0    0    0  501 -0.00000000000E+00 -0.00000000000E+00 -0.13450163640E+03  0.13450163640E+03  0.00000000000E+00 0.  1.
         23    2    1    2    0    0  0.63966460440E+02 -0.39250289943E+02 -0.60894269455E+02  0.13185193992E+03  0.89691296603E+02 0.  0.
         24    2    1    2    0    0 -0.76320126972E+02  0.55944011740E+02  0.75366968331E+02  0.14580247230E+03  0.81386035547E+02 0.  0.
        -13    1    4    4    0    0 -0.69288286728E+02  0.48905736313E+02  0.16876994758E+02  0.86472369425E+02  0.00000000000E+00 0.  1.
         14    1    4    4    0    0 -0.70318402441E+01  0.70382754270E+01  0.58489973573E+02  0.59330102872E+02  0.00000000000E+00 0. -1.
        -11    1    3    3    0    0  0.76513261991E+02 -0.55528631299E+02 -0.58463534505E+02  0.11115616502E+03  0.00000000000E+00 0.  1.
         11    1    3    3    0    0 -0.12546801551E+02  0.16278341355E+02 -0.24307349501E+01  0.20695774903E+02  0.00000000000E+00 0. -1.
         21    1    1    2  502  501  0.12353666532E+02 -0.16693721797E+02  0.34131994367E+02  0.39953553830E+02  0.00000000000E+00 0. -1.
<scales pt_clust_5="13000.00000" pt_clust_6="13000.00000" pt_clust_7="13000.00000" pt_clust_8="13000.00000" pt_clust_9="20.76761"></scales>
<clustering>
<clus scale="   20.768">  1  9  2 -1</clus>
<clus scale="   81.386">  5  6 -1 -1</clus>
<clus scale="   89.691">  7  8 -1 -1</clus>
<clus scale="  113.946">  1  5  2 -1</clus>
<clus scale="   20.768">  1  5  2 -1</clus>
</clustering>
</event>
<event>
 9    2  0.3791909E-005  0.1636693E+03  0.7546771E-02  0.1185662E+00
          2   -1    0    0  502    0  0.00000000000E+00  0.00000000000E+00  0.13172851358E+04  0.13172851358E+04  0.00000000000E+00 0. -1.
         -1   -1    0    0    0  501 -0.00000000000E+00 -0.00000000000E+00 -0.26236470289E+02  0.26236470289E+02  0.00000000000E+00 0.  1.
         24    2    1    2    0    0 -0.59975120545E+02  0.10308297818E+03  0.51626383211E+03  0.53636175251E+03  0.83261454085E+02 0.  0.
         23    2    1    2    0    0  0.99595784961E+02 -0.12274321257E+03  0.61732644735E+03  0.64360721616E+03  0.90294459925E+02 0.  0.
        -11    1    3    3    0    0 -0.60391766948E+02  0.38885805894E+02  0.17596788187E+03  0.19006306024E+03  0.00000000000E+00 0.  1.
         12    1    3    3    0    0  0.41664640321E+00  0.64197172287E+02  0.34029595024E+03  0.34629869227E+03  0.00000000000E+00 0. -1.
        -11    1    4    4    0    0  0.35589402143E+02 -0.48225662291E+02  0.96502847794E+02  0.11360070282E+03  0.00000000000E+00 0. -1.
         11    1    4    4    0    0  0.64006382818E+02 -0.74517550283E+02  0.52082359955E+03  0.53000651335E+03  0.00000000000E+00 0.  1.
         21    1    1    2  502  501 -0.39620664416E+02  0.19660234392E+02  0.15745838604E+03  0.16355263739E+03  0.00000000000E+00 0.  1.
<scales pt_clust_5="13000.00000" pt_clust_6="13000.00000" pt_clust_7="13000.00000" pt_clust_8="13000.00000" pt_clust_9="44.23033"></scales>
<clustering>
<clus scale="   44.230">  1  9  2 -1</clus>
<clus scale="   83.261">  5  6 -1 -1</clus>
<clus scale="   90.294">  7  8 -1 -1</clus>
<clus scale="  159.897">  2  5  1 -1</clus>
<clus scale="   44.230">  1  5  2 -1</clus>
</clustering>
</event>
<event>
 9    2  0.3791909E-005  0.9203309E+02  0.7546771E-02  0.1303864E+00
         -1   -1    0    0    0  501 -0.00000000000E+00  0.00000000000E+00  0.57198157508E+02  0.57198157508E+02  0.00000000000E+00 0.  1.
          2   -1    0    0  502    0  0.00000000000E+00 -0.00000000000E+00 -0.34841861171E+03  0.34841861171E+03  0.00000000000E+00 0. -1.
         24    2    1    2    0    0 -0.22771328490E+02  0.15860410539E+02 -0.48045647403E+01  0.85567727137E+02  0.80800161271E+02 0.  0.
         23    2    1    2    0    0  0.81973647956E+01  0.19559098092E+02 -0.25197442485E+03  0.26854024192E+03  0.90404621811E+02 0.  0.
        -13    1    3    3    0    0 -0.37812875753E+02  0.35648450704E+02  0.14661884413E+02  0.53996263435E+02  0.00000000000E+00 0.  1.
         14    1    3    3    0    0  0.15041547263E+02 -0.19788040166E+02 -0.19466449154E+02  0.31571463703E+02  0.00000000000E+00 0. -1.
        -11    1    4    4    0    0  0.16780169195E+02  0.51901507150E+02 -0.19480842742E+03  0.20230092416E+03  0.00000000000E+00 0. -1.
         11    1    4    4    0    0 -0.85828043995E+01 -0.32342409058E+02 -0.57165997422E+02  0.66239317753E+02  0.00000000000E+00 0.  1.
         21    1    1    2  502  501  0.14573963694E+02 -0.35419508630E+02 -0.34441464612E+02  0.51508800161E+02  0.00000000000E+00 0.  1.
<scales pt_clust_5="13000.00000" pt_clust_6="13000.00000" pt_clust_7="13000.00000" pt_clust_8="13000.00000" pt_clust_9="38.30068"></scales>
<clustering>
<clus scale="   38.301">  1  9  2 -1</clus>
<clus scale="   80.800">  5  6 -1 -1</clus>
<clus scale="   82.618">  1  5  2 -1</clus>
<clus scale="   90.405">  7  8 -1 -1</clus>
<clus scale="   92.033">  2  5  1 -1</clus>
</clustering>
</event>
<event>
 9    2  0.3791909E-005  0.1815861E+03  0.7546771E-02  0.1167974E+00
         -1   -1    0    0    0  501 -0.00000000000E+00  0.00000000000E+00  0.94156042570E+02  0.94156042570E+02  0.00000000000E+00 0.  1.
          2   -1    0    0  502    0  0.00000000000E+00 -0.00000000000E+00 -0.60441858031E+03  0.60441858031E+03  0.00000000000E+00 0. -1.
         24    2    1    2    0    0 -0.14254101539E+03 -0.16470145367E+02 -0.85701050739E+02  0.18414883789E+03  0.77310527355E+02 0.  0.
         23    2    1    2    0    0  0.19160518963E+03 -0.38742959325E+02 -0.30156335585E+03  0.37095341696E+03  0.91937013062E+02 0.  0.
        -13    1    3    3    0    0 -0.55436015623E+02  0.31128613489E+02 -0.29605918102E+02  0.70133107678E+02  0.00000000000E+00 0.  1.
         14    1    3    3    0    0 -0.87104999767E+02 -0.47598758857E+02 -0.56095132637E+02  0.11401573021E+03  0.00000000000E+00 0. -1.
        -11    1    4    4    0    0  0.17561308865E+03 -0.22656523335E+02 -0.29982064142E+03  0.34820352091E+03  0.00000000000E+00 0. -1.
         11    1    4    4    0    0  0.15992100976E+02 -0.16086435990E+02 -0.17427144331E+01  0.22749896045E+02  0.00000000000E+00 0.  1.
         21    1    1    2  502  501 -0.49064174240E+02  0.55213104692E+02 -0.12299813115E+03  0.14347236804E+03  0.00000000000E+00 0. -1.
<scales pt_clust_5="13000.00000" pt_clust_6="13000.00000" pt_clust_7="13000.00000" pt_clust_8="13000.00000" pt_clust_9="73.86325"></scales>
<clustering>
<clus scale="   73.863">  2  9  1 -1</clus>
<clus scale="   77.311">  5  6 -1 -1</clus>
<clus scale="   91.937">  7  8 -1 -1</clus>
<clus scale="  174.637">  1  5  2 -1</clus>
<clus scale="   73.863">  2  5  1 -1</clus>
</clustering>
</event>
<event>
 9    2  0.3791909E-005  0.1268944E+03  0.7546771E-02  0.1237980E+00
         -1   -1    0    0    0  501 -0.00000000000E+00  0.00000000000E+00  0.51729272538E+03  0.51729272538E+03  0.00000000000E+00 0.  1.
          2   -1    0    0  502    0  0.00000000000E+00 -0.00000000000E+00 -0.90596930110E+02  0.90596930110E+02  0.00000000000E+00 0. -1.
         24    2    1    2    0    0 -0.26277836081E+02  0.86309569744E+02  0.41903676495E+03  0.43581016079E+03  0.78732581330E+02 0.  0.
         23    2    1    2    0    0  0.14117175584E+02 -0.16703329796E+02 -0.33319875951E+01  0.10056926622E+03  0.98105959520E+02 0.  0.
        -11    1    3    3    0    0 -0.19236415776E+02  0.99649503852E+02  0.32221216898E+03  0.33781762113E+03  0.00000000000E+00 0.  1.
         12    1    3    3    0    0 -0.70414203050E+01 -0.13339934109E+02  0.96824595973E+02  0.97992539651E+02  0.00000000000E+00 0. -1.
        -11    1    4    4    0    0 -0.23549389048E+02  0.31403877460E+02 -0.40937830297E+01  0.39465634463E+02  0.00000000000E+00 0.  1.
         11    1    4    4    0    0  0.37666564632E+02 -0.48107207257E+02  0.76179543466E+00  0.61103631754E+02  0.00000000000E+00 0. -1.
         21    1    1    2  502  501  0.12160660497E+02 -0.69606239947E+02  0.10991017910E+02  0.71510228485E+02  0.00000000000E+00 0. -1.
<scales pt_clust_5="13000.00000" pt_clust_6="13000.00000" pt_clust_7="13000.00000" pt_clust_8="13000.00000" pt_clust_9="70.66053"></scales>
<clustering>
<clus scale="   70.661">  2  9  1 -1</clus>
<clus scale="   78.733">  5  6 -1 -1</clus>
<clus scale="   98.106">  7  8 -1 -1</clus>
<clus scale="  112.589">  1  5  2 -1</clus>
<clus scale="   70.661">  2  5  1 -1</clus>
</clustering>
</event>
<event>
 9    2  0.3791909E-005  0.9563444E+02  0.7546771E-02  0.1291899E+00
         -1   -1    0    0    0  501 -0.00000000000E+00  0.00000000000E+00  0.56061815642E+02  0.56061815642E+02  0.00000000000E+00 0.  1.
          2   -1    0    0  502    0  0.00000000000E+00 -0.00000000000E+00 -0.87590189055E+03  0.87590189055E+03  0.00000000000E+00 0. -1.
         23    2    1    2    0    0 -0.36463599964E+02 -0.33457658727E+01 -0.95700019759E+01  0.99119395544E+02  0.91609395607E+02 0.  0.
         24    2    1    2    0    0 -0.50959129024E+02  0.31592123011E+02 -0.42487168907E+03  0.43664675321E+03  0.80929227412E+02 0.  0.
        -11    1    4    4    0    0 -0.29069037071E+02 -0.31868397765E+01 -0.39798999320E+02  0.49387500553E+02  0.00000000000E+00 0.  1.
         12    1    4    4    0    0 -0.21890091954E+02  0.34778962788E+02 -0.38507268975E+03  0.38725925266E+03  0.00000000000E+00 0. -1.
        -11    1    3    3    0    0  0.16260400564E+02 -0.30483900841E+02 -0.18438009110E+02  0.39161575772E+02  0.00000000000E+00 0. -1.
         11    1    3    3    0    0 -0.52724000528E+02  0.27138134968E+02  0.88680071341E+01  0.59957819772E+02  0.00000000000E+00 0.  1.
         21    1    1    2  502  501  0.87422728989E+02 -0.28246357139E+02 -0.38539838386E+03  0.39619755744E+03  0.00000000000E+00 0. -1.
<scales pt_clust_5="13000.00000" pt_clust_6="13000.00000" pt_clust_7="13000.00000" pt_clust_8="13000.00000" pt_clust_9="91.87268"></scales>
<clustering>
<clus scale="   80.929">  5  6 -1 -1</clus>
<clus scale="   91.609">  7  8 -1 -1</clus>
<clus scale="   91.873">  2  9  1 -1</clus>
<clus scale="   91.873">  2  5  1 -1</clus>
<clus scale="   91.873">  2  5  1 -1</clus>
</clustering>
</event>
<event>
 9    2  0.3791909E-005  0.1025163E+03  0.7546771E-02  0.1280101E+00
          2   -1    0    0  502    0  0.00000000000E+00  0.00000000000E+00  0.50674689071E+03  0.50674689071E+03  0.00000000000E+00 0. -1.
         -1   -1    0    0    0  501 -0.00000000000E+00 -0.00000000000E+00 -0.13058360089E+03  0.13058360089E+03  0.00000000000E+00 0.  1.
         24    2    1    2    0    0 -0.10143885542E+01  0.46437418636E+02 -0.97903945562E+02  0.13477865222E+03  0.80141373226E+02 0.  0.
         23    2    1    2    0    0  0.41900269309E+02 -0.66996832073E+02  0.36206493324E+03  0.38156068097E+03  0.90847836014E+02 0.  0.
        -11    1    3    3    0    0 -0.18440726613E+02  0.43250733610E+02 -0.10550038917E+03  0.11550332666E+03  0.00000000000E+00 0.  1.
         12    1    3    3    0    0  0.17426338059E+02  0.31866850265E+01  0.75964436068E+01  0.19275325551E+02  0.00000000000E+00 0. -1.
        -11    1    4    4    0    0  0.59021537915E+02 -0.10269298813E+02  0.15466817219E+03  0.16586513776E+03  0.00000000000E+00 0.  1.
         11    1    4    4    0    0 -0.17121268606E+02 -0.56727533260E+02  0.20739676105E+03  0.21569554321E+03  0.00000000000E+00 0. -1.
         21    1    1    2  502  501 -0.40885880755E+02  0.20559413437E+02  0.11200230215E+03  0.12099115841E+03  0.00000000000E+00 0. -1.
<scales pt_clust_5="13000.00000" pt_clust_6="13000.00000" pt_clust_7="13000.00000" pt_clust_8="13000.00000" pt_clust_9="45.76401"></scales>
<clustering>
<clus scale="   45.764">  1  9  2 -1</clus>
<clus scale="   80.141">  5  6 -1 -1</clus>
<clus scale="   90.848">  7  8 -1 -1</clus>
<clus scale="   93.161">  2  5  1 -1</clus>
<clus scale="   45.764">  1  5  2 -1</clus>
</clustering>
</event>
<event>
 9    2  0.3791909E-005  0.1876822E+03  0.7546771E-02  0.1164207E+00
         -1   -1    0    0    0  501 -0.00000000000E+00  0.00000000000E+00  0.92280662555E+02  0.92280662555E+02  0.00000000000E+00 0.  1.
          2   -1    0    0  502    0  0.00000000000E+00 -0.00000000000E+00 -0.14985917523E+04  0.14985917523E+04  0.00000000000E+00 0. -1.
         23    2    1    2    0    0  0.10616938630E+03 -0.99746288470E+02 -0.17405770486E+03  0.24505814987E+03  0.92391295844E+02 0.  0.
         24    2    1    2    0    0  0.13567456150E+03  0.91703953626E+02 -0.97796068339E+03  0.99479011727E+03  0.79894163856E+02 0.  0.
        -13    1    4    4    0    0 -0.61077761447E+01  0.24321139994E+02 -0.12122893237E+03  0.12379530211E+03  0.00000000000E+00 0.  1.
         14    1    4    4    0    0  0.14178233765E+03  0.67382813632E+02 -0.85673175102E+03  0.87099481517E+03  0.00000000000E+00 0. -1.
        -13    1    3    3    0    0  0.50854241335E+02  0.68128271204E+01 -0.65434908648E+02  0.83152244377E+02  0.00000000000E+00 0.  1.
         13    1    3    3    0    0  0.55315144964E+02 -0.10655911559E+03 -0.10862279621E+03  0.16190590549E+03  0.00000000000E+00 0. -1.
         21    1    1    2  502  501 -0.24184394780E+03  0.80423348440E+01 -0.25429270149E+03  0.35102414770E+03  0.00000000000E+00 0.  1.
<scales pt_clust_5="13000.00000" pt_clust_6="13000.00000" pt_clust_7="13000.00000" pt_clust_8="13000.00000" pt_clust_9="169.82793"></scales>
<clustering>
<clus scale="   79.894">  5  6 -1 -1</clus>
<clus scale="   92.391">  7  8 -1 -1</clus>
<clus scale="  172.503">  1  7  2 -1</clus>
<clus scale="  169.828">  1  9  2 -1</clus>
<clus scale="  187.682">  2  5  1 -1</clus>
</clustering>
</event>
<event>
 9    2  0.3791909E-005  0.1396415E+03  0.7546771E-02  0.1216856E+00
          2   -1    0    0  502    0  0.00000000000E+00  0.00000000000E+00  0.47973696301E+03  0.47973696301E+03  0.00000000000E+00 0. -1.
         -1   -1    0    0    0  501 -0.00000000000E+00 -0.00000000000E+00 -0.22051386720E+03  0.22051386720E+03  0.00000000000E+00 0.  1.
         24    2    1    2    0    0 -0.71521251215E+02  0.76718271608E+02 -0.18591584838E+03  0.22813761458E+03  0.80505191985E+02 0.  0.
         23    2    1    2    0    0  0.47553242278E+02 -0.64011188653E+02  0.29796362442E+03  0.32245857935E+03  0.94013141629E+02 0.  0.
        -11    1    3    3    0    0 -0.63579489656E+02  0.92826231978E+02 -0.17147742204E+03  0.20509404457E+03  0.00000000000E+00 0.  1.
         12    1    3    3    0    0 -0.79417615590E+01 -0.16107960371E+02 -0.14438426338E+02  0.23043570016E+02  0.00000000000E+00 0. -1.
        -11    1    4    4    0    0  0.74662139130E+02 -0.42639076063E+02  0.24069129041E+03  0.25558721232E+03  0.00000000000E+00 0. -1.
         11    1    4    4    0    0 -0.27108896852E+02 -0.21372112590E+02  0.57272334011E+02  0.66871367028E+02  0.00000000000E+00 0.  1.
         21    1    1    2  502  501  0.23968008937E+02 -0.12707082955E+02  0.14717531977E+03  0.14965463628E+03  0.00000000000E+00 0. -1.
<scales pt_clust_5="13000.00000" pt_clust_6="13000.00000" pt_clust_7="13000.00000" pt_clust_8="13000.00000" pt_clust_9="27.12813"></scales>
<clustering>
<clus scale="   27.128">  1  9  2 -1</clus>
<clus scale="   80.505">  5  6 -1 -1</clus>
<clus scale="   94.013">  7  8 -1 -1</clus>
<clus scale="  130.929">  2  5  1 -1</clus>
<clus scale="   27.128">  1  5  2 -1</clus>
</clustering>
</event>
<event>
 9    2  0.3791909E-005  0.1349270E+03  0.7546771E-02  0.1223595E+00
         -1   -1    0    0    0  501 -0.00000000000E+00  0.00000000000E+00  0.11633173018E+03  0.11633173018E+03  0.00000000000E+00 0.  1.
          2   -1    0    0  502    0  0.00000000000E+00 -0.00000000000E+00 -0.39819728354E+03  0.39819728354E+03  0.00000000000E+00 0. -1.
         24    2    1    2    0    0  0.59666655025E+02 -0.73941834584E+02  0.30001502785E+02  0.12541989014E+03  0.76174497369E+02 0.  0.
         23    2    1    2    0    0 -0.11977683720E+03  0.71853948695E+02 -0.26509329133E+03  0.31291609016E+03  0.90180628186E+02 0.  0.
        -11    1    3    3    0    0  0.36934645238E+02 -0.87370773387E+02  0.18611041869E+02  0.96665355431E+02  0.00000000000E+00 0.  1.
         12    1    3    3    0    0  0.22732009787E+02  0.13428938803E+02  0.11390460916E+02  0.28754534707E+02  0.00000000000E+00 0. -1.
        -13    1    4    4    0    0 -0.62109659780E+02  0.59042519433E+02 -0.22697179791E+03  0.24261044080E+03  0.00000000000E+00 0. -1.
         13    1    4    4    0    0 -0.57667177418E+02  0.12811429261E+02 -0.38121493419E+02  0.70305649357E+02  0.00000000000E+00 0.  1.
         21    1    1    2  502  501  0.60110182172E+02  0.20878858892E+01 -0.46773764816E+02  0.76193033430E+02  0.00000000000E+00 0.  1.
<scales pt_clust_5="13000.00000" pt_clust_6="13000.00000" pt_clust_7="13000.00000" pt_clust_8="13000.00000" pt_clust_9="60.14643"></scales>
<clustering>
<clus scale="   60.146">  2  9  1 -1</clus>
<clus scale="   76.174">  5  6 -1 -1</clus>
<clus scale="   90.181">  7  8 -1 -1</clus>
<clus scale="  125.997">  1  5  2 -1</clus>
<clus scale="   60.146">  2  5  1 -1</clus>
</clustering>
</event>
<event>
 9    2  0.3791909E-005  0.1191626E+03  0.7546771E-02  0.1248541E+00
         -1   -1    0    0    0  501 -0.00000000000E+00  0.00000000000E+00  0.67970281727E+02  0.67970281727E+02  0.00000000000E+00 0.  1.
          2   -1    0    0  502    0  0.00000000000E+00 -0.00000000000E+00 -0.73527941776E+03  0.73527941776E+03  0.00000000000E+00 0. -1.
         24    2    1    2    0    0 -0.69790914881E+02  0.26832411476E+02 -0.15046721387E+02  0.11060955155E+03  0.80108170395E+02 0.  0.
         23    2    1    2    0    0  0.34625389680E+02 -0.10572961509E+03 -0.36342790538E+03  0.39116584282E+03  0.92483539425E+02 0.  0.
        -13    1    3    3    0    0 -0.64361105889E+02  0.45198997633E+02  0.97815304968E+01  0.79252631989E+02  0.00000000000E+00 0.  1.
         14    1    3    3    0    0 -0.54298089921E+01 -0.18366586157E+02 -0.24828251884E+02  0.31356919561E+02  0.00000000000E+00 0. -1.
        -13    1    4    4    0    0 -0.10296182122E+02 -0.59036158679E+02 -0.27550565422E+03  0.28194794716E+03  0.00000000000E+00 0. -1.
         13    1    4    4    0    0  0.44921571802E+02 -0.46693456412E+02 -0.87922251157E+02  0.10921789566E+03  0.00000000000E+00 0.  1.
         21    1    1    2  502  501  0.35165525201E+02  0.78897203616E+02 -0.28883450927E+03  0.30147430511E+03  0.00000000000E+00 0.  1.
<scales pt_clust_5="13000.00000" pt_clust_6="13000.00000" pt_clust_7="13000.00000" pt_clust_8="13000.00000" pt_clust_9="86.37930"></scales>
<clustering>
<clus scale="   80.108">  5  6 -1 -1</clus>
<clus scale="   86.379">  2  9  1 -1</clus>
<clus scale="   92.484">  7  8 -1 -1</clus>
<clus scale="  109.835">  1  5  2 -1</clus>
<clus scale="   86.379">  2  5  1 -1</clus>
</clustering>
</event>
<event>
 9    2  0.3791909E-005  0.1229440E+03  0.7546771E-02  0.1241318E+00
          2   -1    0    0  502    0  0.00000000000E+00  0.00000000000E+00  0.51887937366E+02  0.51887937366E+02  0.00000000000E+00 0. -1.
         -1   -1    0    0    0  501 -0.00000000000E+00 -0.00000000000E+00 -0.36830154828E+03  0.36830154828E+03  0.00000000000E+00 0.  1.
         23    2    1    2    0    0  0.23029742941E+02 -0.85732120445E+02 -0.22531746990E+03  0.25841264905E+03  0.90159688399E+02 0.  0.
         24    2    1    2    0    0 -0.21024836325E+01  0.76062739270E+02 -0.79035007860E+02  0.13575918783E+03  0.79962890580E+02 0.  0.
        -13    1    4    4    0    0 -0.90091370130E+01  0.29479878639E+02 -0.82961858792E+02  0.88503659859E+02  0.00000000000E+00 0.  1.
         14    1    4    4    0    0  0.69066533805E+01  0.46582860631E+02  0.39268509320E+01  0.47255527970E+02  0.00000000000E+00 0. -1.
        -13    1    3    3    0    0  0.53576255280E+02 -0.78512181588E+02 -0.16512423979E+03  0.19052714335E+03  0.00000000000E+00 0.  1.
         13    1    3    3    0    0 -0.30546512339E+02 -0.72199388565E+01 -0.60193230104E+02  0.67885505695E+02  0.00000000000E+00 0. -1.
         21    1    1    2  502  501 -0.20927259308E+02  0.96693811751E+01 -0.12061133162E+02  0.26017648772E+02  0.00000000000E+00 0.  1.
<scales pt_clust_5="13000.00000" pt_clust_6="13000.00000" pt_clust_7="13000.00000" pt_clust_8="13000.00000" pt_clust_9="23.05314"></scales>
<clustering>
<clus scale="   23.053">  1  9  2 -1</clus>
<clus scale="   79.963">  5  6 -1 -1</clus>
<clus scale="   90.160">  7  8 -1 -1</clus>
<clus scale="  115.674">  1  5  2 -1</clus>
<clus scale="   23.053">  1  5  2 -1</clus>
</clustering>
</event>
<event>
 9    2  0.4783947E-005  0.9818783E+02  0.7546771E-02  0.1290715E+00
         -1   -1    0    0    0  501 -0.00000000000E+00  0.00000000000E+00  0.11319532932E+03  0.11319532932E+03  0.00000000000E+00 0.  1.
          2   -1    0    0  502    0  0.00000000000E+00 -0.00000000000E+00 -0.52362656235E+03  0.52362656235E+03  0.00000000000E+00 0. -1.
         23    2    1    2    0    0 -0.32615987086E+02 -0.86771812815E+01  0.83382272611E+02  0.12901338273E+03  0.92481097792E+02 0.  0.
         24    2    1    2    0    0  0.21719544461E+02 -0.13210418851E+02 -0.44833632690E+03  0.45617544504E+03  0.80276527467E+02 0.  0.
        -11    1    4    4    0    0  0.20425023185E+02 -0.12801623874E+00 -0.23500794175E+02  0.31136558691E+02  0.00000000000E+00 0.  1.
         12    1    4    4    0    0  0.12945212758E+01 -0.13082402612E+02 -0.42483553272E+03  0.42503888635E+03  0.00000000000E+00 0. -1.
        -11    1    3    3    0    0 -0.26540923004E+02 -0.35298462858E+02  0.31656157398E+01  0.44276666508E+02  0.00000000000E+00 0. -1.
         11    1    3    3    0    0 -0.60750640813E+01  0.26621281576E+02  0.80216656872E+02  0.84736716222E+02  0.00000000000E+00 0.  1.
         21    1    1    2  502  501  0.10896442625E+02  0.21887600132E+02 -0.45477178740E+02  0.51633063899E+02  0.00000000000E+00 0. -1.
<scales pt_clust_5="13000.00000" pt_clust_6="13000.00000" pt_clust_7="13000.00000" pt_clust_8="13000.00000" pt_clust_9="24.44994"></scales>
<clustering>
<clus scale="   24.450">  2  9  1 -1</clus>
<clus scale="   80.277">  5  6 -1 -1</clus>
<clus scale="   86.789">  2  5  1 -1</clus>
<clus scale="   92.481">  7  8 -1 -1</clus>
<clus scale="   24.450">  2  5  1 -1</clus>
</clustering>
</event>
<event>
 9    2  0.3791909E-005  0.9141293E+02  0.7546771E-02  0.1307469E+00
         -1   -1    0    0    0  501 -0.00000000000E+00  0.00000000000E+00  0.15015017479E+03  0.15015017479E+03  0.00000000000E+00 0.  1.
          2   -1    0    0  502    0  0.00000000000E+00 -0.00000000000E+00 -0.20940462938E+03  0.20940462938E+03  0.00000000000E+00 0. -1.
         23    2    1    2    0    0  0.18220847331E+02  0.70947605793E+01  0.10879177401E+03  0.14286037953E+03  0.90504712813E+02 0.  0.
         24    2    1    2    0    0  0.29290322912E+02 -0.53693728355E+01 -0.74747867114E+02  0.11198113744E+03  0.77883106786E+02 0.  0.
        -11    1    4    4    0    0  0.16255395773E-01 -0.35176105387E+02 -0.56131927798E+02  0.66243127740E+02  0.00000000000E+00 0.  1.
         12    1    4    4    0    0  0.29274067516E+02  0.29806732552E+02 -0.18615939315E+02  0.45738009696E+02  0.00000000000E+00 0. -1.
        -11    1    3    3    0    0  0.43282403761E+02  0.34577741048E+02  0.65295364184E+02  0.85629850141E+02  0.00000000000E+00 0.  1.
         11    1    3    3    0    0 -0.25061556429E+02 -0.27482980469E+02  0.43496409823E+02  0.57230529384E+02  0.00000000000E+00 0. -1.
         21    1    1    2  502  501 -0.47511170244E+02 -0.17253877438E+01 -0.93298361490E+02  0.10471328721E+03  0.00000000000E+00 0. -1.
<scales pt_clust_5="13000.00000" pt_clust_6="13000.00000" pt_clust_7="13000.00000" pt_clust_8="13000.00000" pt_clust_9="47.54249"></scales>
<clustering>
<clus scale="   47.542">  2  9  1 -1</clus>
<clus scale="   77.883">  5  6 -1 -1</clus>
<clus scale="   78.937">  2  5  1 -1</clus>
<clus scale="   90.505">  7  8 -1 -1</clus>
<clus scale="   47.542">  2  5  1 -1</clus>
</clustering>
</event>
<event>
 9    2  0.3791909E-005  0.1255594E+03  0.7546771E-02  0.1238155E+00
         -1   -1    0    0    0  501 -0.00000000000E+00  0.00000000000E+00  0.38945383408E+02  0.38945383408E+02  0.00000000000E+00 0.  1.
          2   -1    0    0  502    0  0.00000000000E+00 -0.00000000000E+00 -0.79282659014E+03  0.79282659014E+03  0.00000000000E+00 0. -1.
         24    2    1    2    0    0 -0.85756638713E+02 -0.19987922302E+02 -0.10961323331E+03  0.16104746669E+03  0.78533480048E+02 0.  0.
         23    2    1    2    0    0  0.80661227166E+02 -0.35316703425E+02 -0.50312538510E+03  0.51904789336E+03  0.92315000719E+02 0.  0.
        -13    1    3    3    0    0 -0.36778768741E+02 -0.48822280489E+02 -0.58542920305E+02  0.84637854534E+02  0.00000000000E+00 0.  1.
         14    1    3    3    0    0 -0.48977869971E+02  0.28834358187E+02 -0.51070313005E+02  0.76409612153E+02  0.00000000000E+00 0. -1.
        -11    1    4    4    0    0  0.31444323270E+02  0.30246240504E+02 -0.13382792243E+03  0.14076041117E+03  0.00000000000E+00 0. -1.
         11    1    4    4    0    0  0.49216903895E+02 -0.65562943928E+02 -0.36929746267E+03  0.37828748219E+03  0.00000000000E+00 0.  1.
         21    1    1    2  502  501  0.50954115471E+01  0.55304625727E+02 -0.14114258832E+03  0.15167661350E+03  0.00000000000E+00 0. -1.
<scales pt_clust_5="13000.00000" pt_clust_6="13000.00000" pt_clust_7="13000.00000" pt_clust_8="13000.00000" pt_clust_9="55.53886"></scales>
<clustering>
<clus scale="   55.539">  2  9  1 -1</clus>
<clus scale="   78.533">  5  6 -1 -1</clus>
<clus scale="   92.315">  7  8 -1 -1</clus>
<clus scale="  115.804">  1  5  2 -1</clus>
<clus scale="   55.539">  2  5  1 -1</clus>
</clustering>
</event>
<event>
 9    2  0.3791909E-005  0.8159967E+02  0.7546771E-02  0.1325711E+00
          2   -1    0    0  502    0  0.00000000000E+00  0.00000000000E+00  0.75276253963E+03  0.75276253963E+03  0.00000000000E+00 0. -1.
         -1   -1    0    0    0  501 -0.00000000000E+00 -0.00000000000E+00 -0.25706026509E+02  0.25706026509E+02  0.00000000000E+00 0.  1.
         23    2    1    2    0    0  0.42344886889E+02  0.29433372684E+02  0.22287627487E+03  0.24278749573E+03  0.81317410871E+02 0.  0.
         24    2    1    2    0    0  0.79152293645E+01  0.53981230382E+01  0.43912223011E+03  0.44639581516E+03  0.79681241408E+02 0.  0.
        -13    1    4    4    0    0 -0.28333252657E+02  0.74157269827E+01  0.75753501188E+02  0.81217973104E+02  0.00000000000E+00 0.  1.
         14    1    4    4    0    0  0.36248482022E+02 -0.20176039446E+01  0.36336872892E+03  0.36517784206E+03  0.00000000000E+00 0. -1.
        -13    1    3    3    0    0  0.31658291211E+02  0.51701564944E+02  0.20048010425E+03  0.20944586751E+03  0.00000000000E+00 0. -1.
         13    1    3    3    0    0  0.10686595678E+02 -0.22268192259E+02  0.22396170626E+02  0.33341628221E+02  0.00000000000E+00 0.  1.
         21    1    1    2  502  501 -0.50260116254E+02 -0.34831495722E+02  0.65058008138E+02  0.89285255239E+02  0.00000000000E+00 0.  1.
<scales pt_clust_5="13000.00000" pt_clust_6="13000.00000" pt_clust_7="13000.00000" pt_clust_8="13000.00000" pt_clust_9="61.14992"></scales>
<clustering>
<clus scale="   61.150">  2  9  1 -1</clus>
<clus scale="   79.681">  5  6 -1 -1</clus>
<clus scale="   79.969">  1  5  2 -1</clus>
<clus scale="   81.317">  7  8 -1 -1</clus>
<clus scale="   79.969">  1  5  2 -1</clus>
</clustering>
</event>
<event>
 9    2  0.3791909E-005  0.1557254E+03  0.7546771E-02  0.1196641E+00
         -1   -1    0    0    0  501 -0.00000000000E+00  0.00000000000E+00  0.21501364633E+03  0.21501364633E+03  0.00000000000E+00 0.  1.
          2   -1    0    0  502    0  0.00000000000E+00 -0.00000000000E+00 -0.47326970231E+03  0.47326970231E+03  0.00000000000E+00 0. -1.
         24    2    1    2    0    0  0.98533697647E+02 -0.87580031540E+02  0.17058366368E+03  0.22644476620E+03  0.69276939383E+02 0.  0.
         23    2    1    2    0    0 -0.72111768684E+02  0.53747037658E+02 -0.28333862920E+03  0.31013704279E+03  0.88404498038E+02 0.  0.
        -13    1    3    3    0    0  0.71106674124E+02 -0.38208414839E+02  0.14152959523E+03  0.16293148375E+03  0.00000000000E+00 0.  1.
         14    1    3    3    0    0  0.27427023523E+02 -0.49371616701E+02  0.29054068446E+02  0.63513282456E+02  0.00000000000E+00 0. -1.
        -13    1    4    4    0    0  0.13970284554E+01  0.52541462504E+02 -0.11462464412E+03  0.12610061860E+03  0.00000000000E+00 0. -1.
         13    1    4    4    0    0 -0.73508797139E+02  0.12055751530E+01 -0.16871398508E+03  0.18403642419E+03  0.00000000000E+00 0.  1.
         21    1    1    2  502  501 -0.26421928964E+02  0.33832993883E+02 -0.14550109046E+03  0.15170153964E+03  0.00000000000E+00 0. -1.
<scales pt_clust_5="13000.00000" pt_clust_6="13000.00000" pt_clust_7="13000.00000" pt_clust_8="13000.00000" pt_clust_9="42.92773"></scales>
<clustering>
<clus scale="   42.928">  2  9  1 -1</clus>
<clus scale="   69.277">  5  6 -1 -1</clus>
<clus scale="   88.404">  7  8 -1 -1</clus>
<clus scale="  145.720">  1  5  2 -1</clus>
<clus scale="   42.928">  2  5  1 -1</clus>
</clustering>
</event>
<event>
 9    2  0.3791909E-005  0.9288944E+02  0.7546771E-02  0.1301546E+00
          2   -1    0    0  502    0  0.00000000000E+00  0.00000000000E+00  0.44917778104E+03  0.44917778104E+03  0.00000000000E+00 0. -1.
         -1   -1    0    0    0  501 -0.00000000000E+00 -0.00000000000E+00 -0.12904842742E+03  0.12904842742E+03  0.00000000000E+00 0.  1.
         24    2    1    2    0    0  0.31569529979E+01 -0.15832383495E+02 -0.10279729447E+03  0.13261835567E+03  0.82217478620E+02 0.  0.
         23    2    1    2    0    0  0.23172332462E+02  0.28773378222E+02  0.38627026214E+03  0.39865690765E+03  0.91420732460E+02 0.  0.
        -13    1    3    3    0    0  0.32873674484E+02 -0.35031131478E+02 -0.65270434633E+02  0.81043743027E+02  0.00000000000E+00 0.  1.
         14    1    3    3    0    0 -0.29716721486E+02  0.19198747983E+02 -0.37526859840E+02  0.51574612644E+02  0.00000000000E+00 0. -1.
        -11    1    4    4    0    0  0.42471917031E+02  0.52756239302E+02  0.25747745506E+03  0.26623621915E+03  0.00000000000E+00 0. -1.
         11    1    4    4    0    0 -0.19299584569E+02 -0.23982861080E+02  0.12879280707E+03  0.13242068850E+03  0.00000000000E+00 0.  1.
         21    1    1    2  502  501 -0.26329285460E+02 -0.12940994726E+02  0.36656385955E+02  0.46950945130E+02  0.00000000000E+00 0.  1.
<scales pt_clust_5="13000.00000" pt_clust_6="13000.00000" pt_clust_7="13000.00000" pt_clust_8="13000.00000" pt_clust_9="29.33770"></scales>
<clustering>
<clus scale="   29.338">  1  9  2 -1</clus>
<clus scale="   82.217">  5  6 -1 -1</clus>
<clus scale="   83.848">  2  5  1 -1</clus>
<clus scale="   91.421">  7  8 -1 -1</clus>
<clus scale="   29.338">  1  5  2 -1</clus>
</clustering>
</event>
<event>
 9    2  0.3791909E-005  0.1275798E+03  0.7546771E-02  0.1234562E+00
         -1   -1    0    0    0  501 -0.00000000000E+00  0.00000000000E+00  0.26980432744E+03  0.26980432744E+03  0.00000000000E+00 0.  1.
          2   -1    0    0  502    0  0.00000000000E+00 -0.00000000000E+00 -0.29660507026E+03  0.29660507026E+03  0.00000000000E+00 0. -1.
         24    2    1    2    0    0 -0.19330509556E+02 -0.93006050537E+02  0.22874088682E+03  0.25966440791E+03  0.77970618796E+02 0.  0.
         23    2    1    2    0    0  0.15789972734E+02  0.21644917315E+02 -0.17587015915E+03  0.19972868287E+03  0.90793216695E+02 0.  0.
        -13    1    3    3    0    0  0.28088120568E+02 -0.53253223319E+02  0.12771549915E+03  0.14119524437E+03  0.00000000000E+00 0.  1.
         14    1    3    3    0    0 -0.47418630125E+02 -0.39752827218E+02  0.10102538767E+03  0.11846916354E+03  0.00000000000E+00 0. -1.
        -13    1    4    4    0    0  0.48440933203E+02  0.33244864478E+02 -0.12574091792E+03  0.13878949335E+03  0.00000000000E+00 0.  1.
         13    1    4    4    0    0 -0.32650960470E+02 -0.11599947163E+02 -0.50129241223E+02  0.60939189520E+02  0.00000000000E+00 0. -1.
         21    1    1    2  502  501  0.35405368228E+01  0.71361133222E+02 -0.79671470499E+02  0.10701630692E+03  0.00000000000E+00 0.  1.
<scales pt_clust_5="13000.00000" pt_clust_6="13000.00000" pt_clust_7="13000.00000" pt_clust_8="13000.00000" pt_clust_9="71.44891"></scales>
<clustering>
<clus scale="   71.449">  2  9  1 -1</clus>
<clus scale="   77.971">  5  6 -1 -1</clus>
<clus scale="   90.793">  7  8 -1 -1</clus>
<clus scale="  118.796">  1  5  2 -1</clus>
<clus scale="   71.449">  2  5  1 -1</clus>
</clustering>
</event>
<event>
 9    2  0.3791909E-005  0.1235864E+03  0.7546771E-02  0.1240492E+00
         -3   -1    0    0    0  501 -0.00000000000E+00  0.00000000000E+00  0.44929340175E+03  0.44929340175E+03  0.00000000000E+00 0.  1.
          4   -1    0    0  502    0  0.00000000000E+00 -0.00000000000E+00 -0.46461011089E+02  0.46461011089E+02  0.00000000000E+00 0. -1.
         23    2    1    2    0    0 -0.51055174742E+02 -0.75798944789E+02  0.31066395886E+03  0.33649388722E+03  0.91454523688E+02 0.  0.
         24    2    1    2    0    0  0.36613341195E+02  0.55587377598E+02  0.79699926771E+02  0.13146596460E+03  0.80627093582E+02 0.  0.
        -11    1    4    4    0    0  0.40697546491E+02 -0.46740391855E+01  0.48495474961E+02  0.63481871620E+02  0.00000000000E+00 0.  1.
         12    1    4    4    0    0 -0.40842052963E+01  0.60261416784E+02  0.31204451811E+02  0.67984092981E+02  0.00000000000E+00 0. -1.
        -11    1    3    3    0    0  0.24273749063E+02 -0.32738192061E+02  0.74899980008E+02  0.85270224101E+02  0.00000000000E+00 0.  1.
         11    1    3    3    0    0 -0.75328923805E+02 -0.43060752728E+02  0.23576397885E+03  0.25122366312E+03  0.00000000000E+00 0. -1.
         21    1    1    2  502  501  0.14441833547E+02  0.20211567191E+02  0.12468505033E+02  0.27794561020E+02  0.00000000000E+00 0. -1.
<scales pt_clust_5="13000.00000" pt_clust_6="13000.00000" pt_clust_7="13000.00000" pt_clust_8="13000.00000" pt_clust_9="24.84097"></scales>
<clustering>
<clus scale="   24.841">  2  9  1 -1</clus>
<clus scale="   80.627">  5  6 -1 -1</clus>
<clus scale="   91.455">  7  8 -1 -1</clus>
<clus scale="  115.803">  2  5  1 -1</clus>
<clus scale="   24.841">  2  5  1 -1</clus>
</clustering>
</event>
<event>
 9    2  0.3791909E-005  0.1278438E+03  0.7546771E-02  0.1233240E+00
          2   -1    0    0  502    0  0.00000000000E+00  0.00000000000E+00  0.40289506656E+03  0.40289506656E+03  0.00000000000E+00 0. -1.
         -1   -1    0    0    0  501 -0.00000000000E+00 -0.00000000000E+00 -0.23552530868E+03  0.23552530868E+03  0.00000000000E+00 0.  1.
         23    2    1    2    0    0  0.63902998695E+02  0.59826032801E+02 -0.17157595351E+03  0.21221673121E+03  0.89077975598E+02 0.  0.
         24    2    1    2    0    0 -0.55293538637E+02 -0.14326659502E+03  0.20510268624E+03  0.26824667011E+03  0.79413295250E+02 0.  0.
        -11    1    4    4    0    0  0.42337447895E+00 -0.64930166795E+02  0.37363218856E+02  0.74914056954E+02  0.00000000000E+00 0.  1.
         12    1    4    4    0    0 -0.55716913116E+02 -0.78336428220E+02  0.16773946738E+03  0.19333261316E+03  0.00000000000E+00 0. -1.
        -13    1    3    3    0    0  0.33114241515E+02 -0.56580903329E+01 -0.11659318470E+03  0.12133646482E+03  0.00000000000E+00 0.  1.
         13    1    3    3    0    0  0.30788757181E+02  0.65484123134E+02 -0.54982768812E+02  0.90880266382E+02  0.00000000000E+00 0. -1.
         21    1    1    2  502  501 -0.86094600586E+01  0.83440562214E+02  0.13384302516E+03  0.15795697392E+03  0.00000000000E+00 0.  1.
<scales pt_clust_5="13000.00000" pt_clust_6="13000.00000" pt_clust_7="13000.00000" pt_clust_8="13000.00000" pt_clust_9="83.88355"></scales>
<clustering>
<clus scale="   79.413">  5  6 -1 -1</clus>
<clus scale="   83.884">  1  9  2 -1</clus>
<clus scale="   89.078">  7  8 -1 -1</clus>
<clus scale="  121.308">  1  5  2 -1</clus>
<clus scale="   83.884">  1  5  2 -1</clus>
</clustering>
</event>
<event>
 9    2  0.3791909E-005  0.9265737E+02  0.7546771E-02  0.1302692E+00
         -1   -1    0    0    0  501 -0.00000000000E+00  0.00000000000E+00  0.61485831094E+03  0.61485831094E+03  0.00000000000E+00 0.  1.
          2   -1    0    0  502    0  0.00000000000E+00 -0.00000000000E+00 -0.36065267144E+02  0.36065267144E+02  0.00000000000E+00 0. -1.
         24    2    1    2    0    0 -0.16762132355E+02  0.65692780475E+01  0.43002647025E+03  0.43810259772E+03  0.81774057713E+02 0.  0.
         23    2    1    2    0    0 -0.45566758147E+01  0.31936692138E+02  0.13554767709E+03  0.16686512606E+03  0.91815477625E+02 0.  0.
        -11    1    3    3    0    0 -0.35347373344E+02 -0.27482594179E+02  0.21664493274E+03  0.22122331854E+03  0.00000000000E+00 0.  1.
         12    1    3    3    0    0  0.18585240989E+02  0.34051872226E+02  0.21338153751E+03  0.21687927918E+03  0.00000000000E+00 0. -1.
        -11    1    4    4    0    0  0.42899229832E+02  0.20818980836E+02  0.55767994901E+02  0.73374676412E+02  0.00000000000E+00 0. -1.
         11    1    4    4    0    0 -0.47455905647E+02  0.11117711302E+02  0.79779682187E+02  0.93490449647E+02  0.00000000000E+00 0.  1.
         21    1    1    2  502  501  0.21318808170E+02 -0.38505970186E+02  0.13218896457E+02  0.45955854309E+02  0.00000000000E+00 0.  1.
<scales pt_clust_5="13000.00000" pt_clust_6="13000.00000" pt_clust_7="13000.00000" pt_clust_8="13000.00000" pt_clust_9="44.01365"></scales>
<clustering>
<clus scale="   44.014">  2  9  1 -1</clus>
<clus scale="   81.774">  5  6 -1 -1</clus>
<clus scale="   82.718">  1  5  2 -1</clus>
<clus scale="   91.815">  7  8 -1 -1</clus>
<clus scale="   44.014">  2  5  1 -1</clus>
</clustering>
</event>
<event>
 9    2  0.3791909E-005  0.1512142E+03  0.7546771E-02  0.1202283E+00
          4   -1    0    0  502    0  0.00000000000E+00  0.00000000000E+00  0.23567328501E+03  0.23567328501E+03  0.00000000000E+00 0. -1.
         -3   -1    0    0    0  501 -0.00000000000E+00 -0.00000000000E+00 -0.13480928607E+03  0.13480928607E+03  0.00000000000E+00 0.  1.
         23    2    1    2    0    0  0.12332806046E+03 -0.19666346123E+02 -0.41382256130E+02  0.15984703007E+03  0.90785495720E+02 0.  0.
         24    2    1    2    0    0 -0.10622954562E+03  0.32433025022E+02  0.13198203062E+03  0.18695640243E+03  0.72088990355E+02 0.  0.
        -11    1    4    4    0    0 -0.56125016300E+02 -0.32025408387E+01  0.10644821884E+03  0.12038063390E+03  0.00000000000E+00 0.  1.
         12    1    4    4    0    0 -0.50104529320E+02  0.35635565860E+02  0.25533811774E+02  0.66575768537E+02  0.00000000000E+00 0. -1.
        -11    1    3    3    0    0  0.30457381934E+02 -0.39174881136E+02  0.11880116721E+02  0.51024117823E+02  0.00000000000E+00 0. -1.
         11    1    3    3    0    0  0.92870678528E+02  0.19508535013E+02 -0.53262372851E+02  0.10882291225E+03  0.00000000000E+00 0.  1.
         21    1    1    2  502  501 -0.17098514841E+02 -0.12766678898E+02  0.10264224456E+02  0.23679138573E+02  0.00000000000E+00 0.  1.
<scales pt_clust_5="13000.00000" pt_clust_6="13000.00000" pt_clust_7="13000.00000" pt_clust_8="13000.00000" pt_clust_9="21.33887"></scales>
<clustering>
<clus scale="   21.339">  1  9  2 -1</clus>
<clus scale="   72.089">  5  6 -1 -1</clus>
<clus scale="   90.785">  7  8 -1 -1</clus>
<clus scale="  140.786">  1  5  2 -1</clus>
<clus scale="   21.339">  1  5  2 -1</clus>
</clustering>
</event>
<event>
 9    2  0.3791909E-005  0.1514009E+03  0.7546771E-02  0.1200677E+00
          2   -1    0    0  502    0  0.00000000000E+00  0.00000000000E+00  0.86796499812E+02  0.86796499812E+02  0.00000000000E+00 0. -1.
         -1   -1    0    0    0  501 -0.00000000000E+00 -0.00000000000E+00 -0.43601210175E+03  0.43601210175E+03  0.00000000000E+00 0.  1.
         23    2    1    2    0    0  0.11010809780E+03  0.40701707960E+02 -0.30466813150E+03  0.33891588228E+03  0.90889398056E+02 0.  0.
         24    2    1    2    0    0 -0.12070094104E+03 -0.59376674805E+02 -0.42819260896E+02  0.16235323408E+03  0.80192124498E+02 0.  0.
        -11    1    4    4    0    0 -0.31148027010E+02 -0.61167405282E+01 -0.48545282243E+02  0.58002228658E+02  0.00000000000E+00 0.  1.
         12    1    4    4    0    0 -0.89552914034E+02 -0.53259934277E+02  0.57260213474E+01  0.10435100542E+03  0.00000000000E+00 0. -1.
        -11    1    3    3    0    0  0.90652525760E+02  0.53938383710E+02 -0.29532298382E+03  0.31359670667E+03  0.00000000000E+00 0.  1.
         11    1    3    3    0    0  0.19455572042E+02 -0.13236675749E+02 -0.93451476793E+01  0.25319175609E+02  0.00000000000E+00 0. -1.
         21    1    1    2  502  501  0.10592843243E+02  0.18674966844E+02 -0.17282095429E+01  0.21539485204E+02  0.00000000000E+00 0.  1.
<scales pt_clust_5="13000.00000" pt_clust_6="13000.00000" pt_clust_7="13000.00000" pt_clust_8="13000.00000" pt_clust_9="21.47004"></scales>
<clustering>
<clus scale="   21.470">  1  9  2 -1</clus>
<clus scale="   80.192">  5  6 -1 -1</clus>
<clus scale="   90.889">  7  8 -1 -1</clus>
<clus scale="  145.231">  1  5  2 -1</clus>
<clus scale="   21.470">  1  5  2 -1</clus>
</clustering>
</event>
<event>
 9    2  0.3791909E-005  0.9204687E+02  0.7546771E-02  0.1303359E+00
          2   -1    0    0  502    0  0.00000000000E+00  0.00000000000E+00  0.49777705079E+03  0.49777705079E+03  0.00000000000E+00 0. -1.
         -1   -1    0    0    0  501 -0.00000000000E+00 -0.00000000000E+00 -0.43299466898E+02  0.43299466898E+02  0.00000000000E+00 0.  1.
         24    2    1    2    0    0  0.54240664681E+01  0.22518730664E+02  0.15911075222E+02  0.84144968046E+02  0.79313930712E+02 0.  0.
         23    2    1    2    0    0  0.78974058926E+01 -0.42027529106E+02  0.28242534153E+03  0.29901347303E+03  0.88409848413E+02 0.  0.
        -13    1    3    3    0    0 -0.22307998541E+02  0.41757506922E+02  0.12849991044E+01  0.47360187985E+02  0.00000000000E+00 0.  1.
         14    1    3    3    0    0  0.27732065009E+02 -0.19238776259E+02  0.14626076117E+02  0.36784780061E+02  0.00000000000E+00 0. -1.
        -13    1    4    4    0    0 -0.10129335302E+01  0.25699724485E+02  0.43700406509E+02  0.50707271687E+02  0.00000000000E+00 0.  1.
         13    1    4    4    0    0  0.89103394227E+01 -0.67727253591E+02  0.23872493502E+03  0.24830620135E+03  0.00000000000E+00 0. -1.
         21    1    1    2  502  501 -0.13321472361E+02  0.19508798442E+02  0.15614116715E+03  0.15791807661E+03  0.00000000000E+00 0. -1.
<scales pt_clust_5="13000.00000" pt_clust_6="13000.00000" pt_clust_7="13000.00000" pt_clust_8="13000.00000" pt_clust_9="23.62318"></scales>
<clustering>
<clus scale="   23.623">  1  9  2 -1</clus>
<clus scale="   79.314">  5  6 -1 -1</clus>
<clus scale="   83.349">  2  5  1 -1</clus>
<clus scale="   88.410">  7  8 -1 -1</clus>
<clus scale="   23.623">  1  5  2 -1</clus>
</clustering>
</event>
<event>
 9    2  0.3791909E-005  0.1292027E+03  0.7546771E-02  0.1231438E+00
          2   -1    0    0  502    0  0.00000000000E+00  0.00000000000E+00  0.54164333461E+03  0.54164333461E+03  0.00000000000E+00 0. -1.
         -1   -1    0    0    0  501 -0.00000000000E+00 -0.00000000000E+00 -0.15362190733E+03  0.15362190733E+03  0.00000000000E+00 0.  1.
         23    2    1    2    0    0  0.39764103294E+02 -0.88370563542E+02 -0.96845918939E+02  0.16444977131E+03  0.90961831876E+02 0.  0.
         24    2    1    2    0    0 -0.45522261538E+01  0.25261043338E+02  0.43478429086E+03  0.44288936378E+03  0.80341557718E+02 0.  0.
        -11    1    4    4    0    0  0.10289986087E+02  0.31536030876E+02  0.67098274450E+02  0.74850407423E+02  0.00000000000E+00 0.  1.
         12    1    4    4    0    0 -0.14842212241E+02 -0.62749875383E+01  0.36768601641E+03  0.36803895636E+03  0.00000000000E+00 0. -1.
        -13    1    3    3    0    0 -0.36538630702E+01 -0.73949027845E+02 -0.92516156815E+02  0.11849493114E+03  0.00000000000E+00 0.  1.
         13    1    3    3    0    0  0.43417966364E+02 -0.14421535698E+02 -0.43297621236E+01  0.45954840171E+02  0.00000000000E+00 0. -1.
         21    1    1    2  502  501 -0.35211877140E+02  0.63109520204E+02  0.50083055354E+02  0.87926106850E+02  0.00000000000E+00 0. -1.
<scales pt_clust_5="13000.00000" pt_clust_6="13000.00000" pt_clust_7="13000.00000" pt_clust_8="13000.00000" pt_clust_9="72.26817"></scales>
<clustering>
<clus scale="   72.268">  1  9  2 -1</clus>
<clus scale="   80.342">  5  6 -1 -1</clus>
<clus scale="   90.962">  7  8 -1 -1</clus>
<clus scale="  121.959">  1  5  2 -1</clus>
<clus scale="   72.268">  1  5  2 -1</clus>
</clustering>
</event>
<event>
 9    2  0.3791909E-005  0.1161451E+03  0.7546771E-02  0.1252934E+00
         -1   -1    0    0    0  501 -0.00000000000E+00  0.00000000000E+00  0.11379086035E+03  0.11379086035E+03  0.00000000000E+00 0.  1.
          2   -1    0    0  502    0  0.00000000000E+00 -0.00000000000E+00 -0.54623780135E+03  0.54623780135E+03  0.00000000000E+00 0. -1.
         24    2    1    2    0    0 -0.32906965018E+02  0.69262601619E+02  0.72393361279E+02  0.13320147247E+03  0.81373565617E+02 0.  0.
         23    2    1    2    0    0  0.25300197408E+02 -0.20426845208E+02 -0.26915300874E+03  0.28601337244E+03  0.91120530672E+02 0.  0.
        -11    1    3    3    0    0 -0.53067640457E+02  0.58161126847E+02  0.76551686204E+02  0.10981371408E+03  0.00000000000E+00 0.  1.
         12    1    3    3    0    0  0.20160675438E+02  0.11101474773E+02 -0.41583249249E+01  0.23387758389E+02  0.00000000000E+00 0. -1.
        -13    1    4    4    0    0  0.10096079484E+02  0.25668748667E+02 -0.25471635631E+02  0.37544902460E+02  0.00000000000E+00 0.  1.
         13    1    4    4    0    0  0.15204117923E+02 -0.46095593875E+02 -0.24368137311E+03  0.24846846998E+03  0.00000000000E+00 0. -1.
         21    1    1    2  502  501  0.76067676108E+01 -0.48835756411E+02 -0.23568729354E+03  0.24081381679E+03  0.00000000000E+00 0. -1.
<scales pt_clust_5="13000.00000" pt_clust_6="13000.00000" pt_clust_7="13000.00000" pt_clust_8="13000.00000" pt_clust_9="49.42463"></scales>
<clustering>
<clus scale="   49.425">  2  9  1 -1</clus>
<clus scale="   81.374">  5  6 -1 -1</clus>
<clus scale="   91.121">  7  8 -1 -1</clus>
<clus scale="  108.666">  1  5  2 -1</clus>
<clus scale="   49.425">  2  5  1 -1</clus>
</clustering>
</event>
<event>
 9    2  0.3791909E-005  0.2745407E+03  0.7546771E-02  0.1099710E+00
         -3   -1    0    0    0  501 -0.00000000000E+00  0.00000000000E+00  0.97201763482E+03  0.97201763482E+03  0.00000000000E+00 0.  1.
          4   -1    0    0  502    0  0.00000000000E+00 -0.00000000000E+00 -0.94343572304E+02  0.94343572304E+02  0.00000000000E+00 0. -1.
         23    2    1    2    0    0  0.24303620333E+03 -0.78160048321E+01  0.46494428981E+03  0.53434740870E+03  0.10112504386E+03 0.  0.
         24    2    1    2    0    0 -0.27082166682E+03 -0.16024167457E+02  0.40596294663E+03  0.49478241742E+03  0.80016107083E+02 0.  0.
        -13    1    4    4    0    0 -0.18178175334E+03  0.11776609524E+02  0.31849349620E+03  0.36690789240E+03  0.00000000000E+00 0.  1.
         14    1    4    4    0    0 -0.89039913474E+02 -0.27800776981E+02  0.87469450432E+02  0.12787452503E+03  0.00000000000E+00 0. -1.
        -13    1    3    3    0    0  0.15719421441E+03  0.40744206466E+02  0.25379901579E+03  0.30130391936E+03  0.00000000000E+00 0.  1.
         13    1    3    3    0    0  0.85841988913E+02 -0.48560211298E+02  0.21114527403E+03  0.23304348934E+03  0.00000000000E+00 0. -1.
         21    1    1    2  502  501  0.27785463491E+02  0.23840172289E+02  0.67668260742E+01  0.37231381002E+02  0.00000000000E+00 0.  1.
<scales pt_clust_5="13000.00000" pt_clust_6="13000.00000" pt_clust_7="13000.00000" pt_clust_8="13000.00000" pt_clust_9="36.61128"></scales>
<clustering>
<clus scale="   36.611">  2  9  1 -1</clus>
<clus scale="   80.016">  5  6 -1 -1</clus>
<clus scale="  101.125">  7  8 -1 -1</clus>
<clus scale="  267.486">  2  5  1 -1</clus>
<clus scale="   36.611">  2  5  1 -1</clus>
</clustering>
</event>
<event>
 9    2  0.3791909E-005  0.1628034E+03  0.7546771E-02  0.1187106E+00
         -1   -1    0    0    0  501 -0.00000000000E+00  0.00000000000E+00  0.37639127299E+02  0.37639127299E+02  0.00000000000E+00 0.  1.
          2   -1    0    0  502    0  0.00000000000E+00 -0.00000000000E+00 -0.14329920764E+04  0.14329920764E+04  0.00000000000E+00 0. -1.
         23    2    1    2    0    0 -0.56901451829E+02 -0.13774028652E+03 -0.38571263783E+03  0.42328315348E+03  0.90466719224E+02 0.  0.
         24    2    1    2    0    0  0.13304899791E+03  0.52058454048E+02 -0.58597324592E+03  0.60844759744E+03  0.80197976347E+02 0.  0.
        -13    1    4    4    0    0  0.72485156789E+02  0.69756278895E+02 -0.34749798141E+03  0.36176633824E+03  0.00000000000E+00 0.  1.
         14    1    4    4    0    0  0.60563841123E+02 -0.17697824846E+02 -0.23847526452E+03  0.24668125920E+03  0.00000000000E+00 0. -1.
        -11    1    3    3    0    0  0.13391313235E+02 -0.76250532618E+02 -0.21774060127E+03  0.23109400779E+03  0.00000000000E+00 0. -1.
         11    1    3    3    0    0 -0.70292765064E+02 -0.61489753899E+02 -0.16797203656E+03  0.19218914569E+03  0.00000000000E+00 0.  1.
         21    1    1    2  502  501 -0.76147546083E+02  0.85681832469E+02 -0.42366706536E+03  0.43890045279E+03  0.00000000000E+00 0.  1.
<scales pt_clust_5="13000.00000" pt_clust_6="13000.00000" pt_clust_7="13000.00000" pt_clust_8="13000.00000" pt_clust_9="114.62908"></scales>
<clustering>
<clus scale="   80.198">  5  6 -1 -1</clus>
<clus scale="   90.467">  7  8 -1 -1</clus>
<clus scale="  114.629">  2  9  1 -1</clus>
<clus scale="  157.329">  2  5  1 -1</clus>
<clus scale="  114.629">  2  5  1 -1</clus>
</clustering>
</event>
<event>
 9    2  0.3791909E-005  0.1470628E+03  0.7546771E-02  0.1204613E+00
          2   -1    0    0  502    0  0.00000000000E+00  0.00000000000E+00  0.70254173273E+03  0.70254173273E+03  0.00000000000E+00 0. -1.
         -1   -1    0    0    0  501 -0.00000000000E+00 -0.00000000000E+00 -0.13923790298E+03  0.13923790298E+03  0.00000000000E+00 0.  1.
         23    2    1    2    0    0 -0.84195718126E+02 -0.80836475552E+02 -0.63639433466E+02  0.16130689726E+03  0.91359087565E+02 0.  0.
         24    2    1    2    0    0  0.11560003442E+03  0.32601956454E+02  0.19991891481E+03  0.24958691361E+03  0.88880815843E+02 0.  0.
        -13    1    4    4    0    0  0.71281901108E+02  0.25953545949E+02  0.44747873722E+02  0.88074219699E+02  0.00000000000E+00 0.  1.
         14    1    4    4    0    0  0.44318133309E+02  0.66484105047E+01  0.15517104109E+03  0.16151269391E+03  0.00000000000E+00 0. -1.
        -13    1    3    3    0    0 -0.86601359900E+02 -0.26537743510E+02 -0.55820506271E+02  0.10639537719E+03  0.00000000000E+00 0. -1.
         13    1    3    3    0    0  0.24056417734E+01 -0.54298732042E+02 -0.78189271953E+01  0.54911520068E+02  0.00000000000E+00 0.  1.
         21    1    1    2  502  501 -0.31404316290E+02  0.48234519098E+02  0.42702434841E+03  0.43088582484E+03  0.00000000000E+00 0. -1.
<scales pt_clust_5="13000.00000" pt_clust_6="13000.00000" pt_clust_7="13000.00000" pt_clust_8="13000.00000" pt_clust_9="57.55693"></scales>
<clustering>
<clus scale="   57.557">  1  9  2 -1</clus>
<clus scale="   88.881">  5  6 -1 -1</clus>
<clus scale="   91.359">  7  8 -1 -1</clus>
<clus scale="  145.536">  1  5  2 -1</clus>
<clus scale="   57.557">  1  5  2 -1</clus>
</clustering>
</event>
<event>
 9    2  0.3791909E-005  0.1009988E+03  0.7546771E-02  0.1285214E+00
          2   -1    0    0  502    0  0.00000000000E+00  0.00000000000E+00  0.44790716401E+02  0.44790716401E+02  0.00000000000E+00 0. -1.
         -1   -1    0    0    0  501 -0.00000000000E+00 -0.00000000000E+00 -0.37008327927E+03  0.37008327927E+03  0.00000000000E+00 0.  1.
         23    2    1    2    0    0 -0.38345962719E+01 -0.34269549502E+02 -0.17907974295E+03  0.20488208588E+03  0.93370276996E+02 0.  0.
         24    2    1    2    0    0 -0.24548605747E+02  0.34545796735E+02 -0.37554072934E+02  0.97686942114E+02  0.79601407961E+02 0.  0.
        -11    1    4    4    0    0 -0.33294127284E+02  0.30620400811E+01 -0.52111418453E+02  0.61915062256E+02  0.00000000000E+00 0.  1.
         12    1    4    4    0    0  0.87455215367E+01  0.31483756654E+02  0.14557345519E+02  0.35771879857E+02  0.00000000000E+00 0. -1.
        -13    1    3    3    0    0 -0.38842656969E+02 -0.45235787851E+02 -0.13467565925E+03  0.14728394921E+03  0.00000000000E+00 0.  1.
         13    1    3    3    0    0  0.35008060697E+02  0.10966238349E+02 -0.44404083705E+02  0.57598136663E+02  0.00000000000E+00 0. -1.
         21    1    1    2  502  501  0.28383202019E+02 -0.27624723345E+00 -0.10865874698E+03  0.11230496768E+03  0.00000000000E+00 0.  1.
<scales pt_clust_5="13000.00000" pt_clust_6="13000.00000" pt_clust_7="13000.00000" pt_clust_8="13000.00000" pt_clust_9="28.38455"></scales>
<clustering>
<clus scale="   28.385">  2  9  1 -1</clus>
<clus scale="   79.601">  5  6 -1 -1</clus>
<clus scale="   88.426">  1  5  2 -1</clus>
<clus scale="   93.370">  7  8 -1 -1</clus>
<clus scale="   88.426">  1  5  2 -1</clus>
</clustering>
</event>
<event>
 9    2  0.3791909E-005  0.1012781E+03  0.7546771E-02  0.1282550E+00
          4   -1    0    0  502    0  0.00000000000E+00  0.00000000000E+00  0.13703074646E+03  0.13703074646E+03  0.00000000000E+00 0. -1.
         -3   -1    0    0    0  501 -0.00000000000E+00 -0.00000000000E+00 -0.18993010104E+03  0.18993010104E+03  0.00000000000E+00 0.  1.
         23    2    1    2    0    0 -0.30300548978E+02 -0.30542961732E+02 -0.10769647255E+03  0.14802848485E+03  0.91994056043E+02 0.  0.
         24    2    1    2    0    0  0.62518664009E+02 -0.19998892418E+02  0.12820848734E+02  0.10575796047E+03  0.81925777342E+02 0.  0.
        -13    1    4    4    0    0  0.57473391086E+02 -0.10998755757E+02 -0.27127588249E+02  0.64498599639E+02  0.00000000000E+00 0.  1.
         14    1    4    4    0    0  0.50452729230E+01 -0.90001366613E+01  0.39948436983E+02  0.41259360831E+02  0.00000000000E+00 0. -1.
        -11    1    3    3    0    0 -0.17226304513E+02 -0.63647875210E+02 -0.71544552718E+02  0.97295532320E+02  0.00000000000E+00 0.  1.
         11    1    3    3    0    0 -0.13074244465E+02  0.33104913478E+02 -0.36151919831E+02  0.50732952527E+02  0.00000000000E+00 0. -1.
         21    1    1    2  502  501 -0.32218115031E+02  0.50541854150E+02  0.41976269235E+02  0.73174402190E+02  0.00000000000E+00 0. -1.
<scales pt_clust_5="13000.00000" pt_clust_6="13000.00000" pt_clust_7="13000.00000" pt_clust_8="13000.00000" pt_clust_9="59.93735"></scales>
<clustering>
<clus scale="   59.937">  1  9  2 -1</clus>
<clus scale="   81.926">  5  6 -1 -1</clus>
<clus scale="   91.994">  7  8 -1 -1</clus>
<clus scale="   92.229">  1  5  2 -1</clus>
<clus scale="   59.937">  1  5  2 -1</clus>
</clustering>
</event>
<event>
 9    2  0.3791909E-005  0.2418267E+03  0.7546771E-02  0.1119191E+00
          2   -1    0    0  502    0  0.00000000000E+00  0.00000000000E+00  0.57611274042E+03  0.57611274042E+03  0.00000000000E+00 0. -1.
         -1   -1    0    0    0  501 -0.00000000000E+00 -0.00000000000E+00 -0.18992938047E+03  0.18992938047E+03  0.00000000000E+00 0.  1.
         23    2    1    2    0    0  0.12657914128E+03  0.18242392056E+03 -0.55580477322E+02  0.24567166702E+03  0.89244678930E+02 0.  0.
         24    2    1    2    0    0 -0.15052789162E+03 -0.18385637935E+03  0.39182361755E+03  0.46496630126E+03  0.78778802006E+02 0.  0.
        -13    1    4    4    0    0 -0.25266198422E+02  0.12682891762E+01  0.26117384928E+02  0.36360791185E+02  0.00000000000E+00 0.  1.
         14    1    4    4    0    0 -0.12526169320E+03 -0.18512466853E+03  0.36570623263E+03  0.42860551007E+03  0.00000000000E+00 0. -1.
        -11    1    3    3    0    0  0.31021939622E+01  0.33414334612E+02  0.18661960799E+02  0.38398048724E+02  0.00000000000E+00 0. -1.
         11    1    3    3    0    0  0.12347694732E+03  0.14900958595E+03 -0.74242438121E+02  0.20727361830E+03  0.00000000000E+00 0.  1.
         21    1    1    2  502  501  0.23948750343E+02  0.14324587945E+01  0.49940219721E+02  0.55404152615E+02  0.00000000000E+00 0.  1.
<scales pt_clust_5="13000.00000" pt_clust_6="13000.00000" pt_clust_7="13000.00000" pt_clust_8="13000.00000" pt_clust_9="23.99155"></scales>
<clustering>
<clus scale="   23.992">  1  9  2 -1</clus>
<clus scale="   78.779">  5  6 -1 -1</clus>
<clus scale="   89.245">  7  8 -1 -1</clus>
<clus scale="  238.163">  1  5  2 -1</clus>
<clus scale="   23.992">  1  5  2 -1</clus>
</clustering>
</event>
<event>
 9    2  0.3791909E-005  0.9846403E+02  0.7546771E-02  0.1288777E+00
         -1   -1    0    0    0  501 -0.00000000000E+00  0.00000000000E+00  0.49545496440E+02  0.49545496440E+02  0.00000000000E+00 0.  1.
          2   -1    0    0  502    0  0.00000000000E+00 -0.00000000000E+00 -0.43457545572E+03  0.43457545572E+03  0.00000000000E+00 0. -1.
         23    2    1    2    0    0  0.64046083847E+01 -0.31090673606E+02 -0.34627115256E+02  0.10247244380E+03  0.91070937376E+02 0.  0.
         24    2    1    2    0    0  0.27716582263E+02  0.61525878846E+02 -0.25006862954E+03  0.27138740023E+03  0.81013324968E+02 0.  0.
        -13    1    4    4    0    0  0.12300306460E+02  0.51060123336E+02 -0.57331796837E+02  0.77751968867E+02  0.00000000000E+00 0.  1.
         14    1    4    4    0    0  0.15416275803E+02  0.10465755510E+02 -0.19273683270E+03  0.19363543136E+03  0.00000000000E+00 0. -1.
        -13    1    3    3    0    0 -0.12078548754E+02  0.17026594979E+02  0.18901131682E+02  0.28161126672E+02  0.00000000000E+00 0. -1.
         13    1    3    3    0    0  0.18483157138E+02 -0.48117268585E+02 -0.53528246937E+02  0.74311317133E+02  0.00000000000E+00 0.  1.
         21    1    1    2  502  501 -0.34121190648E+02 -0.30435205240E+02 -0.10033421449E+03  0.11026110813E+03  0.00000000000E+00 0. -1.
<scales pt_clust_5="13000.00000" pt_clust_6="13000.00000" pt_clust_7="13000.00000" pt_clust_8="13000.00000" pt_clust_9="45.72261"></scales>
<clustering>
<clus scale="   45.723">  2  9  1 -1</clus>
<clus scale="   81.013">  5  6 -1 -1</clus>
<clus scale="   89.244">  2  5  1 -1</clus>
<clus scale="   91.071">  7  8 -1 -1</clus>
<clus scale="   45.723">  2  5  1 -1</clus>
</clustering>
</event>
<event>
 9    2  0.3791909E-005  0.1366148E+03  0.7546771E-02  0.1219951E+00
          2   -1    0    0  502    0  0.00000000000E+00  0.00000000000E+00  0.12915079507E+03  0.12915079507E+03  0.00000000000E+00 0. -1.
         -1   -1    0    0    0  501 -0.00000000000E+00 -0.00000000000E+00 -0.26863056536E+03  0.26863056536E+03  0.00000000000E+00 0.  1.
         24    2    1    2    0    0 -0.75408179150E+02 -0.80698657132E+01 -0.52396672590E+02  0.12362102395E+03  0.82372507840E+02 0.  0.
         23    2    1    2    0    0  0.13026393724E+03 -0.88092002289E+01 -0.12752563103E+03  0.20394883056E+03  0.91027707658E+02 0.  0.
        -13    1    3    3    0    0 -0.57561548640E+02  0.31577985734E+02 -0.44800139885E+02  0.79483039692E+02  0.00000000000E+00 0.  1.
         14    1    3    3    0    0 -0.17846630510E+02 -0.39647851448E+02 -0.75965327051E+01  0.44137984255E+02  0.00000000000E+00 0. -1.
        -11    1    4    4    0    0  0.79557615549E+02 -0.21112402977E+02 -0.12751221201E+03  0.15177124880E+03  0.00000000000E+00 0. -1.
         11    1    4    4    0    0  0.50706321693E+02  0.12303202748E+02 -0.13419017431E-01  0.52177581752E+02  0.00000000000E+00 0.  1.
         21    1    1    2  502  501 -0.54855758092E+02  0.16879065942E+02  0.40442533331E+02  0.70211505931E+02  0.00000000000E+00 0. -1.
<scales pt_clust_5="13000.00000" pt_clust_6="13000.00000" pt_clust_7="13000.00000" pt_clust_8="13000.00000" pt_clust_9="57.39388"></scales>
<clustering>
<clus scale="   57.394">  1  9  2 -1</clus>
<clus scale="   82.373">  5  6 -1 -1</clus>
<clus scale="   91.028">  7  8 -1 -1</clus>
<clus scale="  131.007">  2  5  1 -1</clus>
<clus scale="   57.394">  1  5  2 -1</clus>
</clustering>
</event>
<event>
 9    2  0.3791909E-005  0.1210691E+03  0.7546771E-02  0.1242282E+00
         -1   -1    0    0    0  501 -0.00000000000E+00  0.00000000000E+00  0.43850614301E+02  0.43850614301E+02  0.00000000000E+00 0.  1.
          2   -1    0    0  502    0  0.00000000000E+00 -0.00000000000E+00 -0.66125058621E+03  0.66125058621E+03  0.00000000000E+00 0. -1.
         24    2    1    2    0    0  0.10380324625E+03  0.35420833321E+01 -0.12196001567E+03  0.18040264614E+03  0.82965107281E+02 0.  0.
         23    2    1    2    0    0 -0.54336897547E+02 -0.44608512576E+02 -0.26589618655E+03  0.28632130406E+03  0.79603324719E+02 0.  0.
        -13    1    3    3    0    0  0.83864784601E+02  0.19161455892E+02 -0.12813368799E+03  0.15433309912E+03  0.00000000000E+00 0.  1.
         14    1    3    3    0    0  0.19938461646E+02 -0.15619372560E+02  0.61736723120E+01  0.26069547019E+02  0.00000000000E+00 0. -1.
        -13    1    4    4    0    0 -0.49574760028E+01 -0.32545897190E+02 -0.28499133339E+02  0.43543226721E+02  0.00000000000E+00 0.  1.
         13    1    4    4    0    0 -0.49379421544E+02 -0.12062615386E+02 -0.23739705321E+03  0.24277807734E+03  0.00000000000E+00 0. -1.
         21    1    1    2  502  501 -0.49466348699E+02  0.41066429244E+02 -0.22954376969E+03  0.23837725031E+03  0.00000000000E+00 0.  1.
<scales pt_clust_5="13000.00000" pt_clust_6="13000.00000" pt_clust_7="13000.00000" pt_clust_8="13000.00000" pt_clust_9="64.29130"></scales>
<clustering>
<clus scale="   64.291">  2  9  1 -1</clus>
<clus scale="   79.603">  7  8 -1 -1</clus>
<clus scale="   82.965">  5  6 -1 -1</clus>
<clus scale="  118.791">  2  7  1 -1</clus>
<clus scale="   64.291">  2  5  1 -1</clus>
</clustering>
</event>
<event>
 9    2  0.3791909E-005  0.1026215E+03  0.7546771E-02  0.1280512E+00
         -1   -1    0    0    0  501 -0.00000000000E+00  0.00000000000E+00  0.24279186790E+02  0.24279186790E+02  0.00000000000E+00 0.  1.
          2   -1    0    0  502    0  0.00000000000E+00 -0.00000000000E+00 -0.12400195278E+04  0.12400195278E+04  0.00000000000E+00 0. -1.
         23    2    1    2    0    0  0.40470880518E+02  0.12539548896E+02 -0.10825387047E+03  0.14897160036E+03  0.93158492828E+02 0.  0.
         24    2    1    2    0    0 -0.53071784912E+02  0.11659958649E+02 -0.98403591399E+03  0.98889753356E+03  0.81480567365E+02 0.  0.
        -13    1    4    4    0    0 -0.10711970749E+02 -0.17830964425E+02 -0.61572444483E+02  0.64991195782E+02  0.00000000000E+00 0.  1.
         14    1    4    4    0    0 -0.42359814162E+02  0.29490923074E+02 -0.92246346951E+03  0.92390633777E+03  0.00000000000E+00 0. -1.
        -13    1    3    3    0    0 -0.29389633498E+01  0.46571433492E+02 -0.42204003320E+02  0.62918310683E+02  0.00000000000E+00 0. -1.
         13    1    3    3    0    0  0.43409843868E+02 -0.34031884596E+02 -0.66049867149E+02  0.86053289677E+02  0.00000000000E+00 0.  1.
         21    1    1    2  502  501  0.12600904394E+02 -0.24199507545E+02 -0.12345055653E+03  0.12642958065E+03  0.00000000000E+00 0.  1.
<scales pt_clust_5="13000.00000" pt_clust_6="13000.00000" pt_clust_7="13000.00000" pt_clust_8="13000.00000" pt_clust_9="27.28368"></scales>
<clustering>
<clus scale="   27.284">  2  9  1 -1</clus>
<clus scale="   81.481">  5  6 -1 -1</clus>
<clus scale="   92.151">  2  5  1 -1</clus>
<clus scale="   93.158">  7  8 -1 -1</clus>
<clus scale="   27.284">  2  5  1 -1</clus>
</clustering>
</event>
<event>
 9    2  0.3791909E-005  0.8986740E+02  0.7546771E-02  0.1306994E+00
          2   -1    0    0  502    0  0.00000000000E+00  0.00000000000E+00  0.14224077356E+03  0.14224077356E+03  0.00000000000E+00 0. -1.
         -1   -1    0    0    0  501 -0.00000000000E+00 -0.00000000000E+00 -0.12305568897E+03  0.12305568897E+03  0.00000000000E+00 0.  1.
         23    2    1    2    0    0  0.20251188439E+02  0.18530967550E+02 -0.76471009221E+02  0.11887209213E+03  0.86771260477E+02 0.  0.
         24    2    1    2    0    0 -0.13942929151E+02  0.89828850113E+01  0.76872141254E+02  0.11251798322E+03  0.80472808767E+02 0.  0.
        -11    1    4    4    0    0 -0.43081872579E+02  0.15955131433E+02  0.66471385660E+02  0.80802593248E+02  0.00000000000E+00 0.  1.
         12    1    4    4    0    0  0.29138943428E+02 -0.69722464216E+01  0.10400755594E+02  0.31715389974E+02  0.00000000000E+00 0. -1.
        -11    1    3    3    0    0  0.38180693370E+02 -0.17875134798E+02 -0.14085270400E+02  0.44448629141E+02  0.00000000000E+00 0. -1.
         11    1    3    3    0    0 -0.17929504931E+02  0.36406102348E+02 -0.62385738820E+02  0.74423462990E+02  0.00000000000E+00 0.  1.
         21    1    1    2  502  501 -0.63082592879E+01 -0.27513852561E+02  0.18783952555E+02  0.33906387180E+02  0.00000000000E+00 0.  1.
<scales pt_clust_5="13000.00000" pt_clust_6="13000.00000" pt_clust_7="13000.00000" pt_clust_8="13000.00000" pt_clust_9="28.22776"></scales>
<clustering>
<clus scale="   28.228">  1  9  2 -1</clus>
<clus scale="   80.473">  5  6 -1 -1</clus>
<clus scale="   83.802">  1  5  2 -1</clus>
<clus scale="   86.771">  7  8 -1 -1</clus>
<clus scale="   28.228">  1  5  2 -1</clus>
</clustering>
</event>
<event>
 9    2  0.3791909E-005  0.1313820E+03  0.7546771E-02  0.1229676E+00
          2   -1    0    0  502    0  0.00000000000E+00  0.00000000000E+00  0.21535831769E+03  0.21535831769E+03  0.00000000000E+00 0. -1.
         -1   -1    0    0    0  501 -0.00000000000E+00 -0.00000000000E+00 -0.44743244386E+03  0.44743244386E+03  0.00000000000E+00 0.  1.
         23    2    1    2    0    0 -0.78912036486E+02  0.72215415751E+02 -0.28255272043E+03  0.31567195416E+03  0.91490803061E+02 0.  0.
         24    2    1    2    0    0  0.26513890147E+02 -0.80020008390E+02 -0.12238555832E+03  0.16631921488E+03  0.74683788321E+02 0.  0.
        -11    1    4    4    0    0 -0.68605693546E+01 -0.41325929244E+02 -0.10381859188E+03  0.11195177470E+03  0.00000000000E+00 0.  1.
         12    1    4    4    0    0  0.33374459501E+02 -0.38694079146E+02 -0.18566966442E+02  0.54367440172E+02  0.00000000000E+00 0. -1.
        -11    1    3    3    0    0 -0.78219729698E+02  0.36736604060E+02 -0.25911333110E+03  0.27314395938E+03  0.00000000000E+00 0.  1.
         11    1    3    3    0    0 -0.69230678760E+00  0.35478811691E+02 -0.23439389332E+02  0.42527994779E+02  0.00000000000E+00 0. -1.
         21    1    1    2  502  501  0.52398146339E+02  0.78045926387E+01  0.17286415259E+03  0.18079959252E+03  0.00000000000E+00 0. -1.
<scales pt_clust_5="13000.00000" pt_clust_6="13000.00000" pt_clust_7="13000.00000" pt_clust_8="13000.00000" pt_clust_9="52.97620"></scales>
<clustering>
<clus scale="   52.976">  1  9  2 -1</clus>
<clus scale="   74.684">  5  6 -1 -1</clus>
<clus scale="   91.491">  7  8 -1 -1</clus>
<clus scale="  120.284">  1  5  2 -1</clus>
<clus scale="   52.976">  1  5  2 -1</clus>
</clustering>
</event>
<event>
 9    2  0.3791909E-005  0.1566746E+03  0.7546771E-02  0.1194265E+00
         -1   -1    0    0    0  501 -0.00000000000E+00  0.00000000000E+00  0.11269751222E+03  0.11269751222E+03  0.00000000000E+00 0.  1.
          2   -1    0    0  502    0  0.00000000000E+00 -0.00000000000E+00 -0.84632258745E+03  0.84632258745E+03  0.00000000000E+00 0. -1.
         24    2    1    2    0    0 -0.19028486636E+02  0.13497574969E+03  0.40960083732E+02  0.16297331230E+03  0.79385362334E+02 0.  0.
         23    2    1    2    0    0 -0.12917859939E+01 -0.66514972140E+02 -0.45836085650E+03  0.47185918581E+03  0.90169319797E+02 0.  0.
        -13    1    3    3    0    0 -0.10333766626E+02  0.14138455027E+03  0.48468616425E+02  0.14981850542E+03  0.00000000000E+00 0.  1.
         14    1    3    3    0    0 -0.86947200101E+01 -0.64088005747E+01 -0.75085326928E+01  0.13154806880E+02  0.00000000000E+00 0. -1.
        -11    1    4    4    0    0 -0.45503894701E+02 -0.38636122458E+02 -0.23473513977E+03  0.24220640007E+03  0.00000000000E+00 0. -1.
         11    1    4    4    0    0  0.44212108707E+02 -0.27878849682E+02 -0.22362571673E+03  0.22965278574E+03  0.00000000000E+00 0.  1.
         21    1    1    2  502  501  0.20320272630E+02 -0.68460777554E+02 -0.31622430246E+03  0.32418760157E+03  0.00000000000E+00 0.  1.
<scales pt_clust_5="13000.00000" pt_clust_6="13000.00000" pt_clust_7="13000.00000" pt_clust_8="13000.00000" pt_clust_9="71.41282"></scales>
<clustering>
<clus scale="   71.413">  2  9  1 -1</clus>
<clus scale="   79.385">  5  6 -1 -1</clus>
<clus scale="   90.169">  7  8 -1 -1</clus>
<clus scale="  150.726">  1  5  2 -1</clus>
<clus scale="   71.413">  2  5  1 -1</clus>
</clustering>
</event>
<event>
 9    2  0.3791909E-005  0.1505490E+03  0.7546771E-02  0.1219703E+00
         -1   -1    0    0    0  501 -0.00000000000E+00  0.00000000000E+00  0.30483479262E+03  0.30483479262E+03  0.00000000000E+00 0.  1.
          2   -1    0    0  502    0  0.00000000000E+00 -0.00000000000E+00 -0.17177709683E+03  0.17177709683E+03  0.00000000000E+00 0. -1.
         23    2    1    2    0    0  0.40524194937E+01 -0.37646739631E+02  0.16573544512E+03  0.19274765782E+03  0.90827984224E+02 0.  0.
         24    2    1    2    0    0 -0.51098436277E+02  0.13976551959E+03 -0.19012845583E+02  0.17060213510E+03  0.81228994496E+02 0.  0.
        -13    1    4    4    0    0 -0.63375398116E+02  0.55140491827E+02 -0.10827014885E+02  0.84700290299E+02  0.00000000000E+00 0.  1.
         14    1    4    4    0    0  0.12276961839E+02  0.84625027763E+02 -0.81858306974E+01  0.85901844800E+02  0.00000000000E+00 0. -1.
        -11    1    3    3    0    0  0.45262638640E+02 -0.18696058026E+02  0.11320848256E+03  0.12334670472E+03  0.00000000000E+00 0.  1.
         11    1    3    3    0    0 -0.41210219147E+02 -0.18950681605E+02  0.52526962566E+02  0.69400953104E+02  0.00000000000E+00 0. -1.
         21    1    1    2  502  501  0.47046016784E+02 -0.10211877996E+03 -0.13664903758E+02  0.11326209653E+03  0.00000000000E+00 0.  1.
<scales pt_clust_5="13000.00000" pt_clust_6="13000.00000" pt_clust_7="13000.00000" pt_clust_8="13000.00000" pt_clust_9="126.75511"></scales>
<clustering>
<clus scale="   81.229">  5  6 -1 -1</clus>
<clus scale="   90.828">  7  8 -1 -1</clus>
<clus scale="   98.404">  1  7  2 -1</clus>
<clus scale="  126.755">  2  9  1 -1</clus>
<clus scale="  126.755">  2  5  1 -1</clus>
</clustering>
</event>
<event>
 9    2  0.3791909E-005  0.1011486E+03  0.7546771E-02  0.1289471E+00
         -1   -1    0    0    0  501 -0.00000000000E+00  0.00000000000E+00  0.33737160437E+02  0.33737160437E+02  0.00000000000E+00 0.  1.
          2   -1    0    0  502    0  0.00000000000E+00 -0.00000000000E+00 -0.38052898979E+03  0.38052898979E+03  0.00000000000E+00 0. -1.
         23    2    1    2    0    0 -0.18858585515E+01 -0.22422027535E+02 -0.10527243947E+03  0.14716850183E+03  0.10034927821E+03 0.  0.
         24    2    1    2    0    0 -0.15510527921E+02  0.80120340774E+00 -0.20856706421E+03  0.22401690948E+03  0.80262924554E+02 0.  0.
        -13    1    4    4    0    0 -0.26978874881E+02  0.27113696506E+02 -0.50421974298E+02  0.63288132538E+02  0.00000000000E+00 0.  1.
         14    1    4    4    0    0  0.11468346960E+02 -0.26312493098E+02 -0.15814508991E+03  0.16072877694E+03  0.00000000000E+00 0. -1.
        -11    1    3    3    0    0  0.32829833927E+02  0.53994182979E+01 -0.42571886684E+00  0.33273607412E+02  0.00000000000E+00 0.  1.
         11    1    3    3    0    0 -0.34715692479E+02 -0.27821445833E+02 -0.10484672061E+03  0.11389489442E+03  0.00000000000E+00 0. -1.
         21    1    1    2  502  501  0.17396386473E+02  0.21620824127E+02 -0.32952325670E+02  0.43080738913E+02  0.00000000000E+00 0.  1.
<scales pt_clust_5="13000.00000" pt_clust_6="13000.00000" pt_clust_7="13000.00000" pt_clust_8="13000.00000" pt_clust_9="27.75057"></scales>
<clustering>
<clus scale="   27.751">  1  9  2 -1</clus>
<clus scale="   80.263">  5  6 -1 -1</clus>
<clus scale="   81.260">  2  5  1 -1</clus>
<clus scale="  100.349">  7  8 -1 -1</clus>
<clus scale="   81.260">  2  5  1 -1</clus>
</clustering>
</event>
<event>
 9    2  0.3791909E-005  0.1109339E+03  0.7546771E-02  0.1270623E+00
          2   -1    0    0  502    0  0.00000000000E+00  0.00000000000E+00  0.27768949581E+03  0.27768949581E+03  0.00000000000E+00 0. -1.
         -1   -1    0    0    0  501 -0.00000000000E+00 -0.00000000000E+00 -0.59478737995E+02  0.59478737995E+02  0.00000000000E+00 0.  1.
         24    2    1    2    0    0  0.32489651023E+02 -0.10836944500E+02  0.11602305956E+02  0.90736921026E+02  0.83219940784E+02 0.  0.
         23    2    1    2    0    0 -0.11198223966E+02  0.77319583175E+01  0.14206350892E+03  0.17839444436E+03  0.10703902939E+03 0.  0.
        -13    1    3    3    0    0  0.43629520772E+02  0.25990245606E+02  0.86457608683E+00  0.50791489850E+02  0.00000000000E+00 0.  1.
         14    1    3    3    0    0 -0.11139869749E+02 -0.36827190105E+02  0.10737729870E+02  0.39945431176E+02  0.00000000000E+00 0. -1.
        -13    1    4    4    0    0 -0.35388260139E+02  0.68545810678E+01  0.18356386478E+01  0.36092711266E+02  0.00000000000E+00 0.  1.
         13    1    4    4    0    0  0.24190036172E+02  0.87737724977E+00  0.14022787028E+03  0.14230173310E+03  0.00000000000E+00 0. -1.
         21    1    1    2  502  501 -0.21291427056E+02  0.31049861821E+01  0.64544942939E+02  0.68036868419E+02  0.00000000000E+00 0. -1.
<scales pt_clust_5="13000.00000" pt_clust_6="13000.00000" pt_clust_7="13000.00000" pt_clust_8="13000.00000" pt_clust_9="21.51664"></scales>
<clustering>
<clus scale="   21.517">  1  9  2 -1</clus>
<clus scale="   83.220">  5  6 -1 -1</clus>
<clus scale="   88.173">  2  5  1 -1</clus>
<clus scale="  107.039">  7  8 -1 -1</clus>
<clus scale="   21.517">  1  5  2 -1</clus>
</clustering>
</event>
<event>
 9    2  0.3791909E-005  0.1248624E+03  0.7546771E-02  0.1238537E+00
         -1   -1    0    0    0  501 -0.00000000000E+00  0.00000000000E+00  0.24884889908E+03  0.24884889908E+03  0.00000000000E+00 0.  1.
          2   -1    0    0  502    0  0.00000000000E+00 -0.00000000000E+00 -0.21566952690E+03  0.21566952690E+03  0.00000000000E+00 0. -1.
         23    2    1    2    0    0  0.46186937646E+02 -0.74273943723E+02  0.19799737306E+03  0.23505782430E+03  0.91648071982E+02 0.  0.
         24    2    1    2    0    0 -0.69768320648E+02  0.31830606462E+02 -0.11429648118E+03  0.15938962013E+03  0.80377604605E+02 0.  0.
        -13    1    4    4    0    0 -0.27008723925E+02  0.84342661805E+01  0.65850276342E+01  0.29051172145E+02  0.00000000000E+00 0.  1.
         14    1    4    4    0    0 -0.42759596724E+02  0.23396340282E+02 -0.12088150882E+03  0.13033844799E+03  0.00000000000E+00 0. -1.
        -11    1    3    3    0    0  0.72476422087E+01 -0.78451816552E+02  0.16856484450E+03  0.18606805916E+03  0.00000000000E+00 0.  1.
         11    1    3    3    0    0  0.38939295438E+02  0.41778728290E+01  0.29432528560E+02  0.48989765135E+02  0.00000000000E+00 0. -1.
         21    1    1    2  502  501  0.23581383002E+02  0.42443337261E+02 -0.50521519696E+02  0.70070981544E+02  0.00000000000E+00 0. -1.
<scales pt_clust_5="13000.00000" pt_clust_6="13000.00000" pt_clust_7="13000.00000" pt_clust_8="13000.00000" pt_clust_9="48.55428"></scales>
<clustering>
<clus scale="   48.554">  2  9  1 -1</clus>
<clus scale="   80.378">  5  6 -1 -1</clus>
<clus scale="   91.648">  7  8 -1 -1</clus>
<clus scale="  116.841">  2  5  1 -1</clus>
<clus scale="   48.554">  2  5  1 -1</clus>
</clustering>
</event>
<event>
 9    2  0.3791909E-005  0.1052647E+03  0.7546771E-02  0.1272266E+00
          2   -1    0    0  502    0  0.00000000000E+00  0.00000000000E+00  0.62886948198E+02  0.62886948198E+02  0.00000000000E+00 0. -1.
         -1   -1    0    0    0  501 -0.00000000000E+00 -0.00000000000E+00 -0.43509654731E+03  0.43509654731E+03  0.00000000000E+00 0.  1.
         23    2    1    2    0    0 -0.53944784077E+02  0.72653378144E+01 -0.36016943356E+03  0.37545762737E+03  0.91014197885E+02 0.  0.
         24    2    1    2    0    0  0.44553668835E+02  0.12367255149E+02  0.19584921620E+01  0.96649350410E+02  0.84848587711E+02 0.  0.
        -11    1    4    4    0    0  0.20804343620E+02  0.48850815054E+02  0.12494390792E+01  0.53111052926E+02  0.00000000000E+00 0.  1.
         12    1    4    4    0    0  0.23749325215E+02 -0.36483559905E+02  0.70905308277E+00  0.43538297484E+02  0.00000000000E+00 0. -1.
        -13    1    3    3    0    0  0.40146444647E+01  0.24566950303E+02 -0.26530996356E+02  0.36380574281E+02  0.00000000000E+00 0. -1.
         13    1    3    3    0    0 -0.57959428542E+02 -0.17301612489E+02 -0.33363843721E+03  0.33907705309E+03  0.00000000000E+00 0.  1.
         21    1    1    2  502  501  0.93911152422E+01 -0.19632592963E+02 -0.13998657713E+02  0.25876517728E+02  0.00000000000E+00 0. -1.
<scales pt_clust_5="13000.00000" pt_clust_6="13000.00000" pt_clust_7="13000.00000" pt_clust_8="13000.00000" pt_clust_9="21.76308"></scales>
<clustering>
<clus scale="   21.763">  1  9  2 -1</clus>
<clus scale="   84.849">  5  6 -1 -1</clus>
<clus scale="   91.014">  7  8 -1 -1</clus>
<clus scale="   99.982">  1  5  2 -1</clus>
<clus scale="   21.763">  1  5  2 -1</clus>
</clustering>
</event>
<event>
 9    2  0.3791909E-005  0.1556430E+03  0.7546771E-02  0.1213072E+00
         -1   -1    0    0    0  501 -0.00000000000E+00  0.00000000000E+00  0.54908914538E+02  0.54908914538E+02  0.00000000000E+00 0.  1.
          2   -1    0    0  502    0  0.00000000000E+00 -0.00000000000E+00 -0.14750371423E+04  0.14750371423E+04  0.00000000000E+00 0. -1.
         23    2    1    2    0    0 -0.38618973770E+02  0.21227208778E+02 -0.43102112327E+02  0.11114455706E+03  0.92484057809E+02 0.  0.
         24    2    1    2    0    0 -0.18912193153E+02  0.10735099079E+03 -0.26112747884E+03  0.29404732409E+03  0.79964756774E+02 0.  0.
        -11    1    4    4    0    0  0.11975509410E+01  0.98421891730E+02 -0.14121950134E+03  0.17213730119E+03  0.00000000000E+00 0.  1.
         12    1    4    4    0    0 -0.20109744094E+02  0.89290990643E+01 -0.11990797750E+03  0.12191002290E+03  0.00000000000E+00 0. -1.
        -13    1    3    3    0    0 -0.58823707413E+02  0.41196751092E+02 -0.40914965276E+02  0.82652496864E+02  0.00000000000E+00 0.  1.
         13    1    3    3    0    0  0.20204733643E+02 -0.19969542314E+02 -0.21871470510E+01  0.28492060193E+02  0.00000000000E+00 0. -1.
         21    1    1    2  502  501  0.57531166923E+02 -0.12857819957E+03 -0.11158986366E+04  0.11247541757E+04  0.00000000000E+00 0. -1.
<scales pt_clust_5="13000.00000" pt_clust_6="13000.00000" pt_clust_7="13000.00000" pt_clust_8="13000.00000" pt_clust_9="133.53039"></scales>
<clustering>
<clus scale="   79.965">  5  6 -1 -1</clus>
<clus scale="   92.484">  7  8 -1 -1</clus>
<clus scale="  102.447">  1  7  2 -1</clus>
<clus scale="  133.530">  2  9  1 -1</clus>
<clus scale="  133.530">  2  5  1 -1</clus>
</clustering>
</event>
<event>
 9    2  0.3791909E-005  0.9313648E+02  0.7546771E-02  0.1302441E+00
          2   -1    0    0  502    0  0.00000000000E+00  0.00000000000E+00  0.57503089721E+03  0.57503089721E+03  0.00000000000E+00 0. -1.
         -1   -1    0    0    0  501 -0.00000000000E+00 -0.00000000000E+00 -0.64742518603E+02  0.64742518603E+02  0.00000000000E+00 0.  1.
         23    2    1    2    0    0  0.58559604056E+01  0.15236889161E+02 -0.13060852594E+02  0.95056463824E+02  0.92729123692E+02 0.  0.
         24    2    1    2    0    0  0.17040893671E+02  0.28284866956E+02  0.21132367822E+03  0.22883983206E+03  0.81360592453E+02 0.  0.
        -11    1    4    4    0    0 -0.31317246229E+02  0.23123984648E+02  0.85538580630E+02  0.93980515819E+02  0.00000000000E+00 0.  1.
         12    1    4    4    0    0  0.48358139901E+02  0.51608823076E+01  0.12578509759E+03  0.13485931624E+03  0.00000000000E+00 0. -1.
        -11    1    3    3    0    0  0.10803788011E+02  0.38328346293E+02 -0.41884725122E+02  0.57793720796E+02  0.00000000000E+00 0.  1.
         11    1    3    3    0    0 -0.49478276051E+01 -0.23091457132E+02  0.28823872528E+02  0.37262743028E+02  0.00000000000E+00 0. -1.
         21    1    1    2  502  501 -0.22896854077E+02 -0.43521756117E+02  0.31202555298E+03  0.31587711993E+03  0.00000000000E+00 0.  1.
<scales pt_clust_5="13000.00000" pt_clust_6="13000.00000" pt_clust_7="13000.00000" pt_clust_8="13000.00000" pt_clust_9="49.17732"></scales>
<clustering>
<clus scale="   49.177">  1  9  2 -1</clus>
<clus scale="   81.361">  5  6 -1 -1</clus>
<clus scale="   81.825">  1  5  2 -1</clus>
<clus scale="   92.729">  7  8 -1 -1</clus>
<clus scale="   49.177">  1  5  2 -1</clus>
</clustering>
</event>
<event>
 9    2  0.3791909E-005  0.1940509E+03  0.7546771E-02  0.1156046E+00
         -1   -1    0    0    0  501 -0.00000000000E+00  0.00000000000E+00  0.23094071529E+03  0.23094071529E+03  0.00000000000E+00 0.  1.
          2   -1    0    0  502    0  0.00000000000E+00 -0.00000000000E+00 -0.30803674598E+03  0.30803674598E+03  0.00000000000E+00 0. -1.
         23    2    1    2    0    0  0.53151933556E+02 -0.16899171512E+03  0.14178102510E+03  0.24406759977E+03  0.89909990319E+02 0.  0.
         24    2    1    2    0    0 -0.39699897082E+02  0.14361281198E+03 -0.19604965111E+03  0.25822012977E+03  0.77726752959E+02 0.  0.
        -11    1    4    4    0    0 -0.35891868925E+02  0.14683818401E+02 -0.51889926201E+02  0.64779666709E+02  0.00000000000E+00 0.  1.
         12    1    4    4    0    0 -0.38080281564E+01  0.12892899358E+03 -0.14415972491E+03  0.19344046306E+03  0.00000000000E+00 0. -1.
        -13    1    3    3    0    0  0.61585272359E+02 -0.82958818361E+02  0.11262600413E+03  0.15283824169E+03  0.00000000000E+00 0.  1.
         13    1    3    3    0    0 -0.84333388027E+01 -0.86032896762E+02  0.29155020964E+02  0.91229358082E+02  0.00000000000E+00 0. -1.
         21    1    1    2  502  501 -0.13452036475E+02  0.25378903142E+02 -0.22827404670E+02  0.36689731724E+02  0.00000000000E+00 0. -1.
<scales pt_clust_5="13000.00000" pt_clust_6="13000.00000" pt_clust_7="13000.00000" pt_clust_8="13000.00000" pt_clust_9="28.72361"></scales>
<clustering>
<clus scale="   28.724">  2  9  1 -1</clus>
<clus scale="   77.727">  5  6 -1 -1</clus>
<clus scale="   89.910">  7  8 -1 -1</clus>
<clus scale="  188.715">  2  5  1 -1</clus>
<clus scale="   28.724">  2  5  1 -1</clus>
</clustering>
</event>
<event>
 9    2  0.3791909E-005  0.1389527E+03  0.7546771E-02  0.1216942E+00
         -1   -1    0    0    0  501 -0.00000000000E+00  0.00000000000E+00  0.62087965399E+02  0.62087965399E+02  0.00000000000E+00 0.  1.
          2   -1    0    0  502    0  0.00000000000E+00 -0.00000000000E+00 -0.83732074518E+03  0.83732074518E+03  0.00000000000E+00 0. -1.
         23    2    1    2    0    0 -0.96764593923E+02 -0.76054009493E+01 -0.77686861050E+02  0.15377543301E+03  0.90500865498E+02 0.  0.
         24    2    1    2    0    0  0.12711168579E+03  0.90187859228E+02 -0.45806428240E+03  0.49050142433E+03  0.80483102838E+02 0.  0.
        -11    1    4    4    0    0  0.11836258736E+03  0.67790541250E+02 -0.28710376774E+03  0.31785819640E+03  0.00000000000E+00 0.  1.
         12    1    4    4    0    0  0.87490984266E+01  0.22397317978E+02 -0.17096051467E+03  0.17264322793E+03  0.00000000000E+00 0. -1.
        -13    1    3    3    0    0 -0.22534419918E+02 -0.17896524954E+02 -0.73254957365E+02  0.78704348451E+02  0.00000000000E+00 0.  1.
         13    1    3    3    0    0 -0.74230174005E+02  0.10291124005E+02 -0.44319036845E+01  0.75071084555E+02  0.00000000000E+00 0. -1.
         21    1    1    2  502  501 -0.30347091865E+02 -0.82582458278E+02 -0.23948163633E+03  0.25513185324E+03  0.00000000000E+00 0.  1.
<scales pt_clust_5="13000.00000" pt_clust_6="13000.00000" pt_clust_7="13000.00000" pt_clust_8="13000.00000" pt_clust_9="87.98186"></scales>
<clustering>
<clus scale="   80.483">  5  6 -1 -1</clus>
<clus scale="   87.982">  2  9  1 -1</clus>
<clus scale="   90.501">  7  8 -1 -1</clus>
<clus scale="  132.646">  2  5  1 -1</clus>
<clus scale="   87.982">  2  5  1 -1</clus>
</clustering>
</event>
<event>
 9    2  0.3791909E-005  0.9144573E+02  0.7546771E-02  0.1305518E+00
          2   -1    0    0  502    0  0.00000000000E+00  0.00000000000E+00  0.59112251196E+03  0.59112251196E+03  0.00000000000E+00 0. -1.
         -1   -1    0    0    0  501 -0.00000000000E+00 -0.00000000000E+00 -0.19835580066E+02  0.19835580066E+02  0.00000000000E+00 0.  1.
         23    2    1    2    0    0 -0.12815839599E+02  0.12932422100E+02  0.15844456014E+03  0.18344678773E+03  0.90645198459E+02 0.  0.
         24    2    1    2    0    0  0.86370979659E+01  0.14041153141E+02  0.33567085020E+03  0.34565484835E+03  0.80812134390E+02 0.  0.
        -11    1    4    4    0    0  0.41805116230E+02  0.47841849889E+01  0.11802058259E+03  0.12529730278E+03  0.00000000000E+00 0.  1.
         12    1    4    4    0    0 -0.33168018264E+02  0.92569681524E+01  0.21765026762E+03  0.22035754557E+03  0.00000000000E+00 0. -1.
        -11    1    3    3    0    0 -0.35695061028E+02  0.34391848755E+02  0.13634502611E+03  0.14507550719E+03  0.00000000000E+00 0.  1.
         11    1    3    3    0    0  0.22879221429E+02 -0.21459426655E+02  0.22099534032E+02  0.38371280536E+02  0.00000000000E+00 0. -1.
         21    1    1    2  502  501  0.41787416333E+01 -0.26973575241E+02  0.77171521551E+02  0.81856455954E+02  0.00000000000E+00 0. -1.
<scales pt_clust_5="13000.00000" pt_clust_6="13000.00000" pt_clust_7="13000.00000" pt_clust_8="13000.00000" pt_clust_9="27.29534"></scales>
<clustering>
<clus scale="   27.295">  1  9  2 -1</clus>
<clus scale="   80.812">  5  6 -1 -1</clus>
<clus scale="   81.709">  1  5  2 -1</clus>
<clus scale="   90.645">  7  8 -1 -1</clus>
<clus scale="   27.295">  1  5  2 -1</clus>
</clustering>
</event>
<event>
 9    2  0.3791909E-005  0.9388746E+02  0.7546771E-02  0.1300632E+00
          4   -1    0    0  502    0  0.00000000000E+00  0.00000000000E+00  0.77780298736E+03  0.77780298736E+03  0.00000000000E+00 0. -1.
         -3   -1    0    0    0  501 -0.00000000000E+00 -0.00000000000E+00 -0.80420828021E+02  0.80420828021E+02  0.00000000000E+00 0.  1.
         24    2    1    2    0    0  0.21904576385E+02 -0.26833334624E+01 -0.48560825275E+02  0.96099094096E+02  0.79936671119E+02 0.  0.
         23    2    1    2    0    0  0.18828339939E-01 -0.43453248360E+02  0.41126412926E+03  0.42357021153E+03  0.91571583636E+02 0.  0.
        -11    1    3    3    0    0  0.37087729168E+02 -0.24526869904E+02 -0.52943848932E+02  0.69138398462E+02  0.00000000000E+00 0.  1.
         12    1    3    3    0    0 -0.15183152783E+02  0.21843536441E+02  0.43830236567E+01  0.26960695634E+02  0.00000000000E+00 0. -1.
        -13    1    4    4    0    0 -0.33062310716E+02 -0.56695223558E+02  0.25771605968E+03  0.26594178344E+03  0.00000000000E+00 0.  1.
         13    1    4    4    0    0  0.33081139056E+02  0.13241975197E+02  0.15354806958E+03  0.15762842809E+03  0.00000000000E+00 0. -1.
         21    1    1    2  502  501 -0.21923404725E+02  0.46136581823E+02  0.33467885536E+03  0.33855450976E+03  0.00000000000E+00 0. -1.
<scales pt_clust_5="13000.00000" pt_clust_6="13000.00000" pt_clust_7="13000.00000" pt_clust_8="13000.00000" pt_clust_9="51.08052"></scales>
<clustering>
<clus scale="   51.081">  1  9  2 -1</clus>
<clus scale="   79.937">  5  6 -1 -1</clus>
<clus scale="   82.579">  2  5  1 -1</clus>
<clus scale="   91.572">  7  8 -1 -1</clus>
<clus scale="   51.081">  1  5  2 -1</clus>
</clustering>
</event>
<event>
 9    2  0.3791909E-005  0.1037930E+03  0.7546771E-02  0.1278375E+00
          4   -1    0    0  502    0  0.00000000000E+00  0.00000000000E+00  0.25187884789E+03  0.25187884789E+03  0.00000000000E+00 0. -1.
         -3   -1    0    0    0  501 -0.00000000000E+00 -0.00000000000E+00 -0.19348100523E+03  0.19348100523E+03  0.00000000000E+00 0.  1.
         23    2    1    2    0    0 -0.44440162794E+02 -0.18128709571E+02 -0.16416411674E+03  0.19433904047E+03  0.92272570390E+02 0.  0.
         24    2    1    2    0    0  0.45197383308E+02 -0.30343810361E+01  0.20043534002E+03  0.22039342177E+03  0.79667583765E+02 0.  0.
        -11    1    4    4    0    0  0.10155578916E+02 -0.32893699086E+02  0.14139258779E+03  0.14552317721E+03  0.00000000000E+00 0.  1.
         12    1    4    4    0    0  0.35041804391E+02  0.29859318050E+02  0.59042752232E+02  0.74870244560E+02  0.00000000000E+00 0. -1.
        -11    1    3    3    0    0 -0.34742961015E+02 -0.55108912538E+02 -0.92865975624E+02  0.11343789054E+03  0.00000000000E+00 0.  1.
         11    1    3    3    0    0 -0.96972017789E+01  0.36980202967E+02 -0.71298141112E+02  0.80901149929E+02  0.00000000000E+00 0. -1.
         21    1    1    2  502  501 -0.75722051340E+00  0.21163090607E+02  0.22126619375E+02  0.30627390877E+02  0.00000000000E+00 0.  1.
<scales pt_clust_5="13000.00000" pt_clust_6="13000.00000" pt_clust_7="13000.00000" pt_clust_8="13000.00000" pt_clust_9="21.17663"></scales>
<clustering>
<clus scale="   21.177">  1  9  2 -1</clus>
<clus scale="   79.668">  5  6 -1 -1</clus>
<clus scale="   92.273">  7  8 -1 -1</clus>
<clus scale="   92.767">  1  5  2 -1</clus>
<clus scale="   21.177">  1  5  2 -1</clus>
</clustering>
</event>
<event>
 9    2  0.3791909E-005  0.9925657E+02  0.7546771E-02  0.1286607E+00
          2   -1    0    0  502    0  0.00000000000E+00  0.00000000000E+00  0.11174064927E+04  0.11174064927E+04  0.00000000000E+00 0. -1.
         -1   -1    0    0    0  501 -0.00000000000E+00 -0.00000000000E+00 -0.21612084064E+02  0.21612084064E+02  0.00000000000E+00 0.  1.
         23    2    1    2    0    0 -0.24948367963E+02 -0.43610089775E+02  0.32523563298E+03  0.34127929729E+03  0.90382967460E+02 0.  0.
         24    2    1    2    0    0 -0.48031602426E+02  0.27562634542E+02  0.63864016430E+03  0.64612754866E+03  0.80949465878E+02 0.  0.
        -13    1    4    4    0    0 -0.26705559529E+02  0.42727570103E+02  0.18517078536E+03  0.19190375689E+03  0.00000000000E+00 0.  1.
         14    1    4    4    0    0 -0.21326042897E+02 -0.15164935561E+02  0.45346937894E+03  0.45422379177E+03  0.00000000000E+00 0. -1.
        -13    1    3    3    0    0 -0.39603053626E+02  0.13618898756E+02  0.99779205588E+02  0.10821167279E+03  0.00000000000E+00 0. -1.
         13    1    3    3    0    0  0.14654685663E+02 -0.57228988531E+02  0.22545642739E+03  0.23306762450E+03  0.00000000000E+00 0.  1.
         21    1    1    2  502  501  0.72979970389E+02  0.16047455234E+02  0.13191861135E+03  0.15161173081E+03  0.00000000000E+00 0.  1.
<scales pt_clust_5="13000.00000" pt_clust_6="13000.00000" pt_clust_7="13000.00000" pt_clust_8="13000.00000" pt_clust_9="74.72347"></scales>
<clustering>
<clus scale="   74.723">  2  9  1 -1</clus>
<clus scale="   80.949">  5  6 -1 -1</clus>
<clus scale="   90.383">  7  8 -1 -1</clus>
<clus scale="   90.750">  1  5  2 -1</clus>
<clus scale="   90.750">  1  5  2 -1</clus>
</clustering>
</event>
<event>
 9    2  0.3791909E-005  0.1854268E+03  0.7546771E-02  0.1163839E+00
         -1   -1    0    0    0  501 -0.00000000000E+00  0.00000000000E+00  0.15661544396E+03  0.15661544396E+03  0.00000000000E+00 0.  1.
          2   -1    0    0  502    0  0.00000000000E+00 -0.00000000000E+00 -0.29324765803E+03  0.29324765803E+03  0.00000000000E+00 0. -1.
         23    2    1    2    0    0  0.50131574532E+02 -0.15207007450E+03  0.29485187139E+02  0.18709077808E+03  0.92168870329E+02 0.  0.
         24    2    1    2    0    0 -0.31772166519E+02  0.16050134587E+03 -0.14329382349E+03  0.23229167597E+03  0.81585233252E+02 0.  0.
        -11    1    4    4    0    0  0.18210521015E+02  0.10732070279E+03 -0.73784451007E+02  0.13150475859E+03  0.00000000000E+00 0.  1.
         12    1    4    4    0    0 -0.49982687534E+02  0.53180643080E+02 -0.69509372488E+02  0.10078691738E+03  0.00000000000E+00 0. -1.
        -13    1    3    3    0    0 -0.91387882205E+01 -0.20440394673E+02 -0.24295896082E+02  0.33039639087E+02  0.00000000000E+00 0. -1.
         13    1    3    3    0    0  0.59270362752E+02 -0.13162967982E+03  0.53781083221E+02  0.15405113899E+03  0.00000000000E+00 0.  1.
         21    1    1    2  502  501 -0.18359408012E+02 -0.84312713695E+01 -0.22823577709E+02  0.30480647941E+02  0.00000000000E+00 0.  1.
<scales pt_clust_5="13000.00000" pt_clust_6="13000.00000" pt_clust_7="13000.00000" pt_clust_8="13000.00000" pt_clust_9="20.20283"></scales>
<clustering>
<clus scale="   20.203">  2  9  1 -1</clus>
<clus scale="   81.585">  5  6 -1 -1</clus>
<clus scale="   92.169">  7  8 -1 -1</clus>
<clus scale="  180.400">  2  5  1 -1</clus>
<clus scale="   20.203">  2  5  1 -1</clus>
</clustering>
</event>
<event>
 9    2  0.3791909E-005  0.1033287E+03  0.7546771E-02  0.1276430E+00
         -3   -1    0    0    0  501 -0.00000000000E+00  0.00000000000E+00  0.82444036172E+02  0.82444036172E+02  0.00000000000E+00 0.  1.
          4   -1    0    0  502    0  0.00000000000E+00 -0.00000000000E+00 -0.41793582502E+03  0.41793582502E+03  0.00000000000E+00 0. -1.
         24    2    1    2    0    0  0.25897139814E+01  0.55806137950E+02  0.24667861271E+02  0.98101441933E+02  0.76774721610E+02 0.  0.
         23    2    1    2    0    0 -0.65457165094E+01 -0.98595787713E+02 -0.31121690346E+03  0.33714780792E+03  0.83956581794E+02 0.  0.
        -11    1    3    3    0    0 -0.11547498327E+02  0.71181547620E+02  0.27179272439E+02  0.77064066136E+02  0.00000000000E+00 0.  1.
         12    1    3    3    0    0  0.14137212308E+02 -0.15375409670E+02 -0.25114111681E+01  0.21037375797E+02  0.00000000000E+00 0. -1.
        -11    1    4    4    0    0  0.37648144718E+02 -0.60558546727E+02 -0.17574600240E+03  0.18966121834E+03  0.00000000000E+00 0.  1.
         11    1    4    4    0    0 -0.44193861228E+02 -0.38037240986E+02 -0.13547090106E+03  0.14748658958E+03  0.00000000000E+00 0. -1.
         21    1    1    2  502  501  0.39560025280E+01  0.42789649763E+02 -0.48942746652E+02  0.65130611334E+02  0.00000000000E+00 0. -1.
<scales pt_clust_5="13000.00000" pt_clust_6="13000.00000" pt_clust_7="13000.00000" pt_clust_8="13000.00000" pt_clust_9="42.97213"></scales>
<clustering>
<clus scale="   42.972">  2  9  1 -1</clus>
<clus scale="   76.775">  5  6 -1 -1</clus>
<clus scale="   83.957">  7  8 -1 -1</clus>
<clus scale="   97.583">  1  5  2 -1</clus>
<clus scale="   42.972">  2  5  1 -1</clus>
</clustering>
</event>
<event>
 9    2  0.3791909E-005  0.1172096E+03  0.7546771E-02  0.1252843E+00
         -1   -1    0    0    0  501 -0.00000000000E+00  0.00000000000E+00  0.21272711990E+03  0.21272711990E+03  0.00000000000E+00 0.  1.
          2   -1    0    0  502    0  0.00000000000E+00 -0.00000000000E+00 -0.18956609824E+03  0.18956609824E+03  0.00000000000E+00 0. -1.
         23    2    1    2    0    0 -0.74025962399E+02  0.26662437251E+02  0.16932328703E+03  0.20774950553E+03  0.91097490902E+02 0.  0.
         24    2    1    2    0    0  0.44276022904E+02 -0.11442282462E+00 -0.10857866311E+03  0.13974970629E+03  0.76028119983E+02 0.  0.
        -11    1    4    4    0    0  0.48143618065E+02  0.24171396260E+02 -0.40591796265E+02  0.67451896056E+02  0.00000000000E+00 0.  1.
         12    1    4    4    0    0 -0.38675951613E+01 -0.24285819085E+02 -0.67986866845E+02  0.72297810232E+02  0.00000000000E+00 0. -1.
        -13    1    3    3    0    0 -0.89067932230E+02  0.72073423000E+01  0.99569231135E+02  0.13378742140E+03  0.00000000000E+00 0. -1.
         13    1    3    3    0    0  0.15041969831E+02  0.19455094951E+02  0.69754055897E+02  0.73962084138E+02  0.00000000000E+00 0.  1.
         21    1    1    2  502  501  0.29749939495E+02 -0.26548014427E+02 -0.37583602255E+02  0.54794006319E+02  0.00000000000E+00 0. -1.
<scales pt_clust_5="13000.00000" pt_clust_6="13000.00000" pt_clust_7="13000.00000" pt_clust_8="13000.00000" pt_clust_9="39.87300"></scales>
<clustering>
<clus scale="   39.873">  2  9  1 -1</clus>
<clus scale="   76.028">  5  6 -1 -1</clus>
<clus scale="   91.097">  7  8 -1 -1</clus>
<clus scale="  105.923">  2  5  1 -1</clus>
<clus scale="   39.873">  2  5  1 -1</clus>
</clustering>
</event>
<event>
 9    2  0.3791909E-005  0.1083148E+03  0.7546771E-02  0.1265749E+00
          2   -1    0    0  502    0  0.00000000000E+00  0.00000000000E+00  0.65840553498E+03  0.65840553498E+03  0.00000000000E+00 0. -1.
         -1   -1    0    0    0  501 -0.00000000000E+00 -0.00000000000E+00 -0.44390240294E+02  0.44390240294E+02  0.00000000000E+00 0.  1.
         23    2    1    2    0    0 -0.41208457096E+01 -0.54134640793E+02  0.44123558352E+02  0.11526891808E+03  0.91610558184E+02 0.  0.
         24    2    1    2    0    0  0.20721698202E+01  0.75670744396E+02  0.39830346290E+03  0.41458022840E+03  0.86606938378E+02 0.  0.
        -11    1    4    4    0    0  0.30376830636E+02  0.74907633667E+02  0.22722538762E+03  0.24117479595E+03  0.00000000000E+00 0.  1.
         12    1    4    4    0    0 -0.28304660816E+02  0.76311072850E+00  0.17107807529E+03  0.17340543246E+03  0.00000000000E+00 0. -1.
        -13    1    3    3    0    0 -0.38762032479E+02 -0.23332348370E+02 -0.75302084749E+01  0.45864994080E+02  0.00000000000E+00 0. -1.
         13    1    3    3    0    0  0.34641186769E+02 -0.30802292424E+02  0.51653766827E+02  0.69403924001E+02  0.00000000000E+00 0.  1.
         21    1    1    2  502  501  0.20486758894E+01 -0.21536103603E+02  0.17158827343E+03  0.17294662879E+03  0.00000000000E+00 0. -1.
<scales pt_clust_5="13000.00000" pt_clust_6="13000.00000" pt_clust_7="13000.00000" pt_clust_8="13000.00000" pt_clust_9="21.63333"></scales>
<clustering>
<clus scale="   21.633">  1  9  2 -1</clus>
<clus scale="   86.607">  5  6 -1 -1</clus>
<clus scale="   91.611">  7  8 -1 -1</clus>
<clus scale="  104.117">  1  5  2 -1</clus>
<clus scale="   21.633">  1  5  2 -1</clus>
</clustering>
</event>
<event>
 9    2  0.3791909E-005  0.1096096E+03  0.7546771E-02  0.1264130E+00
         -1   -1    0    0    0  501 -0.00000000000E+00  0.00000000000E+00  0.10158854507E+03  0.10158854507E+03  0.00000000000E+00 0.  1.
          2   -1    0    0  502    0  0.00000000000E+00 -0.00000000000E+00 -0.47146156561E+03  0.47146156561E+03  0.00000000000E+00 0. -1.
         24    2    1    2    0    0  0.49850589053E+02  0.34281952038E+02  0.53218355712E+02  0.11470710295E+03  0.81640630925E+02 0.  0.
         23    2    1    2    0    0 -0.69017253553E+02 -0.67464953068E+02 -0.26599494195E+03  0.29664031061E+03  0.89035181563E+02 0.  0.
        -11    1    3    3    0    0  0.80517801218E+01  0.45734548713E+02  0.54178887800E+02  0.71357073877E+02  0.00000000000E+00 0.  1.
         12    1    3    3    0    0  0.41798808931E+02 -0.11452596675E+02 -0.96053208720E+00  0.43350029072E+02  0.00000000000E+00 0. -1.
        -11    1    4    4    0    0 -0.23741074866E+02 -0.21822447123E+02 -0.11635243167E+02  0.34281725712E+02  0.00000000000E+00 0.  1.
         11    1    4    4    0    0 -0.45276178686E+02 -0.45642505945E+02 -0.25435969878E+03  0.26235858489E+03  0.00000000000E+00 0. -1.
         21    1    1    2  502  501  0.19166664500E+02  0.33183001030E+02 -0.15709643431E+03  0.16170269712E+03  0.00000000000E+00 0. -1.
<scales pt_clust_5="13000.00000" pt_clust_6="13000.00000" pt_clust_7="13000.00000" pt_clust_8="13000.00000" pt_clust_9="38.32065"></scales>
<clustering>
<clus scale="   38.321">  2  9  1 -1</clus>
<clus scale="   81.641">  5  6 -1 -1</clus>
<clus scale="   89.035">  7  8 -1 -1</clus>
<clus scale="  103.693">  1  5  2 -1</clus>
<clus scale="   38.321">  2  5  1 -1</clus>
</clustering>
</event>
<event>
 9    2  0.3791909E-005  0.9601944E+02  0.7546771E-02  0.1296373E+00
          2   -1    0    0  502    0  0.00000000000E+00  0.00000000000E+00  0.13011337533E+03  0.13011337533E+03  0.00000000000E+00 0. -1.
         -1   -1    0    0    0  501 -0.00000000000E+00 -0.00000000000E+00 -0.23103806008E+03  0.23103806008E+03  0.00000000000E+00 0.  1.
         24    2    1    2    0    0 -0.56748397976E+01  0.31440849113E+02 -0.18342449607E+03  0.20198610156E+03  0.78314166442E+02 0.  0.
         23    2    1    2    0    0 -0.80250828606E+01 -0.11666097552E+02  0.23647151896E+02  0.95585744352E+02  0.91525662759E+02 0.  0.
        -11    1    3    3    0    0 -0.10705120733E+02  0.40159610010E+02 -0.18680123134E+03  0.19136899936E+03  0.00000000000E+00 0.  1.
         12    1    3    3    0    0  0.50302809351E+01 -0.87187608974E+01  0.33767352767E+01  0.10617102194E+02  0.00000000000E+00 0. -1.
        -13    1    4    4    0    0 -0.17380447389E+02 -0.47729952623E+02  0.28121130198E+02  0.58060539891E+02  0.00000000000E+00 0. -1.
         13    1    4    4    0    0  0.93553645283E+01  0.36063855071E+02 -0.44739783016E+01  0.37525204461E+02  0.00000000000E+00 0.  1.
         21    1    1    2  502  501  0.13699922658E+02 -0.19774751561E+02  0.58852659417E+02  0.63579589497E+02  0.00000000000E+00 0. -1.
<scales pt_clust_5="13000.00000" pt_clust_6="13000.00000" pt_clust_7="13000.00000" pt_clust_8="13000.00000" pt_clust_9="24.05678"></scales>
<clustering>
<clus scale="   24.057">  1  9  2 -1</clus>
<clus scale="   78.314">  5  6 -1 -1</clus>
<clus scale="   83.522">  2  5  1 -1</clus>
<clus scale="   91.526">  7  8 -1 -1</clus>
<clus scale="   24.057">  1  5  2 -1</clus>
</clustering>
</event>
<event>
 9    2  0.3791909E-005  0.1766570E+03  0.7546771E-02  0.1184511E+00
          2   -1    0    0  502    0  0.00000000000E+00  0.00000000000E+00  0.18998745822E+03  0.18998745822E+03  0.00000000000E+00 0. -1.
         -1   -1    0    0    0  501 -0.00000000000E+00 -0.00000000000E+00 -0.41335556953E+03  0.41335556953E+03  0.00000000000E+00 0.  1.
         23    2    1    2    0    0  0.13495821011E+03  0.11597519245E+03 -0.23654394990E+03  0.30829556892E+03  0.86192539359E+02 0.  0.
         24    2    1    2    0    0 -0.10064633366E+03  0.18526323393E+02  0.66395055783E+02  0.14638593823E+03  0.80917429151E+02 0.  0.
        -11    1    4    4    0    0 -0.21275673520E+02 -0.28772654043E+02  0.31327203444E+02  0.47559579267E+02  0.00000000000E+00 0.  1.
         12    1    4    4    0    0 -0.79370660139E+02  0.47298977437E+02  0.35067852339E+02  0.98826358959E+02  0.00000000000E+00 0. -1.
        -11    1    3    3    0    0  0.10829601324E+03  0.79889974796E+02 -0.22465839212E+03  0.26188132370E+03  0.00000000000E+00 0.  1.
         11    1    3    3    0    0  0.26662196869E+02  0.36085217654E+02 -0.11885557783E+02  0.46414245214E+02  0.00000000000E+00 0. -1.
         21    1    1    2  502  501 -0.34311876448E+02 -0.13450151584E+03 -0.53219217192E+02  0.14866152060E+03  0.00000000000E+00 0. -1.
<scales pt_clust_5="13000.00000" pt_clust_6="13000.00000" pt_clust_7="13000.00000" pt_clust_8="13000.00000" pt_clust_9="154.20290"></scales>
<clustering>
<clus scale="   80.917">  5  6 -1 -1</clus>
<clus scale="   86.193">  7  8 -1 -1</clus>
<clus scale="  130.463">  1  5  2 -1</clus>
<clus scale="  154.203">  1  9  2 -1</clus>
<clus scale="  130.463">  1  5  2 -1</clus>
</clustering>
</event>
<event>
 9    2  0.3791909E-005  0.1504172E+03  0.7546771E-02  0.1217526E+00
         -1   -1    0    0    0  501 -0.00000000000E+00  0.00000000000E+00  0.14123144061E+03  0.14123144061E+03  0.00000000000E+00 0.  1.
          2   -1    0    0  502    0  0.00000000000E+00 -0.00000000000E+00 -0.36759440042E+03  0.36759440042E+03  0.00000000000E+00 0. -1.
         23    2    1    2    0    0  0.94827628266E+02  0.63861416607E+02  0.32082047150E+02  0.15000751700E+03  0.91664812189E+02 0.  0.
         24    2    1    2    0    0 -0.25164796856E+02  0.63812234645E+02 -0.11409509390E+03  0.15390280801E+03  0.77221211928E+02 0.  0.
        -13    1    4    4    0    0 -0.36407891981E+02  0.28121469337E+02 -0.10609203196E+03  0.11563680591E+03  0.00000000000E+00 0.  1.
         14    1    4    4    0    0  0.11243095125E+02  0.35690765308E+02 -0.80030619342E+01  0.38266002098E+02  0.00000000000E+00 0. -1.
        -11    1    3    3    0    0  0.31616713101E+02 -0.22874374541E+02  0.11930781205E+02  0.40806826612E+02  0.00000000000E+00 0. -1.
         11    1    3    3    0    0  0.63210915165E+02  0.86735791148E+02  0.20151265945E+02  0.10920069039E+03  0.00000000000E+00 0.  1.
         21    1    1    2  502  501 -0.69662831410E+02 -0.12767365125E+03 -0.14434991306E+03  0.20491551602E+03  0.00000000000E+00 0. -1.
<scales pt_clust_5="13000.00000" pt_clust_6="13000.00000" pt_clust_7="13000.00000" pt_clust_8="13000.00000" pt_clust_9="119.25984"></scales>
<clustering>
<clus scale="   77.221">  5  6 -1 -1</clus>
<clus scale="   91.665">  7  8 -1 -1</clus>
<clus scale="  103.288">  2  5  1 -1</clus>
<clus scale="  119.260">  2  9  1 -1</clus>
<clus scale="  103.288">  2  5  1 -1</clus>
</clustering>
</event>
<event>
 9    2  0.3791909E-005  0.9478144E+02  0.7546771E-02  0.1297976E+00
          2   -1    0    0  502    0  0.00000000000E+00  0.00000000000E+00  0.32962521708E+03  0.32962521708E+03  0.00000000000E+00 0. -1.
         -1   -1    0    0    0  501 -0.00000000000E+00 -0.00000000000E+00 -0.20400510513E+03  0.20400510513E+03  0.00000000000E+00 0.  1.
         23    2    1    2    0    0 -0.79045024534E+01  0.23716782166E+02 -0.18099502592E+03  0.20438275754E+03  0.91586818136E+02 0.  0.
         24    2    1    2    0    0 -0.12684094102E+02 -0.20432895970E+02  0.15667530886E+03  0.17786517949E+03  0.80687546676E+02 0.  0.
        -11    1    4    4    0    0 -0.38529058164E+02 -0.31420259224E+02  0.12979374279E+03  0.13898969991E+03  0.00000000000E+00 0.  1.
         12    1    4    4    0    0  0.25844964062E+02  0.10987363254E+02  0.26881566071E+02  0.38875479586E+02  0.00000000000E+00 0. -1.
        -13    1    3    3    0    0 -0.29221235707E+02 -0.26687445386E+02 -0.64484488688E+02  0.75659431923E+02  0.00000000000E+00 0. -1.
         13    1    3    3    0    0  0.21316733254E+02  0.50404227552E+02 -0.11651053724E+03  0.12872332562E+03  0.00000000000E+00 0.  1.
         21    1    1    2  502  501  0.20588596555E+02 -0.32838861959E+01  0.14993982902E+03  0.15138238518E+03  0.00000000000E+00 0.  1.
<scales pt_clust_5="13000.00000" pt_clust_6="13000.00000" pt_clust_7="13000.00000" pt_clust_8="13000.00000" pt_clust_9="20.84884"></scales>
<clustering>
<clus scale="   20.849">  1  9  2 -1</clus>
<clus scale="   80.688">  5  6 -1 -1</clus>
<clus scale="   84.296">  1  5  2 -1</clus>
<clus scale="   91.587">  7  8 -1 -1</clus>
<clus scale="   20.849">  1  5  2 -1</clus>
</clustering>
</event>
<event>
 9    2  0.3791909E-005  0.1135356E+03  0.7546771E-02  0.1257320E+00
          2   -1    0    0  502    0  0.00000000000E+00  0.00000000000E+00  0.28521300233E+03  0.28521300233E+03  0.00000000000E+00 0. -1.
         -1   -1    0    0    0  501 -0.00000000000E+00 -0.00000000000E+00 -0.16489950905E+03  0.16489950905E+03  0.00000000000E+00 0.  1.
         24    2    1    2    0    0  0.67612928249E+02  0.64400948558E+01 -0.11689941938E+03  0.15726977922E+03  0.80345045366E+02 0.  0.
         23    2    1    2    0    0 -0.90355551086E+02 -0.37237623008E+02  0.19679282886E+03  0.23716959853E+03  0.89281771926E+02 0.  0.
        -13    1    3    3    0    0  0.78428209351E+02  0.26035530729E+02 -0.95711162621E+02  0.12644943469E+03  0.00000000000E+00 0.  1.
         14    1    3    3    0    0 -0.10815281102E+02 -0.19595435873E+02 -0.21188256763E+02  0.30820344531E+02  0.00000000000E+00 0. -1.
        -13    1    4    4    0    0 -0.53806523450E+02 -0.45456745465E+01  0.17566142458E+03  0.18377361402E+03  0.00000000000E+00 0. -1.
         13    1    4    4    0    0 -0.36549027636E+02 -0.32691948462E+02  0.21131404273E+02  0.53395984511E+02  0.00000000000E+00 0.  1.
         21    1    1    2  502  501  0.22742622837E+02  0.30797528153E+02  0.40420083811E+02  0.55673133638E+02  0.00000000000E+00 0. -1.
<scales pt_clust_5="13000.00000" pt_clust_6="13000.00000" pt_clust_7="13000.00000" pt_clust_8="13000.00000" pt_clust_9="38.28465"></scales>
<clustering>
<clus scale="   38.285">  1  9  2 -1</clus>
<clus scale="   80.345">  5  6 -1 -1</clus>
<clus scale="   89.282">  7  8 -1 -1</clus>
<clus scale="  106.651">  2  5  1 -1</clus>
<clus scale="   38.285">  1  5  2 -1</clus>
</clustering>
</event>
<event>
 9    2  0.3791909E-005  0.1132674E+03  0.7546771E-02  0.1258425E+00
          2   -1    0    0  502    0  0.00000000000E+00  0.00000000000E+00  0.34322493841E+02  0.34322493841E+02  0.00000000000E+00 0. -1.
         -1   -1    0    0    0  501 -0.00000000000E+00 -0.00000000000E+00 -0.65643723492E+03  0.65643723492E+03  0.00000000000E+00 0.  1.
         24    2    1    2    0    0  0.59460234471E+02  0.42992814659E+02 -0.48093142199E+03  0.49328406197E+03  0.81548951803E+02 0.  0.
         23    2    1    2    0    0 -0.28117898956E+02 -0.28505554064E+02 -0.84318663004E+02  0.13094889153E+03  0.91841125907E+02 0.  0.
        -13    1    3    3    0    0  0.21972799915E+02  0.16620188764E+02 -0.32890439511E+02  0.42904727267E+02  0.00000000000E+00 0.  1.
         14    1    3    3    0    0  0.37487434556E+02  0.26372625896E+02 -0.44804098248E+03  0.45037933471E+03  0.00000000000E+00 0. -1.
        -11    1    4    4    0    0 -0.36561879064E+02  0.25641852662E+02 -0.30069958188E+02  0.53837514746E+02  0.00000000000E+00 0. -1.
         11    1    4    4    0    0  0.84439801073E+01 -0.54147406726E+02 -0.54248704817E+02  0.77111376784E+02  0.00000000000E+00 0.  1.
         21    1    1    2  502  501 -0.31342335515E+02 -0.14487260596E+02 -0.56864656079E+02  0.66526775257E+02  0.00000000000E+00 0.  1.
<scales pt_clust_5="13000.00000" pt_clust_6="13000.00000" pt_clust_7="13000.00000" pt_clust_8="13000.00000" pt_clust_9="34.52858"></scales>
<clustering>
<clus scale="   34.529">  1  9  2 -1</clus>
<clus scale="   81.549">  5  6 -1 -1</clus>
<clus scale="   91.841">  7  8 -1 -1</clus>
<clus scale="  105.095">  2  5  1 -1</clus>
<clus scale="   34.529">  1  5  2 -1</clus>
</clustering>
</event>
<event>
 9    2  0.3791909E-005  0.9716995E+02  0.7546771E-02  0.1295640E+00
          2   -1    0    0  502    0  0.00000000000E+00  0.00000000000E+00  0.32592542162E+03  0.32592542162E+03  0.00000000000E+00 0. -1.
         -1   -1    0    0    0  501 -0.00000000000E+00 -0.00000000000E+00 -0.86995484034E+02  0.86995484034E+02  0.00000000000E+00 0.  1.
         23    2    1    2    0    0 -0.26565425354E+02  0.31338787989E+02 -0.20861482510E+02  0.10659497034E+03  0.96122030739E+02 0.  0.
         24    2    1    2    0    0  0.25380551046E+01  0.18401712613E+02  0.22823370589E+03  0.24270737476E+03  0.80443648013E+02 0.  0.
        -13    1    4    4    0    0  0.18665343371E+02  0.41950803500E+02  0.84519723276E+02  0.96186530139E+02  0.00000000000E+00 0.  1.
         14    1    4    4    0    0 -0.16127288266E+02 -0.23549090888E+02  0.14371398261E+03  0.14652084462E+03  0.00000000000E+00 0. -1.
        -13    1    3    3    0    0 -0.40815271783E+02 -0.42942381380E+01 -0.45277582093E+02  0.61109625528E+02  0.00000000000E+00 0.  1.
         13    1    3    3    0    0  0.14249846430E+02  0.35633026127E+02  0.24416099584E+02  0.45485344817E+02  0.00000000000E+00 0. -1.
         21    1    1    2  502  501  0.24027370249E+02 -0.49740500601E+02  0.31557714208E+02  0.63618560556E+02  0.00000000000E+00 0. -1.
<scales pt_clust_5="13000.00000" pt_clust_6="13000.00000" pt_clust_7="13000.00000" pt_clust_8="13000.00000" pt_clust_9="55.23977"></scales>
<clustering>
<clus scale="   55.240">  2  9  1 -1</clus>
<clus scale="   80.444">  5  6 -1 -1</clus>
<clus scale="   81.693">  1  5  2 -1</clus>
<clus scale="   96.122">  7  8 -1 -1</clus>
<clus scale="   81.693">  1  5  2 -1</clus>
</clustering>
</event>
<event>
 9    2  0.3791909E-005  0.1937894E+03  0.7546771E-02  0.1156315E+00
          2   -1    0    0  502    0  0.00000000000E+00  0.00000000000E+00  0.71931837152E+03  0.71931837152E+03  0.00000000000E+00 0. -1.
         -1   -1    0    0    0  501 -0.00000000000E+00 -0.00000000000E+00 -0.91364040374E+02  0.91364040374E+02  0.00000000000E+00 0.  1.
         23    2    1    2    0    0  0.21442695051E+02  0.15789444556E+03  0.85110634412E+02  0.20230998311E+03  0.91077242306E+02 0.  0.
         24    2    1    2    0    0 -0.43261744058E+02 -0.20042871071E+03  0.38266454930E+03  0.44121204507E+03  0.78693486695E+02 0.  0.
        -13    1    4    4    0    0 -0.66176391884E+00 -0.78906378509E+02  0.80367449665E+02  0.11263028663E+03  0.00000000000E+00 0.  1.
         14    1    4    4    0    0 -0.42599980139E+02 -0.12152233220E+03  0.30229709963E+03  0.32858175844E+03  0.00000000000E+00 0. -1.
        -11    1    3    3    0    0 -0.73416185417E+01  0.14497715023E+03  0.89379287877E+02  0.17047266805E+03  0.00000000000E+00 0.  1.
         11    1    3    3    0    0  0.28784313593E+02  0.12917295331E+02 -0.42686534651E+01  0.31837315058E+02  0.00000000000E+00 0. -1.
         21    1    1    2  502  501  0.21819049007E+02  0.42534265153E+02  0.16017914744E+03  0.16716038372E+03  0.00000000000E+00 0.  1.
<scales pt_clust_5="13000.00000" pt_clust_6="13000.00000" pt_clust_7="13000.00000" pt_clust_8="13000.00000" pt_clust_9="47.80413"></scales>
<clustering>
<clus scale="   47.804">  1  9  2 -1</clus>
<clus scale="   78.693">  5  6 -1 -1</clus>
<clus scale="   91.077">  7  8 -1 -1</clus>
<clus scale="  188.287">  1  5  2 -1</clus>
<clus scale="   47.804">  1  5  2 -1</clus>
</clustering>
</event>
<event>
 9    2  0.3791909E-005  0.1058630E+03  0.7546771E-02  0.1275343E+00
         -1   -1    0    0    0  501 -0.00000000000E+00  0.00000000000E+00  0.18520099787E+02  0.18520099787E+02  0.00000000000E+00 0.  1.
          2   -1    0    0  502    0  0.00000000000E+00 -0.00000000000E+00 -0.82710766488E+03  0.82710766488E+03  0.00000000000E+00 0. -1.
         23    2    1    2    0    0  0.36496100346E+02 -0.41102374793E+00 -0.22202359777E+03  0.24435496391E+03  0.95303389987E+02 0.  0.
         24    2    1    2    0    0 -0.62593029378E+02 -0.11350777363E+01 -0.39470260488E+03  0.40763855137E+03  0.80373294916E+02 0.  0.
        -13    1    4    4    0    0 -0.24594208370E+02 -0.19615008208E+02 -0.42319032450E+02  0.52730675511E+02  0.00000000000E+00 0.  1.
         14    1    4    4    0    0 -0.37998821008E+02  0.18479930471E+02 -0.35238357243E+03  0.35490787586E+03  0.00000000000E+00 0. -1.
        -13    1    3    3    0    0 -0.23862902167E+02 -0.25504370009E+02 -0.10002685868E+03  0.10594943816E+03  0.00000000000E+00 0. -1.
         13    1    3    3    0    0  0.60359002513E+02  0.25093346261E+02 -0.12199673909E+03  0.13840552576E+03  0.00000000000E+00 0.  1.
         21    1    1    2  502  501  0.26096929032E+02  0.15461014843E+01 -0.19186136245E+03  0.19363424938E+03  0.00000000000E+00 0. -1.
<scales pt_clust_5="13000.00000" pt_clust_6="13000.00000" pt_clust_7="13000.00000" pt_clust_8="13000.00000" pt_clust_9="26.14269"></scales>
<clustering>
<clus scale="   26.143">  2  9  1 -1</clus>
<clus scale="   80.373">  5  6 -1 -1</clus>
<clus scale="   92.650">  2  5  1 -1</clus>
<clus scale="   95.303">  7  8 -1 -1</clus>
<clus scale="   26.143">  2  5  1 -1</clus>
</clustering>
</event>
<event>
 9    2  0.3791909E-005  0.9657668E+02  0.7546771E-02  0.1292302E+00
         -1   -1    0    0    0  501 -0.00000000000E+00  0.00000000000E+00  0.25058318049E+03  0.25058318049E+03  0.00000000000E+00 0.  1.
          2   -1    0    0  502    0  0.00000000000E+00 -0.00000000000E+00 -0.86645837933E+02  0.86645837933E+02  0.00000000000E+00 0. -1.
         23    2    1    2    0    0  0.33233883318E+01  0.26242644624E+02  0.15807904960E+03  0.18388452420E+03  0.90137733565E+02 0.  0.
         24    2    1    2    0    0 -0.15981549932E+02 -0.53862902843E+02  0.40796838370E+02  0.10704320185E+03  0.81469275194E+02 0.  0.
        -13    1    4    4    0    0  0.82349879955E+01 -0.30173736588E+02  0.60317741937E+02  0.67944826141E+02  0.00000000000E+00 0.  1.
         14    1    4    4    0    0 -0.24216537927E+02 -0.23689166254E+02 -0.19520903568E+02  0.39098375709E+02  0.00000000000E+00 0. -1.
        -11    1    3    3    0    0 -0.24570400433E+02  0.16701651935E+02  0.15055608009E+03  0.15345938553E+03  0.00000000000E+00 0.  1.
         11    1    3    3    0    0  0.27893788764E+02  0.95409926889E+01  0.75229695098E+01  0.30425138675E+02  0.00000000000E+00 0. -1.
         21    1    1    2  502  501  0.12658161600E+02  0.27620258219E+02 -0.34938545414E+02  0.46301292367E+02  0.00000000000E+00 0. -1.
<scales pt_clust_5="13000.00000" pt_clust_6="13000.00000" pt_clust_7="13000.00000" pt_clust_8="13000.00000" pt_clust_9="30.38269"></scales>
<clustering>
<clus scale="   30.383">  2  9  1 -1</clus>
<clus scale="   81.469">  5  6 -1 -1</clus>
<clus scale="   88.541">  2  5  1 -1</clus>
<clus scale="   90.138">  7  8 -1 -1</clus>
<clus scale="   30.383">  2  5  1 -1</clus>
</clustering>
</event>
<event>
 9    2  0.3791909E-005  0.8950556E+02  0.7546771E-02  0.1306629E+00
          2   -1    0    0  502    0  0.00000000000E+00  0.00000000000E+00  0.21019102924E+03  0.21019102924E+03  0.00000000000E+00 0. -1.
         -1   -1    0    0    0  501 -0.00000000000E+00 -0.00000000000E+00 -0.66581866900E+02  0.66581866900E+02  0.00000000000E+00 0.  1.
         23    2    1    2    0    0 -0.34600629852E+02  0.31062516379E+02  0.69173346668E+01  0.96851382656E+02  0.84677371792E+02 0.  0.
         24    2    1    2    0    0  0.24613191936E+02 -0.50968548187E+01  0.12268556171E+03  0.14877444328E+03  0.80313764538E+02 0.  0.
        -13    1    4    4    0    0  0.48825863285E+02  0.16611409147E+02  0.77994655445E+02  0.93504385551E+02  0.00000000000E+00 0.  1.
         14    1    4    4    0    0 -0.24212671350E+02 -0.21708263966E+02  0.44690906262E+02  0.55270057724E+02  0.00000000000E+00 0. -1.
        -13    1    3    3    0    0 -0.15830436148E+02  0.14417728576E+02  0.45811410535E+02  0.50568359091E+02  0.00000000000E+00 0. -1.
         13    1    3    3    0    0 -0.18770193704E+02  0.16644787803E+02 -0.38894075868E+02  0.46283023565E+02  0.00000000000E+00 0.  1.
         21    1    1    2  502  501  0.99874379162E+01 -0.25965661560E+02  0.14006265971E+02  0.31147070213E+02  0.00000000000E+00 0. -1.
<scales pt_clust_5="13000.00000" pt_clust_6="13000.00000" pt_clust_7="13000.00000" pt_clust_8="13000.00000" pt_clust_9="27.82022"></scales>
<clustering>
<clus scale="   27.820">  2  9  1 -1</clus>
<clus scale="   80.314">  5  6 -1 -1</clus>
<clus scale="   84.677">  7  8 -1 -1</clus>
<clus scale="   85.389">  1  5  2 -1</clus>
<clus scale="   85.389">  1  5  2 -1</clus>
</clustering>
</event>
<event>
 9    2  0.3791909E-005  0.1232649E+03  0.7546771E-02  0.1242112E+00
         -1   -1    0    0    0  501 -0.00000000000E+00  0.00000000000E+00  0.10557717808E+03  0.10557717808E+03  0.00000000000E+00 0.  1.
          2   -1    0    0  502    0  0.00000000000E+00 -0.00000000000E+00 -0.38994893242E+03  0.38994893242E+03  0.00000000000E+00 0. -1.
         24    2    1    2    0    0  0.75807126792E+02 -0.23064961664E+02  0.51719698470E+02  0.12259076002E+03  0.77941351694E+02 0.  0.
         23    2    1    2    0    0 -0.97521559481E+02  0.29097214146E+02 -0.26705688747E+03  0.30031527151E+03  0.92264720886E+02 0.  0.
        -11    1    3    3    0    0  0.58751282255E+02  0.22165914479E+02  0.30158556307E+02  0.69660458295E+02  0.00000000000E+00 0.  1.
         12    1    3    3    0    0  0.17055844538E+02 -0.45230876144E+02  0.21561142162E+02  0.52930301728E+02  0.00000000000E+00 0. -1.
        -11    1    4    4    0    0 -0.64576624748E+02  0.12860025016E+02 -0.25227007990E+03  0.26072152562E+03  0.00000000000E+00 0. -1.
         11    1    4    4    0    0 -0.32944934734E+02  0.16237189130E+02 -0.14786807570E+02  0.39593745890E+02  0.00000000000E+00 0.  1.
         21    1    1    2  502  501  0.21714432689E+02 -0.60322524820E+01 -0.69034565334E+02  0.72620078958E+02  0.00000000000E+00 0. -1.
<scales pt_clust_5="13000.00000" pt_clust_6="13000.00000" pt_clust_7="13000.00000" pt_clust_8="13000.00000" pt_clust_9="22.53674"></scales>
<clustering>
<clus scale="   22.537">  2  9  1 -1</clus>
<clus scale="   77.941">  5  6 -1 -1</clus>
<clus scale="   92.265">  7  8 -1 -1</clus>
<clus scale="  112.944">  1  5  2 -1</clus>
<clus scale="   22.537">  2  5  1 -1</clus>
</clustering>
</event>
<event>
 9    2  0.3791909E-005  0.1453501E+03  0.7546771E-02  0.1220754E+00
         -1   -1    0    0    0  501 -0.00000000000E+00  0.00000000000E+00  0.74882927107E+02  0.74882927107E+02  0.00000000000E+00 0.  1.
          2   -1    0    0  502    0  0.00000000000E+00 -0.00000000000E+00 -0.57860371482E+03  0.57860371482E+03  0.00000000000E+00 0. -1.
         23    2    1    2    0    0 -0.99895212399E+02 -0.60909940247E+02 -0.79674746662E+02  0.16806840429E+03  0.90608216971E+02 0.  0.
         24    2    1    2    0    0 -0.21048502199E+02  0.66231306124E+02 -0.26320870049E+03  0.28411163279E+03  0.81307899497E+02 0.  0.
        -11    1    4    4    0    0 -0.55112541405E+01  0.39470049957E+02 -0.32745700963E+02  0.51580419709E+02  0.00000000000E+00 0.  1.
         12    1    4    4    0    0 -0.15537248059E+02  0.26761256167E+02 -0.23046299953E+03  0.23253121309E+03  0.00000000000E+00 0. -1.
        -13    1    3    3    0    0 -0.64478208211E+02 -0.82525260215E+02 -0.44964088588E+02  0.11397204556E+03  0.00000000000E+00 0. -1.
         13    1    3    3    0    0 -0.35417004188E+02  0.21615319969E+02 -0.34710658074E+02  0.54096358722E+02  0.00000000000E+00 0.  1.
         21    1    1    2  502  501  0.12094371460E+03 -0.53213658771E+01 -0.16083734057E+03  0.20130660485E+03  0.00000000000E+00 0.  1.
<scales pt_clust_5="13000.00000" pt_clust_6="13000.00000" pt_clust_7="13000.00000" pt_clust_8="13000.00000" pt_clust_9="113.65212"></scales>
<clustering>
<clus scale="   81.308">  5  6 -1 -1</clus>
<clus scale="   90.608">  7  8 -1 -1</clus>
<clus scale="  106.961">  2  5  1 -1</clus>
<clus scale="  113.652">  2  9  1 -1</clus>
<clus scale="  106.961">  2  5  1 -1</clus>
</clustering>
</event>
<event>
 9    2  0.3791909E-005  0.1749161E+03  0.7546771E-02  0.1174132E+00
          4   -1    0    0  502    0  0.00000000000E+00  0.00000000000E+00  0.28037078491E+03  0.28037078491E+03  0.00000000000E+00 0. -1.
         -3   -1    0    0    0  501 -0.00000000000E+00 -0.00000000000E+00 -0.23078321262E+03  0.23078321262E+03  0.00000000000E+00 0.  1.
         24    2    1    2    0    0  0.15165803044E+03 -0.14958928051E+02 -0.15536172981E+03  0.23217040167E+03  0.80882016513E+02 0.  0.
         23    2    1    2    0    0 -0.13236138151E+03  0.21861509786E+02  0.15241040479E+03  0.22258907464E+03  0.91211313633E+02 0.  0.
        -11    1    3    3    0    0  0.46579988964E+02 -0.56812231919E+01 -0.10555663936E+03  0.11551699347E+03  0.00000000000E+00 0.  1.
         12    1    3    3    0    0  0.10507804148E+03 -0.92777048590E+01 -0.49805090451E+02  0.11665340819E+03  0.00000000000E+00 0. -1.
        -13    1    4    4    0    0 -0.79125212919E+02  0.55810288887E+02  0.73709569177E+02  0.12169095387E+03  0.00000000000E+00 0.  1.
         13    1    4    4    0    0 -0.53236168593E+02 -0.33948779101E+02  0.78700835615E+02  0.10089812077E+03  0.00000000000E+00 0. -1.
         21    1    1    2  502  501 -0.19296648931E+02 -0.69025817351E+01  0.52538897304E+02  0.56394521227E+02  0.00000000000E+00 0. -1.
<scales pt_clust_5="13000.00000" pt_clust_6="13000.00000" pt_clust_7="13000.00000" pt_clust_8="13000.00000" pt_clust_9="20.49406"></scales>
<clustering>
<clus scale="   20.494">  1  9  2 -1</clus>
<clus scale="   80.882">  5  6 -1 -1</clus>
<clus scale="   91.211">  7  8 -1 -1</clus>
<clus scale="  169.759">  2  5  1 -1</clus>
<clus scale="   20.494">  1  5  2 -1</clus>
</clustering>
</event>
<event>
 9    2  0.3791909E-005  0.9369513E+02  0.7546771E-02  0.1299558E+00
          2   -1    0    0  502    0  0.00000000000E+00  0.00000000000E+00  0.78734933398E+03  0.78734933398E+03  0.00000000000E+00 0. -1.
         -1   -1    0    0    0  501 -0.00000000000E+00 -0.00000000000E+00 -0.77921354693E+02  0.77921354693E+02  0.00000000000E+00 0.  1.
         23    2    1    2    0    0  0.12479017784E+02 -0.20174961119E+02 -0.41904837628E+02  0.10322375923E+03  0.91303746428E+02 0.  0.
         24    2    1    2    0    0  0.48620092439E+01 -0.16442056711E+02  0.42392786851E+03  0.43214464474E+03  0.82098574377E+02 0.  0.
        -11    1    4    4    0    0 -0.61345114529E+01 -0.20520202096E+02  0.24488070540E+02  0.32532699298E+02  0.00000000000E+00 0.  1.
         12    1    4    4    0    0  0.10996520697E+02  0.40781453859E+01  0.39943979797E+03  0.39961194544E+03  0.00000000000E+00 0. -1.
        -13    1    3    3    0    0 -0.94458184625E+01  0.26362411185E+02  0.10388439178E+02  0.29868375892E+02  0.00000000000E+00 0. -1.
         13    1    3    3    0    0  0.21924836246E+02 -0.46537372303E+02 -0.52293276807E+02  0.73355383337E+02  0.00000000000E+00 0.  1.
         21    1    1    2  502  501 -0.17341027028E+02  0.36617017829E+02  0.32740494841E+03  0.32990228471E+03  0.00000000000E+00 0.  1.
<scales pt_clust_5="13000.00000" pt_clust_6="13000.00000" pt_clust_7="13000.00000" pt_clust_8="13000.00000" pt_clust_9="40.51564"></scales>
<clustering>
<clus scale="   40.516">  1  9  2 -1</clus>
<clus scale="   82.099">  5  6 -1 -1</clus>
<clus scale="   84.750">  1  5  2 -1</clus>
<clus scale="   91.304">  7  8 -1 -1</clus>
<clus scale="   40.516">  1  5  2 -1</clus>
</clustering>
</event>
<event>
 9    2  0.3791909E-005  0.1548357E+03  0.7546771E-02  0.1196024E+00
          2   -1    0    0  502    0  0.00000000000E+00  0.00000000000E+00  0.21447527537E+03  0.21447527537E+03  0.00000000000E+00 0. -1.
         -1   -1    0    0    0  501 -0.00000000000E+00 -0.00000000000E+00 -0.48008884512E+03  0.48008884512E+03  0.00000000000E+00 0.  1.
         23    2    1    2    0    0  0.87707694760E+02  0.94093155893E+02 -0.41925381154E+03  0.44715300234E+03  0.87326326538E+02 0.  0.
         24    2    1    2    0    0 -0.10824348039E+03 -0.59990134498E+02  0.14570238301E+03  0.20681870308E+03  0.78926068213E+02 0.  0.
        -13    1    4    4    0    0 -0.23838236288E+02 -0.41440144646E+02  0.14954623826E+02  0.50091794452E+02  0.00000000000E+00 0.  1.
         14    1    4    4    0    0 -0.84405244099E+02 -0.18549989852E+02  0.13074775919E+03  0.15672690863E+03  0.00000000000E+00 0. -1.
        -11    1    3    3    0    0  0.39260095613E+02 -0.41919644815E+01 -0.17574371317E+03  0.18012434703E+03  0.00000000000E+00 0. -1.
         11    1    3    3    0    0  0.48447599147E+02  0.98285120374E+02 -0.24351009837E+03  0.26702865531E+03  0.00000000000E+00 0.  1.
         21    1    1    2  502  501  0.20535785627E+02 -0.34103021394E+02  0.79378587759E+01  0.40592415073E+02  0.00000000000E+00 0.  1.
<scales pt_clust_5="13000.00000" pt_clust_6="13000.00000" pt_clust_7="13000.00000" pt_clust_8="13000.00000" pt_clust_9="39.80872"></scales>
<clustering>
<clus scale="   39.809">  1  9  2 -1</clus>
<clus scale="   78.926">  5  6 -1 -1</clus>
<clus scale="   87.326">  7  8 -1 -1</clus>
<clus scale="  150.258">  1  5  2 -1</clus>
<clus scale="   39.809">  1  5  2 -1</clus>
</clustering>
</event>
<event>
 9    2  0.3791909E-005  0.9566878E+02  0.7546771E-02  0.1296493E+00
          2   -1    0    0  502    0  0.00000000000E+00  0.00000000000E+00  0.32235530910E+03  0.32235530910E+03  0.00000000000E+00 0. -1.
         -1   -1    0    0    0  501 -0.00000000000E+00 -0.00000000000E+00 -0.68090801671E+02  0.68090801671E+02  0.00000000000E+00 0.  1.
         24    2    1    2    0    0 -0.81090115789E+01 -0.22703281978E+02 -0.14816390722E+02  0.84991027108E+02  0.80142087404E+02 0.  0.
         23    2    1    2    0    0 -0.21696132094E+02  0.45256592992E+02  0.22047399672E+03  0.24413926764E+03  0.92066918159E+02 0.  0.
        -11    1    3    3    0    0 -0.41042297256E+02 -0.24957909575E+02 -0.19121607387E+02  0.51701095573E+02  0.00000000000E+00 0.  1.
         12    1    3    3    0    0  0.32933285677E+02  0.22546275967E+01  0.43052166646E+01  0.33289931535E+02  0.00000000000E+00 0. -1.
        -11    1    4    4    0    0 -0.26094479540E+02 -0.99958447445E+01  0.15817083158E+02  0.32109482933E+02  0.00000000000E+00 0.  1.
         11    1    4    4    0    0  0.43983474457E+01  0.55252437736E+02  0.20465691356E+03  0.21202978471E+03  0.00000000000E+00 0. -1.
         21    1    1    2  502  501  0.29805143673E+02 -0.22553311014E+02  0.48606901430E+02  0.61315816016E+02  0.00000000000E+00 0. -1.
<scales pt_clust_5="13000.00000" pt_clust_6="13000.00000" pt_clust_7="13000.00000" pt_clust_8="13000.00000" pt_clust_9="37.37644"></scales>
<clustering>
<clus scale="   37.376">  1  9  2 -1</clus>
<clus scale="   80.142">  5  6 -1 -1</clus>
<clus scale="   84.255">  2  5  1 -1</clus>
<clus scale="   92.067">  7  8 -1 -1</clus>
<clus scale="   37.376">  1  5  2 -1</clus>
</clustering>
</event>
<event>
 9    2  0.3791909E-005  0.1150286E+03  0.7546771E-02  0.1259115E+00
          2   -1    0    0  502    0  0.00000000000E+00  0.00000000000E+00  0.13441381160E+03  0.13441381160E+03  0.00000000000E+00 0. -1.
         -1   -1    0    0    0  501 -0.00000000000E+00 -0.00000000000E+00 -0.29231927763E+03  0.29231927763E+03  0.00000000000E+00 0.  1.
         24    2    1    2    0    0  0.76994056089E+02  0.16035577035E+02 -0.18193468596E+03  0.21329797687E+03  0.78807186088E+02 0.  0.
         23    2    1    2    0    0  0.23536476197E+02 -0.32574546009E+02  0.46093576932E+02  0.10919135347E+03  0.90460306647E+02 0.  0.
        -11    1    3    3    0    0  0.39630110592E+01  0.24963746507E+02 -0.10014348531E+03  0.10328413114E+03  0.00000000000E+00 0.  1.
         12    1    3    3    0    0  0.73031045030E+02 -0.89281694723E+01 -0.81791200650E+02  0.11001384573E+03  0.00000000000E+00 0. -1.
        -11    1    4    4    0    0  0.48945183317E+01  0.31099949702E+02  0.72394530297E+01  0.32304378362E+02  0.00000000000E+00 0.  1.
         11    1    4    4    0    0  0.18641957865E+02 -0.63674495711E+02  0.38854123902E+02  0.76886975108E+02  0.00000000000E+00 0. -1.
         21    1    1    2  502  501 -0.10053053229E+03  0.16538968974E+02 -0.22064357007E+02  0.10424375889E+03  0.00000000000E+00 0. -1.
<scales pt_clust_5="13000.00000" pt_clust_6="13000.00000" pt_clust_7="13000.00000" pt_clust_8="13000.00000" pt_clust_9="83.79148"></scales>
<clustering>
<clus scale="   78.807">  5  6 -1 -1</clus>
<clus scale="   90.460">  7  8 -1 -1</clus>
<clus scale="   98.986">  1  7  2 -1</clus>
<clus scale="   83.791">  1  9  2 -1</clus>
<clus scale="   98.986">  1  5  2 -1</clus>
</clustering>
</event>
<event>
 9    2  0.3791909E-005  0.1291848E+03  0.7546771E-02  0.1232017E+00
          2   -1    0    0  502    0  0.00000000000E+00  0.00000000000E+00  0.77136327862E+03  0.77136327862E+03  0.00000000000E+00 0. -1.
         -1   -1    0    0    0  501 -0.00000000000E+00 -0.00000000000E+00 -0.25910023045E+02  0.25910023045E+02  0.00000000000E+00 0.  1.
         24    2    1    2    0    0  0.81086134159E+02 -0.38426317636E+02  0.25965236030E+03  0.28579582779E+03  0.78793171879E+02 0.  0.
         23    2    1    2    0    0 -0.72284386966E+02  0.62093426935E+02  0.36746969787E+03  0.39048212233E+03  0.91442237160E+02 0.  0.
        -11    1    3    3    0    0  0.65157099215E+02 -0.10939976530E+01  0.88544751625E+02  0.10994006299E+03  0.00000000000E+00 0.  1.
         12    1    3    3    0    0  0.15929034945E+02 -0.37332319983E+02  0.17110760868E+03  0.17585576481E+03  0.00000000000E+00 0. -1.
        -11    1    4    4    0    0 -0.24406556100E+02  0.74651328669E+02  0.26960889238E+03  0.28081569704E+03  0.00000000000E+00 0.  1.
         11    1    4    4    0    0 -0.47877830866E+02 -0.12557901734E+02  0.97860805486E+02  0.10966642529E+03  0.00000000000E+00 0. -1.
         21    1    1    2  502  501 -0.88017471936E+01 -0.23667109299E+02  0.11833119741E+03  0.12099535155E+03  0.00000000000E+00 0. -1.
<scales pt_clust_5="13000.00000" pt_clust_6="13000.00000" pt_clust_7="13000.00000" pt_clust_8="13000.00000" pt_clust_9="25.25080"></scales>
<clustering>
<clus scale="   25.251">  1  9  2 -1</clus>
<clus scale="   78.793">  5  6 -1 -1</clus>
<clus scale="   91.442">  7  8 -1 -1</clus>
<clus scale="  120.563">  2  5  1 -1</clus>
<clus scale="   25.251">  1  5  2 -1</clus>
</clustering>
</event>
<event>
 9    2  0.3791909E-005  0.1101486E+03  0.7546771E-02  0.1265689E+00
         -1   -1    0    0    0  501 -0.00000000000E+00  0.00000000000E+00  0.50025071872E+02  0.50025071872E+02  0.00000000000E+00 0.  1.
          2   -1    0    0  502    0  0.00000000000E+00 -0.00000000000E+00 -0.47932566160E+03  0.47932566160E+03  0.00000000000E+00 0. -1.
         23    2    1    2    0    0  0.27642742549E+02  0.45081844594E+02 -0.39400105791E+02  0.11485455389E+03  0.94035664964E+02 0.  0.
         24    2    1    2    0    0 -0.46754574844E+02 -0.62490151353E+02 -0.34309577715E+03  0.36102663820E+03  0.80836327901E+02 0.  0.
        -11    1    4    4    0    0 -0.31640682598E+02  0.63457837658E+00 -0.39726141661E+02  0.50790765069E+02  0.00000000000E+00 0.  1.
         12    1    4    4    0    0 -0.15113892245E+02 -0.63124729730E+02 -0.30336963549E+03  0.31023587313E+03  0.00000000000E+00 0. -1.
        -11    1    3    3    0    0  0.25020362705E+02  0.24551653518E+02 -0.69782590701E+02  0.78092331284E+02  0.00000000000E+00 0. -1.
         11    1    3    3    0    0  0.26223798437E+01  0.20530191076E+02  0.30382484910E+02  0.36762222606E+02  0.00000000000E+00 0.  1.
         21    1    1    2  502  501  0.19111832295E+02  0.17408306759E+02 -0.46804706790E+02  0.53469541382E+02  0.00000000000E+00 0.  1.
<scales pt_clust_5="13000.00000" pt_clust_6="13000.00000" pt_clust_7="13000.00000" pt_clust_8="13000.00000" pt_clust_9="25.85172"></scales>
<clustering>
<clus scale="   25.852">  2  9  1 -1</clus>
<clus scale="   80.836">  5  6 -1 -1</clus>
<clus scale="   94.036">  7  8 -1 -1</clus>
<clus scale="   99.119">  2  5  1 -1</clus>
<clus scale="   25.852">  2  5  1 -1</clus>
</clustering>
</event>
<event>
 9    2  0.3791909E-005  0.1750110E+03  0.7546771E-02  0.1173461E+00
         -1   -1    0    0    0  501 -0.00000000000E+00  0.00000000000E+00  0.22093689204E+03  0.22093689204E+03  0.00000000000E+00 0.  1.
          2   -1    0    0  502    0  0.00000000000E+00 -0.00000000000E+00 -0.21300802280E+03  0.21300802280E+03  0.00000000000E+00 0. -1.
         24    2    1    2    0    0 -0.11572556344E+03  0.68268142604E+02  0.28072461163E+02  0.16692902023E+03  0.94996259877E+02 0.  0.
         23    2    1    2    0    0  0.15498728493E+03 -0.31582711308E+02 -0.68995756233E+02  0.19439470210E+03  0.89500612739E+02 0.  0.
        -11    1    3    3    0    0 -0.11674868054E+03  0.65317644465E+02  0.51459559117E+02  0.14333434798E+03  0.00000000000E+00 0.  1.
         12    1    3    3    0    0  0.10231170999E+01  0.29504981384E+01 -0.23387097953E+02  0.23594672249E+02  0.00000000000E+00 0. -1.
        -13    1    4    4    0    0  0.53869745363E+02 -0.36868151444E+02 -0.66388516902E+02  0.93105559623E+02  0.00000000000E+00 0. -1.
         13    1    4    4    0    0  0.10111753957E+03  0.52854401353E+01 -0.26072393317E+01  0.10128914247E+03  0.00000000000E+00 0.  1.
         21    1    1    2  502  501 -0.39261721498E+02 -0.36685431296E+02  0.48852164308E+02  0.72621192512E+02  0.00000000000E+00 0.  1.
<scales pt_clust_5="13000.00000" pt_clust_6="13000.00000" pt_clust_7="13000.00000" pt_clust_8="13000.00000" pt_clust_9="53.73364"></scales>
<clustering>
<clus scale="   53.734">  1  9  2 -1</clus>
<clus scale="   89.501">  7  8 -1 -1</clus>
<clus scale="   94.996">  5  6 -1 -1</clus>
<clus scale="  172.090">  2  7  1 -1</clus>
<clus scale="  172.090">  2  5  1 -1</clus>
</clustering>
</event>
<event>
 9    2  0.3791909E-005  0.1057133E+03  0.7546771E-02  0.1274213E+00
         -1   -1    0    0    0  501 -0.00000000000E+00  0.00000000000E+00  0.94471682904E+02  0.94471682904E+02  0.00000000000E+00 0.  1.
          2   -1    0    0  502    0  0.00000000000E+00 -0.00000000000E+00 -0.13856646503E+03  0.13856646503E+03  0.00000000000E+00 0. -1.
         24    2    1    2    0    0  0.37698533218E+02 -0.64462731937E+01 -0.17011111018E+02  0.91419520926E+02  0.81273716928E+02 0.  0.
         23    2    1    2    0    0 -0.60011178061E+02  0.18878936374E+02 -0.16149118101E+02  0.11383392469E+03  0.93485895535E+02 0.  0.
        -11    1    3    3    0    0  0.86853732271E+01  0.21668570734E+02  0.24258592980E+02  0.33666630350E+02  0.00000000000E+00 0.  1.
         12    1    3    3    0    0  0.29013159991E+02 -0.28114843927E+02 -0.41269703999E+02  0.57752890576E+02  0.00000000000E+00 0. -1.
        -11    1    4    4    0    0  0.16376078456E+02 -0.19019860346E+02 -0.13549346670E+02  0.28522198870E+02  0.00000000000E+00 0. -1.
         11    1    4    4    0    0 -0.76387256516E+02  0.37898796719E+02 -0.25997714312E+01  0.85311725820E+02  0.00000000000E+00 0.  1.
         21    1    1    2  502  501  0.22312644842E+02 -0.12432663180E+02 -0.10934553009E+02  0.27784702322E+02  0.00000000000E+00 0.  1.
<scales pt_clust_5="13000.00000" pt_clust_6="13000.00000" pt_clust_7="13000.00000" pt_clust_8="13000.00000" pt_clust_9="25.54262"></scales>
<clustering>
<clus scale="   25.543">  2  9  1 -1</clus>
<clus scale="   81.274">  5  6 -1 -1</clus>
<clus scale="   93.486">  7  8 -1 -1</clus>
<clus scale="   95.085">  1  5  2 -1</clus>
<clus scale="   25.543">  2  5  1 -1</clus>
</clustering>
</event>
<event>
 9    2  0.3791909E-005  0.9954393E+02  0.7546771E-02  0.1287599E+00
         -1   -1    0    0    0  501 -0.00000000000E+00  0.00000000000E+00  0.49647078588E+02  0.49647078588E+02  0.00000000000E+00 0.  1.
          2   -1    0    0  502    0  0.00000000000E+00 -0.00000000000E+00 -0.92373737918E+03  0.92373737918E+03  0.00000000000E+00 0. -1.
         23    2    1    2    0    0 -0.19135935752E+02  0.34969886745E+02 -0.32003578635E+02  0.10586428503E+03  0.92703510087E+02 0.  0.
         24    2    1    2    0    0 -0.62591907254E+02 -0.40660365072E+02 -0.30368126042E+03  0.32291732398E+03  0.80512595631E+02 0.  0.
        -11    1    4    4    0    0 -0.41817597340E+02 -0.43929871637E+02 -0.91995187021E+02  0.11018919867E+03  0.00000000000E+00 0.  1.
         12    1    4    4    0    0 -0.20774309914E+02  0.32695065652E+01 -0.21168607340E+03  0.21272812531E+03  0.00000000000E+00 0. -1.
        -11    1    3    3    0    0 -0.14645324263E+01  0.60791306557E+02 -0.40961001399E+02  0.73318015820E+02  0.00000000000E+00 0.  1.
         11    1    3    3    0    0 -0.17671403326E+02 -0.25821419812E+02  0.89574227648E+01  0.32546269205E+02  0.00000000000E+00 0. -1.
         21    1    1    2  502  501  0.81727843007E+02  0.56904783266E+01 -0.53840546154E+03  0.54460284876E+03  0.00000000000E+00 0.  1.
<scales pt_clust_5="13000.00000" pt_clust_6="13000.00000" pt_clust_7="13000.00000" pt_clust_8="13000.00000" pt_clust_9="81.92571"></scales>
<clustering>
<clus scale="   80.513">  5  6 -1 -1</clus>
<clus scale="   81.926">  2  9  1 -1</clus>
<clus scale="   88.302">  2  5  1 -1</clus>
<clus scale="   92.704">  7  8 -1 -1</clus>
<clus scale="   81.926">  2  5  1 -1</clus>
</clustering>
</event>
<event>
 9    2  0.3791909E-005  0.1039267E+03  0.7546771E-02  0.1277928E+00
          2   -1    0    0  502    0  0.00000000000E+00  0.00000000000E+00  0.43879913421E+03  0.43879913421E+03  0.00000000000E+00 0. -1.
         -1   -1    0    0    0  501 -0.00000000000E+00 -0.00000000000E+00 -0.32800159549E+02  0.32800159549E+02  0.00000000000E+00 0.  1.
         23    2    1    2    0    0  0.39379199924E+02  0.25282387990E+02  0.11212367691E+03  0.15380240040E+03  0.94305561437E+02 0.  0.
         24    2    1    2    0    0 -0.42417700052E+02 -0.22596759359E+01  0.19035770538E+03  0.21170650885E+03  0.82336033904E+02 0.  0.
        -13    1    4    4    0    0  0.22923501671E+02 -0.56537544822E+01  0.27787515912E+02  0.36463651890E+02  0.00000000000E+00 0.  1.
         14    1    4    4    0    0 -0.65341201723E+02  0.33940785463E+01  0.16257018947E+03  0.17524285696E+03  0.00000000000E+00 0. -1.
        -13    1    3    3    0    0 -0.21083309067E+02  0.24528919461E+02  0.78796560704E+01  0.33290581115E+02  0.00000000000E+00 0.  1.
         13    1    3    3    0    0  0.60462508991E+02  0.75346852856E+00  0.10424402084E+03  0.12051181929E+03  0.00000000000E+00 0. -1.
         21    1    1    2  502  501  0.30385001277E+01 -0.23022712054E+02  0.10351759238E+03  0.10609038451E+03  0.00000000000E+00 0. -1.
<scales pt_clust_5="13000.00000" pt_clust_6="13000.00000" pt_clust_7="13000.00000" pt_clust_8="13000.00000" pt_clust_9="23.22235"></scales>
<clustering>
<clus scale="   23.222">  1  9  2 -1</clus>
<clus scale="   82.336">  5  6 -1 -1</clus>
<clus scale="   93.201">  1  5  2 -1</clus>
<clus scale="   94.306">  7  8 -1 -1</clus>
<clus scale="   23.222">  1  5  2 -1</clus>
</clustering>
</event>
<event>
 9    2  0.3791909E-005  0.4315662E+03  0.7546771E-02  0.1033508E+00
         -1   -1    0    0    0  501 -0.00000000000E+00  0.00000000000E+00  0.31807614881E+03  0.31807614881E+03  0.00000000000E+00 0.  1.
          2   -1    0    0  502    0  0.00000000000E+00 -0.00000000000E+00 -0.81283261191E+03  0.81283261191E+03  0.00000000000E+00 0. -1.
         23    2    1    2    0    0  0.11677439422E+03  0.39710674906E+03 -0.63485042384E+02  0.42851408995E+03  0.90906245026E+02 0.  0.
         24    2    1    2    0    0 -0.10480064295E+03 -0.42096789193E+03 -0.22707381854E+03  0.49645927898E+03  0.81927747537E+02 0.  0.
        -11    1    4    4    0    0 -0.96313019055E+02 -0.29809257178E+03 -0.19565961644E+03  0.36934816163E+03  0.00000000000E+00 0.  1.
         12    1    4    4    0    0 -0.84876238981E+01 -0.12287532015E+03 -0.31414202107E+02  0.12711111736E+03  0.00000000000E+00 0. -1.
        -11    1    3    3    0    0  0.45623905641E+01  0.10755220129E+03  0.13730230155E+02  0.10852101469E+03  0.00000000000E+00 0.  1.
         11    1    3    3    0    0  0.11221200366E+03  0.28955454777E+03 -0.77215272540E+02  0.31999307526E+03  0.00000000000E+00 0. -1.
         21    1    1    2  502  501 -0.11973751271E+02  0.23861142877E+02 -0.20419760217E+03  0.20593539179E+03  0.00000000000E+00 0. -1.
<scales pt_clust_5="13000.00000" pt_clust_6="13000.00000" pt_clust_7="13000.00000" pt_clust_8="13000.00000" pt_clust_9="26.69691"></scales>
<clustering>
<clus scale="   26.697">  2  9  1 -1</clus>
<clus scale="   81.928">  5  6 -1 -1</clus>
<clus scale="   90.906">  7  8 -1 -1</clus>
<clus scale="  429.765">  2  5  1 -1</clus>
<clus scale="   26.697">  2  5  1 -1</clus>
</clustering>
</event>
<event>
 9    2  0.3791909E-005  0.1178868E+03  0.7546771E-02  0.1249361E+00
         -1   -1    0    0    0  501 -0.00000000000E+00  0.00000000000E+00  0.52193441736E+02  0.52193441736E+02  0.00000000000E+00 0.  1.
          2   -1    0    0  502    0  0.00000000000E+00 -0.00000000000E+00 -0.48943361183E+03  0.48943361183E+03  0.00000000000E+00 0. -1.
         24    2    1    2    0    0  0.41764301201E+01 -0.87392828025E+02 -0.58706894387E+02  0.13387872563E+03  0.82595791479E+02 0.  0.
         23    2    1    2    0    0 -0.20102194008E+02  0.39596178968E+02 -0.25274015186E+03  0.27224165052E+03  0.90917414845E+02 0.  0.
        -11    1    3    3    0    0  0.38377263556E+02 -0.48308622051E+02 -0.96683719451E+01  0.62450097986E+02  0.00000000000E+00 0.  1.
         12    1    3    3    0    0 -0.34200833436E+02 -0.39084205975E+02 -0.49038522442E+02  0.71428627648E+02  0.00000000000E+00 0. -1.
        -11    1    4    4    0    0  0.29960661751E+02 -0.76223685546E+01 -0.10099962145E+03  0.10562511674E+03  0.00000000000E+00 0.  1.
         11    1    4    4    0    0 -0.50062855759E+02  0.47218547523E+02 -0.15174053042E+03  0.16661653378E+03  0.00000000000E+00 0. -1.
         21    1    1    2  502  501  0.15925763888E+02  0.47796649057E+02 -0.12579312385E+03  0.13550667741E+03  0.00000000000E+00 0. -1.
<scales pt_clust_5="13000.00000" pt_clust_6="13000.00000" pt_clust_7="13000.00000" pt_clust_8="13000.00000" pt_clust_9="50.38005"></scales>
<clustering>
<clus scale="   50.380">  2  9  1 -1</clus>
<clus scale="   82.596">  5  6 -1 -1</clus>
<clus scale="   90.917">  7  8 -1 -1</clus>
<clus scale="  111.595">  1  5  2 -1</clus>
<clus scale="   50.380">  2  5  1 -1</clus>
</clustering>
</event>
<event>
 9    2  0.3791909E-005  0.1885981E+03  0.7546771E-02  0.1164218E+00
         -1   -1    0    0    0  501 -0.00000000000E+00  0.00000000000E+00  0.12597946823E+03  0.12597946823E+03  0.00000000000E+00 0.  1.
          2   -1    0    0  502    0  0.00000000000E+00 -0.00000000000E+00 -0.33329614467E+03  0.33329614467E+03  0.00000000000E+00 0. -1.
         23    2    1    2    0    0  0.14111913363E+03  0.31250246051E+02 -0.55916384188E+02  0.19094045541E+03  0.11153666544E+03 0.  0.
         24    2    1    2    0    0 -0.15992635664E+03 -0.18878733184E+02 -0.83167201107E+02  0.19648447415E+03  0.75871728129E+02 0.  0.
        -11    1    4    4    0    0 -0.31971213619E+02 -0.18771551502E+01  0.13967608000E+02  0.34939609113E+02  0.00000000000E+00 0.  1.
         12    1    4    4    0    0 -0.12795514302E+03 -0.17001578034E+02 -0.97134809108E+02  0.16154486504E+03  0.00000000000E+00 0. -1.
        -11    1    3    3    0    0  0.70097894509E+02  0.72164380096E+02 -0.31119098671E+02  0.10530817096E+03  0.00000000000E+00 0.  1.
         11    1    3    3    0    0  0.71021239116E+02 -0.40914134046E+02 -0.24797285516E+02  0.85632284445E+02  0.00000000000E+00 0. -1.
         21    1    1    2  502  501  0.18807223012E+02 -0.12371512867E+02 -0.68233091152E+02  0.71850683338E+02  0.00000000000E+00 0. -1.
<scales pt_clust_5="13000.00000" pt_clust_6="13000.00000" pt_clust_7="13000.00000" pt_clust_8="13000.00000" pt_clust_9="22.51146"></scales>
<clustering>
<clus scale="   22.511">  2  9  1 -1</clus>
<clus scale="   75.872">  5  6 -1 -1</clus>
<clus scale="  111.537">  7  8 -1 -1</clus>
<clus scale="  169.957">  2  5  1 -1</clus>
<clus scale="   22.511">  2  5  1 -1</clus>
</clustering>
</event>
<event>
 9    2  0.3791909E-005  0.3919339E+03  0.7546771E-02  0.1046870E+00
         -1   -1    0    0    0  501 -0.00000000000E+00  0.00000000000E+00  0.21061727025E+03  0.21061727025E+03  0.00000000000E+00 0.  1.
          2   -1    0    0  502    0  0.00000000000E+00 -0.00000000000E+00 -0.10209591736E+04  0.10209591736E+04  0.00000000000E+00 0. -1.
         23    2    1    2    0    0 -0.36414169595E+03 -0.15238531417E+03 -0.11724010217E+03  0.42214066036E+03  0.92935659820E+02 0.  0.
         24    2    1    2    0    0  0.31869992613E+03  0.14567569529E+03 -0.53267197705E+03  0.64255947631E+03  0.79700654590E+02 0.  0.
        -13    1    4    4    0    0  0.60189987798E+02  0.26831313352E+02 -0.16488460327E+03  0.17756600576E+03  0.00000000000E+00 0.  1.
         14    1    4    4    0    0  0.25850993833E+03  0.11884438194E+03 -0.36778737378E+03  0.46499347054E+03  0.00000000000E+00 0. -1.
        -11    1    3    3    0    0 -0.32725964665E+03 -0.15134927294E+03 -0.79224687207E+02  0.36916396061E+03  0.00000000000E+00 0.  1.
         11    1    3    3    0    0 -0.36882049299E+02 -0.10360412294E+01 -0.38015414964E+02  0.52976699753E+02  0.00000000000E+00 0. -1.
         21    1    1    2  502  501  0.45441769825E+02  0.67096188777E+01 -0.16042982414E+03  0.16687630720E+03  0.00000000000E+00 0.  1.
<scales pt_clust_5="13000.00000" pt_clust_6="13000.00000" pt_clust_7="13000.00000" pt_clust_8="13000.00000" pt_clust_9="45.93445"></scales>
<clustering>
<clus scale="   45.934">  2  9  1 -1</clus>
<clus scale="   79.701">  5  6 -1 -1</clus>
<clus scale="   92.936">  7  8 -1 -1</clus>
<clus scale="  389.008">  2  5  1 -1</clus>
<clus scale="   45.934">  2  5  1 -1</clus>
</clustering>
</event>
<event>
 9    2  0.3791909E-005  0.1018264E+03  0.7546771E-02  0.1283835E+00
         -1   -1    0    0    0  501 -0.00000000000E+00  0.00000000000E+00  0.50584583425E+02  0.50584583425E+02  0.00000000000E+00 0.  1.
          2   -1    0    0  502    0  0.00000000000E+00 -0.00000000000E+00 -0.30939870510E+03  0.30939870510E+03  0.00000000000E+00 0. -1.
         23    2    1    2    0    0  0.44096523380E+02 -0.41187738045E+01 -0.45481017613E+02  0.11521306396E+03  0.96146032020E+02 0.  0.
         24    2    1    2    0    0 -0.11968453303E+02  0.15022546644E+02 -0.13100697062E+03  0.15572699125E+03  0.81970413402E+02 0.  0.
        -11    1    4    4    0    0 -0.71933717006E+01 -0.30618489394E+02 -0.85488837310E+02  0.91091041238E+02  0.00000000000E+00 0.  1.
         12    1    4    4    0    0 -0.47750816027E+01  0.45641036039E+02 -0.45518133306E+02  0.64635950017E+02  0.00000000000E+00 0. -1.
        -11    1    3    3    0    0  0.42634030678E+02  0.19577576084E+02 -0.67918820709E+02  0.82546400671E+02  0.00000000000E+00 0. -1.
         11    1    3    3    0    0  0.14624927025E+01 -0.23696349889E+02  0.22437803097E+02  0.32666663294E+02  0.00000000000E+00 0.  1.
         21    1    1    2  502  501 -0.32128070077E+02 -0.10903772840E+02 -0.82326133448E+02  0.89043233306E+02  0.00000000000E+00 0. -1.
<scales pt_clust_5="13000.00000" pt_clust_6="13000.00000" pt_clust_7="13000.00000" pt_clust_8="13000.00000" pt_clust_9="33.92794"></scales>
<clustering>
<clus scale="   33.928">  2  9  1 -1</clus>
<clus scale="   81.970">  5  6 -1 -1</clus>
<clus scale="   88.565">  2  5  1 -1</clus>
<clus scale="   96.146">  7  8 -1 -1</clus>
<clus scale="   33.928">  2  5  1 -1</clus>
</clustering>
</event>
<event>
 9    2  0.3791909E-005  0.1046829E+03  0.7546771E-02  0.1275768E+00
          2   -1    0    0  502    0  0.00000000000E+00  0.00000000000E+00  0.60554623196E+03  0.60554623196E+03  0.00000000000E+00 0. -1.
         -1   -1    0    0    0  501 -0.00000000000E+00 -0.00000000000E+00 -0.41171390901E+02  0.41171390901E+02  0.00000000000E+00 0.  1.
         23    2    1    2    0    0 -0.48954504519E+01  0.15403603963E+02  0.14200830296E+03  0.16939702004E+03  0.90927200776E+02 0.  0.
         24    2    1    2    0    0  0.55954912846E+02 -0.68051556682E+02  0.13080171261E+03  0.17667309644E+03  0.79638736467E+02 0.  0.
        -13    1    4    4    0    0  0.13728693377E+02 -0.20107907522E+02 -0.65300379667E+01  0.25208061461E+02  0.00000000000E+00 0.  1.
         14    1    4    4    0    0  0.42226219469E+02 -0.47943649160E+02  0.13733175057E+03  0.15146503498E+03  0.00000000000E+00 0. -1.
        -11    1    3    3    0    0  0.35189464416E+02 -0.80390898206E+01  0.10166662882E+03  0.10788433059E+03  0.00000000000E+00 0.  1.
         11    1    3    3    0    0 -0.40084914868E+02  0.23442693783E+02  0.40341674136E+02  0.61512689454E+02  0.00000000000E+00 0. -1.
         21    1    1    2  502  501 -0.51059462394E+02  0.52647952720E+02  0.29156482550E+03  0.30064750638E+03  0.00000000000E+00 0. -1.
<scales pt_clust_5="13000.00000" pt_clust_6="13000.00000" pt_clust_7="13000.00000" pt_clust_8="13000.00000" pt_clust_9="73.34082"></scales>
<clustering>
<clus scale="   73.341">  1  9  2 -1</clus>
<clus scale="   79.639">  5  6 -1 -1</clus>
<clus scale="   90.927">  7  8 -1 -1</clus>
<clus scale="   95.043">  1  5  2 -1</clus>
<clus scale="   73.341">  1  5  2 -1</clus>
</clustering>
</event>
<event>
 9    2  0.3791909E-005  0.3569076E+03  0.7546771E-02  0.1060045E+00
          2   -1    0    0  502    0  0.00000000000E+00  0.00000000000E+00  0.13110907707E+04  0.13110907707E+04  0.00000000000E+00 0. -1.
         -1   -1    0    0    0  501 -0.00000000000E+00 -0.00000000000E+00 -0.11359474932E+03  0.11359474932E+03  0.00000000000E+00 0.  1.
         24    2    1    2    0    0 -0.24849781014E+03  0.25319018139E+03  0.37485304574E+03  0.52222883636E+03  0.79697691506E+02 0.  0.
         23    2    1    2    0    0  0.23953589314E+03 -0.22666198443E+03  0.73681395736E+03  0.81217555845E+03  0.89337733895E+02 0.  0.
        -11    1    3    3    0    0 -0.26478170266E+02  0.27946711195E+02  0.10804842745E+02  0.39985707371E+02  0.00000000000E+00 0.  1.
         12    1    3    3    0    0 -0.22201963987E+03  0.22524347019E+03  0.36404820300E+03  0.48224312899E+03  0.00000000000E+00 0. -1.
        -13    1    4    4    0    0  0.11186411820E+03 -0.82133843482E+02  0.21532423144E+03  0.25617196145E+03  0.00000000000E+00 0. -1.
         13    1    4    4    0    0  0.12767177493E+03 -0.14452814095E+03  0.52148972592E+03  0.55600359700E+03  0.00000000000E+00 0.  1.
         21    1    1    2  502  501  0.89619170024E+01 -0.26528196956E+02  0.85829018285E+02  0.90281125214E+02  0.00000000000E+00 0.  1.
<scales pt_clust_5="13000.00000" pt_clust_6="13000.00000" pt_clust_7="13000.00000" pt_clust_8="13000.00000" pt_clust_9="28.00109"></scales>
<clustering>
<clus scale="   28.001">  1  9  2 -1</clus>
<clus scale="   79.698">  5  6 -1 -1</clus>
<clus scale="   89.338">  7  8 -1 -1</clus>
<clus scale="  354.617">  2  5  1 -1</clus>
<clus scale="   28.001">  1  5  2 -1</clus>
</clustering>
</event>
<event>
 9    2  0.3791909E-005  0.1058762E+03  0.7546771E-02  0.1279105E+00
         -1   -1    0    0    0  501 -0.00000000000E+00  0.00000000000E+00  0.11059814015E+03  0.11059814015E+03  0.00000000000E+00 0.  1.
          2   -1    0    0  502    0  0.00000000000E+00 -0.00000000000E+00 -0.27270479517E+03  0.27270479517E+03  0.00000000000E+00 0. -1.
         24    2    1    2    0    0  0.60477328378E+02  0.61317266706E+01  0.23622523434E+02  0.94381049932E+02  0.68225022193E+02 0.  0.
         23    2    1    2    0    0 -0.41519780791E+02  0.98313207195E+01  0.27532594975E+00  0.10127358896E+03  0.91846159157E+02 0.  0.
        -11    1    3    3    0    0  0.69104460592E+02  0.61511827112E+01  0.36874438783E+02  0.78568363595E+02  0.00000000000E+00 0.  1.
         12    1    3    3    0    0 -0.86271322141E+01 -0.19456040661E-01 -0.13251915349E+02  0.15812686337E+02  0.00000000000E+00 0. -1.
        -13    1    4    4    0    0 -0.53028563227E+02 -0.27412764205E+02 -0.10986852134E+02  0.60697603569E+02  0.00000000000E+00 0. -1.
         13    1    4    4    0    0  0.11508782436E+02  0.37244084925E+02  0.11262178084E+02  0.40575985388E+02  0.00000000000E+00 0.  1.
         21    1    1    2  502  501 -0.18957547587E+02 -0.15963047390E+02 -0.18600450441E+03  0.18764829643E+03  0.00000000000E+00 0. -1.
<scales pt_clust_5="13000.00000" pt_clust_6="13000.00000" pt_clust_7="13000.00000" pt_clust_8="13000.00000" pt_clust_9="24.78321"></scales>
<clustering>
<clus scale="   24.783">  2  9  1 -1</clus>
<clus scale="   68.225">  5  6 -1 -1</clus>
<clus scale="   86.190">  1  5  2 -1</clus>
<clus scale="   91.846">  7  8 -1 -1</clus>
<clus scale="   24.783">  2  5  1 -1</clus>
</clustering>
</event>
<event>
 9    2  0.3791909E-005  0.1331844E+03  0.7546771E-02  0.1226730E+00
          2   -1    0    0  502    0  0.00000000000E+00  0.00000000000E+00  0.37484257189E+03  0.37484257189E+03  0.00000000000E+00 0. -1.
         -1   -1    0    0    0  501 -0.00000000000E+00 -0.00000000000E+00 -0.15123174614E+03  0.15123174614E+03  0.00000000000E+00 0.  1.
         24    2    1    2    0    0  0.77355158386E+02 -0.52710493248E+02 -0.10049962951E+03  0.15743674365E+03  0.76967110460E+02 0.  0.
         23    2    1    2    0    0 -0.92251864215E+02  0.72690797489E+02  0.29070007551E+03  0.32695570930E+03  0.92731566619E+02 0.  0.
        -13    1    3    3    0    0  0.71314875404E+02 -0.71561885225E+02 -0.88342654339E+02  0.13420633162E+03  0.00000000000E+00 0.  1.
         14    1    3    3    0    0  0.60402829823E+01  0.18851391976E+02 -0.12156975172E+02  0.23230412034E+02  0.00000000000E+00 0. -1.
        -11    1    4    4    0    0  0.10936052094E+02  0.39707043452E+02  0.74151248697E+02  0.84821307573E+02  0.00000000000E+00 0.  1.
         11    1    4    4    0    0 -0.10318791631E+03  0.32983754037E+02  0.21654882682E+03  0.24213440172E+03  0.00000000000E+00 0. -1.
         21    1    1    2  502  501  0.14896705829E+02 -0.19980304241E+02  0.33410379740E+02  0.41681865079E+02  0.00000000000E+00 0. -1.
<scales pt_clust_5="13000.00000" pt_clust_6="13000.00000" pt_clust_7="13000.00000" pt_clust_8="13000.00000" pt_clust_9="24.92237"></scales>
<clustering>
<clus scale="   24.922">  1  9  2 -1</clus>
<clus scale="   76.967">  5  6 -1 -1</clus>
<clus scale="   92.732">  7  8 -1 -1</clus>
<clus scale="  122.731">  2  5  1 -1</clus>
<clus scale="   24.922">  1  5  2 -1</clus>
</clustering>
</event>
<event>
 9    2  0.3791909E-005  0.9656455E+02  0.7546771E-02  0.1293837E+00
          2   -1    0    0  502    0  0.00000000000E+00  0.00000000000E+00  0.12478235751E+03  0.12478235751E+03  0.00000000000E+00 0. -1.
         -1   -1    0    0    0  501 -0.00000000000E+00 -0.00000000000E+00 -0.22263523992E+03  0.22263523992E+03  0.00000000000E+00 0.  1.
         23    2    1    2    0    0 -0.21300275761E+02  0.19936564348E+02 -0.18245727612E+03  0.20645222648E+03  0.92090693682E+02 0.  0.
         24    2    1    2    0    0  0.34045262996E+02 -0.34780029047E+01  0.81514744409E+02  0.11992101596E+03  0.81026045666E+02 0.  0.
        -11    1    4    4    0    0  0.42583213526E+02  0.19457047144E+02  0.15182144986E+02  0.49217926451E+02  0.00000000000E+00 0.  1.
         12    1    4    4    0    0 -0.85379505299E+01 -0.22935050049E+02  0.66332599423E+02  0.70703089510E+02  0.00000000000E+00 0. -1.
        -13    1    3    3    0    0 -0.38570272120E+02 -0.26078408890E+02 -0.74803777548E+02  0.88109899768E+02  0.00000000000E+00 0.  1.
         13    1    3    3    0    0  0.17269996359E+02  0.46014973237E+02 -0.10765349857E+03  0.11834232671E+03  0.00000000000E+00 0. -1.
         21    1    1    2  502  501 -0.12744987235E+02 -0.16458561443E+02  0.30896492968E+01  0.21044354995E+02  0.00000000000E+00 0. -1.
<scales pt_clust_5="13000.00000" pt_clust_6="13000.00000" pt_clust_7="13000.00000" pt_clust_8="13000.00000" pt_clust_9="20.81631"></scales>
<clustering>
<clus scale="   20.816">  1  9  2 -1</clus>
<clus scale="   81.026">  5  6 -1 -1</clus>
<clus scale="   86.077">  1  5  2 -1</clus>
<clus scale="   92.091">  7  8 -1 -1</clus>
<clus scale="   20.816">  1  5  2 -1</clus>
</clustering>
</event>
<event>
 9    2  0.3791909E-005  0.1367901E+03  0.7546771E-02  0.1219138E+00
         -3   -1    0    0    0  501 -0.00000000000E+00  0.00000000000E+00  0.27271743012E+03  0.27271743012E+03  0.00000000000E+00 0.  1.
          4   -1    0    0  502    0  0.00000000000E+00 -0.00000000000E+00 -0.14320921345E+03  0.14320921345E+03  0.00000000000E+00 0. -1.
         23    2    1    2    0    0 -0.10692944547E+03  0.39879431727E+02  0.20224595420E+03  0.24780299612E+03  0.86479035097E+02 0.  0.
         24    2    1    2    0    0  0.65523172414E+02 -0.38000213767E+02 -0.52433359063E+02  0.12196870520E+03  0.79936259208E+02 0.  0.
        -13    1    4    4    0    0  0.15267996093E+02  0.22797900086E+02 -0.28445773569E+02  0.39522373245E+02  0.00000000000E+00 0.  1.
         14    1    4    4    0    0  0.50255176322E+02 -0.60798113852E+02 -0.23987585494E+02  0.82446331955E+02  0.00000000000E+00 0. -1.
        -11    1    3    3    0    0 -0.40148570167E+02 -0.20721946611E+02  0.32721234478E+02  0.55785176737E+02  0.00000000000E+00 0. -1.
         11    1    3    3    0    0 -0.66780875302E+02  0.60601378338E+02  0.16952471973E+03  0.19201781938E+03  0.00000000000E+00 0.  1.
         21    1    1    2  502  501  0.41406273055E+02 -0.18792179604E+01 -0.20304378470E+02  0.46154942243E+02  0.00000000000E+00 0. -1.
<scales pt_clust_5="13000.00000" pt_clust_6="13000.00000" pt_clust_7="13000.00000" pt_clust_8="13000.00000" pt_clust_9="41.44890"></scales>
<clustering>
<clus scale="   41.449">  2  9  1 -1</clus>
<clus scale="   79.936">  5  6 -1 -1</clus>
<clus scale="   86.479">  7  8 -1 -1</clus>
<clus scale="  132.751">  2  5  1 -1</clus>
<clus scale="   41.449">  2  5  1 -1</clus>
</clustering>
</event>
<event>
 9    2  0.3791909E-005  0.9423509E+02  0.7546771E-02  0.1298487E+00
         -1   -1    0    0    0  501 -0.00000000000E+00  0.00000000000E+00  0.20704248538E+02  0.20704248538E+02  0.00000000000E+00 0.  1.
          2   -1    0    0  502    0  0.00000000000E+00 -0.00000000000E+00 -0.71815175121E+03  0.71815175121E+03  0.00000000000E+00 0. -1.
         23    2    1    2    0    0 -0.31151462635E+02  0.60830934966E+01 -0.14103672747E+03  0.17018276504E+03  0.89796421817E+02 0.  0.
         24    2    1    2    0    0  0.11442904441E+02 -0.29784538376E+02 -0.38577625610E+03  0.39527679626E+03  0.80014793044E+02 0.  0.
        -11    1    4    4    0    0 -0.18379215698E+02 -0.46303968574E+02 -0.18324367144E+03  0.18989496096E+03  0.00000000000E+00 0.  1.
         12    1    4    4    0    0  0.29822120139E+02  0.16519430197E+02 -0.20253258466E+03  0.20538183530E+03  0.00000000000E+00 0. -1.
        -13    1    3    3    0    0 -0.54068334366E+02  0.28854300487E+02 -0.76588242226E+02  0.98090337368E+02  0.00000000000E+00 0.  1.
         13    1    3    3    0    0  0.22916871731E+02 -0.22771206990E+02 -0.64448485246E+02  0.72092427676E+02  0.00000000000E+00 0. -1.
         21    1    1    2  502  501  0.19708558194E+02  0.23701444880E+02 -0.17063451910E+03  0.17339643844E+03  0.00000000000E+00 0. -1.
<scales pt_clust_5="13000.00000" pt_clust_6="13000.00000" pt_clust_7="13000.00000" pt_clust_8="13000.00000" pt_clust_9="30.82508"></scales>
<clustering>
<clus scale="   30.825">  2  9  1 -1</clus>
<clus scale="   80.015">  5  6 -1 -1</clus>
<clus scale="   84.966">  2  5  1 -1</clus>
<clus scale="   89.796">  7  8 -1 -1</clus>
<clus scale="   30.825">  2  5  1 -1</clus>
</clustering>
</event>
<event>
 9    2  0.3791909E-005  0.1269365E+03  0.7546771E-02  0.1234864E+00
          2   -1    0    0  502    0  0.00000000000E+00  0.00000000000E+00  0.61412887914E+03  0.61412887914E+03  0.00000000000E+00 0. -1.
         -1   -1    0    0    0  501 -0.00000000000E+00 -0.00000000000E+00 -0.39154252397E+02  0.39154252397E+02  0.00000000000E+00 0.  1.
         23    2    1    2    0    0 -0.59166527803E+02  0.53196738327E+02  0.13675621170E+03  0.18247839692E+03  0.90914976336E+02 0.  0.
         24    2    1    2    0    0  0.84170800489E+02 -0.63053747041E+02  0.27395383376E+03  0.30435586278E+03  0.80754501451E+02 0.  0.
        -11    1    4    4    0    0 -0.12111039631E+02 -0.23108561759E+02  0.34989161391E+02  0.43645438735E+02  0.00000000000E+00 0.  1.
         12    1    4    4    0    0  0.96281840120E+02 -0.39945185282E+02  0.23896467237E+03  0.26071042404E+03  0.00000000000E+00 0. -1.
        -11    1    3    3    0    0 -0.24169743502E+02  0.12610660341E+02  0.12457138975E+03  0.12751955301E+03  0.00000000000E+00 0. -1.
         11    1    3    3    0    0 -0.34996784301E+02  0.40586077987E+02  0.12184821949E+02  0.54958843908E+02  0.00000000000E+00 0.  1.
         21    1    1    2  502  501 -0.25004272686E+02  0.98570087132E+01  0.16426458128E+03  0.16644887184E+03  0.00000000000E+00 0. -1.
<scales pt_clust_5="13000.00000" pt_clust_6="13000.00000" pt_clust_7="13000.00000" pt_clust_8="13000.00000" pt_clust_9="26.87702"></scales>
<clustering>
<clus scale="   26.877">  1  9  2 -1</clus>
<clus scale="   80.755">  5  6 -1 -1</clus>
<clus scale="   90.915">  7  8 -1 -1</clus>
<clus scale="  119.869">  1  5  2 -1</clus>
<clus scale="   26.877">  1  5  2 -1</clus>
</clustering>
</event>
<event>
 9    2  0.3791909E-005  0.1140187E+03  0.7546771E-02  0.1257195E+00
         -1   -1    0    0    0  501 -0.00000000000E+00  0.00000000000E+00  0.14212544420E+03  0.14212544420E+03  0.00000000000E+00 0.  1.
          2   -1    0    0  502    0  0.00000000000E+00 -0.00000000000E+00 -0.12428909943E+03  0.12428909943E+03  0.00000000000E+00 0. -1.
         24    2    1    2    0    0 -0.59127954287E+02  0.19726237941E+02  0.50251717812E+02  0.11431615748E+03  0.81594787072E+02 0.  0.
         23    2    1    2    0    0  0.79366016310E+02 -0.32389960800E+01 -0.20763706713E+02  0.12351220720E+03  0.92275013792E+02 0.  0.
        -11    1    3    3    0    0 -0.23285478457E+02 -0.25409373915E+02  0.44655833297E+02  0.56409159161E+02  0.00000000000E+00 0.  1.
         12    1    3    3    0    0 -0.35842475830E+02  0.45135611857E+02  0.55958845148E+01  0.57906998323E+02  0.00000000000E+00 0. -1.
        -13    1    4    4    0    0  0.74269285655E+02 -0.36625870772E+02  0.19137411931E+01  0.82831416787E+02  0.00000000000E+00 0. -1.
         13    1    4    4    0    0  0.50967306548E+01  0.33386874692E+02 -0.22677447907E+02  0.40680790413E+02  0.00000000000E+00 0.  1.
         21    1    1    2  502  501 -0.20238062024E+02 -0.16487241861E+02 -0.11651666334E+02  0.28586178951E+02  0.00000000000E+00 0. -1.
<scales pt_clust_5="13000.00000" pt_clust_6="13000.00000" pt_clust_7="13000.00000" pt_clust_8="13000.00000" pt_clust_9="26.10380"></scales>
<clustering>
<clus scale="   26.104">  2  9  1 -1</clus>
<clus scale="   81.595">  5  6 -1 -1</clus>
<clus scale="   92.275">  7  8 -1 -1</clus>
<clus scale="  105.562">  1  5  2 -1</clus>
<clus scale="   26.104">  2  5  1 -1</clus>
</clustering>
</event>
<event>
 9    2  0.3791909E-005  0.9370421E+02  0.7546771E-02  0.1303500E+00
          2   -1    0    0  502    0  0.00000000000E+00  0.00000000000E+00  0.19808719694E+03  0.19808719694E+03  0.00000000000E+00 0. -1.
         -1   -1    0    0    0  501 -0.00000000000E+00 -0.00000000000E+00 -0.14436267279E+03  0.14436267279E+03  0.00000000000E+00 0.  1.
         24    2    1    2    0    0 -0.21632096196E+02 -0.16737152825E+02 -0.98081567043E+02  0.12590973475E+03  0.74062052641E+02 0.  0.
         23    2    1    2    0    0 -0.89903561305E+01  0.43509915559E+02  0.14355249694E+03  0.17503546983E+03  0.89756097647E+02 0.  0.
        -13    1    3    3    0    0 -0.94607757380E+01 -0.33318682939E+02 -0.10864263637E+02  0.36299767695E+02  0.00000000000E+00 0.  1.
         14    1    3    3    0    0 -0.12171320458E+02  0.16581530114E+02 -0.87217303406E+02  0.89609967057E+02  0.00000000000E+00 0. -1.
        -13    1    4    4    0    0  0.44057390829E+01 -0.27205637877E+02  0.31447838535E+02  0.41815353851E+02  0.00000000000E+00 0.  1.
         13    1    4    4    0    0 -0.13396095213E+02  0.70715553436E+02  0.11210465841E+03  0.13322011598E+03  0.00000000000E+00 0. -1.
         21    1    1    2  502  501  0.30622452326E+02 -0.26772762734E+02  0.82535942553E+01  0.41504665148E+02  0.00000000000E+00 0. -1.
<scales pt_clust_5="13000.00000" pt_clust_6="13000.00000" pt_clust_7="13000.00000" pt_clust_8="13000.00000" pt_clust_9="40.67573"></scales>
<clustering>
<clus scale="   40.676">  1  9  2 -1</clus>
<clus scale="   74.062">  5  6 -1 -1</clus>
<clus scale="   78.800">  2  5  1 -1</clus>
<clus scale="   89.756">  7  8 -1 -1</clus>
<clus scale="   40.676">  1  5  2 -1</clus>
</clustering>
</event>
<event>
 9    2  0.3791909E-005  0.1033421E+03  0.7546771E-02  0.1278865E+00
          2   -1    0    0  502    0  0.00000000000E+00  0.00000000000E+00  0.34843631619E+03  0.34843631619E+03  0.00000000000E+00 0. -1.
         -1   -1    0    0    0  501 -0.00000000000E+00 -0.00000000000E+00 -0.79815077902E+02  0.79815077902E+02  0.00000000000E+00 0.  1.
         23    2    1    2    0    0 -0.48502805455E+02 -0.35810292207E+02 -0.11171051595E+02  0.11018511390E+03  0.91548171841E+02 0.  0.
         24    2    1    2    0    0 -0.13164426611E+02  0.13961926357E+02  0.18991521446E+03  0.20689934586E+03  0.79820505625E+02 0.  0.
        -13    1    4    4    0    0 -0.27141270696E+02 -0.14771119185E+02  0.27481939860E+02  0.41353253263E+02  0.00000000000E+00 0.  1.
         14    1    4    4    0    0  0.13976844085E+02  0.28733045542E+02  0.16243327460E+03  0.16554609260E+03  0.00000000000E+00 0. -1.
        -13    1    3    3    0    0  0.20802025884E+02 -0.15520705003E+01  0.18002611768E+02  0.27554078359E+02  0.00000000000E+00 0.  1.
         13    1    3    3    0    0 -0.69304831339E+02 -0.34258221707E+02 -0.29173663363E+02  0.82631035546E+02  0.00000000000E+00 0. -1.
         21    1    1    2  502  501  0.61667232066E+02  0.21848365850E+02  0.89877075417E+02  0.11116693432E+03  0.00000000000E+00 0.  1.
<scales pt_clust_5="13000.00000" pt_clust_6="13000.00000" pt_clust_7="13000.00000" pt_clust_8="13000.00000" pt_clust_9="65.42323"></scales>
<clustering>
<clus scale="   65.423">  1  9  2 -1</clus>
<clus scale="   79.821">  5  6 -1 -1</clus>
<clus scale="   91.548">  7  8 -1 -1</clus>
<clus scale="   93.112">  1  5  2 -1</clus>
<clus scale="   65.423">  1  5  2 -1</clus>
</clustering>
</event>
<event>
 9    2  0.3791909E-005  0.9260744E+02  0.7546771E-02  0.1303659E+00
          2   -1    0    0  502    0  0.00000000000E+00  0.00000000000E+00  0.21922199718E+03  0.21922199718E+03  0.00000000000E+00 0. -1.
         -1   -1    0    0    0  501 -0.00000000000E+00 -0.00000000000E+00 -0.67086332317E+02  0.67086332317E+02  0.00000000000E+00 0.  1.
         24    2    1    2    0    0  0.43094713088E+01 -0.15440848831E+02 -0.14877564634E+02  0.81944694245E+02  0.78972144646E+02 0.  0.
         23    2    1    2    0    0 -0.92199639887E+01  0.34968523516E+02  0.13377745385E+03  0.16550414735E+03  0.90484309465E+02 0.  0.
        -11    1    3    3    0    0  0.62829921250E+01 -0.47773679163E+02 -0.84601435741E+01  0.48922126284E+02  0.00000000000E+00 0.  1.
         12    1    3    3    0    0 -0.19735208162E+01  0.32332830332E+02 -0.64174210599E+01  0.33022567961E+02  0.00000000000E+00 0. -1.
        -13    1    4    4    0    0 -0.89821585117E+01 -0.25005193593E+02  0.10797790226E+02  0.28679803903E+02  0.00000000000E+00 0.  1.
         13    1    4    4    0    0 -0.23780547707E+00  0.59973717109E+02  0.12297966363E+03  0.13682434345E+03  0.00000000000E+00 0. -1.
         21    1    1    2  502  501  0.49104926799E+01 -0.19527674685E+02  0.33235775651E+02  0.38859487903E+02  0.00000000000E+00 0.  1.
<scales pt_clust_5="13000.00000" pt_clust_6="13000.00000" pt_clust_7="13000.00000" pt_clust_8="13000.00000" pt_clust_9="20.13562"></scales>
<clustering>
<clus scale="   20.136">  1  9  2 -1</clus>
<clus scale="   78.972">  5  6 -1 -1</clus>
<clus scale="   81.396">  2  5  1 -1</clus>
<clus scale="   90.484">  7  8 -1 -1</clus>
<clus scale="   20.136">  1  5  2 -1</clus>
</clustering>
</event>
<event>
 9    2  0.3791909E-005  0.2979084E+03  0.7546771E-02  0.1086588E+00
          2   -1    0    0  502    0  0.00000000000E+00  0.00000000000E+00  0.81447626329E+03  0.81447626329E+03  0.00000000000E+00 0. -1.
         -1   -1    0    0    0  501 -0.00000000000E+00 -0.00000000000E+00 -0.15028917365E+03  0.15028917365E+03  0.00000000000E+00 0.  1.
         23    2    1    2    0    0  0.26674156740E+03 -0.12458439750E+03  0.12938971498E+03  0.33425511468E+03  0.91172624540E+02 0.  0.
         24    2    1    2    0    0 -0.25367941260E+03  0.69310945528E+02  0.46343780447E+03  0.53930745695E+03  0.83190642320E+02 0.  0.
        -11    1    4    4    0    0 -0.14654088943E+03  0.58753925548E+01  0.20084650869E+03  0.24869272721E+03  0.00000000000E+00 0.  1.
         12    1    4    4    0    0 -0.10713852317E+03  0.63435552973E+02  0.26259129578E+03  0.29061472975E+03  0.00000000000E+00 0. -1.
        -11    1    3    3    0    0  0.22307368149E+03 -0.71685653234E+02  0.72880518632E+02  0.24538188656E+03  0.00000000000E+00 0.  1.
         11    1    3    3    0    0  0.43667885907E+02 -0.52898744268E+02  0.56509196345E+02  0.88873228119E+02  0.00000000000E+00 0. -1.
         21    1    1    2  502  501 -0.13062154802E+02  0.55273451975E+02  0.71359570203E+02  0.91202865310E+02  0.00000000000E+00 0.  1.
<scales pt_clust_5="13000.00000" pt_clust_6="13000.00000" pt_clust_7="13000.00000" pt_clust_8="13000.00000" pt_clust_9="56.79590"></scales>
<clustering>
<clus scale="   56.796">  1  9  2 -1</clus>
<clus scale="   83.191">  5  6 -1 -1</clus>
<clus scale="   91.173">  7  8 -1 -1</clus>
<clus scale="  295.563">  1  5  2 -1</clus>
<clus scale="   56.796">  1  5  2 -1</clus>
</clustering>
</event>
<event>
 9    2  0.3791909E-005  0.2073536E+03  0.7546771E-02  0.1144596E+00
         -1   -1    0    0    0  501 -0.00000000000E+00  0.00000000000E+00  0.68995546886E+03  0.68995546886E+03  0.00000000000E+00 0.  1.
          2   -1    0    0  502    0  0.00000000000E+00 -0.00000000000E+00 -0.73295316938E+02  0.73295316938E+02  0.00000000000E+00 0. -1.
         23    2    1    2    0    0 -0.65778068226E+02 -0.15287854411E+03  0.29903188785E+03  0.35443793545E+03  0.92236525441E+02 0.  0.
         24    2    1    2    0    0  0.86311257671E+02  0.18441989682E+03  0.26302358999E+03  0.34249438210E+03  0.81612874797E+02 0.  0.
        -11    1    4    4    0    0 -0.15683453880E+02  0.33603941008E+02  0.50358060045E+02  0.62539026122E+02  0.00000000000E+00 0.  1.
         12    1    4    4    0    0  0.10199471155E+03  0.15081595582E+03  0.21266552994E+03  0.27995535598E+03  0.00000000000E+00 0. -1.
        -11    1    3    3    0    0 -0.14496786963E+02 -0.13087553893E+03  0.23604016576E+03  0.27028415302E+03  0.00000000000E+00 0.  1.
         11    1    3    3    0    0 -0.51281281263E+02 -0.22003005177E+02  0.62991722095E+02  0.84153782430E+02  0.00000000000E+00 0. -1.
         21    1    1    2  502  501 -0.20533189445E+02 -0.31541352713E+02  0.54604674084E+02  0.66318468254E+02  0.00000000000E+00 0. -1.
<scales pt_clust_5="13000.00000" pt_clust_6="13000.00000" pt_clust_7="13000.00000" pt_clust_8="13000.00000" pt_clust_9="37.63600"></scales>
<clustering>
<clus scale="   37.636">  1  9  2 -1</clus>
<clus scale="   81.613">  5  6 -1 -1</clus>
<clus scale="   92.237">  7  8 -1 -1</clus>
<clus scale="  202.851">  2  5  1 -1</clus>
<clus scale="  202.851">  2  5  1 -1</clus>
</clustering>
</event>
<event>
 9    2  0.3791909E-005  0.2338543E+03  0.7546771E-02  0.1126031E+00
         -1   -1    0    0    0  501 -0.00000000000E+00  0.00000000000E+00  0.69569218540E+03  0.69569218540E+03  0.00000000000E+00 0.  1.
          2   -1    0    0  502    0  0.00000000000E+00 -0.00000000000E+00 -0.37344075013E+03  0.37344075013E+03  0.00000000000E+00 0. -1.
         24    2    1    2    0    0 -0.14766550670E+03  0.15417189858E+03  0.61699280347E+03  0.65774360458E+03  0.79827649670E+02 0.  0.
         23    2    1    2    0    0  0.49097969967E+02 -0.12780673587E+03 -0.23641157367E+03  0.29386041523E+03  0.10825127750E+03 0.  0.
        -11    1    3    3    0    0 -0.10527186340E+03  0.12649295209E+03  0.54793342107E+03  0.57211333325E+03  0.00000000000E+00 0.  1.
         12    1    3    3    0    0 -0.42393643305E+02  0.27678946485E+02  0.69059382394E+02  0.85630271329E+02  0.00000000000E+00 0. -1.
        -11    1    4    4    0    0  0.28795481367E+02 -0.37512879322E+02 -0.17856510508E+03  0.18472112119E+03  0.00000000000E+00 0.  1.
         11    1    4    4    0    0  0.20302488601E+02 -0.90293856548E+02 -0.57846468595E+02  0.10913929404E+03  0.00000000000E+00 0. -1.
         21    1    1    2  502  501  0.98567536736E+02 -0.26365162705E+02 -0.58329794526E+02  0.11752891573E+03  0.00000000000E+00 0. -1.
<scales pt_clust_5="13000.00000" pt_clust_6="13000.00000" pt_clust_7="13000.00000" pt_clust_8="13000.00000" pt_clust_9="102.03275"></scales>
<clustering>
<clus scale="   79.828">  5  6 -1 -1</clus>
<clus scale="  102.033">  2  9  1 -1</clus>
<clus scale="  108.251">  7  8 -1 -1</clus>
<clus scale="  222.131">  1  5  2 -1</clus>
<clus scale="  102.033">  2  5  1 -1</clus>
</clustering>
</event>
<event>
 9    2  0.3791909E-005  0.1056523E+03  0.7546771E-02  0.1274536E+00
          2   -1    0    0  502    0  0.00000000000E+00  0.00000000000E+00  0.38357144490E+02  0.38357144490E+02  0.00000000000E+00 0. -1.
         -1   -1    0    0    0  501 -0.00000000000E+00 -0.00000000000E+00 -0.47765490617E+03  0.47765490617E+03  0.00000000000E+00 0.  1.
         24    2    1    2    0    0  0.36470463183E+02  0.36596050394E+02 -0.23089028537E+03  0.25020697993E+03  0.81386997370E+02 0.  0.
         23    2    1    2    0    0 -0.65093598100E+01 -0.49607210022E+02 -0.20740928069E+03  0.23312549936E+03  0.93944886398E+02 0.  0.
        -11    1    3    3    0    0  0.27121034674E+02 -0.14610718328E+02 -0.15594187000E+03  0.15895562409E+03  0.00000000000E+00 0.  1.
         12    1    3    3    0    0  0.93494285088E+01  0.51206768723E+02 -0.74948415369E+02  0.91251355840E+02  0.00000000000E+00 0. -1.
        -11    1    4    4    0    0 -0.11332159430E+02  0.24021337801E+02 -0.95153984226E+02  0.98791311466E+02  0.00000000000E+00 0. -1.
         11    1    4    4    0    0  0.48227996204E+01 -0.73628547823E+02 -0.11225529647E+03  0.13433418789E+03  0.00000000000E+00 0.  1.
         21    1    1    2  502  501 -0.29961103373E+02  0.13011159628E+02 -0.99819561196E+00  0.32679571366E+02  0.00000000000E+00 0. -1.
<scales pt_clust_5="13000.00000" pt_clust_6="13000.00000" pt_clust_7="13000.00000" pt_clust_8="13000.00000" pt_clust_9="32.66432"></scales>
<clustering>
<clus scale="   32.664">  1  9  2 -1</clus>
<clus scale="   81.387">  5  6 -1 -1</clus>
<clus scale="   93.945">  7  8 -1 -1</clus>
<clus scale="   94.660">  2  5  1 -1</clus>
<clus scale="   32.664">  1  5  2 -1</clus>
</clustering>
</event>
<event>
 9    2  0.3791909E-005  0.1482727E+03  0.7546771E-02  0.1204876E+00
          2   -1    0    0  502    0  0.00000000000E+00  0.00000000000E+00  0.61974184017E+02  0.61974184017E+02  0.00000000000E+00 0. -1.
         -1   -1    0    0    0  501 -0.00000000000E+00 -0.00000000000E+00 -0.58761592984E+03  0.58761592984E+03  0.00000000000E+00 0.  1.
         23    2    1    2    0    0  0.10471687888E+03  0.38676908000E+01 -0.39205548450E+03  0.41624975039E+03  0.92605442708E+02 0.  0.
         24    2    1    2    0    0 -0.11551099851E+03 -0.29981185193E+02 -0.62961889926E+02  0.15727309427E+03  0.80802007124E+02 0.  0.
        -11    1    4    4    0    0 -0.42194960711E+02  0.47049003094E+01 -0.63234752884E+02  0.76165509049E+02  0.00000000000E+00 0.  1.
         12    1    4    4    0    0 -0.73316037799E+02 -0.34686085502E+02  0.27286295763E+00  0.81107585220E+02  0.00000000000E+00 0. -1.
        -13    1    3    3    0    0  0.51844809436E+02  0.48240623466E+02 -0.19733644289E+03  0.20965856460E+03  0.00000000000E+00 0. -1.
         13    1    3    3    0    0  0.52872069449E+02 -0.44372932666E+02 -0.19471904161E+03  0.20659118579E+03  0.00000000000E+00 0.  1.
         21    1    1    2  502  501  0.10794119626E+02  0.26113494393E+02 -0.70624371396E+02  0.76067269197E+02  0.00000000000E+00 0.  1.
<scales pt_clust_5="13000.00000" pt_clust_6="13000.00000" pt_clust_7="13000.00000" pt_clust_8="13000.00000" pt_clust_9="28.25646"></scales>
<clustering>
<clus scale="   28.256">  2  9  1 -1</clus>
<clus scale="   80.802">  5  6 -1 -1</clus>
<clus scale="   92.605">  7  8 -1 -1</clus>
<clus scale="  141.202">  1  5  2 -1</clus>
<clus scale="  141.202">  1  5  2 -1</clus>
</clustering>
</event>
<event>
 9    2  0.3791909E-005  0.1267296E+03  0.7546771E-02  0.1235276E+00
         -1   -1    0    0    0  501 -0.00000000000E+00  0.00000000000E+00  0.91340545271E+02  0.91340545271E+02  0.00000000000E+00 0.  1.
          2   -1    0    0  502    0  0.00000000000E+00 -0.00000000000E+00 -0.43670181906E+03  0.43670181906E+03  0.00000000000E+00 0. -1.
         23    2    1    2    0    0 -0.19054717047E+02  0.90201917693E+02  0.10505966589E+02  0.13032623390E+03  0.91515483456E+02 0.  0.
         24    2    1    2    0    0 -0.36881147642E+02 -0.72770752322E+02 -0.27275929197E+03  0.29603231867E+03  0.81127682683E+02 0.  0.
        -11    1    4    4    0    0 -0.23178642186E+02  0.83809056054E+01 -0.12008589756E+03  0.12258919946E+03  0.00000000000E+00 0.  1.
         12    1    4    4    0    0 -0.13702505456E+02 -0.81151657927E+02 -0.15267339441E+03  0.17344311921E+03  0.00000000000E+00 0. -1.
        -11    1    3    3    0    0  0.36916034889E+02  0.32374072417E+02 -0.46884512317E+00  0.49102892100E+02  0.00000000000E+00 0. -1.
         11    1    3    3    0    0 -0.55970751936E+02  0.57827845277E+02  0.10974811713E+02  0.81223341804E+02  0.00000000000E+00 0.  1.
         21    1    1    2  502  501  0.55935864689E+02 -0.17431165371E+02 -0.83107948411E+02  0.10168381176E+03  0.00000000000E+00 0.  1.
<scales pt_clust_5="13000.00000" pt_clust_6="13000.00000" pt_clust_7="13000.00000" pt_clust_8="13000.00000" pt_clust_9="58.58896"></scales>
<clustering>
<clus scale="   58.589">  2  9  1 -1</clus>
<clus scale="   81.128">  5  6 -1 -1</clus>
<clus scale="   91.515">  7  8 -1 -1</clus>
<clus scale="  119.445">  2  5  1 -1</clus>
<clus scale="   58.589">  2  5  1 -1</clus>
</clustering>
</event>
<event>
 9    2  0.3791909E-005  0.9864610E+02  0.7546771E-02  0.1287400E+00
          2   -1    0    0  502    0  0.00000000000E+00  0.00000000000E+00  0.23476178253E+03  0.23476178253E+03  0.00000000000E+00 0. -1.
         -1   -1    0    0    0  501 -0.00000000000E+00 -0.00000000000E+00 -0.15898208106E+03  0.15898208106E+03  0.00000000000E+00 0.  1.
         23    2    1    2    0    0 -0.29608520171E+02  0.17917053390E+02 -0.78018577396E+02  0.12397182530E+03  0.89913457166E+02 0.  0.
         24    2    1    2    0    0  0.12767121057E+02 -0.64504260580E+02 -0.35518938262E+01  0.10480817121E+03  0.81537339843E+02 0.  0.
        -11    1    4    4    0    0 -0.29226456652E+02 -0.35641171071E+02 -0.21398489003E+02  0.50817065788E+02  0.00000000000E+00 0.  1.
         12    1    4    4    0    0  0.41993577709E+02 -0.28863089509E+02  0.17846595177E+02  0.53991105417E+02  0.00000000000E+00 0. -1.
        -11    1    3    3    0    0 -0.51173911469E+02  0.59570535277E+01 -0.11165287158E+02  0.52715456359E+02  0.00000000000E+00 0. -1.
         11    1    3    3    0    0  0.21565391298E+02  0.11959999863E+02 -0.66853290238E+02  0.71256368938E+02  0.00000000000E+00 0.  1.
         21    1    1    2  502  501  0.16841399114E+02  0.46587207189E+02  0.15735017269E+03  0.16496386709E+03  0.00000000000E+00 0.  1.
<scales pt_clust_5="13000.00000" pt_clust_6="13000.00000" pt_clust_7="13000.00000" pt_clust_8="13000.00000" pt_clust_9="49.53787"></scales>
<clustering>
<clus scale="   49.538">  1  9  2 -1</clus>
<clus scale="   81.537">  5  6 -1 -1</clus>
<clus scale="   89.913">  7  8 -1 -1</clus>
<clus scale="   91.077">  1  5  2 -1</clus>
<clus scale="   49.538">  1  5  2 -1</clus>
</clustering>
</event>
<event>
 9    2  0.3791909E-005  0.1012125E+03  0.7546771E-02  0.1284116E+00
         -3   -1    0    0    0  501 -0.00000000000E+00  0.00000000000E+00  0.36828744315E+03  0.36828744315E+03  0.00000000000E+00 0.  1.
          4   -1    0    0  502    0  0.00000000000E+00 -0.00000000000E+00 -0.65716168230E+02  0.65716168230E+02  0.00000000000E+00 0. -1.
         24    2    1    2    0    0  0.47510144727E+02 -0.10743565671E+02  0.25976852935E+03  0.27549353415E+03  0.77745485154E+02 0.  0.
         23    2    1    2    0    0 -0.13569937933E+02  0.45809138608E+02  0.38310661855E+02  0.10950282411E+03  0.90777427156E+02 0.  0.
        -11    1    3    3    0    0  0.12924931511E+02 -0.31774624946E+02  0.20237778540E+03  0.20526433852E+03  0.00000000000E+00 0.  1.
         12    1    3    3    0    0  0.34585213215E+02  0.21031059275E+02  0.57390743950E+02  0.70229195628E+02  0.00000000000E+00 0. -1.
        -13    1    4    4    0    0  0.24106175269E+02  0.14487210348E+02  0.51573856789E+02  0.58743932911E+02  0.00000000000E+00 0.  1.
         13    1    4    4    0    0 -0.37676113203E+02  0.31321928260E+02 -0.13263194935E+02  0.50758891200E+02  0.00000000000E+00 0. -1.
         21    1    1    2  502  501 -0.33940206793E+02 -0.35065572937E+02  0.44920837182E+01  0.49007253123E+02  0.00000000000E+00 0. -1.
<scales pt_clust_5="13000.00000" pt_clust_6="13000.00000" pt_clust_7="13000.00000" pt_clust_8="13000.00000" pt_clust_9="48.80094"></scales>
<clustering>
<clus scale="   48.801">  2  9  1 -1</clus>
<clus scale="   77.745">  5  6 -1 -1</clus>
<clus scale="   89.710">  1  5  2 -1</clus>
<clus scale="   90.777">  7  8 -1 -1</clus>
<clus scale="   48.801">  2  5  1 -1</clus>
</clustering>
</event>
<event>
 9    2  0.3791909E-005  0.1386605E+03  0.7546771E-02  0.1217001E+00
         -1   -1    0    0    0  501 -0.00000000000E+00  0.00000000000E+00  0.53451105401E+03  0.53451105401E+03  0.00000000000E+00 0.  1.
          2   -1    0    0  502    0  0.00000000000E+00 -0.00000000000E+00 -0.65278377875E+02  0.65278377875E+02  0.00000000000E+00 0. -1.
         23    2    1    2    0    0 -0.98325736101E+02  0.32350737095E+02  0.37598287222E+03  0.39992522647E+03  0.88670998603E+02 0.  0.
         24    2    1    2    0    0  0.12012384182E+03 -0.13380193411E+02  0.63136187481E+02  0.15812850325E+03  0.80060467268E+02 0.  0.
        -11    1    4    4    0    0  0.51990678114E+02 -0.44627720910E+02  0.41524095535E+02  0.80118128999E+02  0.00000000000E+00 0.  1.
         12    1    4    4    0    0  0.68133163710E+02  0.31247527499E+02  0.21612091946E+02  0.78010374247E+02  0.00000000000E+00 0. -1.
        -11    1    3    3    0    0  0.29058699333E+01  0.34176400473E+02  0.11440594461E+03  0.11943697330E+03  0.00000000000E+00 0. -1.
         11    1    3    3    0    0 -0.10123160603E+03 -0.18256633787E+01  0.26157692762E+03  0.28048825317E+03  0.00000000000E+00 0.  1.
         21    1    1    2  502  501 -0.21798105723E+02 -0.18970543684E+02  0.30113616431E+02  0.41735702166E+02  0.00000000000E+00 0. -1.
<scales pt_clust_5="13000.00000" pt_clust_6="13000.00000" pt_clust_7="13000.00000" pt_clust_8="13000.00000" pt_clust_9="28.89704"></scales>
<clustering>
<clus scale="   28.897">  2  9  1 -1</clus>
<clus scale="   80.060">  5  6 -1 -1</clus>
<clus scale="   88.671">  7  8 -1 -1</clus>
<clus scale="  133.319">  2  5  1 -1</clus>
<clus scale="   28.897">  2  5  1 -1</clus>
</clustering>
</event>
<event>
 9    2  0.3791909E-005  0.1172919E+03  0.7546771E-02  0.1251025E+00
          2   -1    0    0  502    0  0.00000000000E+00  0.00000000000E+00  0.42660585446E+03  0.42660585446E+03  0.00000000000E+00 0. -1.
         -1   -1    0    0    0  501 -0.00000000000E+00 -0.00000000000E+00 -0.21511088061E+03  0.21511088061E+03  0.00000000000E+00 0.  1.
         24    2    1    2    0    0  0.43945644899E+02  0.56098739386E+02 -0.17808713248E+03  0.20862481741E+03  0.82042668277E+02 0.  0.
         23    2    1    2    0    0 -0.59810666374E+02 -0.88887881975E+02  0.35806862976E+03  0.38492630769E+03  0.92069253042E+02 0.  0.
        -13    1    3    3    0    0  0.87170066011E+01  0.51541267579E+02 -0.16087054251E+03  0.16915028795E+03  0.00000000000E+00 0.  1.
         14    1    3    3    0    0  0.35228638298E+02  0.45574718068E+01 -0.17216589972E+02  0.39474529457E+02  0.00000000000E+00 0. -1.
        -13    1    4    4    0    0 -0.44713210016E+02 -0.27803762557E+02  0.27875820477E+03  0.28368725225E+03  0.00000000000E+00 0. -1.
         13    1    4    4    0    0 -0.15097456358E+02 -0.61084119418E+02  0.79310424994E+02  0.10123905544E+03  0.00000000000E+00 0.  1.
         21    1    1    2  502  501  0.15865021476E+02  0.32789142589E+02  0.31513476577E+02  0.48165609973E+02  0.00000000000E+00 0.  1.
<scales pt_clust_5="13000.00000" pt_clust_6="13000.00000" pt_clust_7="13000.00000" pt_clust_8="13000.00000" pt_clust_9="36.42563"></scales>
<clustering>
<clus scale="   36.426">  1  9  2 -1</clus>
<clus scale="   82.043">  5  6 -1 -1</clus>
<clus scale="   92.069">  7  8 -1 -1</clus>
<clus scale="  109.598">  2  5  1 -1</clus>
<clus scale="   36.426">  1  5  2 -1</clus>
</clustering>
</event>
<event>
 9    2  0.3791909E-005  0.1058609E+03  0.7546771E-02  0.1271862E+00
         -1   -1    0    0    0  501 -0.00000000000E+00  0.00000000000E+00  0.72219228962E+02  0.72219228962E+02  0.00000000000E+00 0.  1.
          2   -1    0    0  502    0  0.00000000000E+00 -0.00000000000E+00 -0.62413603223E+03  0.62413603223E+03  0.00000000000E+00 0. -1.
         23    2    1    2    0    0 -0.33072860978E+01  0.58836807377E+02  0.22261033595E+02  0.10895902030E+03  0.88903354523E+02 0.  0.
         24    2    1    2    0    0 -0.29905230895E-01 -0.39112593425E+02 -0.54298052423E+03  0.55033610357E+03  0.80698087635E+02 0.  0.
        -11    1    4    4    0    0 -0.31137341842E+02 -0.41780075530E+02 -0.23134527292E+03  0.23714076847E+03  0.00000000000E+00 0.  1.
         12    1    4    4    0    0  0.31107436611E+02  0.26674821049E+01 -0.31163525130E+03  0.31319533510E+03  0.00000000000E+00 0. -1.
        -11    1    3    3    0    0 -0.29793634717E+02 -0.16771709534E+01  0.30165174463E+02  0.42431254076E+02  0.00000000000E+00 0.  1.
         11    1    3    3    0    0  0.26486348619E+02  0.60513978331E+02 -0.79041408682E+01  0.66527766229E+02  0.00000000000E+00 0. -1.
         21    1    1    2  502  501  0.33371913287E+01 -0.19724213953E+02 -0.31197312634E+02  0.37060137312E+02  0.00000000000E+00 0.  1.
<scales pt_clust_5="13000.00000" pt_clust_6="13000.00000" pt_clust_7="13000.00000" pt_clust_8="13000.00000" pt_clust_9="20.00454"></scales>
<clustering>
<clus scale="   20.005">  2  9  1 -1</clus>
<clus scale="   80.698">  5  6 -1 -1</clus>
<clus scale="   88.903">  7  8 -1 -1</clus>
<clus scale="   99.070">  2  5  1 -1</clus>
<clus scale="   20.005">  2  5  1 -1</clus>
</clustering>
</event>
<event>
 9    2  0.3791909E-005  0.2795826E+03  0.7546771E-02  0.1096500E+00
          2   -1    0    0  502    0  0.00000000000E+00  0.00000000000E+00  0.13776101063E+04  0.13776101063E+04  0.00000000000E+00 0. -1.
         -1   -1    0    0    0  501 -0.00000000000E+00 -0.00000000000E+00 -0.90216175131E+02  0.90216175131E+02  0.00000000000E+00 0.  1.
         23    2    1    2    0    0  0.19040429793E+03 -0.18073441233E+03  0.21699886013E+03  0.35354412881E+03  0.94795681585E+02 0.  0.
         24    2    1    2    0    0 -0.21274694101E+03  0.15975635129E+03  0.93892452271E+03  0.97928667928E+03  0.81484895417E+02 0.  0.
        -11    1    4    4    0    0 -0.17555589907E+03  0.85685989850E+02  0.66404931892E+03  0.69218744608E+03  0.00000000000E+00 0.  1.
         12    1    4    4    0    0 -0.37191041948E+02  0.74070361443E+02  0.27487520379E+03  0.28709923320E+03  0.00000000000E+00 0. -1.
        -13    1    3    3    0    0  0.97667834095E+02 -0.12506025341E+03  0.76291264439E+02  0.17606654943E+03  0.00000000000E+00 0.  1.
         13    1    3    3    0    0  0.92736463834E+02 -0.55674158922E+02  0.14070759569E+03  0.17747757937E+03  0.00000000000E+00 0. -1.
         21    1    1    2  502  501  0.22342643086E+02  0.20978061038E+02  0.13147054835E+03  0.13499547337E+03  0.00000000000E+00 0.  1.
<scales pt_clust_5="13000.00000" pt_clust_6="13000.00000" pt_clust_7="13000.00000" pt_clust_8="13000.00000" pt_clust_9="30.64756"></scales>
<clustering>
<clus scale="   30.648">  1  9  2 -1</clus>
<clus scale="   81.485">  5  6 -1 -1</clus>
<clus scale="   94.796">  7  8 -1 -1</clus>
<clus scale="  275.354">  1  5  2 -1</clus>
<clus scale="   30.648">  1  5  2 -1</clus>
</clustering>
</event>
<event>
 9    2  0.3791909E-005  0.1020737E+03  0.7546771E-02  0.1280347E+00
          2   -1    0    0  502    0  0.00000000000E+00  0.00000000000E+00  0.37704709705E+03  0.37704709705E+03  0.00000000000E+00 0. -1.
         -1   -1    0    0    0  501 -0.00000000000E+00 -0.00000000000E+00 -0.11777415764E+03  0.11777415764E+03  0.00000000000E+00 0.  1.
         24    2    1    2    0    0 -0.33912376134E+01  0.18991238449E+02 -0.77099083303E+02  0.11410993567E+03  0.81881873103E+02 0.  0.
         23    2    1    2    0    0 -0.36959763309E+02 -0.32346182898E+02  0.31797864861E+03  0.33439853430E+03  0.91102464956E+02 0.  0.
        -11    1    3    3    0    0  0.32376701047E+02  0.18907659132E+02 -0.67274846360E+02  0.77017240260E+02  0.00000000000E+00 0.  1.
         12    1    3    3    0    0 -0.35767938660E+02  0.83579316081E-01 -0.98242369434E+01  0.37092695413E+02  0.00000000000E+00 0. -1.
        -11    1    4    4    0    0 -0.55426566727E+02 -0.80808995627E+00  0.10939988919E+03  0.12264213413E+03  0.00000000000E+00 0.  1.
         11    1    4    4    0    0  0.18466803418E+02 -0.31538092942E+02  0.20857875942E+03  0.21175640017E+03  0.00000000000E+00 0. -1.
         21    1    1    2  502  501  0.40351000922E+02  0.13354944450E+02  0.18393374104E+02  0.46312784710E+02  0.00000000000E+00 0.  1.
<scales pt_clust_5="13000.00000" pt_clust_6="13000.00000" pt_clust_7="13000.00000" pt_clust_8="13000.00000" pt_clust_9="42.50362"></scales>
<clustering>
<clus scale="   42.504">  2  9  1 -1</clus>
<clus scale="   81.882">  5  6 -1 -1</clus>
<clus scale="   91.102">  7  8 -1 -1</clus>
<clus scale="   93.936">  2  5  1 -1</clus>
<clus scale="  102.074">  1  5  2 -1</clus>
</clustering>
</event>
<event>
 9    2  0.3791909E-005  0.8821854E+02  0.7546771E-02  0.1311172E+00
         -1   -1    0    0    0  501 -0.00000000000E+00  0.00000000000E+00  0.34900831126E+02  0.34900831126E+02  0.00000000000E+00 0.  1.
          2   -1    0    0  502    0  0.00000000000E+00 -0.00000000000E+00 -0.70133158327E+03  0.70133158327E+03  0.00000000000E+00 0. -1.
         24    2    1    2    0    0 -0.36403587790E+01 -0.77440157202E+02 -0.14627238361E+03  0.18368707899E+03  0.79593357889E+02 0.  0.
         23    2    1    2    0    0 -0.68760613410E+01  0.60463571703E+01 -0.42181216508E+03  0.43056318299E+03  0.85879644166E+02 0.  0.
        -13    1    3    3    0    0 -0.29779251859E+02 -0.69138263874E+02 -0.70626718768E+02  0.10322323758E+03  0.00000000000E+00 0.  1.
         14    1    3    3    0    0  0.26138893080E+02 -0.83018933278E+01 -0.75645664841E+02  0.80463841404E+02  0.00000000000E+00 0. -1.
        -13    1    4    4    0    0  0.17727589798E+02  0.40341144745E+02 -0.20537285508E+03  0.21004686382E+03  0.00000000000E+00 0. -1.
         13    1    4    4    0    0 -0.24603651139E+02 -0.34294787575E+02 -0.21643931000E+03  0.22051631917E+03  0.00000000000E+00 0.  1.
         21    1    1    2  502  501  0.10516420120E+02  0.71393800031E+02 -0.98346203454E+02  0.12198215242E+03  0.00000000000E+00 0.  1.
<scales pt_clust_5="13000.00000" pt_clust_6="13000.00000" pt_clust_7="13000.00000" pt_clust_8="13000.00000" pt_clust_9="72.16419"></scales>
<clustering>
<clus scale="   72.164">  1  9  2 -1</clus>
<clus scale="   79.593">  5  6 -1 -1</clus>
<clus scale="   82.112">  1  5  2 -1</clus>
<clus scale="   85.880">  7  8 -1 -1</clus>
<clus scale="   88.219">  2  5  1 -1</clus>
</clustering>
</event>
<event>
 9    2  0.3791909E-005  0.9110293E+02  0.7546771E-02  0.1304308E+00
          2   -1    0    0  502    0  0.00000000000E+00  0.00000000000E+00  0.11174781186E+03  0.11174781186E+03  0.00000000000E+00 0. -1.
         -1   -1    0    0    0  501 -0.00000000000E+00 -0.00000000000E+00 -0.28590675612E+03  0.28590675612E+03  0.00000000000E+00 0.  1.
         23    2    1    2    0    0  0.20270137196E+00  0.81734782806E+01 -0.20590747371E+03  0.22510367146E+03  0.90592098679E+02 0.  0.
         24    2    1    2    0    0 -0.52756930651E+02  0.20613955250E+02 -0.64929768560E+01  0.10146590409E+03  0.83934153134E+02 0.  0.
        -13    1    4    4    0    0 -0.62845686883E+01  0.47222753646E+02 -0.12033506203E+01  0.47654300102E+02  0.00000000000E+00 0.  1.
         14    1    4    4    0    0 -0.46472361962E+02 -0.26608798395E+02 -0.52896262358E+01  0.53811603991E+02  0.00000000000E+00 0. -1.
        -11    1    3    3    0    0  0.17342647726E+02 -0.20391532979E+02 -0.13776377118E+02  0.30105989668E+02  0.00000000000E+00 0. -1.
         11    1    3    3    0    0 -0.17139946354E+02  0.28565011260E+02 -0.19213109659E+03  0.19499768179E+03  0.00000000000E+00 0.  1.
         21    1    1    2  502  501  0.52554229279E+02 -0.28787433531E+02  0.38241506294E+02  0.71084992424E+02  0.00000000000E+00 0. -1.
<scales pt_clust_5="13000.00000" pt_clust_6="13000.00000" pt_clust_7="13000.00000" pt_clust_8="13000.00000" pt_clust_9="59.92214"></scales>
<clustering>
<clus scale="   59.922">  1  9  2 -1</clus>
<clus scale="   83.934">  5  6 -1 -1</clus>
<clus scale="   84.485">  1  5  2 -1</clus>
<clus scale="   90.592">  7  8 -1 -1</clus>
<clus scale="   59.922">  1  5  2 -1</clus>
</clustering>
</event>
<event>
 9    2  0.3791909E-005  0.9517672E+02  0.7546771E-02  0.1296419E+00
          2   -1    0    0  502    0  0.00000000000E+00  0.00000000000E+00  0.35155957242E+03  0.35155957242E+03  0.00000000000E+00 0. -1.
         -1   -1    0    0    0  501 -0.00000000000E+00 -0.00000000000E+00 -0.11746137155E+03  0.11746137155E+03  0.00000000000E+00 0.  1.
         23    2    1    2    0    0 -0.17130869968E+01 -0.30597167714E+02 -0.75446918149E+02  0.12221398349E+03  0.91131218375E+02 0.  0.
         24    2    1    2    0    0 -0.48000978805E+02  0.26662273622E+01  0.14816413241E+03  0.17564782807E+03  0.81168630878E+02 0.  0.
        -13    1    4    4    0    0 -0.65350029000E+02  0.21003755235E+02  0.10038287379E+03  0.12160799881E+03  0.00000000000E+00 0.  1.
         14    1    4    4    0    0  0.17349050195E+02 -0.18337527873E+02  0.47781258626E+02  0.54039829265E+02  0.00000000000E+00 0. -1.
        -11    1    3    3    0    0 -0.26620378442E+02  0.19961544281E+02 -0.50737300122E+02  0.60674388519E+02  0.00000000000E+00 0.  1.
         11    1    3    3    0    0  0.24907291446E+02 -0.50558711995E+02 -0.24709618027E+02  0.61539594968E+02  0.00000000000E+00 0. -1.
         21    1    1    2  502  501  0.49714065802E+02  0.27930940352E+02  0.16138098661E+03  0.17115913241E+03  0.00000000000E+00 0. -1.
<scales pt_clust_5="13000.00000" pt_clust_6="13000.00000" pt_clust_7="13000.00000" pt_clust_8="13000.00000" pt_clust_9="57.02303"></scales>
<clustering>
<clus scale="   57.023">  1  9  2 -1</clus>
<clus scale="   81.169">  5  6 -1 -1</clus>
<clus scale="   85.686">  1  5  2 -1</clus>
<clus scale="   91.131">  7  8 -1 -1</clus>
<clus scale="   57.023">  1  5  2 -1</clus>
</clustering>
</event>
<event>
 9    2  0.3791909E-005  0.9972537E+02  0.7546771E-02  0.1291244E+00
         -1   -1    0    0    0  501 -0.00000000000E+00  0.00000000000E+00  0.46714873945E+02  0.46714873945E+02  0.00000000000E+00 0.  1.
          2   -1    0    0  502    0  0.00000000000E+00 -0.00000000000E+00 -0.33741466930E+03  0.33741466930E+03  0.00000000000E+00 0. -1.
         24    2    1    2    0    0 -0.14636244198E+02  0.45212043733E+02 -0.51000005446E+02  0.10576486120E+03  0.79541541137E+02 0.  0.
         23    2    1    2    0    0 -0.31812333216E+01 -0.90768713922E+01 -0.19412156731E+03  0.21753222722E+03  0.97696351740E+02 0.  0.
        -13    1    3    3    0    0  0.29458408062E+02  0.66023717345E+01 -0.36313897024E+01  0.30406843131E+02  0.00000000000E+00 0.  1.
         14    1    3    3    0    0 -0.44094652259E+02  0.38609671998E+02 -0.47368615744E+02  0.75358018069E+02  0.00000000000E+00 0. -1.
        -13    1    4    4    0    0  0.27441682843E+02 -0.42912488504E+02 -0.82709077809E+02  0.97135571131E+02  0.00000000000E+00 0.  1.
         13    1    4    4    0    0 -0.30622916165E+02  0.33835617112E+02 -0.11141248950E+03  0.12039665609E+03  0.00000000000E+00 0. -1.
         21    1    1    2  502  501  0.17817477519E+02 -0.36135172341E+02 -0.45578222600E+02  0.60832454830E+02  0.00000000000E+00 0. -1.
<scales pt_clust_5="13000.00000" pt_clust_6="13000.00000" pt_clust_7="13000.00000" pt_clust_8="13000.00000" pt_clust_9="40.28912"></scales>
<clustering>
<clus scale="   40.289">  1  9  2 -1</clus>
<clus scale="   79.542">  5  6 -1 -1</clus>
<clus scale="   82.021">  1  5  2 -1</clus>
<clus scale="   97.696">  7  8 -1 -1</clus>
<clus scale="   99.725">  2  5  1 -1</clus>
</clustering>
</event>
<event>
 9    2  0.3791909E-005  0.1039125E+03  0.7546771E-02  0.1272715E+00
          2   -1    0    0  502    0  0.00000000000E+00  0.00000000000E+00  0.70338249876E+03  0.70338249876E+03  0.00000000000E+00 0. -1.
         -1   -1    0    0    0  501 -0.00000000000E+00 -0.00000000000E+00 -0.45279408585E+02  0.45279408585E+02  0.00000000000E+00 0.  1.
         24    2    1    2    0    0 -0.41863676189E+02  0.51728561120E+02  0.27986080934E+02  0.10822910454E+03  0.80634402849E+02 0.  0.
         23    2    1    2    0    0  0.27557804562E+02 -0.37149723245E+02  0.50527303809E+03  0.51392897833E+03  0.81747276474E+02 0.  0.
        -11    1    3    3    0    0 -0.34981201196E+02  0.60526380757E+02 -0.81729162314E+01  0.70384115853E+02  0.00000000000E+00 0.  1.
         12    1    3    3    0    0 -0.68824749927E+01 -0.87978196369E+01  0.36158997165E+02  0.37844988682E+02  0.00000000000E+00 0. -1.
        -13    1    4    4    0    0 -0.29228400880E+02 -0.11219821441E+02  0.15360523906E+03  0.15676336714E+03  0.00000000000E+00 0.  1.
         13    1    4    4    0    0  0.56786205442E+02 -0.25929901803E+02  0.35166779903E+03  0.35716561118E+03  0.00000000000E+00 0. -1.
         21    1    1    2  502  501  0.14305871627E+02 -0.14578837875E+02  0.12484397115E+03  0.12650382449E+03  0.00000000000E+00 0.  1.
<scales pt_clust_5="13000.00000" pt_clust_6="13000.00000" pt_clust_7="13000.00000" pt_clust_8="13000.00000" pt_clust_9="20.42549"></scales>
<clustering>
<clus scale="   20.425">  1  9  2 -1</clus>
<clus scale="   80.634">  5  6 -1 -1</clus>
<clus scale="   81.747">  7  8 -1 -1</clus>
<clus scale="  103.039">  2  5  1 -1</clus>
<clus scale="   20.425">  1  5  2 -1</clus>
</clustering>
</event>
<event>
 9    2  0.3791909E-005  0.9768817E+02  0.7546771E-02  0.1290623E+00
          2   -1    0    0  502    0  0.00000000000E+00  0.00000000000E+00  0.42113220162E+03  0.42113220162E+03  0.00000000000E+00 0. -1.
         -1   -1    0    0    0  501 -0.00000000000E+00 -0.00000000000E+00 -0.51935911694E+02  0.51935911694E+02  0.00000000000E+00 0.  1.
         23    2    1    2    0    0 -0.27879760224E+02 -0.16183956711E+02  0.22374063844E+02  0.99929313153E+02  0.91902488591E+02 0.  0.
         24    2    1    2    0    0  0.10078983161E+02  0.45615007975E+02  0.18400971086E+03  0.20673276194E+03  0.81832428264E+02 0.  0.
        -11    1    4    4    0    0  0.44377444990E+02  0.12426159452E+02  0.80705035265E+02  0.92935836897E+02  0.00000000000E+00 0.  1.
         12    1    4    4    0    0 -0.34298461829E+02  0.33188848523E+02  0.10330467560E+03  0.11379692505E+03  0.00000000000E+00 0. -1.
        -13    1    3    3    0    0 -0.44710750174E+02 -0.38389866756E+01  0.48772191818E+02  0.66276056721E+02  0.00000000000E+00 0. -1.
         13    1    3    3    0    0  0.16830989950E+02 -0.12344970036E+02 -0.26398127975E+02  0.33653256431E+02  0.00000000000E+00 0.  1.
         21    1    1    2  502  501  0.17800777063E+02 -0.29431051263E+02  0.16281251522E+03  0.16640603822E+03  0.00000000000E+00 0. -1.
<scales pt_clust_5="13000.00000" pt_clust_6="13000.00000" pt_clust_7="13000.00000" pt_clust_8="13000.00000" pt_clust_9="34.39556"></scales>
<clustering>
<clus scale="   34.396">  1  9  2 -1</clus>
<clus scale="   81.832">  5  6 -1 -1</clus>
<clus scale="   88.281">  1  5  2 -1</clus>
<clus scale="   91.902">  7  8 -1 -1</clus>
<clus scale="   34.396">  1  5  2 -1</clus>
</clustering>
</event>
<event>
 9    2  0.3791909E-005  0.1014703E+03  0.7546771E-02  0.1281539E+00
         -3   -1    0    0    0  501 -0.00000000000E+00  0.00000000000E+00  0.54688273967E+02  0.54688273967E+02  0.00000000000E+00 0.  1.
          4   -1    0    0  502    0  0.00000000000E+00 -0.00000000000E+00 -0.37219674388E+03  0.37219674388E+03  0.00000000000E+00 0. -1.
         24    2    1    2    0    0  0.31857644066E+02 -0.32614782985E+02 -0.87187566539E+01  0.94860752638E+02  0.82727940376E+02 0.  0.
         23    2    1    2    0    0 -0.97757510316E+01  0.35121409900E+02 -0.26793253060E+03  0.28551402382E+03  0.91658813583E+02 0.  0.
        -11    1    3    3    0    0  0.52425321190E+02 -0.24280613483E+02  0.17636116858E+02  0.60406912774E+02  0.00000000000E+00 0.  1.
         12    1    3    3    0    0 -0.20567677124E+02 -0.83341695024E+01 -0.26354873512E+02  0.34453839865E+02  0.00000000000E+00 0. -1.
        -11    1    4    4    0    0 -0.35462882920E+02  0.55345048060E+02 -0.16979868792E+03  0.18207768899E+03  0.00000000000E+00 0. -1.
         11    1    4    4    0    0  0.25687131888E+02 -0.20223638159E+02 -0.98133842677E+02  0.10343633483E+03  0.00000000000E+00 0.  1.
         21    1    1    2  502  501 -0.22081893034E+02 -0.25066269150E+01 -0.40857182666E+02  0.46510241387E+02  0.00000000000E+00 0. -1.
<scales pt_clust_5="13000.00000" pt_clust_6="13000.00000" pt_clust_7="13000.00000" pt_clust_8="13000.00000" pt_clust_9="22.22371"></scales>
<clustering>
<clus scale="   22.224">  2  9  1 -1</clus>
<clus scale="   82.728">  5  6 -1 -1</clus>
<clus scale="   91.659">  7  8 -1 -1</clus>
<clus scale="   93.482">  1  5  2 -1</clus>
<clus scale="   22.224">  2  5  1 -1</clus>
</clustering>
</event>
<event>
 9    2  0.3791909E-005  0.1360724E+03  0.7546771E-02  0.1221222E+00
         -1   -1    0    0    0  501 -0.00000000000E+00  0.00000000000E+00  0.18808291384E+03  0.18808291384E+03  0.00000000000E+00 0.  1.
          2   -1    0    0  502    0  0.00000000000E+00 -0.00000000000E+00 -0.31904979827E+03  0.31904979827E+03  0.00000000000E+00 0. -1.
         24    2    1    2    0    0 -0.10589177508E+03 -0.19384817251E+02  0.13635957424E+03  0.19100210964E+03  0.79366449003E+02 0.  0.
         23    2    1    2    0    0  0.52095500084E+02  0.64845394589E+01 -0.21919332308E+03  0.24280083285E+03  0.90280347635E+02 0.  0.
        -11    1    3    3    0    0 -0.11148903363E+03  0.12807503217E+01  0.12170927132E+03  0.16505935801E+03  0.00000000000E+00 0.  1.
         12    1    3    3    0    0  0.55972585442E+01 -0.20665567572E+02  0.14650302923E+02  0.25942751628E+02  0.00000000000E+00 0. -1.
        -11    1    4    4    0    0  0.21866951386E+02 -0.35238191041E+02 -0.15519427427E+03  0.16063983453E+03  0.00000000000E+00 0. -1.
         11    1    4    4    0    0  0.30228548698E+02  0.41722730500E+02 -0.63999048806E+02  0.82160998319E+02  0.00000000000E+00 0.  1.
         21    1    1    2  502  501  0.53796275000E+02  0.12900277792E+02 -0.48133135594E+02  0.73329769624E+02  0.00000000000E+00 0.  1.
<scales pt_clust_5="13000.00000" pt_clust_6="13000.00000" pt_clust_7="13000.00000" pt_clust_8="13000.00000" pt_clust_9="55.32139"></scales>
<clustering>
<clus scale="   55.321">  2  9  1 -1</clus>
<clus scale="   79.366">  5  6 -1 -1</clus>
<clus scale="   90.280">  7  8 -1 -1</clus>
<clus scale="  129.090">  1  5  2 -1</clus>
<clus scale="   55.321">  2  5  1 -1</clus>
</clustering>
</event>
<event>
 9    2  0.3791909E-005  0.1045564E+03  0.7546771E-02  0.1279725E+00
         -1   -1    0    0    0  501 -0.00000000000E+00  0.00000000000E+00  0.30302748514E+03  0.30302748514E+03  0.00000000000E+00 0.  1.
          2   -1    0    0  502    0  0.00000000000E+00 -0.00000000000E+00 -0.14324429813E+03  0.14324429813E+03  0.00000000000E+00 0. -1.
         24    2    1    2    0    0 -0.42566561963E+02  0.26418778155E+02  0.25715697054E+03  0.27263846407E+03  0.75446408484E+02 0.  0.
         23    2    1    2    0    0 -0.39088557410E+01 -0.10897558522E+02 -0.59423217991E+02  0.11165656442E+03  0.93819153727E+02 0.  0.
        -11    1    3    3    0    0  0.90885984931E+01  0.28527214266E+02  0.15801950765E+03  0.16083087196E+03  0.00000000000E+00 0.  1.
         12    1    3    3    0    0 -0.51655160457E+02 -0.21084361107E+01  0.99137462893E+02  0.11180759211E+03  0.00000000000E+00 0. -1.
        -13    1    4    4    0    0 -0.25882249055E+02 -0.19036295517E+01 -0.77555089959E+02  0.81782067717E+02  0.00000000000E+00 0. -1.
         13    1    4    4    0    0  0.21973393314E+02 -0.89939289705E+01  0.18131871967E+02  0.29874496700E+02  0.00000000000E+00 0.  1.
         21    1    1    2  502  501  0.46475417704E+02 -0.15521219633E+02 -0.37950565532E+02  0.61976754787E+02  0.00000000000E+00 0.  1.
<scales pt_clust_5="13000.00000" pt_clust_6="13000.00000" pt_clust_7="13000.00000" pt_clust_8="13000.00000" pt_clust_9="48.99870"></scales>
<clustering>
<clus scale="   48.999">  2  9  1 -1</clus>
<clus scale="   75.446">  5  6 -1 -1</clus>
<clus scale="   88.443">  1  5  2 -1</clus>
<clus scale="   93.819">  7  8 -1 -1</clus>
<clus scale="   48.999">  2  5  1 -1</clus>
</clustering>
</event>
<event>
 9    2  0.3791909E-005  0.1016086E+03  0.7546771E-02  0.1281550E+00
          2   -1    0    0  502    0  0.00000000000E+00  0.00000000000E+00  0.11167217807E+04  0.11167217807E+04  0.00000000000E+00 0. -1.
         -1   -1    0    0    0  501 -0.00000000000E+00 -0.00000000000E+00 -0.15436661190E+02  0.15436661190E+02  0.00000000000E+00 0.  1.
         24    2    1    2    0    0  0.13074573584E+02  0.42060643669E+02  0.29911453432E+03  0.31376536118E+03  0.83899672325E+02 0.  0.
         23    2    1    2    0    0 -0.52467881679E+02 -0.74328636419E+01  0.46842592031E+03  0.48055226434E+03  0.93271163113E+02 0.  0.
        -11    1    3    3    0    0  0.32240878705E+02  0.27084116799E+02  0.59347949730E+02  0.72768143989E+02  0.00000000000E+00 0.  1.
         12    1    3    3    0    0 -0.19166305121E+02  0.14976526869E+02  0.23976658459E+03  0.24099721719E+03  0.00000000000E+00 0. -1.
        -11    1    4    4    0    0  0.26302671289E+02  0.12882092665E+01  0.83566867425E+02  0.87617985204E+02  0.00000000000E+00 0.  1.
         11    1    4    4    0    0 -0.78770552968E+02 -0.87210729084E+01  0.38485905289E+03  0.39293427913E+03  0.00000000000E+00 0. -1.
         21    1    1    2  502  501  0.39393308096E+02 -0.34627780027E+02  0.33374466489E+03  0.33784081638E+03  0.00000000000E+00 0. -1.
<scales pt_clust_5="13000.00000" pt_clust_6="13000.00000" pt_clust_7="13000.00000" pt_clust_8="13000.00000" pt_clust_9="52.44917"></scales>
<clustering>
<clus scale="   52.449">  1  9  2 -1</clus>
<clus scale="   83.900">  5  6 -1 -1</clus>
<clus scale="   93.080">  2  5  1 -1</clus>
<clus scale="   93.271">  7  8 -1 -1</clus>
<clus scale="   52.449">  1  5  2 -1</clus>
</clustering>
</event>
<event>
 9    2  0.3791909E-005  0.9843879E+02  0.7546771E-02  0.1289049E+00
         -1   -1    0    0    0  501 -0.00000000000E+00  0.00000000000E+00  0.14730628436E+03  0.14730628436E+03  0.00000000000E+00 0.  1.
          2   -1    0    0  502    0  0.00000000000E+00 -0.00000000000E+00 -0.15711744571E+03  0.15711744571E+03  0.00000000000E+00 0. -1.
         23    2    1    2    0    0  0.14520276997E+02  0.39815473157E+02  0.10413287642E+03  0.14451670168E+03  0.90803693570E+02 0.  0.
         24    2    1    2    0    0  0.24917013512E+01 -0.21004879364E+02 -0.67647614659E+02  0.10711872818E+03  0.80316926142E+02 0.  0.
        -11    1    4    4    0    0  0.21293326740E+02 -0.29516910752E+02 -0.31198647238E-02  0.36395793627E+02  0.00000000000E+00 0.  1.
         12    1    4    4    0    0 -0.18801625389E+02  0.85120313884E+01 -0.67644494794E+02  0.70722934551E+02  0.00000000000E+00 0. -1.
        -13    1    3    3    0    0 -0.28457434746E+02  0.35661208948E+02  0.19723302282E+02  0.49704688601E+02  0.00000000000E+00 0. -1.
         13    1    3    3    0    0  0.42977711743E+02  0.41542642085E+01  0.84409574139E+02  0.94812013079E+02  0.00000000000E+00 0.  1.
         21    1    1    2  502  501 -0.17011978348E+02 -0.18810593793E+02 -0.46296423117E+02  0.52788300215E+02  0.00000000000E+00 0. -1.
<scales pt_clust_5="13000.00000" pt_clust_6="13000.00000" pt_clust_7="13000.00000" pt_clust_8="13000.00000" pt_clust_9="25.36229"></scales>
<clustering>
<clus scale="   25.362">  2  9  1 -1</clus>
<clus scale="   80.317">  5  6 -1 -1</clus>
<clus scale="   88.858">  2  5  1 -1</clus>
<clus scale="   90.804">  7  8 -1 -1</clus>
<clus scale="   25.362">  2  5  1 -1</clus>
</clustering>
</event>
<event>
 9    2  0.3791909E-005  0.1270547E+03  0.7546771E-02  0.1234500E+00
          2   -1    0    0  502    0  0.00000000000E+00  0.00000000000E+00  0.13170124090E+03  0.13170124090E+03  0.00000000000E+00 0. -1.
         -1   -1    0    0    0  501 -0.00000000000E+00 -0.00000000000E+00 -0.29400884658E+03  0.29400884658E+03  0.00000000000E+00 0.  1.
         24    2    1    2    0    0 -0.86000023806E+02  0.49739334652E+01 -0.21401579324E+03  0.24486495158E+03  0.82069121154E+02 0.  0.
         23    2    1    2    0    0  0.98581387513E+02  0.16959791064E+02  0.15185716910E+02  0.13642363381E+03  0.91514356185E+02 0.  0.
        -11    1    3    3    0    0 -0.45754695898E+02 -0.33716859156E+02 -0.14722674746E+03  0.15781645654E+03  0.00000000000E+00 0.  1.
         12    1    3    3    0    0 -0.40245327908E+02  0.38690792621E+02 -0.66789045788E+02  0.87048495044E+02  0.00000000000E+00 0. -1.
        -13    1    4    4    0    0  0.57403143247E+01  0.38686409634E+02  0.12417899021E+02  0.41034055551E+02  0.00000000000E+00 0.  1.
         13    1    4    4    0    0  0.92841073188E+02 -0.21726618570E+02  0.27678178887E+01  0.95389578263E+02  0.00000000000E+00 0. -1.
         21    1    1    2  502  501 -0.12581363707E+02 -0.21933724529E+02  0.36522470660E+02  0.44421502086E+02  0.00000000000E+00 0. -1.
<scales pt_clust_5="13000.00000" pt_clust_6="13000.00000" pt_clust_7="13000.00000" pt_clust_8="13000.00000" pt_clust_9="25.28594"></scales>
<clustering>
<clus scale="   25.286">  1  9  2 -1</clus>
<clus scale="   82.069">  5  6 -1 -1</clus>
<clus scale="   91.514">  7  8 -1 -1</clus>
<clus scale="  120.430">  2  5  1 -1</clus>
<clus scale="   25.286">  1  5  2 -1</clus>
</clustering>
</event>
<event>
 9    2  0.3791909E-005  0.1100817E+03  0.7546771E-02  0.1268152E+00
         -1   -1    0    0    0  501 -0.00000000000E+00  0.00000000000E+00  0.19145738071E+02  0.19145738071E+02  0.00000000000E+00 0.  1.
          2   -1    0    0  502    0  0.00000000000E+00 -0.00000000000E+00 -0.13484173779E+04  0.13484173779E+04  0.00000000000E+00 0. -1.
         23    2    1    2    0    0  0.41004074995E+02  0.29802183251E+02 -0.25584808688E+03  0.27841458352E+03  0.97400885346E+02 0.  0.
         24    2    1    2    0    0 -0.72272597904E+02  0.34505326634E+02 -0.65016772387E+03  0.65989490905E+03  0.79556746100E+02 0.  0.
        -11    1    4    4    0    0 -0.51548886080E+02  0.36106561663E+02 -0.20979110869E+03  0.21902803642E+03  0.00000000000E+00 0.  1.
         12    1    4    4    0    0 -0.20723711824E+02 -0.16012350289E+01 -0.44037661518E+03  0.44086687263E+03  0.00000000000E+00 0. -1.
        -11    1    3    3    0    0 -0.53828677358E+01  0.23915287048E+02 -0.74021800665E+01  0.25606805529E+02  0.00000000000E+00 0.  1.
         11    1    3    3    0    0  0.46386942731E+02  0.58868962033E+01 -0.24844590681E+03  0.25280777799E+03  0.00000000000E+00 0. -1.
         21    1    1    2  502  501  0.31268522908E+02 -0.64307509885E+02 -0.42325582907E+03  0.42925362340E+03  0.00000000000E+00 0. -1.
<scales pt_clust_5="13000.00000" pt_clust_6="13000.00000" pt_clust_7="13000.00000" pt_clust_8="13000.00000" pt_clust_9="71.50648"></scales>
<clustering>
<clus scale="   71.506">  2  9  1 -1</clus>
<clus scale="   79.557">  5  6 -1 -1</clus>
<clus scale="   94.659">  2  5  1 -1</clus>
<clus scale="   97.401">  7  8 -1 -1</clus>
<clus scale="   71.506">  2  5  1 -1</clus>
</clustering>
</event>
<event>
 9    2  0.3791909E-005  0.1009385E+03  0.7546771E-02  0.1283910E+00
          2   -1    0    0  502    0  0.00000000000E+00  0.00000000000E+00  0.21743748036E+03  0.21743748036E+03  0.00000000000E+00 0. -1.
         -1   -1    0    0    0  501 -0.00000000000E+00 -0.00000000000E+00 -0.12939842787E+03  0.12939842787E+03  0.00000000000E+00 0.  1.
         23    2    1    2    0    0  0.33519525351E+02  0.20985138568E+02 -0.79971022964E+02  0.12779018387E+03  0.91493343801E+02 0.  0.
         24    2    1    2    0    0 -0.65513247352E+02 -0.47932832558E+01  0.11250105844E+03  0.15296225141E+03  0.80162341927E+02 0.  0.
        -13    1    4    4    0    0 -0.54352702749E+02  0.11574304751E+02  0.21105445494E+02  0.59444265124E+02  0.00000000000E+00 0.  1.
         14    1    4    4    0    0 -0.11160544603E+02 -0.16367588007E+02  0.91395612950E+02  0.93517986288E+02  0.00000000000E+00 0. -1.
        -11    1    3    3    0    0  0.51326968945E+00  0.33410722044E+02 -0.85769878561E+02  0.92048964479E+02  0.00000000000E+00 0.  1.
         11    1    3    3    0    0  0.33006255662E+02 -0.12425583477E+02  0.57988555964E+01  0.35741219394E+02  0.00000000000E+00 0. -1.
         21    1    1    2  502  501  0.31993722001E+02 -0.16191855312E+02  0.55509017013E+02  0.66083472939E+02  0.00000000000E+00 0. -1.
<scales pt_clust_5="13000.00000" pt_clust_6="13000.00000" pt_clust_7="13000.00000" pt_clust_8="13000.00000" pt_clust_9="35.85770"></scales>
<clustering>
<clus scale="   35.858">  1  9  2 -1</clus>
<clus scale="   80.162">  5  6 -1 -1</clus>
<clus scale="   90.794">  1  5  2 -1</clus>
<clus scale="   91.493">  7  8 -1 -1</clus>
<clus scale="   35.858">  1  5  2 -1</clus>
</clustering>
</event>
<event>
 9    2  0.3791909E-005  0.1181738E+03  0.7546771E-02  0.1251539E+00
         -1   -1    0    0    0  501 -0.00000000000E+00  0.00000000000E+00  0.10639806165E+03  0.10639806165E+03  0.00000000000E+00 0.  1.
          2   -1    0    0  502    0  0.00000000000E+00 -0.00000000000E+00 -0.17264692439E+03  0.17264692439E+03  0.00000000000E+00 0. -1.
         23    2    1    2    0    0  0.65103031186E+02  0.15058912652E+02  0.12693994496E+02  0.11772961326E+03  0.96093437975E+02 0.  0.
         24    2    1    2    0    0 -0.63760868685E+02 -0.36509336305E+02 -0.38946427742E+02  0.11591012586E+03  0.80746226107E+02 0.  0.
        -11    1    4    4    0    0 -0.19249171390E+02 -0.34551201852E+02  0.18124912161E+02  0.43506649945E+02  0.00000000000E+00 0.  1.
         12    1    4    4    0    0 -0.44511697294E+02 -0.19581344537E+01 -0.57071339902E+02  0.72403475917E+02  0.00000000000E+00 0. -1.
        -11    1    3    3    0    0  0.19438109339E+00 -0.27938384164E+02  0.26672423450E+02  0.38626535781E+02  0.00000000000E+00 0.  1.
         11    1    3    3    0    0  0.64908650092E+02  0.42997296817E+02 -0.13978428954E+02  0.79103077477E+02  0.00000000000E+00 0. -1.
         21    1    1    2  502  501 -0.13421625011E+01  0.21450423653E+02 -0.39996429495E+02  0.45405246915E+02  0.00000000000E+00 0. -1.
<scales pt_clust_5="13000.00000" pt_clust_6="13000.00000" pt_clust_7="13000.00000" pt_clust_8="13000.00000" pt_clust_9="21.49237"></scales>
<clustering>
<clus scale="   21.492">  2  9  1 -1</clus>
<clus scale="   80.746">  5  6 -1 -1</clus>
<clus scale="   96.093">  7  8 -1 -1</clus>
<clus scale="  106.071">  2  5  1 -1</clus>
<clus scale="   21.492">  2  5  1 -1</clus>
</clustering>
</event>
<event>
 9    2  0.3791909E-005  0.2923551E+03  0.7546771E-02  0.1089398E+00
          2   -1    0    0  502    0  0.00000000000E+00  0.00000000000E+00  0.23370117903E+04  0.23370117903E+04  0.00000000000E+00 0. -1.
         -1   -1    0    0    0  501 -0.00000000000E+00 -0.00000000000E+00 -0.51573564974E+02  0.51573564974E+02  0.00000000000E+00 0.  1.
         23    2    1    2    0    0  0.20975735943E+03 -0.19181720926E+03  0.52659318362E+03  0.60474603969E+03  0.87323535639E+02 0.  0.
         24    2    1    2    0    0 -0.19979356320E+03  0.17244947901E+03  0.16287714988E+04  0.16519548481E+04  0.80012086766E+02 0.  0.
        -11    1    4    4    0    0 -0.14428627154E+03  0.15094813174E+03  0.10830499267E+04  0.11029963782E+04  0.00000000000E+00 0.  1.
         12    1    4    4    0    0 -0.55507291657E+02  0.21501347268E+02  0.54572157213E+03  0.54895846988E+03  0.00000000000E+00 0. -1.
        -11    1    3    3    0    0  0.30323187345E+02 -0.70795516704E+02  0.18459398836E+03  0.20001610289E+03  0.00000000000E+00 0. -1.
         11    1    3    3    0    0  0.17943417208E+03 -0.12102169256E+03  0.34199919526E+03  0.40472993680E+03  0.00000000000E+00 0.  1.
         21    1    1    2  502  501 -0.99637962264E+01  0.19367730259E+02  0.13007354293E+03  0.13188446755E+03  0.00000000000E+00 0. -1.
<scales pt_clust_5="13000.00000" pt_clust_6="13000.00000" pt_clust_7="13000.00000" pt_clust_8="13000.00000" pt_clust_9="21.78041"></scales>
<clustering>
<clus scale="   21.780">  1  9  2 -1</clus>
<clus scale="   80.012">  5  6 -1 -1</clus>
<clus scale="   87.324">  7  8 -1 -1</clus>
<clus scale="  290.255">  1  5  2 -1</clus>
<clus scale="   21.780">  1  5  2 -1</clus>
</clustering>
</event>
<event>
 9    2  0.3791909E-005  0.2015179E+03  0.7546771E-02  0.1183653E+00
          2   -1    0    0  502    0  0.00000000000E+00  0.00000000000E+00  0.11453642088E+04  0.11453642088E+04  0.00000000000E+00 0. -1.
         -1   -1    0    0    0  501 -0.00000000000E+00 -0.00000000000E+00 -0.19264012104E+03  0.19264012104E+03  0.00000000000E+00 0.  1.
         24    2    1    2    0    0 -0.18994223881E+02  0.32734552955E+02 -0.13017023584E+03  0.15802043285E+03  0.81202434692E+02 0.  0.
         23    2    1    2    0    0 -0.76565997665E+02  0.12823911395E+03  0.15569231829E+03  0.23407278276E+03  0.90787374171E+02 0.  0.
        -11    1    3    3    0    0  0.14876206629E+02  0.47518408046E+02 -0.93647319744E+02  0.10606187403E+03  0.00000000000E+00 0.  1.
         12    1    3    3    0    0 -0.33870430511E+02 -0.14783855091E+02 -0.36522916100E+02  0.51958558821E+02  0.00000000000E+00 0. -1.
        -11    1    4    4    0    0  0.16659780448E+02  0.32531973685E+02  0.13512015250E+02  0.38967321598E+02  0.00000000000E+00 0. -1.
         11    1    4    4    0    0 -0.93225778112E+02  0.95707140269E+02  0.14218030304E+03  0.19510546116E+03  0.00000000000E+00 0.  1.
         21    1    1    2  502  501  0.95560221546E+02 -0.16097366691E+03  0.92720200529E+03  0.94591111421E+03  0.00000000000E+00 0. -1.
<scales pt_clust_5="13000.00000" pt_clust_6="13000.00000" pt_clust_7="13000.00000" pt_clust_8="13000.00000" pt_clust_9="179.90861"></scales>
<clustering>
<clus scale="   81.202">  5  6 -1 -1</clus>
<clus scale="   89.589">  2  5  1 -1</clus>
<clus scale="   90.787">  7  8 -1 -1</clus>
<clus scale="  179.909">  1  9  2 -1</clus>
<clus scale="  179.909">  1  5  2 -1</clus>
</clustering>
</event>
<event>
 9    2  0.3791909E-005  0.1507315E+03  0.7546771E-02  0.1201960E+00
         -1   -1    0    0    0  501 -0.00000000000E+00  0.00000000000E+00  0.22047962712E+03  0.22047962712E+03  0.00000000000E+00 0.  1.
          2   -1    0    0  502    0  0.00000000000E+00 -0.00000000000E+00 -0.16774045525E+03  0.16774045525E+03  0.00000000000E+00 0. -1.
         23    2    1    2    0    0  0.11274486464E+03 -0.56955441205E+02  0.12251360527E+03  0.19725816495E+03  0.89139628557E+02 0.  0.
         24    2    1    2    0    0 -0.11194230178E+03  0.15520595284E+02 -0.58477238020E+02  0.14800709013E+03  0.75594600048E+02 0.  0.
        -11    1    4    4    0    0 -0.39541891604E+02 -0.18520561115E+02 -0.51766085608E+02  0.67722226741E+02  0.00000000000E+00 0.  1.
         12    1    4    4    0    0 -0.72400410176E+02  0.34041156398E+02 -0.67111524122E+01  0.80284863388E+02  0.00000000000E+00 0. -1.
        -11    1    3    3    0    0  0.95031941032E+02 -0.94093847620E+01  0.10866463904E+03  0.14466378301E+03  0.00000000000E+00 0.  1.
         11    1    3    3    0    0  0.17712923606E+02 -0.47546056443E+02  0.13848966229E+02  0.52594381939E+02  0.00000000000E+00 0. -1.
         21    1    1    2  502  501 -0.80256285832E+00  0.41434845921E+02 -0.11297195378E+02  0.42954827285E+02  0.00000000000E+00 0. -1.
<scales pt_clust_5="13000.00000" pt_clust_6="13000.00000" pt_clust_7="13000.00000" pt_clust_8="13000.00000" pt_clust_9="41.44262"></scales>
<clustering>
<clus scale="   41.443">  2  9  1 -1</clus>
<clus scale="   75.595">  5  6 -1 -1</clus>
<clus scale="   89.140">  7  8 -1 -1</clus>
<clus scale="  143.139">  2  5  1 -1</clus>
<clus scale="   41.443">  2  5  1 -1</clus>
</clustering>
</event>
<event>
 9    2  0.3791909E-005  0.9890017E+02  0.7546771E-02  0.1286806E+00
          2   -1    0    0  502    0  0.00000000000E+00  0.00000000000E+00  0.22252632736E+03  0.22252632736E+03  0.00000000000E+00 0. -1.
         -1   -1    0    0    0  501 -0.00000000000E+00 -0.00000000000E+00 -0.97064377184E+02  0.97064377184E+02  0.00000000000E+00 0.  1.
         24    2    1    2    0    0 -0.39376426209E+02 -0.64671519485E+02  0.57350531199E+02  0.12429114706E+03  0.80164190472E+02 0.  0.
         23    2    1    2    0    0  0.13064659132E+02  0.23297909107E+02  0.10042461212E+03  0.13657795010E+03  0.88628188780E+02 0.  0.
        -11    1    3    3    0    0  0.65926419672E+01 -0.33951417744E+02  0.59653281428E+02  0.68954156365E+02  0.00000000000E+00 0.  1.
         12    1    3    3    0    0 -0.45969068176E+02 -0.30720101741E+02 -0.23027502290E+01  0.55336990690E+02  0.00000000000E+00 0. -1.
        -11    1    4    4    0    0 -0.25484866112E+02 -0.31057254436E+01  0.82717946520E+02  0.86610522501E+02  0.00000000000E+00 0. -1.
         11    1    4    4    0    0  0.38549525244E+02  0.26403634551E+02  0.17706665602E+02  0.49967427598E+02  0.00000000000E+00 0.  1.
         21    1    1    2  502  501  0.26311767077E+02  0.41373610378E+02 -0.32313193150E+02  0.58721607386E+02  0.00000000000E+00 0.  1.
<scales pt_clust_5="13000.00000" pt_clust_6="13000.00000" pt_clust_7="13000.00000" pt_clust_8="13000.00000" pt_clust_9="49.03147"></scales>
<clustering>
<clus scale="   49.031">  2  9  1 -1</clus>
<clus scale="   80.164">  5  6 -1 -1</clus>
<clus scale="   88.628">  7  8 -1 -1</clus>
<clus scale="   91.392">  2  5  1 -1</clus>
<clus scale="   98.900">  1  5  2 -1</clus>
</clustering>
</event>
<event>
 9    2  0.3791909E-005  0.1161032E+03  0.7546771E-02  0.1273272E+00
         -1   -1    0    0    0  501 -0.00000000000E+00  0.00000000000E+00  0.31627050579E+03  0.31627050579E+03  0.00000000000E+00 0.  1.
          2   -1    0    0  502    0  0.00000000000E+00 -0.00000000000E+00 -0.25172135217E+03  0.25172135217E+03  0.00000000000E+00 0. -1.
         23    2    1    2    0    0 -0.48222610086E+02  0.43513907002E+02  0.21530164857E+03  0.24262746937E+03  0.91073644853E+02 0.  0.
         24    2    1    2    0    0 -0.21868689463E+02  0.22793108083E+01 -0.21029082632E+03  0.22262869873E+03  0.69698429172E+02 0.  0.
        -11    1    4    4    0    0 -0.13736934321E+02 -0.22087392096E+02 -0.26794325680E+02  0.37342899496E+02  0.00000000000E+00 0.  1.
         12    1    4    4    0    0 -0.81317551414E+01  0.24366702904E+02 -0.18349650064E+03  0.18528579924E+03  0.00000000000E+00 0. -1.
        -11    1    3    3    0    0 -0.73204028797E+02  0.45961091545E+02  0.17423779926E+03  0.19449951789E+03  0.00000000000E+00 0.  1.
         11    1    3    3    0    0  0.24981418711E+02 -0.24471845428E+01  0.41063849314E+02  0.48127951478E+02  0.00000000000E+00 0. -1.
         21    1    1    2  502  501  0.70091299549E+02 -0.45793217811E+02  0.59538331363E+02  0.10273568986E+03  0.00000000000E+00 0.  1.
<scales pt_clust_5="13000.00000" pt_clust_6="13000.00000" pt_clust_7="13000.00000" pt_clust_8="13000.00000" pt_clust_9="72.01078"></scales>
<clustering>
<clus scale="   69.698">  5  6 -1 -1</clus>
<clus scale="   73.084">  2  5  1 -1</clus>
<clus scale="   72.011">  2  9  1 -1</clus>
<clus scale="   91.074">  7  8 -1 -1</clus>
<clus scale="   73.084">  2  5  1 -1</clus>
</clustering>
</event>
<event>
 9    2  0.3791909E-005  0.1152905E+03  0.7546771E-02  0.1254238E+00
         -1   -1    0    0    0  501 -0.00000000000E+00  0.00000000000E+00  0.12818963373E+03  0.12818963373E+03  0.00000000000E+00 0.  1.
          2   -1    0    0  502    0  0.00000000000E+00 -0.00000000000E+00 -0.41146180320E+03  0.41146180320E+03  0.00000000000E+00 0. -1.
         23    2    1    2    0    0 -0.11864942352E+02  0.74890103645E+02  0.86410621891E+02  0.14576496361E+03  0.89617657633E+02 0.  0.
         24    2    1    2    0    0 -0.17809098344E+02 -0.45397823933E+02 -0.26266008797E+03  0.27897693369E+03  0.80372142682E+02 0.  0.
        -11    1    4    4    0    0 -0.39813749305E+02 -0.66937458270E+01 -0.66235858656E+02  0.77570160750E+02  0.00000000000E+00 0.  1.
         12    1    4    4    0    0  0.22004650962E+02 -0.38704078106E+02 -0.19642422931E+03  0.20140677294E+03  0.00000000000E+00 0. -1.
        -13    1    3    3    0    0 -0.18692047071E+02 -0.12934908758E+02  0.40465842022E+02  0.46413240125E+02  0.00000000000E+00 0.  1.
         13    1    3    3    0    0  0.68271047195E+01  0.87825012402E+02  0.45944779869E+02  0.99351723486E+02  0.00000000000E+00 0. -1.
         21    1    1    2  502  501  0.29674040695E+02 -0.29492279711E+02 -0.10702270340E+03  0.11490953963E+03  0.00000000000E+00 0.  1.
<scales pt_clust_5="13000.00000" pt_clust_6="13000.00000" pt_clust_7="13000.00000" pt_clust_8="13000.00000" pt_clust_9="41.83710"></scales>
<clustering>
<clus scale="   41.837">  2  9  1 -1</clus>
<clus scale="   80.372">  5  6 -1 -1</clus>
<clus scale="   89.618">  7  8 -1 -1</clus>
<clus scale="  108.260">  2  5  1 -1</clus>
<clus scale="   41.837">  2  5  1 -1</clus>
</clustering>
</event>
<event>
 9    2  0.3791909E-005  0.1434018E+03  0.7546771E-02  0.1221332E+00
         -1   -1    0    0    0  501 -0.00000000000E+00  0.00000000000E+00  0.39018713618E+02  0.39018713618E+02  0.00000000000E+00 0.  1.
          2   -1    0    0  502    0  0.00000000000E+00 -0.00000000000E+00 -0.53029667729E+03  0.53029667729E+03  0.00000000000E+00 0. -1.
         23    2    1    2    0    0 -0.28764544499E+02 -0.83041925962E+02 -0.20190782201E+03  0.25172955662E+03  0.12197393410E+03 0.  0.
         24    2    1    2    0    0  0.98847196146E+01  0.69748366893E+02 -0.25200251648E+03  0.27365969273E+03  0.80136238666E+02 0.  0.
        -13    1    4    4    0    0 -0.22891744336E+02 -0.10737965060E+01 -0.26495622108E+02  0.35031457128E+02  0.00000000000E+00 0.  1.
         14    1    4    4    0    0  0.32776463950E+02  0.70822163399E+02 -0.22550689437E+03  0.23862823560E+03  0.00000000000E+00 0. -1.
        -13    1    3    3    0    0  0.34774982057E+02 -0.47509349406E+02 -0.32291955693E+02  0.67150637082E+02  0.00000000000E+00 0.  1.
         13    1    3    3    0    0 -0.63539526557E+02 -0.35532576556E+02 -0.16961586631E+03  0.18457891953E+03  0.00000000000E+00 0. -1.
         21    1    1    2  502  501  0.18879824885E+02  0.13293559069E+02 -0.37367625194E+02  0.43926141567E+02  0.00000000000E+00 0. -1.
<scales pt_clust_5="13000.00000" pt_clust_6="13000.00000" pt_clust_7="13000.00000" pt_clust_8="13000.00000" pt_clust_9="23.09040"></scales>
<clustering>
<clus scale="   23.090">  1  9  2 -1</clus>
<clus scale="   80.136">  5  6 -1 -1</clus>
<clus scale="  110.038">  2  5  1 -1</clus>
<clus scale="  121.974">  7  8 -1 -1</clus>
<clus scale="  110.038">  2  5  1 -1</clus>
</clustering>
</event>
<event>
 9    2  0.3791909E-005  0.9063927E+02  0.7546771E-02  0.1308108E+00
          2   -1    0    0  502    0  0.00000000000E+00  0.00000000000E+00  0.11008400048E+03  0.11008400048E+03  0.00000000000E+00 0. -1.
         -1   -1    0    0    0  501 -0.00000000000E+00 -0.00000000000E+00 -0.31384443557E+03  0.31384443557E+03  0.00000000000E+00 0.  1.
         23    2    1    2    0    0  0.13567149030E+02  0.47934297999E+01 -0.24368929800E+03  0.26031377951E+03  0.90397706493E+02 0.  0.
         24    2    1    2    0    0  0.47757841864E+02  0.15118275530E+02  0.23938093170E+02  0.97184729301E+02  0.79765064974E+02 0.  0.
        -11    1    4    4    0    0  0.22688414868E+02 -0.31619862012E+02  0.20623015356E+02  0.44044166529E+02  0.00000000000E+00 0.  1.
         12    1    4    4    0    0  0.25069426995E+02  0.46738137542E+02  0.33150778137E+01  0.53140562772E+02  0.00000000000E+00 0. -1.
        -13    1    3    3    0    0 -0.29939733052E+02  0.88647753584E+01 -0.18233537325E+03  0.18498962186E+03  0.00000000000E+00 0.  1.
         13    1    3    3    0    0  0.43506882082E+02 -0.40713455585E+01 -0.61353924752E+02  0.75324157649E+02  0.00000000000E+00 0. -1.
         21    1    1    2  502  501 -0.61324990893E+02 -0.19911705330E+02  0.15990769738E+02  0.66429927247E+02  0.00000000000E+00 0.  1.
<scales pt_clust_5="13000.00000" pt_clust_6="13000.00000" pt_clust_7="13000.00000" pt_clust_8="13000.00000" pt_clust_9="64.47659"></scales>
<clustering>
<clus scale="   64.477">  1  9  2 -1</clus>
<clus scale="   79.765">  5  6 -1 -1</clus>
<clus scale="   80.039">  1  5  2 -1</clus>
<clus scale="   90.398">  7  8 -1 -1</clus>
<clus scale="   64.477">  1  5  2 -1</clus>
</clustering>
</event>
<event>
 9    2  0.3791909E-005  0.9809261E+02  0.7546771E-02  0.1290626E+00
         -1   -1    0    0    0  501 -0.00000000000E+00  0.00000000000E+00  0.13094020163E+03  0.13094020163E+03  0.00000000000E+00 0.  1.
          2   -1    0    0  502    0  0.00000000000E+00 -0.00000000000E+00 -0.94574423821E+02  0.94574423821E+02  0.00000000000E+00 0. -1.
         23    2    1    2    0    0 -0.39090593025E+02  0.43884145785E+01  0.42941339550E+02  0.10931891497E+03  0.92516668137E+02 0.  0.
         24    2    1    2    0    0  0.19406988179E+02 -0.22142119801E+02  0.71358873001E+01  0.86352081616E+02  0.80863195908E+02 0.  0.
        -11    1    4    4    0    0  0.37090706181E+02 -0.38669983498E+02  0.22026864700E+02  0.57933331315E+02  0.00000000000E+00 0.  1.
         12    1    4    4    0    0 -0.17683718002E+02  0.16527863697E+02 -0.14890977400E+02  0.28418750301E+02  0.00000000000E+00 0. -1.
        -11    1    3    3    0    0  0.19386895859E+02  0.28785586200E+02  0.27028212977E+02  0.43988475770E+02  0.00000000000E+00 0. -1.
         11    1    3    3    0    0 -0.58477488883E+02 -0.24397171621E+02  0.15913126573E+02  0.65330439204E+02  0.00000000000E+00 0.  1.
         21    1    1    2  502  501  0.19683604846E+02  0.17753705222E+02 -0.13711449040E+02  0.29843628862E+02  0.00000000000E+00 0. -1.
<scales pt_clust_5="13000.00000" pt_clust_6="13000.00000" pt_clust_7="13000.00000" pt_clust_8="13000.00000" pt_clust_9="26.50733"></scales>
<clustering>
<clus scale="   26.507">  2  9  1 -1</clus>
<clus scale="   80.863">  5  6 -1 -1</clus>
<clus scale="   87.188">  2  5  1 -1</clus>
<clus scale="   92.517">  7  8 -1 -1</clus>
<clus scale="   26.507">  2  5  1 -1</clus>
</clustering>
</event>
<event>
 9    2  0.3791909E-005  0.1046001E+03  0.7546771E-02  0.1281081E+00
         -1   -1    0    0    0  501 -0.00000000000E+00  0.00000000000E+00  0.48113901813E+02  0.48113901813E+02  0.00000000000E+00 0.  1.
          2   -1    0    0  502    0  0.00000000000E+00 -0.00000000000E+00 -0.65302140022E+03  0.65302140022E+03  0.00000000000E+00 0. -1.
         23    2    1    2    0    0  0.38279075042E+02 -0.19988719352E+02 -0.30388339790E+02  0.10641738762E+03  0.92392492689E+02 0.  0.
         24    2    1    2    0    0 -0.69092595586E+02  0.49826788762E+02 -0.40716089580E+03  0.42195052291E+03  0.70751346774E+02 0.  0.
        -11    1    4    4    0    0 -0.35722500936E+02  0.31999043065E+02 -0.85168843168E+02  0.97743376639E+02  0.00000000000E+00 0.  1.
         12    1    4    4    0    0 -0.33370094650E+02  0.17827745697E+02 -0.32199205263E+03  0.32420714627E+03  0.00000000000E+00 0. -1.
        -11    1    3    3    0    0  0.61890123793E+02  0.11060927886E+02 -0.16361585883E+02  0.64964860051E+02  0.00000000000E+00 0.  1.
         11    1    3    3    0    0 -0.23611048751E+02 -0.31049647238E+02 -0.14026753907E+02  0.41452527569E+02  0.00000000000E+00 0. -1.
         21    1    1    2  502  501  0.30813520544E+02 -0.29838069410E+02 -0.16735826282E+03  0.17276739151E+03  0.00000000000E+00 0.  1.
<scales pt_clust_5="13000.00000" pt_clust_6="13000.00000" pt_clust_7="13000.00000" pt_clust_8="13000.00000" pt_clust_9="42.89270"></scales>
<clustering>
<clus scale="   42.893">  2  9  1 -1</clus>
<clus scale="   70.751">  5  6 -1 -1</clus>
<clus scale="   86.085">  2  5  1 -1</clus>
<clus scale="   92.392">  7  8 -1 -1</clus>
<clus scale="   42.893">  2  5  1 -1</clus>
</clustering>
</event>
<event>
 9    2  0.3791909E-005  0.9424764E+02  0.7546771E-02  0.1298337E+00
          2   -1    0    0  502    0  0.00000000000E+00  0.00000000000E+00  0.14793522054E+03  0.14793522054E+03  0.00000000000E+00 0. -1.
         -1   -1    0    0    0  501 -0.00000000000E+00 -0.00000000000E+00 -0.12467151198E+03  0.12467151198E+03  0.00000000000E+00 0.  1.
         23    2    1    2    0    0 -0.14499237963E+02  0.12501983290E+02 -0.76419288414E+02  0.12174121611E+03  0.92814269218E+02 0.  0.
         24    2    1    2    0    0  0.10310310470E+02  0.94248130698E+01  0.96322971651E+02  0.12829072334E+03  0.83577899137E+02 0.  0.
        -13    1    4    4    0    0 -0.17590118322E+02  0.24596650497E+02  0.91249230458E+02  0.96129233522E+02  0.00000000000E+00 0.  1.
         14    1    4    4    0    0  0.27900428792E+02 -0.15171837427E+02  0.50737411927E+01  0.32161489819E+02  0.00000000000E+00 0. -1.
        -11    1    3    3    0    0 -0.17405033482E+02 -0.31426252880E+02 -0.68018762149E+02  0.76922666132E+02  0.00000000000E+00 0.  1.
         11    1    3    3    0    0  0.29057955191E+01  0.43928236170E+02 -0.84005262651E+01  0.44818549978E+02  0.00000000000E+00 0. -1.
         21    1    1    2  502  501  0.41889274934E+01 -0.21926796359E+02  0.33600253235E+01  0.22574793073E+02  0.00000000000E+00 0.  1.
<scales pt_clust_5="13000.00000" pt_clust_6="13000.00000" pt_clust_7="13000.00000" pt_clust_8="13000.00000" pt_clust_9="22.32334"></scales>
<clustering>
<clus scale="   22.323">  1  9  2 -1</clus>
<clus scale="   83.578">  5  6 -1 -1</clus>
<clus scale="   85.167">  1  5  2 -1</clus>
<clus scale="   92.814">  7  8 -1 -1</clus>
<clus scale="   22.323">  1  5  2 -1</clus>
</clustering>
</event>
<event>
 9    2  0.3791909E-005  0.1105624E+03  0.7546771E-02  0.1264350E+00
         -1   -1    0    0    0  501 -0.00000000000E+00  0.00000000000E+00  0.89513175419E+02  0.89513175419E+02  0.00000000000E+00 0.  1.
          2   -1    0    0  502    0  0.00000000000E+00 -0.00000000000E+00 -0.54834681640E+03  0.54834681640E+03  0.00000000000E+00 0. -1.
         23    2    1    2    0    0  0.68346545181E+02 -0.89085816857E+01  0.45081307031E+02  0.12065758378E+03  0.88177747840E+02 0.  0.
         24    2    1    2    0    0 -0.46421264490E+02 -0.66870023332E+01 -0.35821220660E+03  0.36903618710E+03  0.75313163730E+02 0.  0.
        -11    1    4    4    0    0 -0.58282456664E+02 -0.12479469497E+02 -0.16608835750E+03  0.17645941293E+03  0.00000000000E+00 0.  1.
         12    1    4    4    0    0  0.11861192174E+02  0.57924671633E+01 -0.19212384910E+03  0.19257677417E+03  0.00000000000E+00 0. -1.
        -13    1    3    3    0    0  0.61284299607E+02  0.26698562470E+02  0.50733543467E+02  0.83919431891E+02  0.00000000000E+00 0.  1.
         13    1    3    3    0    0  0.70622455739E+01 -0.35607144156E+02 -0.56522364357E+01  0.36738151889E+02  0.00000000000E+00 0. -1.
         21    1    1    2  502  501 -0.21925280690E+02  0.15595584019E+02 -0.14570274141E+03  0.14816622095E+03  0.00000000000E+00 0. -1.
<scales pt_clust_5="13000.00000" pt_clust_6="13000.00000" pt_clust_7="13000.00000" pt_clust_8="13000.00000" pt_clust_9="26.90614"></scales>
<clustering>
<clus scale="   26.906">  2  9  1 -1</clus>
<clus scale="   75.313">  5  6 -1 -1</clus>
<clus scale="   88.178">  7  8 -1 -1</clus>
<clus scale="  100.602">  2  5  1 -1</clus>
<clus scale="   26.906">  2  5  1 -1</clus>
</clustering>
</event>
<event>
 9    2  0.3791909E-005  0.1507548E+03  0.7546771E-02  0.1201145E+00
         -1   -1    0    0    0  501 -0.00000000000E+00  0.00000000000E+00  0.59657088943E+02  0.59657088943E+02  0.00000000000E+00 0.  1.
          2   -1    0    0  502    0  0.00000000000E+00 -0.00000000000E+00 -0.11797422160E+04  0.11797422160E+04  0.00000000000E+00 0. -1.
         23    2    1    2    0    0  0.54221428684E+02 -0.50912270377E+01 -0.31809202803E+02  0.11018410678E+03  0.90348370666E+02 0.  0.
         24    2    1    2    0    0 -0.12724539092E+03  0.29900018969E+02 -0.10008492484E+04  0.10126330432E+04  0.81492707813E+02 0.  0.
        -13    1    4    4    0    0 -0.17888042806E+02 -0.24761578739E+02 -0.15356095081E+03  0.15656973996E+03  0.00000000000E+00 0.  1.
         14    1    4    4    0    0 -0.10935734811E+03  0.54661597708E+02 -0.84728829761E+03  0.85606330321E+03  0.00000000000E+00 0. -1.
        -11    1    3    3    0    0  0.54805519311E+02 -0.32505596045E+02  0.54159497836E+01  0.63949911909E+02  0.00000000000E+00 0.  1.
         11    1    3    3    0    0 -0.58409062651E+00  0.27414369007E+02 -0.37225152586E+02  0.46234194867E+02  0.00000000000E+00 0. -1.
         21    1    1    2  502  501  0.73023962235E+02 -0.24808791931E+02 -0.87426675883E+02  0.11658215504E+03  0.00000000000E+00 0.  1.
<scales pt_clust_5="13000.00000" pt_clust_6="13000.00000" pt_clust_7="13000.00000" pt_clust_8="13000.00000" pt_clust_9="77.12312"></scales>
<clustering>
<clus scale="   77.123">  1  9  2 -1</clus>
<clus scale="   81.493">  5  6 -1 -1</clus>
<clus scale="   90.348">  7  8 -1 -1</clus>
<clus scale="  145.620">  2  5  1 -1</clus>
<clus scale="  145.620">  2  5  1 -1</clus>
</clustering>
</event>
<event>
 9    2  0.3791909E-005  0.9897344E+02  0.7546771E-02  0.1288598E+00
          4   -1    0    0  502    0  0.00000000000E+00  0.00000000000E+00  0.50907172602E+02  0.50907172602E+02  0.00000000000E+00 0. -1.
         -3   -1    0    0    0  501 -0.00000000000E+00 -0.00000000000E+00 -0.32992795496E+03  0.32992795496E+03  0.00000000000E+00 0.  1.
         24    2    1    2    0    0  0.11459382313E+02  0.31906236136E+02 -0.22482037811E+03  0.24101509785E+03  0.79967178463E+02 0.  0.
         23    2    1    2    0    0 -0.28086727318E+02 -0.45113261262E+02 -0.36355051914E+02  0.11208285764E+03  0.91743155515E+02 0.  0.
        -13    1    3    3    0    0 -0.16877356353E+02  0.46188996558E+02 -0.17637384988E+03  0.18310107449E+03  0.00000000000E+00 0.  1.
         14    1    3    3    0    0  0.28336738666E+02 -0.14282760423E+02 -0.48446528232E+02  0.57914023356E+02  0.00000000000E+00 0. -1.
        -13    1    4    4    0    0 -0.56154668116E+02 -0.24828160786E+02 -0.45316885441E+02  0.76311233939E+02  0.00000000000E+00 0.  1.
         13    1    4    4    0    0  0.28067940798E+02 -0.20285100476E+02  0.89618335269E+01  0.35771623700E+02  0.00000000000E+00 0. -1.
         21    1    1    2  502  501  0.16627345005E+02  0.13207025127E+02 -0.17845352337E+02  0.27737172074E+02  0.00000000000E+00 0.  1.
<scales pt_clust_5="13000.00000" pt_clust_6="13000.00000" pt_clust_7="13000.00000" pt_clust_8="13000.00000" pt_clust_9="21.23427"></scales>
<clustering>
<clus scale="   21.234">  1  9  2 -1</clus>
<clus scale="   79.967">  5  6 -1 -1</clus>
<clus scale="   88.169">  2  5  1 -1</clus>
<clus scale="   91.743">  7  8 -1 -1</clus>
<clus scale="   21.234">  1  5  2 -1</clus>
</clustering>
</event>
<event>
 9    2  0.3791909E-005  0.1001250E+03  0.7546771E-02  0.1290074E+00
          2   -1    0    0  502    0  0.00000000000E+00  0.00000000000E+00  0.50200565879E+03  0.50200565879E+03  0.00000000000E+00 0. -1.
         -1   -1    0    0    0  501 -0.00000000000E+00 -0.00000000000E+00 -0.29921951408E+02  0.29921951408E+02  0.00000000000E+00 0.  1.
         24    2    1    2    0    0 -0.25110764789E+02  0.86613406938E+01  0.58978292153E+02  0.99653495269E+02  0.75807722846E+02 0.  0.
         23    2    1    2    0    0  0.21189272048E+02 -0.30409513598E+02  0.37235850506E+03  0.38592034682E+03  0.94392446888E+02 0.  0.
        -11    1    3    3    0    0  0.17511189853E+02  0.16452186351E+02 -0.28060482594E+01  0.24190703021E+02  0.00000000000E+00 0.  1.
         12    1    3    3    0    0 -0.42621954643E+02 -0.77908456573E+01  0.61784340413E+02  0.75462792248E+02  0.00000000000E+00 0. -1.
        -11    1    4    4    0    0  0.38216037629E+02  0.20633936035E+02  0.11343697817E+03  0.12146675621E+03  0.00000000000E+00 0.  1.
         11    1    4    4    0    0 -0.17026765581E+02 -0.51043449634E+02  0.25892152689E+03  0.26445359060E+03  0.00000000000E+00 0. -1.
         21    1    1    2  502  501  0.39214927417E+01  0.21748172904E+02  0.40746910174E+02  0.46353768118E+02  0.00000000000E+00 0. -1.
<scales pt_clust_5="13000.00000" pt_clust_6="13000.00000" pt_clust_7="13000.00000" pt_clust_8="13000.00000" pt_clust_9="22.09889"></scales>
<clustering>
<clus scale="   22.099">  2  9  1 -1</clus>
<clus scale="   75.808">  5  6 -1 -1</clus>
<clus scale="   82.836">  2  5  1 -1</clus>
<clus scale="   94.392">  7  8 -1 -1</clus>
<clus scale="  100.125">  1  5  2 -1</clus>
</clustering>
</event>
<event>
 9    2  0.3791909E-005  0.1404639E+03  0.7546771E-02  0.1214186E+00
         -3   -1    0    0    0  501 -0.00000000000E+00  0.00000000000E+00  0.34721789973E+03  0.34721789973E+03  0.00000000000E+00 0.  1.
          4   -1    0    0  502    0  0.00000000000E+00 -0.00000000000E+00 -0.10741263014E+03  0.10741263014E+03  0.00000000000E+00 0. -1.
         23    2    1    2    0    0 -0.10607135036E+03 -0.10931364078E+02  0.24000276720E+03  0.27770592591E+03  0.90269745410E+02 0.  0.
         24    2    1    2    0    0  0.11279777043E+03 -0.21890279806E+02  0.88410284874E+01  0.14222301915E+03  0.83346877733E+02 0.  0.
        -13    1    4    4    0    0  0.84801202897E+02 -0.50781548704E+02  0.19175319025E+02  0.10068615874E+03  0.00000000000E+00 0.  1.
         14    1    4    4    0    0  0.27996567532E+02  0.28891268898E+02 -0.10334290537E+02  0.41536860414E+02  0.00000000000E+00 0. -1.
        -11    1    3    3    0    0 -0.61910514566E+02  0.33136438407E+02  0.82744329991E+02  0.10852446503E+03  0.00000000000E+00 0. -1.
         11    1    3    3    0    0 -0.44160835792E+02 -0.44067802485E+02  0.15725843720E+03  0.16918146088E+03  0.00000000000E+00 0.  1.
         21    1    1    2  502  501 -0.67264200706E+01  0.32821643884E+02 -0.90385260988E+01  0.34701584809E+02  0.00000000000E+00 0. -1.
<scales pt_clust_5="13000.00000" pt_clust_6="13000.00000" pt_clust_7="13000.00000" pt_clust_8="13000.00000" pt_clust_9="33.50381"></scales>
<clustering>
<clus scale="   33.504">  2  9  1 -1</clus>
<clus scale="   83.347">  5  6 -1 -1</clus>
<clus scale="   90.270">  7  8 -1 -1</clus>
<clus scale="  136.118">  2  5  1 -1</clus>
<clus scale="   33.504">  2  5  1 -1</clus>
</clustering>
</event>
<event>
 9    2  0.3791909E-005  0.1265347E+03  0.7546771E-02  0.1235917E+00
         -1   -1    0    0    0  501 -0.00000000000E+00  0.00000000000E+00  0.56059612172E+03  0.56059612172E+03  0.00000000000E+00 0.  1.
          2   -1    0    0  502    0  0.00000000000E+00 -0.00000000000E+00 -0.54554806288E+02  0.54554806288E+02  0.00000000000E+00 0. -1.
         23    2    1    2    0    0 -0.60409608691E+02  0.67062563871E+02  0.44747875741E+03  0.46546577879E+03  0.90963974163E+02 0.  0.
         24    2    1    2    0    0  0.36445337430E+02 -0.72121148565E+02  0.49453812149E+02  0.12355384945E+03  0.79310475262E+02 0.  0.
        -13    1    4    4    0    0 -0.24408964915E+02 -0.10407542861E+02  0.10637413674E+02  0.28587918537E+02  0.00000000000E+00 0.  1.
         14    1    4    4    0    0  0.60854302345E+02 -0.61713605704E+02  0.38816398474E+02  0.94965930909E+02  0.00000000000E+00 0. -1.
        -11    1    3    3    0    0 -0.11615589735E+02  0.69980783647E+02  0.17846021616E+03  0.19204239313E+03  0.00000000000E+00 0. -1.
         11    1    3    3    0    0 -0.48794018956E+02 -0.29182197768E+01  0.26901854125E+03  0.27342338566E+03  0.00000000000E+00 0.  1.
         21    1    1    2  502  501  0.23964271261E+02  0.50585846944E+01  0.91087458675E+01  0.26131299766E+02  0.00000000000E+00 0.  1.
<scales pt_clust_5="13000.00000" pt_clust_6="13000.00000" pt_clust_7="13000.00000" pt_clust_8="13000.00000" pt_clust_9="24.49236"></scales>
<clustering>
<clus scale="   24.492">  2  9  1 -1</clus>
<clus scale="   79.310">  5  6 -1 -1</clus>
<clus scale="   90.964">  7  8 -1 -1</clus>
<clus scale="  118.435">  2  5  1 -1</clus>
<clus scale="   24.492">  2  5  1 -1</clus>
</clustering>
</event>
<event>
 9    2  0.3791909E-005  0.1302361E+03  0.7546771E-02  0.1232280E+00
          2   -1    0    0  502    0  0.00000000000E+00  0.00000000000E+00  0.41177495464E+03  0.41177495464E+03  0.00000000000E+00 0. -1.
         -1   -1    0    0    0  501 -0.00000000000E+00 -0.00000000000E+00 -0.41554127453E+03  0.41554127453E+03  0.00000000000E+00 0.  1.
         24    2    1    2    0    0  0.67892797150E+02 -0.48755318817E+02 -0.39200539739E+03  0.40924320601E+03  0.82615114004E+02 0.  0.
         23    2    1    2    0    0 -0.60857549466E+02  0.12994034682E+02  0.31015431146E+03  0.33190113192E+03  0.10044987898E+03 0.  0.
        -11    1    3    3    0    0  0.65619510356E+02 -0.54585098956E+01 -0.30508172608E+03  0.31210667256E+03  0.00000000000E+00 0.  1.
         12    1    3    3    0    0  0.22732867933E+01 -0.43296808921E+02 -0.86923671307E+02  0.97136533442E+02  0.00000000000E+00 0. -1.
        -11    1    4    4    0    0  0.25711379274E+02 -0.25355934791E+01  0.11464410350E+03  0.11751925258E+03  0.00000000000E+00 0.  1.
         11    1    4    4    0    0 -0.86568928740E+02  0.15529628161E+02  0.19551020795E+03  0.21438187934E+03  0.00000000000E+00 0. -1.
         21    1    1    2  502  501 -0.70352476840E+01  0.35761284135E+02  0.78084766038E+02  0.86171891241E+02  0.00000000000E+00 0. -1.
<scales pt_clust_5="13000.00000" pt_clust_6="13000.00000" pt_clust_7="13000.00000" pt_clust_8="13000.00000" pt_clust_9="36.44673"></scales>
<clustering>
<clus scale="   36.447">  1  9  2 -1</clus>
<clus scale="   82.615">  5  6 -1 -1</clus>
<clus scale="  100.450">  7  8 -1 -1</clus>
<clus scale="  117.032">  2  5  1 -1</clus>
<clus scale="   36.447">  1  5  2 -1</clus>
</clustering>
</event>
<event>
 9    2  0.3791909E-005  0.1197870E+03  0.7546771E-02  0.1247143E+00
          2   -1    0    0  502    0  0.00000000000E+00  0.00000000000E+00  0.79167202965E+03  0.79167202965E+03  0.00000000000E+00 0. -1.
         -1   -1    0    0    0  501 -0.00000000000E+00 -0.00000000000E+00 -0.36256374056E+02  0.36256374056E+02  0.00000000000E+00 0.  1.
         24    2    1    2    0    0  0.29644771646E+02 -0.68829975752E+02  0.80533346640E+02  0.13565165479E+03  0.79368592523E+02 0.  0.
         23    2    1    2    0    0 -0.26975436014E+02  0.90928634115E+02  0.59535000319E+03  0.60968822844E+03  0.91007796076E+02 0.  0.
        -11    1    3    3    0    0  0.29345953652E+02 -0.48596561428E+01 -0.35971681310E+01  0.29962324211E+02  0.00000000000E+00 0.  1.
         12    1    3    3    0    0  0.29881799400E+00 -0.63970319609E+02  0.84130514771E+02  0.10568933058E+03  0.00000000000E+00 0. -1.
        -13    1    4    4    0    0 -0.59646235496E+02  0.44978992799E+02  0.36142058804E+03  0.36906046206E+03  0.00000000000E+00 0. -1.
         13    1    4    4    0    0  0.32670799483E+02  0.45949641315E+02  0.23392941516E+03  0.24062776638E+03  0.00000000000E+00 0.  1.
         21    1    1    2  502  501 -0.26693356325E+01 -0.22098658362E+02  0.79532305766E+02  0.82588520477E+02  0.00000000000E+00 0. -1.
<scales pt_clust_5="13000.00000" pt_clust_6="13000.00000" pt_clust_7="13000.00000" pt_clust_8="13000.00000" pt_clust_9="22.25929"></scales>
<clustering>
<clus scale="   22.259">  1  9  2 -1</clus>
<clus scale="   79.369">  5  6 -1 -1</clus>
<clus scale="   91.008">  7  8 -1 -1</clus>
<clus scale="  111.202">  2  5  1 -1</clus>
<clus scale="   22.259">  1  5  2 -1</clus>
</clustering>
</event>
<event>
 9    2  0.3791909E-005  0.9087639E+02  0.7546771E-02  0.1306007E+00
         -1   -1    0    0    0  501 -0.00000000000E+00  0.00000000000E+00  0.21695238350E+03  0.21695238350E+03  0.00000000000E+00 0.  1.
          2   -1    0    0  502    0  0.00000000000E+00 -0.00000000000E+00 -0.10048169225E+03  0.10048169225E+03  0.00000000000E+00 0. -1.
         23    2    1    2    0    0  0.12755711344E+02  0.11944225881E+02  0.14867393954E+03  0.17480404320E+03  0.90261511822E+02 0.  0.
         24    2    1    2    0    0  0.49731379835E+01  0.40556204092E+01  0.20638928808E+02  0.84642078110E+02  0.81836030244E+02 0.  0.
        -13    1    4    4    0    0  0.26816099424E+02 -0.78505868177E+01  0.42941129767E+02  0.51231587203E+02  0.00000000000E+00 0.  1.
         14    1    4    4    0    0 -0.21842961440E+02  0.11906207227E+02 -0.22302200959E+02  0.33410490907E+02  0.00000000000E+00 0. -1.
        -13    1    3    3    0    0  0.42221406881E+00 -0.25216426299E+02  0.12812859866E+03  0.13058707522E+03  0.00000000000E+00 0.  1.
         13    1    3    3    0    0  0.12333497276E+02  0.37160652180E+02  0.20545340885E+02  0.44216967983E+02  0.00000000000E+00 0. -1.
         21    1    1    2  502  501 -0.17728849328E+02 -0.15999846290E+02 -0.52842177096E+02  0.57987954439E+02  0.00000000000E+00 0. -1.
<scales pt_clust_5="13000.00000" pt_clust_6="13000.00000" pt_clust_7="13000.00000" pt_clust_8="13000.00000" pt_clust_9="23.88111"></scales>
<clustering>
<clus scale="   23.881">  2  9  1 -1</clus>
<clus scale="   81.836">  5  6 -1 -1</clus>
<clus scale="   82.514">  2  5  1 -1</clus>
<clus scale="   90.262">  7  8 -1 -1</clus>
<clus scale="   23.881">  2  5  1 -1</clus>
</clustering>
</event>
<event>
 9    2  0.3791909E-005  0.1092757E+03  0.7546771E-02  0.1265134E+00
          2   -1    0    0  502    0  0.00000000000E+00  0.00000000000E+00  0.60652129675E+03  0.60652129675E+03  0.00000000000E+00 0. -1.
         -1   -1    0    0    0  501 -0.00000000000E+00 -0.00000000000E+00 -0.30316208412E+02  0.30316208412E+02  0.00000000000E+00 0.  1.
         24    2    1    2    0    0 -0.25038325816E+02 -0.45633447632E+02  0.11384588721E+03  0.15909725224E+03  0.98192262089E+02 0.  0.
         23    2    1    2    0    0  0.46583333065E+01  0.38327188074E+02  0.37816405614E+03  0.39080609414E+03  0.90723075588E+02 0.  0.
        -13    1    3    3    0    0 -0.54647528374E+02 -0.15582629262E+02  0.27790324798E+02  0.63257195989E+02  0.00000000000E+00 0.  1.
         14    1    3    3    0    0  0.29609202558E+02 -0.30050818370E+02  0.86055562408E+02  0.95840056251E+02  0.00000000000E+00 0. -1.
        -13    1    4    4    0    0 -0.94807060404E+01 -0.26430066994E+02  0.66736477579E+02  0.72402967260E+02  0.00000000000E+00 0.  1.
         13    1    4    4    0    0  0.14139039347E+02  0.64757255068E+02  0.31142757856E+03  0.31840312688E+03  0.00000000000E+00 0. -1.
         21    1    1    2  502  501  0.20379992509E+02  0.73062595580E+01  0.84195144996E+02  0.86934158789E+02  0.00000000000E+00 0. -1.
<scales pt_clust_5="13000.00000" pt_clust_6="13000.00000" pt_clust_7="13000.00000" pt_clust_8="13000.00000" pt_clust_9="21.65007"></scales>
<clustering>
<clus scale="   21.650">  1  9  2 -1</clus>
<clus scale="   90.723">  7  8 -1 -1</clus>
<clus scale="   98.192">  5  6 -1 -1</clus>
<clus scale="  102.616">  1  7  2 -1</clus>
<clus scale="   21.650">  1  5  2 -1</clus>
</clustering>
</event>
<event>
 9    2  0.3791909E-005  0.2908434E+03  0.7546771E-02  0.1090221E+00
         -1   -1    0    0    0  501 -0.00000000000E+00  0.00000000000E+00  0.45831821860E+03  0.45831821860E+03  0.00000000000E+00 0.  1.
          2   -1    0    0  502    0  0.00000000000E+00 -0.00000000000E+00 -0.36133550571E+03  0.36133550571E+03  0.00000000000E+00 0. -1.
         23    2    1    2    0    0  0.21760421199E+03 -0.16395898035E+03  0.31239874311E+03  0.42428763964E+03  0.90514563171E+02 0.  0.
         24    2    1    2    0    0 -0.23554536136E+03  0.17923890986E+03 -0.19312714366E+03  0.36292913738E+03  0.82530364558E+02 0.  0.
        -13    1    4    4    0    0 -0.55428481276E+02  0.81860911912E+02 -0.37463307988E+02  0.10572144948E+03  0.00000000000E+00 0.  1.
         14    1    4    4    0    0 -0.18011688008E+03  0.97377997943E+02 -0.15566383568E+03  0.25720768789E+03  0.00000000000E+00 0. -1.
        -13    1    3    3    0    0  0.99551471408E+02 -0.21122148474E+02  0.10801365164E+03  0.14840346882E+03  0.00000000000E+00 0.  1.
         13    1    3    3    0    0  0.11805274058E+03 -0.14283683188E+03  0.20438509146E+03  0.27588417083E+03  0.00000000000E+00 0. -1.
         21    1    1    2  502  501  0.17941149366E+02 -0.15279929500E+02 -0.22288886552E+02  0.32436947295E+02  0.00000000000E+00 0. -1.
<scales pt_clust_5="13000.00000" pt_clust_6="13000.00000" pt_clust_7="13000.00000" pt_clust_8="13000.00000" pt_clust_9="23.56610"></scales>
<clustering>
<clus scale="   23.566">  2  9  1 -1</clus>
<clus scale="   82.530">  5  6 -1 -1</clus>
<clus scale="   90.515">  7  8 -1 -1</clus>
<clus scale="  288.458">  2  5  1 -1</clus>
<clus scale="   23.566">  2  5  1 -1</clus>
</clustering>
</event>
<event>
 9    2  0.3791909E-005  0.1195645E+03  0.7546771E-02  0.1247249E+00
         -1   -1    0    0    0  501 -0.00000000000E+00  0.00000000000E+00  0.65373039838E+03  0.65373039838E+03  0.00000000000E+00 0.  1.
          2   -1    0    0  502    0  0.00000000000E+00 -0.00000000000E+00 -0.51765943501E+02  0.51765943501E+02  0.00000000000E+00 0. -1.
         23    2    1    2    0    0 -0.74597917763E+02  0.20312469939E+02  0.49867704952E+03  0.51278034193E+03  0.91035342462E+02 0.  0.
         24    2    1    2    0    0  0.84955880959E+02  0.22038858162E+02  0.79354229192E+02  0.14297950114E+03  0.80267247842E+02 0.  0.
        -11    1    4    4    0    0  0.27762505759E+02  0.37209270034E+02  0.68609827190E+02  0.82840780353E+02  0.00000000000E+00 0.  1.
         12    1    4    4    0    0  0.57193375200E+02 -0.15170411872E+02  0.10744402002E+02  0.60138720784E+02  0.00000000000E+00 0. -1.
        -11    1    3    3    0    0 -0.46190772649E+02 -0.34531340071E+02  0.24059656922E+03  0.24741202486E+03  0.00000000000E+00 0.  1.
         11    1    3    3    0    0 -0.28407145114E+02  0.54843810010E+02  0.25808048030E+03  0.26536831706E+03  0.00000000000E+00 0. -1.
         21    1    1    2  502  501 -0.10357963196E+02 -0.42351328101E+02  0.23933176168E+02  0.49736498821E+02  0.00000000000E+00 0.  1.
<scales pt_clust_5="13000.00000" pt_clust_6="13000.00000" pt_clust_7="13000.00000" pt_clust_8="13000.00000" pt_clust_9="43.59957"></scales>
<clustering>
<clus scale="   43.600">  2  9  1 -1</clus>
<clus scale="   80.267">  5  6 -1 -1</clus>
<clus scale="   91.035">  7  8 -1 -1</clus>
<clus scale="  111.584">  2  5  1 -1</clus>
<clus scale="   43.600">  2  5  1 -1</clus>
</clustering>
</event>
<event>
 9    2  0.3791909E-005  0.1169351E+03  0.7546771E-02  0.1249384E+00
          2   -1    0    0  502    0  0.00000000000E+00  0.00000000000E+00  0.17472069581E+03  0.17472069581E+03  0.00000000000E+00 0. -1.
         -1   -1    0    0    0  501 -0.00000000000E+00 -0.00000000000E+00 -0.15794619679E+03  0.15794619679E+03  0.00000000000E+00 0.  1.
         24    2    1    2    0    0  0.57081846558E+02 -0.27831023269E+02 -0.76342934006E+02  0.13714262131E+03  0.94588328799E+02 0.  0.
         23    2    1    2    0    0 -0.84836434635E+02  0.12730141024E+02  0.36162868408E+02  0.13039228041E+03  0.91296859790E+02 0.  0.
        -11    1    3    3    0    0 -0.34380274841E+01 -0.44975336528E+02 -0.10968341302E+02  0.46420959056E+02  0.00000000000E+00 0.  1.
         12    1    3    3    0    0  0.60519874042E+02  0.17144313259E+02 -0.65374592704E+02  0.90721662255E+02  0.00000000000E+00 0. -1.
        -13    1    4    4    0    0 -0.24589580132E+02  0.40892353409E+02 -0.10868570011E+02  0.48938306392E+02  0.00000000000E+00 0. -1.
         13    1    4    4    0    0 -0.60246854502E+02 -0.28162212386E+02  0.47031438419E+02  0.81453974020E+02  0.00000000000E+00 0.  1.
         21    1    1    2  502  501  0.27754588077E+02  0.15100882245E+02  0.56954564617E+02  0.65131990869E+02  0.00000000000E+00 0. -1.
<scales pt_clust_5="13000.00000" pt_clust_6="13000.00000" pt_clust_7="13000.00000" pt_clust_8="13000.00000" pt_clust_9="31.59674"></scales>
<clustering>
<clus scale="   31.597">  1  9  2 -1</clus>
<clus scale="   91.297">  7  8 -1 -1</clus>
<clus scale="   94.588">  5  6 -1 -1</clus>
<clus scale="  114.289">  1  7  2 -1</clus>
<clus scale="   31.597">  1  5  2 -1</clus>
</clustering>
</event>
<event>
 9    2  0.3791909E-005  0.1697364E+03  0.7546771E-02  0.1179478E+00
          4   -1    0    0  502    0  0.00000000000E+00  0.00000000000E+00  0.60584114429E+02  0.60584114429E+02  0.00000000000E+00 0. -1.
         -3   -1    0    0    0  501 -0.00000000000E+00 -0.00000000000E+00 -0.82197245209E+03  0.82197245209E+03  0.00000000000E+00 0.  1.
         23    2    1    2    0    0 -0.10826317172E+03 -0.86486900163E+02 -0.49313909435E+03  0.52013152447E+03  0.90275900023E+02 0.  0.
         24    2    1    2    0    0  0.12901660700E+03  0.83135060599E+02 -0.28636683259E+03  0.33467279987E+03  0.80269527078E+02 0.  0.
        -11    1    4    4    0    0  0.16394380917E+02 -0.12076269924E+02 -0.69436771967E+02  0.72360744345E+02  0.00000000000E+00 0.  1.
         12    1    4    4    0    0  0.11262222608E+03  0.95211330523E+02 -0.21693006063E+03  0.26231205552E+03  0.00000000000E+00 0. -1.
        -13    1    3    3    0    0 -0.33398283705E+02 -0.50554809227E+02 -0.34521942672E+03  0.35049634331E+03  0.00000000000E+00 0. -1.
         13    1    3    3    0    0 -0.74864888011E+02 -0.35932090935E+02 -0.14791966763E+03  0.16963518116E+03  0.00000000000E+00 0.  1.
         21    1    1    2  502  501 -0.20753435286E+02  0.33518395641E+01  0.18117589282E+02  0.27752242180E+02  0.00000000000E+00 0.  1.
<scales pt_clust_5="13000.00000" pt_clust_6="13000.00000" pt_clust_7="13000.00000" pt_clust_8="13000.00000" pt_clust_9="21.02237"></scales>
<clustering>
<clus scale="   21.022">  1  9  2 -1</clus>
<clus scale="   80.270">  5  6 -1 -1</clus>
<clus scale="   90.276">  7  8 -1 -1</clus>
<clus scale="  164.633">  1  5  2 -1</clus>
<clus scale="   21.022">  1  5  2 -1</clus>
</clustering>
</event>
<event>
 9    2  0.3791909E-005  0.2199101E+03  0.7546771E-02  0.1157596E+00
         -1   -1    0    0    0  501 -0.00000000000E+00  0.00000000000E+00  0.88635911607E+02  0.88635911607E+02  0.00000000000E+00 0.  1.
          2   -1    0    0  502    0  0.00000000000E+00 -0.00000000000E+00 -0.11636153015E+04  0.11636153015E+04  0.00000000000E+00 0. -1.
         23    2    1    2    0    0 -0.88238758952E+02 -0.16356761421E+02 -0.16259334073E+03  0.20511448912E+03  0.87073170225E+02 0.  0.
         24    2    1    2    0    0 -0.23962064016E+01 -0.16487246382E+03 -0.12096987416E+03  0.23019223928E+03  0.10566969972E+03 0.  0.
        -11    1    4    4    0    0  0.98293888367E+01 -0.14951357405E+03 -0.52189433521E+02  0.15866525355E+03  0.00000000000E+00 0.  1.
         12    1    4    4    0    0 -0.12225595238E+02 -0.15358889768E+02 -0.68780440641E+02  0.71526985737E+02  0.00000000000E+00 0. -1.
        -13    1    3    3    0    0 -0.29131562652E+02  0.13878520273E+02 -0.31756116784E+01  0.32424462633E+02  0.00000000000E+00 0.  1.
         13    1    3    3    0    0 -0.59107196301E+02 -0.30235281694E+02 -0.15941772905E+03  0.17269002649E+03  0.00000000000E+00 0. -1.
         21    1    1    2  502  501  0.90634965354E+02  0.18122922524E+03 -0.79141617496E+03  0.81694448466E+03  0.00000000000E+00 0. -1.
<scales pt_clust_5="13000.00000" pt_clust_6="13000.00000" pt_clust_7="13000.00000" pt_clust_8="13000.00000" pt_clust_9="192.85842"></scales>
<clustering>
<clus scale="   87.073">  7  8 -1 -1</clus>
<clus scale="  105.670">  5  6 -1 -1</clus>
<clus scale="  125.041">  1  7  2 -1</clus>
<clus scale="  192.858">  2  9  1 -1</clus>
<clus scale="  192.858">  2  5  1 -1</clus>
</clustering>
</event>
<event>
 9    2  0.3791909E-005  0.2142228E+03  0.7546771E-02  0.1139001E+00
         -1   -1    0    0    0  501 -0.00000000000E+00  0.00000000000E+00  0.19519065963E+03  0.19519065963E+03  0.00000000000E+00 0.  1.
          2   -1    0    0  502    0  0.00000000000E+00 -0.00000000000E+00 -0.32988280407E+03  0.32988280407E+03  0.00000000000E+00 0. -1.
         23    2    1    2    0    0 -0.16681997438E+03 -0.11296849829E+03  0.57569133345E+02  0.22771461045E+03  0.89156902358E+02 0.  0.
         24    2    1    2    0    0  0.14277807451E+03  0.10911232855E+03 -0.14520944086E+03  0.24438000509E+03  0.79653790692E+02 0.  0.
        -11    1    4    4    0    0  0.49024228409E+02 -0.39844437062E+01 -0.29265485433E+02  0.57233900796E+02  0.00000000000E+00 0.  1.
         12    1    4    4    0    0  0.93753846105E+02  0.11309677225E+03 -0.11594395542E+03  0.18714610429E+03  0.00000000000E+00 0. -1.
        -13    1    3    3    0    0 -0.91334601304E+02 -0.96453668936E+02  0.25548823207E+01  0.13286025391E+03  0.00000000000E+00 0. -1.
         13    1    3    3    0    0 -0.75485373079E+02 -0.16514829353E+02  0.55014251024E+02  0.94854356532E+02  0.00000000000E+00 0.  1.
         21    1    1    2  502  501  0.24041899869E+02  0.38561697435E+01 -0.47051836930E+02  0.52978848165E+02  0.00000000000E+00 0.  1.
<scales pt_clust_5="13000.00000" pt_clust_6="13000.00000" pt_clust_7="13000.00000" pt_clust_8="13000.00000" pt_clust_9="24.34919"></scales>
<clustering>
<clus scale="   24.349">  2  9  1 -1</clus>
<clus scale="   79.654">  5  6 -1 -1</clus>
<clus scale="   89.157">  7  8 -1 -1</clus>
<clus scale="  210.445">  2  5  1 -1</clus>
<clus scale="   24.349">  2  5  1 -1</clus>
</clustering>
</event>
<event>
 9    2  0.3791909E-005  0.1307343E+03  0.7546771E-02  0.1229170E+00
         -3   -1    0    0    0  501 -0.00000000000E+00  0.00000000000E+00  0.45799461760E+03  0.45799461760E+03  0.00000000000E+00 0.  1.
          4   -1    0    0  502    0  0.00000000000E+00 -0.00000000000E+00 -0.26176262195E+03  0.26176262195E+03  0.00000000000E+00 0. -1.
         24    2    1    2    0    0  0.81121520399E+02 -0.47160230641E+02  0.41682105934E+03  0.43472519726E+03  0.80258415121E+02 0.  0.
         23    2    1    2    0    0 -0.57688022870E+02  0.79297382831E+02 -0.19877152967E+03  0.23966762729E+03  0.91183702815E+02 0.  0.
        -11    1    3    3    0    0  0.57085834792E+02 -0.47997483626E+02  0.39585347176E+03  0.40281822460E+03  0.00000000000E+00 0.  1.
         12    1    3    3    0    0  0.24035685607E+02  0.83725298536E+00  0.20967587578E+02  0.31906972655E+02  0.00000000000E+00 0. -1.
        -11    1    4    4    0    0 -0.40213820783E+02 -0.50349257651E+01 -0.10395649692E+03  0.11157712629E+03  0.00000000000E+00 0. -1.
         11    1    4    4    0    0 -0.17474202088E+02  0.84332308596E+02 -0.94815032743E+02  0.12809050100E+03  0.00000000000E+00 0.  1.
         21    1    1    2  502  501 -0.23433497529E+02 -0.32137152190E+02 -0.21817534023E+02  0.45364414999E+02  0.00000000000E+00 0.  1.
<scales pt_clust_5="13000.00000" pt_clust_6="13000.00000" pt_clust_7="13000.00000" pt_clust_8="13000.00000" pt_clust_9="39.77343"></scales>
<clustering>
<clus scale="   39.773">  2  9  1 -1</clus>
<clus scale="   80.258">  5  6 -1 -1</clus>
<clus scale="   91.184">  7  8 -1 -1</clus>
<clus scale="  123.363">  1  5  2 -1</clus>
<clus scale="   39.773">  2  5  1 -1</clus>
</clustering>
</event>
<event>
 9    2  0.3791909E-005  0.1470977E+03  0.7546771E-02  0.1206324E+00
         -1   -1    0    0    0  501 -0.00000000000E+00  0.00000000000E+00  0.45233857075E+02  0.45233857075E+02  0.00000000000E+00 0.  1.
          2   -1    0    0  502    0  0.00000000000E+00 -0.00000000000E+00 -0.14924883696E+04  0.14924883696E+04  0.00000000000E+00 0. -1.
         23    2    1    2    0    0  0.74141136008E+02  0.59887943762E+02 -0.71780706714E+02  0.15047596058E+03  0.91690081250E+02 0.  0.
         24    2    1    2    0    0 -0.94429885523E+02 -0.68975673607E+02 -0.13183533229E+04  0.13259521411E+04  0.80118347895E+02 0.  0.
        -11    1    4    4    0    0  0.27562186954E+01 -0.23105204936E+02 -0.91924599596E+02  0.94823938156E+02  0.00000000000E+00 0.  1.
         12    1    4    4    0    0 -0.97186104219E+02 -0.45870468671E+02 -0.12264287233E+04  0.12311282029E+04  0.00000000000E+00 0. -1.
        -13    1    3    3    0    0 -0.59130643072E+01  0.24183699647E+02  0.13380028929E+02  0.28263772435E+02  0.00000000000E+00 0. -1.
         13    1    3    3    0    0  0.80054200315E+02  0.35704244115E+02 -0.85160735644E+02  0.12221218815E+03  0.00000000000E+00 0.  1.
         21    1    1    2  502  501  0.20288749515E+02  0.90877298449E+01 -0.57120482961E+02  0.61294125039E+02  0.00000000000E+00 0. -1.
<scales pt_clust_5="13000.00000" pt_clust_6="13000.00000" pt_clust_7="13000.00000" pt_clust_8="13000.00000" pt_clust_9="22.23106"></scales>
<clustering>
<clus scale="   22.231">  1  9  2 -1</clus>
<clus scale="   80.118">  5  6 -1 -1</clus>
<clus scale="   91.690">  7  8 -1 -1</clus>
<clus scale="  140.177">  2  5  1 -1</clus>
<clus scale="  140.177">  2  5  1 -1</clus>
</clustering>
</event>
<event>
 9    2  0.3791909E-005  0.1377264E+03  0.7546771E-02  0.1236413E+00
          2   -1    0    0  502    0  0.00000000000E+00  0.00000000000E+00  0.11788352549E+04  0.11788352549E+04  0.00000000000E+00 0. -1.
         -1   -1    0    0    0  501 -0.00000000000E+00 -0.00000000000E+00 -0.38086594285E+02  0.38086594285E+02  0.00000000000E+00 0.  1.
         23    2    1    2    0    0  0.49715230009E+01  0.35446725049E+01  0.13721061832E+03  0.16459922849E+03  0.90713127463E+02 0.  0.
         24    2    1    2    0    0 -0.84587489129E+02 -0.80401688258E+02  0.22522915135E+03  0.26618622499E+03  0.80668835162E+02 0.  0.
        -11    1    4    4    0    0 -0.86970590518E+02 -0.91018925709E+02  0.17992465832E+03  0.21959328569E+03  0.00000000000E+00 0.  1.
         12    1    4    4    0    0  0.23831013893E+01  0.10617237452E+02  0.45304493033E+02  0.46592939297E+02  0.00000000000E+00 0. -1.
        -13    1    3    3    0    0 -0.14675013002E+02  0.22748329774E+02  0.13426710985E+03  0.13696897204E+03  0.00000000000E+00 0. -1.
         13    1    3    3    0    0  0.19646536003E+02 -0.19203657269E+02  0.29435084758E+01  0.27630256451E+02  0.00000000000E+00 0.  1.
         21    1    1    2  502  501  0.79615966128E+02  0.76857015753E+02  0.77830889096E+03  0.78613639572E+03  0.00000000000E+00 0. -1.
<scales pt_clust_5="13000.00000" pt_clust_6="13000.00000" pt_clust_7="13000.00000" pt_clust_8="13000.00000" pt_clust_9="111.62931"></scales>
<clustering>
<clus scale="   80.669">  5  6 -1 -1</clus>
<clus scale="   90.713">  7  8 -1 -1</clus>
<clus scale="   90.918">  2  7  1 -1</clus>
<clus scale="  111.629">  1  9  2 -1</clus>
<clus scale="  111.629">  1  5  2 -1</clus>
</clustering>
</event>
<event>
 9    2  0.3791909E-005  0.1092324E+03  0.7546771E-02  0.1266759E+00
         -1   -1    0    0    0  501 -0.00000000000E+00  0.00000000000E+00  0.39722131244E+02  0.39722131244E+02  0.00000000000E+00 0.  1.
          2   -1    0    0  502    0  0.00000000000E+00 -0.00000000000E+00 -0.89357581698E+03  0.89357581698E+03  0.00000000000E+00 0. -1.
         23    2    1    2    0    0 -0.36254263444E+02 -0.26828122322E+02 -0.74616210269E+02  0.12551947386E+03  0.90296399249E+02 0.  0.
         24    2    1    2    0    0 -0.42868296891E+02  0.58246148618E+02 -0.59947260968E+03  0.60887427909E+03  0.78295423018E+02 0.  0.
        -13    1    4    4    0    0 -0.66708715030E+01  0.59760708304E+02 -0.23371014023E+03  0.24132192695E+03  0.00000000000E+00 0.  1.
         14    1    4    4    0    0 -0.36197425388E+02 -0.15145596861E+01 -0.36576246946E+03  0.36755235214E+03  0.00000000000E+00 0. -1.
        -13    1    3    3    0    0  0.14514452045E+02 -0.42640901334E+02 -0.19970355886E+02  0.49272009285E+02  0.00000000000E+00 0.  1.
         13    1    3    3    0    0 -0.50768715489E+02  0.15812779011E+02 -0.54645854383E+02  0.76247464572E+02  0.00000000000E+00 0. -1.
         21    1    1    2  502  501  0.79122560335E+02 -0.31418026296E+02 -0.17976486579E+03  0.19890419528E+03  0.00000000000E+00 0.  1.
<scales pt_clust_5="13000.00000" pt_clust_6="13000.00000" pt_clust_7="13000.00000" pt_clust_8="13000.00000" pt_clust_9="85.13209"></scales>
<clustering>
<clus scale="   78.295">  5  6 -1 -1</clus>
<clus scale="   85.132">  1  9  2 -1</clus>
<clus scale="   90.296">  7  8 -1 -1</clus>
<clus scale="   99.541">  2  5  1 -1</clus>
<clus scale="   99.541">  2  5  1 -1</clus>
</clustering>
</event>
<event>
 9    2  0.3791909E-005  0.1830546E+03  0.7546771E-02  0.1165944E+00
          2   -1    0    0  502    0  0.00000000000E+00  0.00000000000E+00  0.24900677676E+03  0.24900677676E+03  0.00000000000E+00 0. -1.
         -1   -1    0    0    0  501 -0.00000000000E+00 -0.00000000000E+00 -0.24306105309E+03  0.24306105309E+03  0.00000000000E+00 0.  1.
         23    2    1    2    0    0  0.96022043620E+02  0.13211450650E+03 -0.15381286512E+03  0.24179054024E+03  0.90165360219E+02 0.  0.
         24    2    1    2    0    0 -0.78780418502E+02 -0.12158213206E+03  0.11698645113E+03  0.20297337532E+03  0.80769995449E+02 0.  0.
        -13    1    4    4    0    0 -0.39515084195E+02 -0.11658606024E+02  0.55076584773E+01  0.41565602068E+02  0.00000000000E+00 0.  1.
         14    1    4    4    0    0 -0.39265334307E+02 -0.10992352604E+03  0.11147879265E+03  0.16140777325E+03  0.00000000000E+00 0. -1.
        -13    1    3    3    0    0  0.64249304055E+02  0.54057675140E+02 -0.12903347301E+03  0.15394753155E+03  0.00000000000E+00 0.  1.
         13    1    3    3    0    0  0.31772739565E+02  0.78056831363E+02 -0.24779392104E+02  0.87843008686E+02  0.00000000000E+00 0. -1.
         21    1    1    2  502  501 -0.17241625118E+02 -0.10532374442E+02  0.42772137655E+02  0.47303914296E+02  0.00000000000E+00 0. -1.
<scales pt_clust_5="13000.00000" pt_clust_6="13000.00000" pt_clust_7="13000.00000" pt_clust_8="13000.00000" pt_clust_9="20.20407"></scales>
<clustering>
<clus scale="   20.204">  1  9  2 -1</clus>
<clus scale="   80.770">  5  6 -1 -1</clus>
<clus scale="   90.165">  7  8 -1 -1</clus>
<clus scale="  178.614">  1  5  2 -1</clus>
<clus scale="   20.204">  1  5  2 -1</clus>
</clustering>
</event>
<event>
 9    2  0.3791909E-005  0.9059162E+02  0.7546771E-02  0.1304345E+00
         -1   -1    0    0    0  501 -0.00000000000E+00  0.00000000000E+00  0.11674347889E+03  0.11674347889E+03  0.00000000000E+00 0.  1.
          2   -1    0    0  502    0  0.00000000000E+00 -0.00000000000E+00 -0.50831926774E+03  0.50831926774E+03  0.00000000000E+00 0. -1.
         24    2    1    2    0    0 -0.47975116195E+01  0.57777601956E+01  0.89637006026E+02  0.12421632492E+03  0.85665068121E+02 0.  0.
         23    2    1    2    0    0 -0.33506780567E+02  0.53794447568E+01 -0.29478524647E+03  0.31019770594E+03  0.90402613131E+02 0.  0.
        -11    1    3    3    0    0  0.32142454933E+02  0.13491855447E+02  0.76825192839E+02  0.84363960476E+02  0.00000000000E+00 0.  1.
         12    1    3    3    0    0 -0.36939966552E+02 -0.77140952517E+01  0.12811813187E+02  0.39852364442E+02  0.00000000000E+00 0. -1.
        -11    1    4    4    0    0  0.20017075271E+02  0.29114379405E+02 -0.14815885887E+03  0.15231341980E+03  0.00000000000E+00 0.  1.
         11    1    4    4    0    0 -0.53523855838E+02 -0.23734934649E+02 -0.14662638761E+03  0.15788428614E+03  0.00000000000E+00 0. -1.
         21    1    1    2  502  501  0.38304292187E+02 -0.11157204952E+02 -0.18642754840E+03  0.19064871577E+03  0.00000000000E+00 0. -1.
<scales pt_clust_5="13000.00000" pt_clust_6="13000.00000" pt_clust_7="13000.00000" pt_clust_8="13000.00000" pt_clust_9="39.89614"></scales>
<clustering>
<clus scale="   39.896">  2  9  1 -1</clus>
<clus scale="   85.665">  5  6 -1 -1</clus>
<clus scale="   85.865">  1  5  2 -1</clus>
<clus scale="   90.403">  7  8 -1 -1</clus>
<clus scale="   39.896">  2  5  1 -1</clus>
</clustering>
</event>
<event>
 9    2  0.3791909E-005  0.1242758E+03  0.7546771E-02  0.1238851E+00
         -1   -1    0    0    0  501 -0.00000000000E+00  0.00000000000E+00  0.31898647941E+03  0.31898647941E+03  0.00000000000E+00 0.  1.
          2   -1    0    0  502    0  0.00000000000E+00 -0.00000000000E+00 -0.11849698052E+03  0.11849698052E+03  0.00000000000E+00 0. -1.
         24    2    1    2    0    0 -0.43737851577E+02 -0.74447242705E+02  0.24211176343E+03  0.26934301499E+03  0.80449749074E+02 0.  0.
         23    2    1    2    0    0  0.14357542719E+02  0.87928117955E+02 -0.17173460617E+02  0.12761044914E+03  0.89732970636E+02 0.  0.
        -11    1    3    3    0    0 -0.61809641510E+02 -0.49656851688E+02  0.12296467611E+03  0.14630976138E+03  0.00000000000E+00 0.  1.
         12    1    3    3    0    0  0.18071789933E+02 -0.24790391016E+02  0.11914708732E+03  0.12303325361E+03  0.00000000000E+00 0. -1.
        -11    1    4    4    0    0  0.43902178395E+02  0.51873221327E+02 -0.36511265335E+02  0.77144700758E+02  0.00000000000E+00 0.  1.
         11    1    4    4    0    0 -0.29544635676E+02  0.36054896628E+02  0.19337804718E+02  0.50465748378E+02  0.00000000000E+00 0. -1.
         21    1    1    2  502  501  0.29380308858E+02 -0.13480875251E+02 -0.24448803927E+02  0.40529995800E+02  0.00000000000E+00 0. -1.
<scales pt_clust_5="13000.00000" pt_clust_6="13000.00000" pt_clust_7="13000.00000" pt_clust_8="13000.00000" pt_clust_9="32.32548"></scales>
<clustering>
<clus scale="   32.325">  2  9  1 -1</clus>
<clus scale="   80.450">  5  6 -1 -1</clus>
<clus scale="   89.733">  7  8 -1 -1</clus>
<clus scale="  117.748">  1  5  2 -1</clus>
<clus scale="   32.325">  2  5  1 -1</clus>
</clustering>
</event>
<event>
 9    2  0.3791909E-005  0.1375156E+03  0.7546771E-02  0.1217561E+00
          2   -1    0    0  502    0  0.00000000000E+00  0.00000000000E+00  0.10217928992E+04  0.10217928992E+04  0.00000000000E+00 0. -1.
         -1   -1    0    0    0  501 -0.00000000000E+00 -0.00000000000E+00 -0.67402621494E+02  0.67402621494E+02  0.00000000000E+00 0.  1.
         23    2    1    2    0    0  0.10132126306E+03  0.37443257176E+02  0.25411671512E+02  0.13968695190E+03  0.84845127289E+02 0.  0.
         24    2    1    2    0    0 -0.11858773528E+03  0.81387548566E+01  0.60239249024E+03  0.61930508302E+03  0.80825634983E+02 0.  0.
        -11    1    4    4    0    0 -0.78218999401E+02  0.67602445524E+01  0.19949481533E+03  0.21438771914E+03  0.00000000000E+00 0.  1.
         12    1    4    4    0    0 -0.40368735880E+02  0.13785103042E+01  0.40289767491E+03  0.40491736388E+03  0.00000000000E+00 0. -1.
        -13    1    3    3    0    0  0.17537960831E+02  0.34563282035E+02  0.38742008545E+02  0.54800946719E+02  0.00000000000E+00 0.  1.
         13    1    3    3    0    0  0.83783302232E+02  0.28799751407E+01 -0.13330337033E+02  0.84886005179E+02  0.00000000000E+00 0. -1.
         21    1    1    2  502  501  0.17266472217E+02 -0.45582012033E+02  0.32658611595E+03  0.33020348577E+03  0.00000000000E+00 0. -1.
<scales pt_clust_5="13000.00000" pt_clust_6="13000.00000" pt_clust_7="13000.00000" pt_clust_8="13000.00000" pt_clust_9="48.74270"></scales>
<clustering>
<clus scale="   48.743">  1  9  2 -1</clus>
<clus scale="   80.826">  5  6 -1 -1</clus>
<clus scale="   84.845">  7  8 -1 -1</clus>
<clus scale="  135.073">  1  5  2 -1</clus>
<clus scale="   48.743">  1  5  2 -1</clus>
</clustering>
</event>
<event>
 9    2  0.3791909E-005  0.8774254E+02  0.7546771E-02  0.1309739E+00
          2   -1    0    0  502    0  0.00000000000E+00  0.00000000000E+00  0.74289553721E+02  0.74289553721E+02  0.00000000000E+00 0. -1.
         -1   -1    0    0    0  501 -0.00000000000E+00 -0.00000000000E+00 -0.42632710238E+03  0.42632710238E+03  0.00000000000E+00 0.  1.
         24    2    1    2    0    0  0.57410587270E+01  0.17704376535E+02 -0.34892596579E+03  0.35935484735E+03  0.83905732864E+02 0.  0.
         23    2    1    2    0    0  0.28645027653E+02 -0.80222651649E+01  0.26550693964E+02  0.94829095239E+02  0.86039081854E+02 0.  0.
        -13    1    3    3    0    0 -0.26532063498E+02  0.38541512212E+02 -0.16792189921E+03  0.17431914063E+03  0.00000000000E+00 0.  1.
         14    1    3    3    0    0  0.32273122225E+02 -0.20837135677E+02 -0.18100406658E+03  0.18503570672E+03  0.00000000000E+00 0. -1.
        -13    1    4    4    0    0 -0.22635693526E+02  0.93186865896E+01  0.32148403996E+02  0.40407083793E+02  0.00000000000E+00 0.  1.
         13    1    4    4    0    0  0.51280721178E+02 -0.17340951755E+02 -0.55977100317E+01  0.54422011447E+02  0.00000000000E+00 0. -1.
         21    1    1    2  502  501 -0.34386086380E+02 -0.96821113702E+01 -0.29662276832E+02  0.46432713510E+02  0.00000000000E+00 0.  1.
<scales pt_clust_5="13000.00000" pt_clust_6="13000.00000" pt_clust_7="13000.00000" pt_clust_8="13000.00000" pt_clust_9="35.72319"></scales>
<clustering>
<clus scale="   35.723">  1  9  2 -1</clus>
<clus scale="   83.906">  5  6 -1 -1</clus>
<clus scale="   85.652">  2  5  1 -1</clus>
<clus scale="   86.039">  7  8 -1 -1</clus>
<clus scale="   35.723">  1  5  2 -1</clus>
</clustering>
</event>
<event>
 9    2  0.3791909E-005  0.1351800E+03  0.7546771E-02  0.1222031E+00
          2   -1    0    0  502    0  0.00000000000E+00  0.00000000000E+00  0.17313253239E+03  0.17313253239E+03  0.00000000000E+00 0. -1.
         -1   -1    0    0    0  501 -0.00000000000E+00 -0.00000000000E+00 -0.44256227411E+03  0.44256227411E+03  0.00000000000E+00 0.  1.
         23    2    1    2    0    0  0.46310778190E+02 -0.75107061480E+02 -0.18065488266E+03  0.22071983412E+03  0.91078535821E+02 0.  0.
         24    2    1    2    0    0 -0.27810136762E+02  0.11094801185E+03 -0.21800690275E+03  0.25959488310E+03  0.82338500402E+02 0.  0.
        -13    1    4    4    0    0 -0.14561575151E+02  0.30544264793E+02 -0.14905974549E+03  0.15285221394E+03  0.00000000000E+00 0.  1.
         14    1    4    4    0    0 -0.13248561611E+02  0.80403747057E+02 -0.68947157261E+02  0.10674266916E+03  0.00000000000E+00 0. -1.
        -13    1    3    3    0    0  0.16239548362E+02 -0.55936192195E+02 -0.17521805503E+03  0.18464546390E+03  0.00000000000E+00 0.  1.
         13    1    3    3    0    0  0.30071229828E+02 -0.19170869285E+02 -0.54368276215E+01  0.36074370225E+02  0.00000000000E+00 0. -1.
         21    1    1    2  502  501 -0.18500641428E+02 -0.35840950370E+02  0.12923204368E+03  0.13538008927E+03  0.00000000000E+00 0. -1.
<scales pt_clust_5="13000.00000" pt_clust_6="13000.00000" pt_clust_7="13000.00000" pt_clust_8="13000.00000" pt_clust_9="40.33420"></scales>
<clustering>
<clus scale="   40.334">  1  9  2 -1</clus>
<clus scale="   82.339">  5  6 -1 -1</clus>
<clus scale="   91.079">  7  8 -1 -1</clus>
<clus scale="  129.453">  1  5  2 -1</clus>
<clus scale="   40.334">  1  5  2 -1</clus>
</clustering>
</event>
<event>
 9    2  0.3791909E-005  0.9940960E+02  0.7546771E-02  0.1283476E+00
          2   -1    0    0  502    0  0.00000000000E+00  0.00000000000E+00  0.22519253409E+03  0.22519253409E+03  0.00000000000E+00 0. -1.
         -1   -1    0    0    0  501 -0.00000000000E+00 -0.00000000000E+00 -0.11165231116E+03  0.11165231116E+03  0.00000000000E+00 0.  1.
         24    2    1    2    0    0  0.26352788268E+02  0.27165446313E+02 -0.47557270516E+02  0.10660791039E+03  0.87584939660E+02 0.  0.
         23    2    1    2    0    0 -0.39129522694E+02  0.20103551428E+02  0.14814451390E+03  0.17958732708E+03  0.91485183063E+02 0.  0.
        -13    1    3    3    0    0  0.23811709188E+02  0.37667700181E+02 -0.69263644900E+02  0.82360825859E+02  0.00000000000E+00 0.  1.
         14    1    3    3    0    0  0.25410790798E+01 -0.10502253869E+02  0.21706374384E+02  0.24247084528E+02  0.00000000000E+00 0. -1.
        -13    1    4    4    0    0 -0.22637196834E+02  0.44627245721E+02  0.31208607140E+02  0.58974663210E+02  0.00000000000E+00 0. -1.
         13    1    4    4    0    0 -0.16492325860E+02 -0.24523694293E+02  0.11693590676E+03  0.12061266387E+03  0.00000000000E+00 0.  1.
         21    1    1    2  502  501  0.12776734426E+02 -0.47268997740E+02  0.12952979541E+02  0.50649607787E+02  0.00000000000E+00 0. -1.
<scales pt_clust_5="13000.00000" pt_clust_6="13000.00000" pt_clust_7="13000.00000" pt_clust_8="13000.00000" pt_clust_9="48.96533"></scales>
<clustering>
<clus scale="   48.965">  2  9  1 -1</clus>
<clus scale="   87.585">  5  6 -1 -1</clus>
<clus scale="   91.485">  7  8 -1 -1</clus>
<clus scale="   95.832">  2  5  1 -1</clus>
<clus scale="   99.410">  1  5  2 -1</clus>
</clustering>
</event>
<event>
 9    2  0.3791909E-005  0.9436657E+02  0.7546771E-02  0.1298849E+00
         -3   -1    0    0    0  501 -0.00000000000E+00  0.00000000000E+00  0.63269665998E+03  0.63269665998E+03  0.00000000000E+00 0.  1.
          4   -1    0    0  502    0  0.00000000000E+00 -0.00000000000E+00 -0.38076673022E+02  0.38076673022E+02  0.00000000000E+00 0. -1.
         24    2    1    2    0    0 -0.64610913265E+01  0.14191937454E+02  0.52467220302E+03  0.53130608637E+03  0.82231867342E+02 0.  0.
         23    2    1    2    0    0  0.15316814482E+01 -0.34997538827E+02  0.55039685649E+02  0.11340149276E+03  0.92754287188E+02 0.  0.
        -13    1    3    3    0    0 -0.32942926823E+02  0.25346481761E+02  0.15365241906E+03  0.15917520677E+03  0.00000000000E+00 0.  1.
         14    1    3    3    0    0  0.26481835496E+02 -0.11154544308E+02  0.37101978395E+03  0.37213087960E+03  0.00000000000E+00 0. -1.
        -13    1    4    4    0    0 -0.23974637163E+02 -0.14543261944E+01  0.65684755848E+02  0.69938440378E+02  0.00000000000E+00 0.  1.
         13    1    4    4    0    0  0.25506318611E+02 -0.33543212632E+02 -0.10645070199E+02  0.43463052381E+02  0.00000000000E+00 0. -1.
         21    1    1    2  502  501  0.49294098782E+01  0.20805601373E+02  0.14908098295E+02  0.26065753874E+02  0.00000000000E+00 0.  1.
<scales pt_clust_5="13000.00000" pt_clust_6="13000.00000" pt_clust_7="13000.00000" pt_clust_8="13000.00000" pt_clust_9="21.38158"></scales>
<clustering>
<clus scale="   21.382">  2  9  1 -1</clus>
<clus scale="   82.232">  5  6 -1 -1</clus>
<clus scale="   84.046">  1  5  2 -1</clus>
<clus scale="   92.754">  7  8 -1 -1</clus>
<clus scale="   21.382">  2  5  1 -1</clus>
</clustering>
</event>
<event>
 9    2  0.3791909E-005  0.1058338E+03  0.7546771E-02  0.1272440E+00
         -1   -1    0    0    0  501 -0.00000000000E+00  0.00000000000E+00  0.29849760179E+03  0.29849760179E+03  0.00000000000E+00 0.  1.
          2   -1    0    0  502    0  0.00000000000E+00 -0.00000000000E+00 -0.16551432995E+03  0.16551432995E+03  0.00000000000E+00 0. -1.
         23    2    1    2    0    0  0.45168025512E+02  0.23849699527E+02  0.22193791054E+03  0.24481166264E+03  0.89818457649E+02 0.  0.
         24    2    1    2    0    0 -0.65391903345E+02 -0.40820578929E+02  0.14532992355E+02  0.11239808857E+03  0.80496594717E+02 0.  0.
        -11    1    4    4    0    0  0.15673466424E+02 -0.20421205633E+02 -0.57564116983E+01  0.26378390112E+02  0.00000000000E+00 0.  1.
         12    1    4    4    0    0 -0.81065369769E+02 -0.20399373295E+02  0.20289404053E+02  0.86019698462E+02  0.00000000000E+00 0. -1.
        -13    1    3    3    0    0  0.41104606130E+02  0.56640067323E+02  0.15925589034E+03  0.17395437471E+03  0.00000000000E+00 0.  1.
         13    1    3    3    0    0  0.40634193816E+01 -0.32790367796E+02  0.62682020196E+02  0.70857287932E+02  0.00000000000E+00 0. -1.
         21    1    1    2  502  501  0.20223877833E+02  0.16970879402E+02 -0.10348763105E+03  0.10680218052E+03  0.00000000000E+00 0.  1.
<scales pt_clust_5="13000.00000" pt_clust_6="13000.00000" pt_clust_7="13000.00000" pt_clust_8="13000.00000" pt_clust_9="26.40106"></scales>
<clustering>
<clus scale="   26.401">  2  9  1 -1</clus>
<clus scale="   80.497">  5  6 -1 -1</clus>
<clus scale="   89.818">  7  8 -1 -1</clus>
<clus scale="   98.047">  2  5  1 -1</clus>
<clus scale="   26.401">  2  5  1 -1</clus>
</clustering>
</event>
<event>
 9    2  0.4841386E-005  0.1324351E+03  0.7546771E-02  0.1231461E+00
         -1   -1    0    0    0  501 -0.00000000000E+00  0.00000000000E+00  0.80887347054E+03  0.80887347054E+03  0.00000000000E+00 0.  1.
          2   -1    0    0  502    0  0.00000000000E+00 -0.00000000000E+00 -0.24903969483E+03  0.24903969483E+03  0.00000000000E+00 0. -1.
         24    2    1    2    0    0 -0.14900463552E+03  0.48611345455E+02  0.64747471195E+03  0.67087083587E+03  0.79238447112E+02 0.  0.
         23    2    1    2    0    0  0.40775171903E+02 -0.15467366021E+02 -0.19232931923E+03  0.23286127457E+03  0.12382226013E+03 0.  0.
        -13    1    3    3    0    0 -0.13778813041E+03  0.49565354076E+02  0.45318140991E+03  0.47625170182E+03  0.00000000000E+00 0.  1.
         14    1    3    3    0    0 -0.11216505105E+02 -0.95400862067E+00  0.19429330204E+03  0.19461913405E+03  0.00000000000E+00 0. -1.
        -11    1    4    4    0    0  0.75662722241E+02 -0.42674190452E+02 -0.13292300788E+03  0.15879061714E+03  0.00000000000E+00 0. -1.
         11    1    4    4    0    0 -0.34887550338E+02  0.27206824431E+02 -0.59406311351E+02  0.74070657433E+02  0.00000000000E+00 0.  1.
         21    1    1    2  502  501  0.10822946361E+03 -0.33143979434E+02  0.10468838299E+03  0.15418105493E+03  0.00000000000E+00 0. -1.
<scales pt_clust_5="13000.00000" pt_clust_6="13000.00000" pt_clust_7="13000.00000" pt_clust_8="13000.00000" pt_clust_9="113.19072"></scales>
<clustering>
<clus scale="   79.238">  5  6 -1 -1</clus>
<clus scale="  113.191">  1  9  2 -1</clus>
<clus scale="  113.191">  1  5  2 -1</clus>
<clus scale="  123.822">  7  8 -1 -1</clus>
<clus scale="  132.435">  2  5  1 -1</clus>
</clustering>
</event>
<event>
 9    2  0.3791909E-005  0.1198965E+03  0.7546771E-02  0.1244644E+00
         -1   -1    0    0    0  501 -0.00000000000E+00  0.00000000000E+00  0.34544035336E+02  0.34544035336E+02  0.00000000000E+00 0.  1.
          2   -1    0    0  502    0  0.00000000000E+00 -0.00000000000E+00 -0.60122846130E+03  0.60122846130E+03  0.00000000000E+00 0. -1.
         24    2    1    2    0    0  0.68218757613E+02 -0.35736059376E+02 -0.14144756464E+03  0.18311642853E+03  0.87139818825E+02 0.  0.
         23    2    1    2    0    0 -0.82460261517E+02  0.74816216733E+01 -0.34530275879E+03  0.36668750158E+03  0.91488027589E+02 0.  0.
        -13    1    3    3    0    0  0.40023001867E+02 -0.59391025007E+02 -0.12205593790E+03  0.14151602915E+03  0.00000000000E+00 0.  1.
         14    1    3    3    0    0  0.28195755745E+02  0.23654965631E+02 -0.19391626745E+02  0.41600399384E+02  0.00000000000E+00 0. -1.
        -11    1    4    4    0    0 -0.15746704679E+02 -0.37791246728E+02 -0.88181787228E+02  0.97222243526E+02  0.00000000000E+00 0.  1.
         11    1    4    4    0    0 -0.66713556838E+02  0.45272868401E+02 -0.25712097156E+03  0.26946525805E+03  0.00000000000E+00 0. -1.
         21    1    1    2  502  501  0.14241503905E+02  0.28254437703E+02 -0.79934102525E+02  0.85968566522E+02  0.00000000000E+00 0. -1.
<scales pt_clust_5="13000.00000" pt_clust_6="13000.00000" pt_clust_7="13000.00000" pt_clust_8="13000.00000" pt_clust_9="31.64070"></scales>
<clustering>
<clus scale="   31.641">  2  9  1 -1</clus>
<clus scale="   87.140">  5  6 -1 -1</clus>
<clus scale="   91.488">  7  8 -1 -1</clus>
<clus scale="  116.612">  1  5  2 -1</clus>
<clus scale="   31.641">  2  5  1 -1</clus>
</clustering>
</event>
<event>
 9    2  0.3791909E-005  0.8307387E+02  0.7546771E-02  0.1329702E+00
          2   -1    0    0  502    0  0.00000000000E+00  0.00000000000E+00  0.58448396813E+03  0.58448396813E+03  0.00000000000E+00 0. -1.
         -1   -1    0    0    0  501 -0.00000000000E+00 -0.00000000000E+00 -0.59958706805E+02  0.59958706805E+02  0.00000000000E+00 0.  1.
         24    2    1    2    0    0 -0.29784897064E+02 -0.79287990577E-01 -0.36930146938E+01  0.80877697782E+02  0.75102711411E+02 0.  0.
         23    2    1    2    0    0  0.49916373116E+02 -0.60256929732E+02  0.14886804632E+03  0.17891925409E+03  0.61056223136E+02 0.  0.
        -11    1    3    3    0    0 -0.42790730913E+02  0.22765732740E+02  0.12431492218E+02  0.50038657436E+02  0.00000000000E+00 0.  1.
         12    1    3    3    0    0  0.13005833849E+02 -0.22845020731E+02 -0.16124506911E+02  0.30839040346E+02  0.00000000000E+00 0. -1.
        -11    1    4    4    0    0  0.21121959114E+02  0.60813345113E+01  0.14517490431E+02  0.26341551106E+02  0.00000000000E+00 0. -1.
         11    1    4    4    0    0  0.28794414002E+02 -0.66338264244E+02  0.13435055589E+03  0.15257770299E+03  0.00000000000E+00 0.  1.
         21    1    1    2  502  501 -0.20131476052E+02  0.60336217723E+02  0.37935022970E+03  0.38464572306E+03  0.00000000000E+00 0. -1.
<scales pt_clust_5="13000.00000" pt_clust_6="13000.00000" pt_clust_7="13000.00000" pt_clust_8="13000.00000" pt_clust_9="63.60610"></scales>
<clustering>
<clus scale="   61.056">  7  8 -1 -1</clus>
<clus scale="   63.606">  1  9  2 -1</clus>
<clus scale="   70.631">  1  7  2 -1</clus>
<clus scale="   75.103">  5  6 -1 -1</clus>
<clus scale="   63.606">  1  5  2 -1</clus>
</clustering>
</event>
<event>
 9    2  0.3791909E-005  0.1664566E+03  0.7546771E-02  0.1201894E+00
         -1   -1    0    0    0  501 -0.00000000000E+00  0.00000000000E+00  0.37139873151E+03  0.37139873151E+03  0.00000000000E+00 0.  1.
          2   -1    0    0  502    0  0.00000000000E+00 -0.00000000000E+00 -0.16642758459E+03  0.16642758459E+03  0.00000000000E+00 0. -1.
         24    2    1    2    0    0  0.42573661474E+02  0.56399020708E+02  0.12256451237E+03  0.16232901050E+03  0.79594483296E+02 0.  0.
         23    2    1    2    0    0 -0.71641287289E+02 -0.17972835561E+03  0.11831100095E+03  0.24380001920E+03  0.89477374571E+02 0.  0.
        -13    1    3    3    0    0  0.60112416467E+02  0.31095777993E+02  0.10983818959E+03  0.12901502981E+03  0.00000000000E+00 0.  1.
         14    1    3    3    0    0 -0.17538754993E+02  0.25303242715E+02  0.12726322772E+02  0.33313980697E+02  0.00000000000E+00 0. -1.
        -13    1    4    4    0    0 -0.49842495574E+02 -0.18235869210E+03  0.94293909397E+02  0.21125886561E+03  0.00000000000E+00 0.  1.
         13    1    4    4    0    0 -0.21798791715E+02  0.26303364860E+01  0.24017091556E+02  0.32541153591E+02  0.00000000000E+00 0. -1.
         21    1    1    2  502  501  0.29067625816E+02  0.12332933491E+03 -0.35904366403E+02  0.13169728640E+03  0.00000000000E+00 0. -1.
<scales pt_clust_5="13000.00000" pt_clust_6="13000.00000" pt_clust_7="13000.00000" pt_clust_8="13000.00000" pt_clust_9="140.36233"></scales>
<clustering>
<clus scale="   79.594">  5  6 -1 -1</clus>
<clus scale="   89.477">  7  8 -1 -1</clus>
<clus scale="  106.436">  1  5  2 -1</clus>
<clus scale="  140.362">  2  9  1 -1</clus>
<clus scale="  140.362">  2  5  1 -1</clus>
</clustering>
</event>
<event>
 9    2  0.3791909E-005  0.1376895E+03  0.7546771E-02  0.1218284E+00
          2   -1    0    0  502    0  0.00000000000E+00  0.00000000000E+00  0.40176069741E+03  0.40176069741E+03  0.00000000000E+00 0. -1.
         -1   -1    0    0    0  501 -0.00000000000E+00 -0.00000000000E+00 -0.64990477534E+03  0.64990477534E+03  0.00000000000E+00 0.  1.
         24    2    1    2    0    0 -0.86295972866E+02 -0.61913341150E+02 -0.61323551325E+03  0.62750556413E+03  0.80157230215E+02 0.  0.
         23    2    1    2    0    0  0.10690598158E+03 -0.18167122870E+01  0.17965673657E+03  0.22699926430E+03  0.88430388768E+02 0.  0.
        -11    1    3    3    0    0 -0.65364340575E+02 -0.73538150232E+02 -0.56663971337E+03  0.57511818031E+03  0.00000000000E+00 0.  1.
         12    1    3    3    0    0 -0.20931632291E+02  0.11624809082E+02 -0.46595799877E+02  0.52387383812E+02  0.00000000000E+00 0. -1.
        -11    1    4    4    0    0  0.10919837187E+03 -0.25146642309E+02  0.16465402646E+03  0.19916723242E+03  0.00000000000E+00 0. -1.
         11    1    4    4    0    0 -0.22923902957E+01  0.23329930022E+02  0.15002710106E+02  0.27832031881E+02  0.00000000000E+00 0.  1.
         21    1    1    2  502  501 -0.20610008711E+02  0.63730053437E+02  0.18543469876E+03  0.19716064433E+03  0.00000000000E+00 0. -1.
<scales pt_clust_5="13000.00000" pt_clust_6="13000.00000" pt_clust_7="13000.00000" pt_clust_8="13000.00000" pt_clust_9="66.97979"></scales>
<clustering>
<clus scale="   66.980">  1  9  2 -1</clus>
<clus scale="   80.157">  5  6 -1 -1</clus>
<clus scale="   88.430">  7  8 -1 -1</clus>
<clus scale="  132.528">  2  5  1 -1</clus>
<clus scale="   66.980">  1  5  2 -1</clus>
</clustering>
</event>
<event>
 9    2  0.3791909E-005  0.1254449E+03  0.7546771E-02  0.1238969E+00
          2   -1    0    0  502    0  0.00000000000E+00  0.00000000000E+00  0.70723447634E+03  0.70723447634E+03  0.00000000000E+00 0. -1.
         -1   -1    0    0    0  501 -0.00000000000E+00 -0.00000000000E+00 -0.27022655943E+02  0.27022655943E+02  0.00000000000E+00 0.  1.
         24    2    1    2    0    0  0.14972726468E+02  0.84047678943E+02  0.24465546197E+03  0.27067482471E+03  0.78232798659E+02 0.  0.
         23    2    1    2    0    0 -0.39396567892E+02 -0.73507588614E+02  0.39953651015E+03  0.41880455636E+03  0.93874268780E+02 0.  0.
        -11    1    3    3    0    0  0.33860151643E+02  0.53155811317E+02  0.78750897306E+02  0.10086502849E+03  0.00000000000E+00 0.  1.
         12    1    3    3    0    0 -0.18887425175E+02  0.30891867626E+02  0.16590456467E+03  0.16980979622E+03  0.00000000000E+00 0. -1.
        -11    1    4    4    0    0 -0.42971428178E+02 -0.17122226340E+02  0.66477655876E+02  0.80987610196E+02  0.00000000000E+00 0.  1.
         11    1    4    4    0    0  0.35748602865E+01 -0.56385362274E+02  0.33305885427E+03  0.33781694616E+03  0.00000000000E+00 0. -1.
         21    1    1    2  502  501  0.24423841423E+02 -0.10540090329E+02  0.36019848279E+02  0.44777751217E+02  0.00000000000E+00 0.  1.
<scales pt_clust_5="13000.00000" pt_clust_6="13000.00000" pt_clust_7="13000.00000" pt_clust_8="13000.00000" pt_clust_9="26.60108"></scales>
<clustering>
<clus scale="   26.601">  2  9  1 -1</clus>
<clus scale="   78.233">  5  6 -1 -1</clus>
<clus scale="   93.874">  7  8 -1 -1</clus>
<clus scale="  114.212">  2  5  1 -1</clus>
<clus scale="  125.445">  1  5  2 -1</clus>
</clustering>
</event>
<event>
 9    2  0.4942631E-005  0.1262692E+03  0.7546771E-02  0.1236135E+00
          2   -1    0    0  502    0  0.00000000000E+00  0.00000000000E+00  0.21135902856E+03  0.21135902856E+03  0.00000000000E+00 0. -1.
         -1   -1    0    0    0  501 -0.00000000000E+00 -0.00000000000E+00 -0.49253697872E+03  0.49253697872E+03  0.00000000000E+00 0.  1.
         23    2    1    2    0    0 -0.65839097104E+02  0.60749768416E+02 -0.45346761941E+03  0.47106253640E+03  0.90783865735E+02 0.  0.
         24    2    1    2    0    0  0.26183319818E+02 -0.46905820619E+02  0.16380027020E+03  0.18998133606E+03  0.79853974790E+02 0.  0.
        -11    1    4    4    0    0 -0.53581705106E+01  0.20363130883E+02  0.47738896529E+02  0.52176329234E+02  0.00000000000E+00 0.  1.
         12    1    4    4    0    0  0.31541490329E+02 -0.67268951502E+02  0.11606137367E+03  0.13780500682E+03  0.00000000000E+00 0. -1.
        -11    1    3    3    0    0 -0.72614210524E+02  0.36947174837E+02 -0.42748598135E+03  0.43518063094E+03  0.00000000000E+00 0.  1.
         11    1    3    3    0    0  0.67751134201E+01  0.23802593579E+02 -0.25981638059E+02  0.35881905456E+02  0.00000000000E+00 0. -1.
         21    1    1    2  502  501  0.39655777285E+02 -0.13843947796E+02  0.84893990559E+01  0.42852134824E+02  0.00000000000E+00 0. -1.
<scales pt_clust_5="13000.00000" pt_clust_6="13000.00000" pt_clust_7="13000.00000" pt_clust_8="13000.00000" pt_clust_9="42.00280"></scales>
<clustering>
<clus scale="   42.003">  1  9  2 -1</clus>
<clus scale="   79.854">  5  6 -1 -1</clus>
<clus scale="   90.784">  7  8 -1 -1</clus>
<clus scale="  118.654">  1  5  2 -1</clus>
<clus scale="   42.003">  1  5  2 -1</clus>
</clustering>
</event>
<event>
 9    2  0.3791909E-005  0.2406672E+03  0.7546771E-02  0.1120144E+00
         -3   -1    0    0    0  501 -0.00000000000E+00  0.00000000000E+00  0.23485475989E+03  0.23485475989E+03  0.00000000000E+00 0.  1.
          4   -1    0    0  502    0  0.00000000000E+00 -0.00000000000E+00 -0.60792486846E+03  0.60792486846E+03  0.00000000000E+00 0. -1.
         24    2    1    2    0    0  0.13174759714E+03 -0.20223678265E+03  0.76566883209E+02  0.26475530257E+03  0.77302891448E+02 0.  0.
         23    2    1    2    0    0  0.73270421159E+00  0.19884210880E+03 -0.20431303644E+03  0.29919391653E+03  0.90743934988E+02 0.  0.
        -11    1    3    3    0    0  0.13678986928E+03 -0.20104761265E+03  0.64432721143E+02  0.25156149635E+03  0.00000000000E+00 0.  1.
         12    1    3    3    0    0 -0.50422721398E+01 -0.11891699986E+01  0.12134162066E+02  0.13193806224E+02  0.00000000000E+00 0. -1.
        -13    1    4    4    0    0  0.44812094105E+02  0.11243581679E+03 -0.12374736630E+03  0.17309924131E+03  0.00000000000E+00 0.  1.
         13    1    4    4    0    0 -0.44079389893E+02  0.86406292014E+02 -0.80565670144E+02  0.12609467522E+03  0.00000000000E+00 0. -1.
         21    1    1    2  502  501 -0.13248030136E+03  0.33946738503E+01 -0.24532395534E+03  0.27883040925E+03  0.00000000000E+00 0. -1.
<scales pt_clust_5="13000.00000" pt_clust_6="13000.00000" pt_clust_7="13000.00000" pt_clust_8="13000.00000" pt_clust_9="132.52379"></scales>
<clustering>
<clus scale="   77.303">  5  6 -1 -1</clus>
<clus scale="   90.744">  7  8 -1 -1</clus>
<clus scale="  132.524">  2  9  1 -1</clus>
<clus scale="  235.928">  1  5  2 -1</clus>
<clus scale="  132.524">  2  5  1 -1</clus>
</clustering>
</event>
<event>
 9    2  0.3791909E-005  0.1512220E+03  0.7546771E-02  0.1199459E+00
          2   -1    0    0  502    0  0.00000000000E+00  0.00000000000E+00  0.15816368059E+03  0.15816368059E+03  0.00000000000E+00 0. -1.
         -1   -1    0    0    0  501 -0.00000000000E+00 -0.00000000000E+00 -0.32871409041E+03  0.32871409041E+03  0.00000000000E+00 0.  1.
         24    2    1    2    0    0  0.14465241734E+03 -0.52904910848E+02 -0.20470323967E+03  0.26840985948E+03  0.80107333610E+02 0.  0.
         23    2    1    2    0    0 -0.85474662690E+02  0.14138727850E+02 -0.29222658824E+02  0.12348751272E+03  0.83002291673E+02 0.  0.
        -11    1    3    3    0    0  0.88295083775E+02 -0.68043553227E+02 -0.15951172421E+03  0.19460199669E+03  0.00000000000E+00 0.  1.
         12    1    3    3    0    0  0.56357333568E+02  0.15138642379E+02 -0.45191515463E+02  0.73807862791E+02  0.00000000000E+00 0. -1.
        -11    1    4    4    0    0 -0.87900692680E+02 -0.14002819107E+02 -0.10560607666E+02  0.89633348430E+02  0.00000000000E+00 0. -1.
         11    1    4    4    0    0  0.24260299897E+01  0.28141546957E+02 -0.18662051157E+02  0.33854164294E+02  0.00000000000E+00 0.  1.
         21    1    1    2  502  501 -0.59177754652E+02  0.38766182998E+02  0.63375488675E+02  0.94980398792E+02  0.00000000000E+00 0. -1.
<scales pt_clust_5="13000.00000" pt_clust_6="13000.00000" pt_clust_7="13000.00000" pt_clust_8="13000.00000" pt_clust_9="70.74478"></scales>
<clustering>
<clus scale="   70.745">  1  9  2 -1</clus>
<clus scale="   80.107">  5  6 -1 -1</clus>
<clus scale="   83.002">  7  8 -1 -1</clus>
<clus scale="  149.653">  2  5  1 -1</clus>
<clus scale="   70.745">  1  5  2 -1</clus>
</clustering>
</event>
<event>
 9    2  0.3791909E-005  0.2173326E+03  0.7546771E-02  0.1170332E+00
          2   -1    0    0  502    0  0.00000000000E+00  0.00000000000E+00  0.12977585041E+04  0.12977585041E+04  0.00000000000E+00 0. -1.
         -1   -1    0    0    0  501 -0.00000000000E+00 -0.00000000000E+00 -0.18074662585E+03  0.18074662585E+03  0.00000000000E+00 0.  1.
         23    2    1    2    0    0 -0.24532942432E+01 -0.99627631433E+00 -0.11003217850E+03  0.14635649160E+03  0.96468290691E+02 0.  0.
         24    2    1    2    0    0 -0.18550797080E+03 -0.66198125539E+02  0.22909285376E+03  0.31443004838E+03  0.87105227327E+02 0.  0.
        -13    1    4    4    0    0 -0.14565418637E+03 -0.59306990429E+02  0.11921277188E+03  0.19734271231E+03  0.00000000000E+00 0.  1.
         14    1    4    4    0    0 -0.39853784430E+02 -0.68911351103E+01  0.10988008188E+03  0.11708733608E+03  0.00000000000E+00 0. -1.
        -11    1    3    3    0    0  0.22549467311E+02  0.39078513451E+02 -0.32632078793E+02  0.55681785675E+02  0.00000000000E+00 0. -1.
         11    1    3    3    0    0 -0.25002761554E+02 -0.40074789765E+02 -0.77400099708E+02  0.90674705927E+02  0.00000000000E+00 0.  1.
         21    1    1    2  502  501  0.18796126504E+03  0.67194401853E+02  0.99795120304E+03  0.10177185900E+04  0.00000000000E+00 0. -1.
<scales pt_clust_5="13000.00000" pt_clust_6="13000.00000" pt_clust_7="13000.00000" pt_clust_8="13000.00000" pt_clust_9="199.11339"></scales>
<clustering>
<clus scale="   87.105">  5  6 -1 -1</clus>
<clus scale="   96.468">  7  8 -1 -1</clus>
<clus scale="   96.505">  2  7  1 -1</clus>
<clus scale="  199.113">  1  9  2 -1</clus>
<clus scale="  199.113">  1  5  2 -1</clus>
</clustering>
</event>
<event>
 9    2  0.3791909E-005  0.1218225E+03  0.7546771E-02  0.1241223E+00
          2   -1    0    0  502    0  0.00000000000E+00  0.00000000000E+00  0.10392318727E+04  0.10392318727E+04  0.00000000000E+00 0. -1.
         -1   -1    0    0    0  501 -0.00000000000E+00 -0.00000000000E+00 -0.29385515462E+02  0.29385515462E+02  0.00000000000E+00 0.  1.
         23    2    1    2    0    0 -0.75931051131E+02  0.34029156545E+02  0.15370406696E+03  0.19740107665E+03  0.91753674801E+02 0.  0.
         24    2    1    2    0    0  0.74737109772E+02 -0.80178188979E+01  0.80216308657E+03  0.81128493730E+03  0.95224529627E+02 0.  0.
        -13    1    4    4    0    0  0.13259087035E+02 -0.36052466151E+02  0.12525686707E+03  0.13101475662E+03  0.00000000000E+00 0.  1.
         14    1    4    4    0    0  0.61478022737E+02  0.28034647253E+02  0.67690621950E+03  0.68027018068E+03  0.00000000000E+00 0. -1.
        -13    1    3    3    0    0  0.19831951123E+02 -0.28298259348E+01  0.36417095623E+02  0.41563434095E+02  0.00000000000E+00 0. -1.
         13    1    3    3    0    0 -0.95763002254E+02  0.36858982479E+02  0.11728697134E+03  0.15583764255E+03  0.00000000000E+00 0.  1.
         21    1    1    2  502  501  0.11939413582E+01 -0.26011337647E+02  0.53979203695E+02  0.59931374202E+02  0.00000000000E+00 0.  1.
<scales pt_clust_5="13000.00000" pt_clust_6="13000.00000" pt_clust_7="13000.00000" pt_clust_8="13000.00000" pt_clust_9="26.03872"></scales>
<clustering>
<clus scale="   26.039">  2  9  1 -1</clus>
<clus scale="   91.754">  7  8 -1 -1</clus>
<clus scale="   95.225">  5  6 -1 -1</clus>
<clus scale="  119.129">  2  7  1 -1</clus>
<clus scale="  121.822">  1  5  2 -1</clus>
</clustering>
</event>
<event>
 9    2  0.3791909E-005  0.1858404E+03  0.7546771E-02  0.1185230E+00
          2   -1    0    0  502    0  0.00000000000E+00  0.00000000000E+00  0.54896482703E+03  0.54896482703E+03  0.00000000000E+00 0. -1.
         -1   -1    0    0    0  501 -0.00000000000E+00 -0.00000000000E+00 -0.27407388055E+03  0.27407388055E+03  0.00000000000E+00 0.  1.
         24    2    1    2    0    0 -0.16181641570E+03 -0.65558908753E+02 -0.17729656993E+03  0.26104720711E+03  0.78924316406E+02 0.  0.
         23    2    1    2    0    0  0.59158547710E+01  0.60242841398E+02  0.36915971892E+03  0.38528026532E+03  0.92183444788E+02 0.  0.
        -11    1    3    3    0    0 -0.13084130829E+03 -0.81798620915E+02 -0.15904085848E+03  0.22159525492E+03  0.00000000000E+00 0.  1.
         12    1    3    3    0    0 -0.30975107416E+02  0.16239712162E+02 -0.18255711454E+02  0.39451952185E+02  0.00000000000E+00 0. -1.
        -13    1    4    4    0    0  0.33695544285E+02  0.45748743795E+02  0.33129623263E+03  0.33613320428E+03  0.00000000000E+00 0.  1.
         13    1    4    4    0    0 -0.27779689514E+02  0.14494097603E+02  0.37863486290E+02  0.49147061040E+02  0.00000000000E+00 0. -1.
         21    1    1    2  502  501  0.15590056093E+03  0.53160673549E+01  0.83027797490E+02  0.17671123515E+03  0.00000000000E+00 0.  1.
<scales pt_clust_5="13000.00000" pt_clust_6="13000.00000" pt_clust_7="13000.00000" pt_clust_8="13000.00000" pt_clust_9="168.24865"></scales>
<clustering>
<clus scale="   78.924">  5  6 -1 -1</clus>
<clus scale="   92.183">  7  8 -1 -1</clus>
<clus scale="  110.281">  1  7  2 -1</clus>
<clus scale="  168.249">  1  9  2 -1</clus>
<clus scale="  110.281">  1  5  2 -1</clus>
</clustering>
</event>
<event>
 9    2  0.3791909E-005  0.1521338E+03  0.7546771E-02  0.1199825E+00
          2   -1    0    0  502    0  0.00000000000E+00  0.00000000000E+00  0.35710655533E+03  0.35710655533E+03  0.00000000000E+00 0. -1.
         -1   -1    0    0    0  501 -0.00000000000E+00 -0.00000000000E+00 -0.20660123040E+03  0.20660123040E+03  0.00000000000E+00 0.  1.
         23    2    1    2    0    0  0.56867911616E+02 -0.11341418493E+03 -0.12703265809E+03  0.20134246807E+03  0.91130436806E+02 0.  0.
         24    2    1    2    0    0 -0.11048326610E+03  0.50004174267E+02  0.14067764534E+03  0.20228350196E+03  0.80133923740E+02 0.  0.
        -13    1    4    4    0    0 -0.82546383444E+02  0.29601836319E+02  0.41060110890E+02  0.96830299181E+02  0.00000000000E+00 0.  1.
         14    1    4    4    0    0 -0.27936882657E+02  0.20402337948E+02  0.99617534449E+02  0.10545320278E+03  0.00000000000E+00 0. -1.
        -11    1    3    3    0    0  0.39210610829E+02 -0.96926632714E+02 -0.13935873124E+03  0.17422141115E+03  0.00000000000E+00 0.  1.
         11    1    3    3    0    0  0.17657300786E+02 -0.16487552220E+02  0.12326073150E+02  0.27121056922E+02  0.00000000000E+00 0. -1.
         21    1    1    2  502  501  0.53615354485E+02  0.63410010667E+02  0.13686033768E+03  0.16008181570E+03  0.00000000000E+00 0.  1.
<scales pt_clust_5="13000.00000" pt_clust_6="13000.00000" pt_clust_7="13000.00000" pt_clust_8="13000.00000" pt_clust_9="83.03876"></scales>
<clustering>
<clus scale="   80.134">  5  6 -1 -1</clus>
<clus scale="   83.039">  1  9  2 -1</clus>
<clus scale="   91.130">  7  8 -1 -1</clus>
<clus scale="  145.813">  1  5  2 -1</clus>
<clus scale="   83.039">  1  5  2 -1</clus>
</clustering>
</event>
<event>
 9    2  0.3791909E-005  0.1461858E+03  0.7546771E-02  0.1207428E+00
         -1   -1    0    0    0  501 -0.00000000000E+00  0.00000000000E+00  0.42039108903E+02  0.42039108903E+02  0.00000000000E+00 0.  1.
          2   -1    0    0  502    0  0.00000000000E+00 -0.00000000000E+00 -0.13844518417E+04  0.13844518417E+04  0.00000000000E+00 0. -1.
         23    2    1    2    0    0 -0.93567178595E+02  0.55111744661E+02 -0.27172695355E+03  0.30668261005E+03  0.91796321871E+02 0.  0.
         24    2    1    2    0    0  0.13855364810E+03  0.53955739527E+02 -0.34109466188E+03  0.38073953653E+03  0.80676459307E+02 0.  0.
        -11    1    4    4    0    0  0.88380947459E+02  0.32104515126E+02 -0.11722565888E+03  0.15027889694E+03  0.00000000000E+00 0.  1.
         12    1    4    4    0    0  0.50172700636E+02  0.21851224401E+02 -0.22386900300E+03  0.23046063959E+03  0.00000000000E+00 0. -1.
        -13    1    3    3    0    0 -0.81882327827E+02  0.12724250387E+02 -0.23569029073E+03  0.24983301484E+03  0.00000000000E+00 0. -1.
         13    1    3    3    0    0 -0.11684850769E+02  0.42387494274E+02 -0.36036662824E+02  0.56849595212E+02  0.00000000000E+00 0.  1.
         21    1    1    2  502  501 -0.44986469500E+02 -0.10906748419E+03 -0.72959111734E+03  0.73906880400E+03  0.00000000000E+00 0. -1.
<scales pt_clust_5="13000.00000" pt_clust_6="13000.00000" pt_clust_7="13000.00000" pt_clust_8="13000.00000" pt_clust_9="117.98092"></scales>
<clustering>
<clus scale="   80.676">  5  6 -1 -1</clus>
<clus scale="   91.796">  7  8 -1 -1</clus>
<clus scale="  117.981">  2  9  1 -1</clus>
<clus scale="  139.472">  2  5  1 -1</clus>
<clus scale="  117.981">  2  5  1 -1</clus>
</clustering>
</event>
<event>
 9    2  0.3791909E-005  0.1017934E+03  0.7546771E-02  0.1294672E+00
         -3   -1    0    0    0  501 -0.00000000000E+00  0.00000000000E+00  0.23668657415E+03  0.23668657415E+03  0.00000000000E+00 0.  1.
          4   -1    0    0  502    0  0.00000000000E+00 -0.00000000000E+00 -0.92383214634E+02  0.92383214634E+02  0.00000000000E+00 0. -1.
         24    2    1    2    0    0 -0.14370789747E+02  0.10591990160E+02  0.17474685196E+03  0.18921728526E+03  0.70342084957E+02 0.  0.
         23    2    1    2    0    0  0.22045573635E+02  0.18578764004E+02 -0.13634514818E+02  0.10532169213E+03  0.10037719388E+03 0.  0.
        -11    1    3    3    0    0 -0.26324768867E+02  0.34188051541E+02  0.80574257651E+02  0.91400368271E+02  0.00000000000E+00 0.  1.
         12    1    3    3    0    0  0.11953979120E+02 -0.23596061381E+02  0.94172594313E+02  0.97816916989E+02  0.00000000000E+00 0. -1.
        -11    1    4    4    0    0 -0.36672613379E+01  0.49372017085E+02  0.19579990519E+02  0.53239279723E+02  0.00000000000E+00 0.  1.
         11    1    4    4    0    0  0.25712834973E+02 -0.30793253081E+02 -0.33214505337E+02  0.52082412410E+02  0.00000000000E+00 0. -1.
         21    1    1    2  502  501 -0.76747838881E+01 -0.29170754164E+02 -0.16808977630E+02  0.34530811390E+02  0.00000000000E+00 0. -1.
<scales pt_clust_5="13000.00000" pt_clust_6="13000.00000" pt_clust_7="13000.00000" pt_clust_8="13000.00000" pt_clust_9="30.16347"></scales>
<clustering>
<clus scale="   30.163">  2  9  1 -1</clus>
<clus scale="   70.342">  5  6 -1 -1</clus>
<clus scale="   72.349">  1  5  2 -1</clus>
<clus scale="  100.377">  7  8 -1 -1</clus>
<clus scale="   30.163">  2  5  1 -1</clus>
</clustering>
</event>
<event>
 9    2  0.3791909E-005  0.2257354E+03  0.7546771E-02  0.1131250E+00
          2   -1    0    0  502    0  0.00000000000E+00  0.00000000000E+00  0.54797839252E+03  0.54797839252E+03  0.00000000000E+00 0. -1.
         -1   -1    0    0    0  501 -0.00000000000E+00 -0.00000000000E+00 -0.14244956661E+03  0.14244956661E+03  0.00000000000E+00 0.  1.
         24    2    1    2    0    0 -0.12672906288E+03 -0.15504083996E+03  0.61883813381E+02  0.22551128449E+03  0.83233500704E+02 0.  0.
         23    2    1    2    0    0  0.93849646927E+02  0.18092009478E+03  0.16624136606E+03  0.28264532307E+03  0.10350048280E+03 0.  0.
        -13    1    3    3    0    0 -0.12007994584E+03 -0.12150104669E+03  0.20843048967E+02  0.17209337707E+03  0.00000000000E+00 0.  1.
         14    1    3    3    0    0 -0.66491170443E+01 -0.33539793266E+02  0.41040764414E+02  0.53417907423E+02  0.00000000000E+00 0. -1.
        -13    1    4    4    0    0  0.36426113251E+02  0.89104793063E+02  0.16217723618E+02  0.97619365049E+02  0.00000000000E+00 0. -1.
         13    1    4    4    0    0  0.57423533676E+02  0.91815301713E+02  0.15002364245E+03  0.18502595802E+03  0.00000000000E+00 0.  1.
         21    1    1    2  502  501  0.32879415957E+02 -0.25879254818E+02  0.17740364647E+03  0.18227135157E+03  0.00000000000E+00 0.  1.
<scales pt_clust_5="13000.00000" pt_clust_6="13000.00000" pt_clust_7="13000.00000" pt_clust_8="13000.00000" pt_clust_9="41.84246"></scales>
<clustering>
<clus scale="   41.842">  1  9  2 -1</clus>
<clus scale="   83.234">  5  6 -1 -1</clus>
<clus scale="  103.500">  7  8 -1 -1</clus>
<clus scale="  217.191">  2  5  1 -1</clus>
<clus scale="   41.842">  1  5  2 -1</clus>
</clustering>
</event>
<event>
 9    2  0.3791909E-005  0.1210516E+03  0.7546771E-02  0.1244922E+00
          2   -1    0    0  502    0  0.00000000000E+00  0.00000000000E+00  0.31487734906E+03  0.31487734906E+03  0.00000000000E+00 0. -1.
         -1   -1    0    0    0  501 -0.00000000000E+00 -0.00000000000E+00 -0.21005936043E+03  0.21005936043E+03  0.00000000000E+00 0.  1.
         23    2    1    2    0    0  0.49642609294E+02  0.79532029415E+02 -0.12548987532E+03  0.18204520383E+03  0.92752439694E+02 0.  0.
         24    2    1    2    0    0 -0.25472660738E+02 -0.46840504318E+02 -0.11143970003E+02  0.98040713649E+02  0.81516281659E+02 0.  0.
        -11    1    4    4    0    0  0.10432508823E+02 -0.43429740464E+02 -0.33299825272E+02  0.55712278361E+02  0.00000000000E+00 0.  1.
         12    1    4    4    0    0 -0.35905169560E+02 -0.34107638546E+01  0.22155855269E+02  0.42328435288E+02  0.00000000000E+00 0. -1.
        -11    1    3    3    0    0  0.24284835423E+02  0.45294251253E+00  0.73557349185E+01  0.25378440153E+02  0.00000000000E+00 0.  1.
         11    1    3    3    0    0  0.25357773871E+02  0.79079086902E+02 -0.13284561024E+03  0.15666676368E+03  0.00000000000E+00 0. -1.
         21    1    1    2  502  501 -0.24169948556E+02 -0.32691525097E+02  0.24145183395E+03  0.24485079201E+03  0.00000000000E+00 0. -1.
<scales pt_clust_5="13000.00000" pt_clust_6="13000.00000" pt_clust_7="13000.00000" pt_clust_8="13000.00000" pt_clust_9="40.65615"></scales>
<clustering>
<clus scale="   40.656">  1  9  2 -1</clus>
<clus scale="   81.516">  5  6 -1 -1</clus>
<clus scale="   92.752">  7  8 -1 -1</clus>
<clus scale="  112.674">  1  5  2 -1</clus>
<clus scale="   40.656">  1  5  2 -1</clus>
</clustering>
</event>
<event>
 9    2  0.3791909E-005  0.7216017E+03  0.7546771E-02  0.1023734E+00
          2   -1    0    0  502    0  0.00000000000E+00  0.00000000000E+00  0.14309143430E+04  0.14309143430E+04  0.00000000000E+00 0. -1.
         -1   -1    0    0    0  501 -0.00000000000E+00 -0.00000000000E+00 -0.56996994997E+03  0.56996994997E+03  0.00000000000E+00 0.  1.
         23    2    1    2    0    0 -0.71863728303E+02 -0.34750889414E+02  0.26987094213E+02  0.12589503001E+03  0.93537348514E+02 0.  0.
         24    2    1    2    0    0 -0.35962230643E+03 -0.60131281815E+03  0.85210945799E+03  0.11061676067E+04  0.81307669335E+02 0.  0.
        -11    1    4    4    0    0 -0.21451862376E+02 -0.96426191529E+01  0.22656827502E+02  0.32657224866E+02  0.00000000000E+00 0.  1.
         12    1    4    4    0    0 -0.33817044405E+03 -0.59167019899E+03  0.82945263049E+03  0.10735103818E+04  0.00000000000E+00 0. -1.
        -11    1    3    3    0    0  0.18383911886E+02 -0.22657423022E+02 -0.45576941549E+01  0.29531332686E+02  0.00000000000E+00 0.  1.
         11    1    3    3    0    0 -0.90247640189E+02 -0.12093466392E+02  0.31544788368E+02  0.96363697326E+02  0.00000000000E+00 0. -1.
         21    1    1    2  502  501  0.43148603473E+03  0.63606370756E+03 -0.18152159208E+02  0.76882165625E+03  0.00000000000E+00 0.  1.
<scales pt_clust_5="13000.00000" pt_clust_6="13000.00000" pt_clust_7="13000.00000" pt_clust_8="13000.00000" pt_clust_9="717.00633"></scales>
<clustering>
<clus scale="   81.308">  5  6 -1 -1</clus>
<clus scale="   93.537">  7  8 -1 -1</clus>
<clus scale="  122.969">  2  7  1 -1</clus>
<clus scale="  717.006">  2  9  1 -1</clus>
<clus scale="  721.602">  1  5  2 -1</clus>
</clustering>
</event>
<event>
 9    2  0.3791909E-005  0.9800530E+02  0.7546771E-02  0.1288725E+00
          2   -1    0    0  502    0  0.00000000000E+00  0.00000000000E+00  0.28682605705E+03  0.28682605705E+03  0.00000000000E+00 0. -1.
         -1   -1    0    0    0  501 -0.00000000000E+00 -0.00000000000E+00 -0.78458741917E+02  0.78458741917E+02  0.00000000000E+00 0.  1.
         24    2    1    2    0    0  0.19957597900E+02 -0.24515984500E+02  0.39651707664E+02  0.95793584866E+02  0.81270005359E+02 0.  0.
         23    2    1    2    0    0 -0.62014021686E+02 -0.28096347985E+02  0.31682214405E+02  0.11679887269E+03  0.89459880928E+02 0.  0.
        -13    1    3    3    0    0 -0.14922338416E+02  0.23482483054E+02  0.14109482192E+02  0.31195843985E+02  0.00000000000E+00 0.  1.
         14    1    3    3    0    0  0.34879936316E+02 -0.47998467554E+02  0.25542225472E+02  0.64597740882E+02  0.00000000000E+00 0. -1.
        -13    1    4    4    0    0 -0.32660740598E+02 -0.34243067798E+02 -0.24370126078E+02  0.53227950493E+02  0.00000000000E+00 0.  1.
         13    1    4    4    0    0 -0.29353281088E+02  0.61467198124E+01  0.56052340482E+02  0.63570922194E+02  0.00000000000E+00 0. -1.
         21    1    1    2  502  501  0.42056423786E+02  0.52612332486E+02  0.13703339307E+03  0.15269234142E+03  0.00000000000E+00 0. -1.
<scales pt_clust_5="13000.00000" pt_clust_6="13000.00000" pt_clust_7="13000.00000" pt_clust_8="13000.00000" pt_clust_9="67.35577"></scales>
<clustering>
<clus scale="   67.356">  1  9  2 -1</clus>
<clus scale="   81.270">  5  6 -1 -1</clus>
<clus scale="   89.460">  7  8 -1 -1</clus>
<clus scale="   90.591">  2  5  1 -1</clus>
<clus scale="   67.356">  1  5  2 -1</clus>
</clustering>
</event>
<event>
 9    2  0.3791909E-005  0.1378035E+03  0.7546771E-02  0.1231625E+00
          2   -1    0    0  502    0  0.00000000000E+00  0.00000000000E+00  0.74523008958E+03  0.74523008958E+03  0.00000000000E+00 0. -1.
         -1   -1    0    0    0  501 -0.00000000000E+00 -0.00000000000E+00 -0.12439731023E+03  0.12439731023E+03  0.00000000000E+00 0.  1.
         23    2    1    2    0    0 -0.36239180583E+02 -0.49793851038E+01  0.94855871323E+02  0.13792872647E+03  0.93212792978E+02 0.  0.
         24    2    1    2    0    0  0.15282939605E+02 -0.10552548256E+03 -0.51655883566E+02  0.14321746571E+03  0.80459408792E+02 0.  0.
        -13    1    4    4    0    0  0.21957618399E+02 -0.11056334465E+03 -0.25245883149E+02  0.11551512802E+03  0.00000000000E+00 0.  1.
         14    1    4    4    0    0 -0.66746787937E+01  0.50378620830E+01 -0.26410000416E+02  0.27702337688E+02  0.00000000000E+00 0. -1.
        -13    1    3    3    0    0  0.30263736874E+02 -0.13312832490E+02  0.29343028070E+02  0.44205639627E+02  0.00000000000E+00 0.  1.
         13    1    3    3    0    0 -0.66502917457E+02  0.83334473862E+01  0.65512843252E+02  0.93723086839E+02  0.00000000000E+00 0. -1.
         21    1    1    2  502  501  0.20956240978E+02  0.11050486767E+03  0.57763279159E+03  0.58848120763E+03  0.00000000000E+00 0. -1.
<scales pt_clust_5="13000.00000" pt_clust_6="13000.00000" pt_clust_7="13000.00000" pt_clust_8="13000.00000" pt_clust_9="111.87530"></scales>
<clustering>
<clus scale="   80.459">  5  6 -1 -1</clus>
<clus scale="   93.213">  7  8 -1 -1</clus>
<clus scale="  100.133">  2  7  1 -1</clus>
<clus scale="  111.875">  1  9  2 -1</clus>
<clus scale="  111.875">  1  5  2 -1</clus>
</clustering>
</event>
<event>
 9    2  0.3791909E-005  0.1004203E+03  0.7546771E-02  0.1284420E+00
          2   -1    0    0  502    0  0.00000000000E+00  0.00000000000E+00  0.40465328769E+03  0.40465328769E+03  0.00000000000E+00 0. -1.
         -1   -1    0    0    0  501 -0.00000000000E+00 -0.00000000000E+00 -0.66033358528E+02  0.66033358528E+02  0.00000000000E+00 0.  1.
         23    2    1    2    0    0  0.55065152445E+02 -0.14673043643E+02  0.12950126000E+02  0.10778265341E+03  0.90564481940E+02 0.  0.
         24    2    1    2    0    0 -0.33299315913E+02 -0.29846641167E+02  0.28280540643E+03  0.29738216070E+03  0.80359101335E+02 0.  0.
        -13    1    4    4    0    0 -0.97031631718E+01  0.27881969699E+02  0.96604865870E+02  0.10101512619E+03  0.00000000000E+00 0.  1.
         14    1    4    4    0    0 -0.23596152741E+02 -0.57728610866E+02  0.18620054056E+03  0.19636703451E+03  0.00000000000E+00 0. -1.
        -11    1    3    3    0    0  0.77770084207E+02 -0.72056985869E+01 -0.44323850742E+01  0.78228857381E+02  0.00000000000E+00 0.  1.
         11    1    3    3    0    0 -0.22704931762E+02 -0.74673450557E+01  0.17382511074E+02  0.29553796029E+02  0.00000000000E+00 0. -1.
         21    1    1    2  502  501 -0.21765836533E+02  0.44519684810E+02  0.42864396729E+02  0.65521832106E+02  0.00000000000E+00 0.  1.
<scales pt_clust_5="13000.00000" pt_clust_6="13000.00000" pt_clust_7="13000.00000" pt_clust_8="13000.00000" pt_clust_9="49.55556"></scales>
<clustering>
<clus scale="   49.556">  2  9  1 -1</clus>
<clus scale="   80.359">  5  6 -1 -1</clus>
<clus scale="   90.564">  7  8 -1 -1</clus>
<clus scale="   91.323">  1  5  2 -1</clus>
<clus scale="   91.323">  1  5  2 -1</clus>
</clustering>
</event>
<event>
 9    2  0.3791909E-005  0.4078833E+03  0.7546771E-02  0.1041294E+00
          2   -1    0    0  502    0  0.00000000000E+00  0.00000000000E+00  0.43224786832E+03  0.43224786832E+03  0.00000000000E+00 0. -1.
         -1   -1    0    0    0  501 -0.00000000000E+00 -0.00000000000E+00 -0.47556109806E+03  0.47556109806E+03  0.00000000000E+00 0.  1.
         24    2    1    2    0    0 -0.96779845931E+02  0.38808945498E+03 -0.66066180797E+02  0.41378514644E+03  0.82907439474E+02 0.  0.
         23    2    1    2    0    0  0.17516588696E+03 -0.35727566003E+03  0.11886818925E+02  0.40910071228E+03  0.94303293262E+02 0.  0.
        -11    1    3    3    0    0 -0.77027288441E+02  0.14207959967E+03 -0.29587440223E+02  0.16430225935E+03  0.00000000000E+00 0.  1.
         12    1    3    3    0    0 -0.19752557489E+02  0.24600985531E+03 -0.36478740575E+02  0.24948288709E+03  0.00000000000E+00 0. -1.
        -11    1    4    4    0    0  0.12441393260E+02 -0.12105101327E+03  0.11737271086E+02  0.12225342373E+03  0.00000000000E+00 0.  1.
         11    1    4    4    0    0  0.16272449370E+03 -0.23622464676E+03  0.14954783925E+00  0.28684728855E+03  0.00000000000E+00 0. -1.
         21    1    1    2  502  501 -0.78386041028E+02 -0.30813794949E+02  0.10866132139E+02  0.84923107661E+02  0.00000000000E+00 0. -1.
<scales pt_clust_5="13000.00000" pt_clust_6="13000.00000" pt_clust_7="13000.00000" pt_clust_8="13000.00000" pt_clust_9="84.22506"></scales>
<clustering>
<clus scale="   82.907">  5  6 -1 -1</clus>
<clus scale="   84.225">  1  9  2 -1</clus>
<clus scale="   94.303">  7  8 -1 -1</clus>
<clus scale="  405.400">  2  5  1 -1</clus>
<clus scale="   84.225">  1  5  2 -1</clus>
</clustering>
</event>
<event>
 9    2  0.3791909E-005  0.1005545E+03  0.7546771E-02  0.1282517E+00
         -1   -1    0    0    0  501 -0.00000000000E+00  0.00000000000E+00  0.29106665253E+03  0.29106665253E+03  0.00000000000E+00 0.  1.
          2   -1    0    0  502    0  0.00000000000E+00 -0.00000000000E+00 -0.40974959107E+03  0.40974959107E+03  0.00000000000E+00 0. -1.
         23    2    1    2    0    0 -0.47281395878E+02 -0.42246665823E+01  0.27116654353E+03  0.28943244640E+03  0.89367043699E+02 0.  0.
         24    2    1    2    0    0  0.33073987779E+01  0.19240214017E+02 -0.26552124630E+03  0.27865592033E+03  0.82258525259E+02 0.  0.
        -11    1    4    4    0    0 -0.34379676042E+02  0.26549931454E+02 -0.10546471381E+03  0.11405992654E+03  0.00000000000E+00 0.  1.
         12    1    4    4    0    0  0.37687074820E+02 -0.73097174365E+01 -0.16005653249E+03  0.16459599379E+03  0.00000000000E+00 0. -1.
        -11    1    3    3    0    0 -0.26011579144E+02 -0.35144557137E+02  0.22834216247E+03  0.23249061338E+03  0.00000000000E+00 0.  1.
         11    1    3    3    0    0 -0.21269816734E+02  0.30919890554E+02  0.42824381053E+02  0.56941833026E+02  0.00000000000E+00 0. -1.
         21    1    1    2  502  501  0.43973997100E+02 -0.15015547435E+02 -0.12432823577E+03  0.13272787686E+03  0.00000000000E+00 0. -1.
<scales pt_clust_5="13000.00000" pt_clust_6="13000.00000" pt_clust_7="13000.00000" pt_clust_8="13000.00000" pt_clust_9="46.46697"></scales>
<clustering>
<clus scale="   46.467">  2  9  1 -1</clus>
<clus scale="   82.259">  5  6 -1 -1</clus>
<clus scale="   89.367">  7  8 -1 -1</clus>
<clus scale="   94.293">  2  5  1 -1</clus>
<clus scale="   46.467">  2  5  1 -1</clus>
</clustering>
</event>
<event>
 9    2  0.3791909E-005  0.1039278E+03  0.7546771E-02  0.1277326E+00
          2   -1    0    0  502    0  0.00000000000E+00  0.00000000000E+00  0.35064603568E+03  0.35064603568E+03  0.00000000000E+00 0. -1.
         -1   -1    0    0    0  501 -0.00000000000E+00 -0.00000000000E+00 -0.67385731131E+02  0.67385731131E+02  0.00000000000E+00 0.  1.
         23    2    1    2    0    0 -0.44207861883E+02  0.14309328398E+02 -0.47906157772E+01  0.10273819004E+03  0.91504610600E+02 0.  0.
         24    2    1    2    0    0  0.63828856032E+02 -0.18752914332E+01  0.20818102467E+03  0.23211431903E+03  0.80374613441E+02 0.  0.
        -11    1    4    4    0    0  0.10758315733E+02 -0.35403716243E+02  0.52281274689E+02  0.64050731177E+02  0.00000000000E+00 0.  1.
         12    1    4    4    0    0  0.53070540299E+02  0.33528424810E+02  0.15589974998E+03  0.16806358785E+03  0.00000000000E+00 0. -1.
        -11    1    3    3    0    0 -0.66042119234E+01  0.34386955320E+02  0.31237879443E+02  0.46924230663E+02  0.00000000000E+00 0. -1.
         11    1    3    3    0    0 -0.37603649960E+02 -0.20077626922E+02 -0.36028495220E+02  0.55813959373E+02  0.00000000000E+00 0.  1.
         21    1    1    2  502  501 -0.19620994148E+02 -0.12434036964E+02  0.79869895658E+02  0.83179257745E+02  0.00000000000E+00 0.  1.
<scales pt_clust_5="13000.00000" pt_clust_6="13000.00000" pt_clust_7="13000.00000" pt_clust_8="13000.00000" pt_clust_9="23.22905"></scales>
<clustering>
<clus scale="   23.229">  1  9  2 -1</clus>
<clus scale="   80.375">  5  6 -1 -1</clus>
<clus scale="   91.505">  7  8 -1 -1</clus>
<clus scale="   94.276">  1  5  2 -1</clus>
<clus scale="   23.229">  1  5  2 -1</clus>
</clustering>
</event>
<event>
 9    2  0.3791909E-005  0.1045265E+03  0.7546771E-02  0.1278558E+00
         -1   -1    0    0    0  501 -0.00000000000E+00  0.00000000000E+00  0.16014682395E+03  0.16014682395E+03  0.00000000000E+00 0.  1.
          2   -1    0    0  502    0  0.00000000000E+00 -0.00000000000E+00 -0.31786603957E+03  0.31786603957E+03  0.00000000000E+00 0. -1.
         24    2    1    2    0    0 -0.23123982934E+02 -0.35217451425E+02  0.12900186069E+03  0.15725712277E+03  0.79456498340E+02 0.  0.
         23    2    1    2    0    0  0.25672392551E+02  0.55391247806E+02 -0.18322228258E+03  0.21527836520E+03  0.95116284717E+02 0.  0.
        -11    1    3    3    0    0  0.26486081547E+02 -0.25142116419E+02  0.73903421729E+02  0.82433938867E+02  0.00000000000E+00 0.  1.
         12    1    3    3    0    0 -0.49610064481E+02 -0.10075335006E+02  0.55098438956E+02  0.74823183899E+02  0.00000000000E+00 0. -1.
        -13    1    4    4    0    0  0.41165877199E+02 -0.53808843341E+01 -0.34881033096E+02  0.54224255012E+02  0.00000000000E+00 0.  1.
         13    1    4    4    0    0 -0.15493484648E+02  0.60772132140E+02 -0.14834124948E+03  0.16105411019E+03  0.00000000000E+00 0. -1.
         21    1    1    2  502  501 -0.25484096173E+01 -0.20173796382E+02 -0.10349879372E+03  0.10547737555E+03  0.00000000000E+00 0.  1.
<scales pt_clust_5="13000.00000" pt_clust_6="13000.00000" pt_clust_7="13000.00000" pt_clust_8="13000.00000" pt_clust_9="20.33412"></scales>
<clustering>
<clus scale="   20.334">  2  9  1 -1</clus>
<clus scale="   79.456">  5  6 -1 -1</clus>
<clus scale="   90.510">  1  5  2 -1</clus>
<clus scale="   95.116">  7  8 -1 -1</clus>
<clus scale="   20.334">  2  5  1 -1</clus>
</clustering>
</event>
<event>
 9    2  0.3791909E-005  0.1072595E+03  0.7546771E-02  0.1269457E+00
          2   -1    0    0  502    0  0.00000000000E+00  0.00000000000E+00  0.69081810534E+03  0.69081810534E+03  0.00000000000E+00 0. -1.
         -1   -1    0    0    0  501 -0.00000000000E+00 -0.00000000000E+00 -0.24835225086E+02  0.24835225086E+02  0.00000000000E+00 0.  1.
         24    2    1    2    0    0 -0.85701608936E+01  0.64127130146E+02  0.13937675032E+03  0.17401246103E+03  0.81662240864E+02 0.  0.
         23    2    1    2    0    0  0.11900940647E+02 -0.37728246431E+02  0.38139529038E+03  0.39401233870E+03  0.90654854002E+02 0.  0.
        -13    1    3    3    0    0  0.15046950816E+02  0.76123420470E+02  0.10053303004E+03  0.12699636216E+03  0.00000000000E+00 0.  1.
         14    1    3    3    0    0 -0.23617111710E+02 -0.11996290324E+02  0.38843720283E+02  0.47016098865E+02  0.00000000000E+00 0. -1.
        -11    1    4    4    0    0 -0.36973176143E+02 -0.31339839432E+02  0.15914829958E+03  0.16636520835E+03  0.00000000000E+00 0. -1.
         11    1    4    4    0    0  0.48874116790E+02 -0.63884069997E+01  0.22224699080E+03  0.22764713035E+03  0.00000000000E+00 0.  1.
         21    1    1    2  502  501 -0.33307797534E+01 -0.26398883714E+02  0.14521083954E+03  0.14762853070E+03  0.00000000000E+00 0.  1.
<scales pt_clust_5="13000.00000" pt_clust_6="13000.00000" pt_clust_7="13000.00000" pt_clust_8="13000.00000" pt_clust_9="26.60818"></scales>
<clustering>
<clus scale="   26.608">  1  9  2 -1</clus>
<clus scale="   81.662">  5  6 -1 -1</clus>
<clus scale="   90.655">  7  8 -1 -1</clus>
<clus scale="   99.775">  2  5  1 -1</clus>
<clus scale="   26.608">  1  5  2 -1</clus>
</clustering>
</event>
<event>
 9    2  0.3791909E-005  0.9936472E+02  0.7546771E-02  0.1286222E+00
          2   -1    0    0  502    0  0.00000000000E+00  0.00000000000E+00  0.61936404178E+02  0.61936404178E+02  0.00000000000E+00 0. -1.
         -1   -1    0    0    0  501 -0.00000000000E+00 -0.00000000000E+00 -0.34059660453E+03  0.34059660453E+03  0.00000000000E+00 0.  1.
         24    2    1    2    0    0  0.44639495758E+02  0.90834738287E+00 -0.25129356954E+03  0.26755042778E+03  0.80257483346E+02 0.  0.
         23    2    1    2    0    0 -0.33860410340E+02 -0.29337180505E+02 -0.29903544775E+02  0.10447318618E+03  0.89516630259E+02 0.  0.
        -13    1    3    3    0    0  0.19449907301E+02  0.32726741710E+02 -0.53659101542E+02  0.65792383261E+02  0.00000000000E+00 0.  1.
         14    1    3    3    0    0  0.25189588457E+02 -0.31818394327E+02 -0.19763446800E+03  0.20175804452E+03  0.00000000000E+00 0. -1.
        -11    1    4    4    0    0  0.18320224344E+02 -0.40345112903E+02 -0.25107575388E+02  0.50928863104E+02  0.00000000000E+00 0.  1.
         11    1    4    4    0    0 -0.52180634684E+02  0.11007932398E+02 -0.47959693871E+01  0.53544323080E+02  0.00000000000E+00 0. -1.
         21    1    1    2  502  501 -0.10779085418E+02  0.28428833122E+02  0.25369139711E+01  0.30509394744E+02  0.00000000000E+00 0. -1.
<scales pt_clust_5="13000.00000" pt_clust_6="13000.00000" pt_clust_7="13000.00000" pt_clust_8="13000.00000" pt_clust_9="30.40374"></scales>
<clustering>
<clus scale="   30.404">  1  9  2 -1</clus>
<clus scale="   80.257">  5  6 -1 -1</clus>
<clus scale="   89.517">  7  8 -1 -1</clus>
<clus scale="   91.112">  2  5  1 -1</clus>
<clus scale="   30.404">  1  5  2 -1</clus>
</clustering>
</event>
<event>
 9    2  0.6275189E-005  0.1131954E+03  0.7546771E-02  0.1258786E+00
         -1   -1    0    0    0  501 -0.00000000000E+00  0.00000000000E+00  0.16059653103E+03  0.16059653103E+03  0.00000000000E+00 0.  1.
          2   -1    0    0  502    0  0.00000000000E+00 -0.00000000000E+00 -0.13171730072E+04  0.13171730072E+04  0.00000000000E+00 0. -1.
         23    2    1    2    0    0  0.28566797334E+02 -0.59733223978E+02  0.13559455684E+03  0.17645313883E+03  0.91464235643E+02 0.  0.
         24    2    1    2    0    0 -0.42647598385E+02  0.83213842081E+02 -0.11441355970E+04  0.11507703974E+04  0.80516347259E+02 0.  0.
        -11    1    4    4    0    0 -0.34916409083E+02  0.29769997330E+02 -0.20450371688E+03  0.20958811651E+03  0.00000000000E+00 0.  1.
         12    1    4    4    0    0 -0.77311893025E+01  0.53443844751E+02 -0.93963188008E+03  0.94118228090E+03  0.00000000000E+00 0. -1.
        -11    1    3    3    0    0 -0.93438248567E+01 -0.31593062571E+02  0.12335560325E+03  0.12767941697E+03  0.00000000000E+00 0.  1.
         11    1    3    3    0    0  0.37910622191E+02 -0.28140161407E+02  0.12238953592E+02  0.48773721859E+02  0.00000000000E+00 0. -1.
         21    1    1    2  502  501  0.14080801052E+02 -0.23480618103E+02 -0.14803543608E+03  0.15054600200E+03  0.00000000000E+00 0.  1.
<scales pt_clust_5="13000.00000" pt_clust_6="13000.00000" pt_clust_7="13000.00000" pt_clust_8="13000.00000" pt_clust_9="27.37898"></scales>
<clustering>
<clus scale="   27.379">  2  9  1 -1</clus>
<clus scale="   80.516">  5  6 -1 -1</clus>
<clus scale="   91.464">  7  8 -1 -1</clus>
<clus scale="  104.548">  2  5  1 -1</clus>
<clus scale="   27.379">  2  5  1 -1</clus>
</clustering>
</event>
<event>
 9    2  0.3791909E-005  0.1136855E+03  0.7546771E-02  0.1258911E+00
         -1   -1    0    0    0  501 -0.00000000000E+00  0.00000000000E+00  0.54223401364E+02  0.54223401364E+02  0.00000000000E+00 0.  1.
          2   -1    0    0  502    0  0.00000000000E+00 -0.00000000000E+00 -0.56084654054E+03  0.56084654054E+03  0.00000000000E+00 0. -1.
         23    2    1    2    0    0  0.31092693635E+02 -0.61369103411E+02 -0.10103237469E+03  0.15265871714E+03  0.91456113692E+02 0.  0.
         24    2    1    2    0    0 -0.92075721099E+02  0.17198029977E+01 -0.14678027581E+03  0.18990464186E+03  0.77707319442E+02 0.  0.
        -13    1    4    4    0    0 -0.45275323857E+02  0.21551151620E+02 -0.21223211969E+02  0.54449350894E+02  0.00000000000E+00 0.  1.
         14    1    4    4    0    0 -0.46800397241E+02 -0.19831348622E+02 -0.12555706385E+03  0.13545529097E+03  0.00000000000E+00 0. -1.
        -13    1    3    3    0    0  0.10616996024E+02 -0.53729669505E+02 -0.59427986332E+01  0.55090061220E+02  0.00000000000E+00 0.  1.
         13    1    3    3    0    0  0.20475697611E+02 -0.76394339065E+01 -0.95089576054E+02  0.97568655916E+02  0.00000000000E+00 0. -1.
         21    1    1    2  502  501  0.60983027463E+02  0.59649300414E+02 -0.25881048868E+03  0.27250658291E+03  0.00000000000E+00 0. -1.
<scales pt_clust_5="13000.00000" pt_clust_6="13000.00000" pt_clust_7="13000.00000" pt_clust_8="13000.00000" pt_clust_9="85.30515"></scales>
<clustering>
<clus scale="   77.707">  5  6 -1 -1</clus>
<clus scale="   85.305">  2  9  1 -1</clus>
<clus scale="   91.456">  7  8 -1 -1</clus>
<clus scale="  102.950">  2  5  1 -1</clus>
<clus scale="   85.305">  2  5  1 -1</clus>
</clustering>
</event>
<event>
 9    2  0.3791909E-005  0.1028743E+03  0.7546771E-02  0.1281766E+00
         -1   -1    0    0    0  501 -0.00000000000E+00  0.00000000000E+00  0.27917773627E+03  0.27917773627E+03  0.00000000000E+00 0.  1.
          2   -1    0    0  502    0  0.00000000000E+00 -0.00000000000E+00 -0.12028673078E+03  0.12028673078E+03  0.00000000000E+00 0. -1.
         24    2    1    2    0    0  0.29153490191E+02  0.39777481132E+02  0.23194411738E+03  0.24883762103E+03  0.75431518991E+02 0.  0.
         23    2    1    2    0    0 -0.34560793239E+02 -0.18738255625E+02 -0.32090908625E+02  0.10426101773E+03  0.91076686090E+02 0.  0.
        -13    1    3    3    0    0  0.52478576666E+02  0.18160801460E+02  0.11593531794E+03  0.12854887655E+03  0.00000000000E+00 0.  1.
         14    1    3    3    0    0 -0.23325086475E+02  0.21616679672E+02  0.11600879944E+03  0.12028874447E+03  0.00000000000E+00 0. -1.
        -13    1    4    4    0    0 -0.59346110053E+02 -0.29724358944E+02 -0.38044323800E+02  0.76504044772E+02  0.00000000000E+00 0. -1.
         13    1    4    4    0    0  0.24785316814E+02  0.10986103318E+02  0.59534151754E+01  0.27756972961E+02  0.00000000000E+00 0.  1.
         21    1    1    2  502  501  0.54073030484E+01 -0.21039225507E+02 -0.40962203266E+02  0.46365828286E+02  0.00000000000E+00 0. -1.
<scales pt_clust_5="13000.00000" pt_clust_6="13000.00000" pt_clust_7="13000.00000" pt_clust_8="13000.00000" pt_clust_9="21.72298"></scales>
<clustering>
<clus scale="   21.723">  2  9  1 -1</clus>
<clus scale="   75.432">  5  6 -1 -1</clus>
<clus scale="   89.320">  1  5  2 -1</clus>
<clus scale="   91.077">  7  8 -1 -1</clus>
<clus scale="   21.723">  2  5  1 -1</clus>
</clustering>
</event>
<event>
 9    2  0.3791909E-005  0.9696109E+02  0.7546771E-02  0.1291465E+00
          2   -1    0    0  502    0  0.00000000000E+00  0.00000000000E+00  0.62670604093E+03  0.62670604093E+03  0.00000000000E+00 0. -1.
         -1   -1    0    0    0  501 -0.00000000000E+00 -0.00000000000E+00 -0.52169825072E+02  0.52169825072E+02  0.00000000000E+00 0.  1.
         23    2    1    2    0    0 -0.11345737231E+02  0.31936658226E+02 -0.79163385573E+00  0.89528646459E+02  0.82861788303E+02 0.  0.
         24    2    1    2    0    0 -0.17613820767E+02 -0.19754498220E+02  0.46389991975E+03  0.47357483684E+03  0.91484991431E+02 0.  0.
        -11    1    4    4    0    0  0.24419057539E+02  0.11113464228E+02  0.53250240776E+02  0.59627071041E+02  0.00000000000E+00 0.  1.
         12    1    4    4    0    0 -0.42032878306E+02 -0.30867962448E+02  0.41064967898E+03  0.41394776580E+03  0.00000000000E+00 0. -1.
        -13    1    3    3    0    0 -0.41707570988E+02  0.39841325694E+02  0.38779761794E+01  0.57809094527E+02  0.00000000000E+00 0. -1.
         13    1    3    3    0    0  0.30361833757E+02 -0.79046674683E+01 -0.46696100352E+01  0.31719551932E+02  0.00000000000E+00 0.  1.
         21    1    1    2  502  501  0.28959557998E+02 -0.12182160006E+02  0.11142792996E+03  0.11577238271E+03  0.00000000000E+00 0. -1.
<scales pt_clust_5="13000.00000" pt_clust_6="13000.00000" pt_clust_7="13000.00000" pt_clust_8="13000.00000" pt_clust_9="31.41753"></scales>
<clustering>
<clus scale="   31.418">  1  9  2 -1</clus>
<clus scale="   82.862">  7  8 -1 -1</clus>
<clus scale="   88.871">  2  7  1 -1</clus>
<clus scale="   91.485">  5  6 -1 -1</clus>
<clus scale="   31.418">  1  5  2 -1</clus>
</clustering>
</event>
<event>
 9    2  0.3791909E-005  0.1318091E+03  0.7546771E-02  0.1228232E+00
         -1   -1    0    0    0  501 -0.00000000000E+00  0.00000000000E+00  0.35266892405E+03  0.35266892405E+03  0.00000000000E+00 0.  1.
          2   -1    0    0  502    0  0.00000000000E+00 -0.00000000000E+00 -0.10402048425E+03  0.10402048425E+03  0.00000000000E+00 0. -1.
         23    2    1    2    0    0 -0.30140317598E+02  0.82812038887E+02  0.25008547961E+03  0.28116606993E+03  0.93516518539E+02 0.  0.
         24    2    1    2    0    0  0.32853440907E+02 -0.11253788798E+03 -0.14797710821E+02  0.14282020897E+03  0.80215428909E+02 0.  0.
        -13    1    4    4    0    0  0.21971194646E+02  0.54634459563E+01  0.35149949896E+01  0.22911521679E+02  0.00000000000E+00 0.  1.
         14    1    4    4    0    0  0.10882246261E+02 -0.11800133393E+03 -0.18312705811E+02  0.11990868729E+03  0.00000000000E+00 0. -1.
        -11    1    3    3    0    0  0.19639360177E+02  0.74024908558E+02  0.13011693515E+03  0.15098280819E+03  0.00000000000E+00 0. -1.
         11    1    3    3    0    0 -0.49779677775E+02  0.87871303292E+01  0.11996854446E+03  0.13018326174E+03  0.00000000000E+00 0.  1.
         21    1    1    2  502  501 -0.27131233092E+01  0.29725849091E+02  0.13360671007E+02  0.32703129392E+02  0.00000000000E+00 0. -1.
<scales pt_clust_5="13000.00000" pt_clust_6="13000.00000" pt_clust_7="13000.00000" pt_clust_8="13000.00000" pt_clust_9="29.84941"></scales>
<clustering>
<clus scale="   29.849">  2  9  1 -1</clus>
<clus scale="   80.215">  5  6 -1 -1</clus>
<clus scale="   93.517">  7  8 -1 -1</clus>
<clus scale="  122.731">  2  5  1 -1</clus>
<clus scale="   29.849">  2  5  1 -1</clus>
</clustering>
</event>
<event>
 9    2  0.3791909E-005  0.1728614E+03  0.7546771E-02  0.1176610E+00
         -1   -1    0    0    0  501 -0.00000000000E+00  0.00000000000E+00  0.22853780741E+03  0.22853780741E+03  0.00000000000E+00 0.  1.
          2   -1    0    0  502    0  0.00000000000E+00 -0.00000000000E+00 -0.61487596525E+03  0.61487596525E+03  0.00000000000E+00 0. -1.
         24    2    1    2    0    0 -0.10104875420E+03  0.10750408737E+03  0.17890288082E+03  0.24538094299E+03  0.80234574129E+02 0.  0.
         23    2    1    2    0    0  0.61249642135E+02 -0.10300611170E+03 -0.48757790305E+03  0.51064997243E+03  0.93109640145E+02 0.  0.
        -13    1    3    3    0    0 -0.10530652387E+03  0.89631014707E+02  0.11807094889E+03  0.18183490242E+03  0.00000000000E+00 0.  1.
         14    1    3    3    0    0  0.42577696620E+01  0.17873072663E+02  0.60831931929E+02  0.63546040563E+02  0.00000000000E+00 0. -1.
        -13    1    4    4    0    0 -0.35157823182E+01 -0.35211029719E+02 -0.40212396437E+02  0.53565046125E+02  0.00000000000E+00 0.  1.
         13    1    4    4    0    0  0.64765424453E+02 -0.67795081978E+02 -0.44736550662E+03  0.45708492631E+03  0.00000000000E+00 0. -1.
         21    1    1    2  502  501  0.39799112070E+02 -0.44979756738E+01 -0.77663135612E+02  0.87382857242E+02  0.00000000000E+00 0. -1.
<scales pt_clust_5="13000.00000" pt_clust_6="13000.00000" pt_clust_7="13000.00000" pt_clust_8="13000.00000" pt_clust_9="40.05248"></scales>
<clustering>
<clus scale="   40.052">  2  9  1 -1</clus>
<clus scale="   80.235">  5  6 -1 -1</clus>
<clus scale="   93.110">  7  8 -1 -1</clus>
<clus scale="  166.281">  1  5  2 -1</clus>
<clus scale="   40.052">  2  5  1 -1</clus>
</clustering>
</event>
<event>
 9    2  0.3791909E-005  0.1242965E+03  0.7546771E-02  0.1243264E+00
          2   -1    0    0  502    0  0.00000000000E+00  0.00000000000E+00  0.31342385240E+03  0.31342385240E+03  0.00000000000E+00 0. -1.
         -1   -1    0    0    0  501 -0.00000000000E+00 -0.00000000000E+00 -0.11818801818E+03  0.11818801818E+03  0.00000000000E+00 0.  1.
         23    2    1    2    0    0 -0.82876388224E+02 -0.22587363881E+02 -0.37399097223E+02  0.13773279977E+03  0.10096012544E+03 0.  0.
         24    2    1    2    0    0  0.33653193351E+02  0.46719621732E+02  0.65609331480E+02  0.11808703507E+03  0.79528001339E+02 0.  0.
        -11    1    4    4    0    0  0.33467046517E+02  0.10764002396E+02 -0.80989907865E+01  0.36076316357E+02  0.00000000000E+00 0.  1.
         12    1    4    4    0    0  0.18614683356E+00  0.35955619336E+02  0.73708322266E+02  0.82010718713E+02  0.00000000000E+00 0. -1.
        -13    1    3    3    0    0 -0.23780982668E+02 -0.57277329793E+02 -0.58475875885E+01  0.62293032720E+02  0.00000000000E+00 0.  1.
         13    1    3    3    0    0 -0.59095405556E+02  0.34689965912E+02 -0.31551509635E+02  0.75439767053E+02  0.00000000000E+00 0. -1.
         21    1    1    2  502  501  0.49223194873E+02 -0.24132257851E+02  0.16702559997E+03  0.17579203573E+03  0.00000000000E+00 0.  1.
<scales pt_clust_5="13000.00000" pt_clust_6="13000.00000" pt_clust_7="13000.00000" pt_clust_8="13000.00000" pt_clust_9="54.82051"></scales>
<clustering>
<clus scale="   54.821">  1  9  2 -1</clus>
<clus scale="   79.528">  5  6 -1 -1</clus>
<clus scale="  100.960">  7  8 -1 -1</clus>
<clus scale="  107.617">  1  5  2 -1</clus>
<clus scale="   54.821">  1  5  2 -1</clus>
</clustering>
</event>
<event>
 9    2  0.3791909E-005  0.1074894E+03  0.7546771E-02  0.1268655E+00
          2   -1    0    0  502    0  0.00000000000E+00  0.00000000000E+00  0.40445359788E+03  0.40445359788E+03  0.00000000000E+00 0. -1.
         -1   -1    0    0    0  501 -0.00000000000E+00 -0.00000000000E+00 -0.42763317295E+02  0.42763317295E+02  0.00000000000E+00 0.  1.
         24    2    1    2    0    0 -0.54725301036E+02  0.70004960591E+01  0.72805281732E+02  0.12098571373E+03  0.79328862083E+02 0.  0.
         23    2    1    2    0    0  0.74161116431E+02 -0.13050358558E+02  0.17002390805E+03  0.20563969817E+03  0.87803035857E+02 0.  0.
        -13    1    3    3    0    0 -0.61482443734E+02 -0.22397825287E+02  0.41356120840E+02  0.77408540847E+02  0.00000000000E+00 0.  1.
         14    1    3    3    0    0  0.67571426982E+01  0.29398321346E+02  0.31449160892E+02  0.43577172880E+02  0.00000000000E+00 0. -1.
        -11    1    4    4    0    0 -0.20348027408E+02 -0.14798935053E+01  0.32437754752E+02  0.38320232744E+02  0.00000000000E+00 0.  1.
         11    1    4    4    0    0  0.94509143839E+02 -0.11570465053E+02  0.13758615329E+03  0.16731946542E+03  0.00000000000E+00 0. -1.
         21    1    1    2  502  501 -0.19435815395E+02  0.60498624990E+01  0.11886109081E+03  0.12059150328E+03  0.00000000000E+00 0. -1.
<scales pt_clust_5="13000.00000" pt_clust_6="13000.00000" pt_clust_7="13000.00000" pt_clust_8="13000.00000" pt_clust_9="20.35563"></scales>
<clustering>
<clus scale="   20.356">  1  9  2 -1</clus>
<clus scale="   79.329">  5  6 -1 -1</clus>
<clus scale="   87.803">  7  8 -1 -1</clus>
<clus scale="  100.686">  2  5  1 -1</clus>
<clus scale="   20.356">  1  5  2 -1</clus>
</clustering>
</event>
<event>
 9    2  0.3791909E-005  0.1063084E+03  0.7546771E-02  0.1274384E+00
         -3   -1    0    0    0  501 -0.00000000000E+00  0.00000000000E+00  0.67166428753E+03  0.67166428753E+03  0.00000000000E+00 0.  1.
          4   -1    0    0  502    0  0.00000000000E+00 -0.00000000000E+00 -0.23557127906E+02  0.23557127906E+02  0.00000000000E+00 0. -1.
         23    2    1    2    0    0  0.43388396621E+02  0.26434593026E+02  0.46975101900E+03  0.48161334255E+03  0.93295504691E+02 0.  0.
         24    2    1    2    0    0 -0.31549897370E+02 -0.44462656738E+02  0.13494917437E+03  0.16513822799E+03  0.78019425858E+02 0.  0.
        -13    1    4    4    0    0 -0.42310124855E+02 -0.60912798971E+02  0.11695974271E+03  0.13849222779E+03  0.00000000000E+00 0.  1.
         14    1    4    4    0    0  0.10760227485E+02  0.16450142233E+02  0.17989431664E+02  0.26646000199E+02  0.00000000000E+00 0. -1.
        -11    1    3    3    0    0  0.22852123551E+02  0.60044449240E+02  0.23701845005E+03  0.24557137680E+03  0.00000000000E+00 0. -1.
         11    1    3    3    0    0  0.20536273070E+02 -0.33609856214E+02  0.23273256895E+03  0.23604196575E+03  0.00000000000E+00 0.  1.
         21    1    1    2  502  501 -0.11838499251E+02  0.18028063712E+02  0.43406966243E+02  0.48469844895E+02  0.00000000000E+00 0. -1.
<scales pt_clust_5="13000.00000" pt_clust_6="13000.00000" pt_clust_7="13000.00000" pt_clust_8="13000.00000" pt_clust_9="21.56759"></scales>
<clustering>
<clus scale="   21.568">  2  9  1 -1</clus>
<clus scale="   78.019">  5  6 -1 -1</clus>
<clus scale="   93.190">  2  5  1 -1</clus>
<clus scale="   93.296">  7  8 -1 -1</clus>
<clus scale="   21.568">  2  5  1 -1</clus>
</clustering>
</event>
<event>
 9    2  0.3791909E-005  0.1040409E+03  0.7546771E-02  0.1276776E+00
         -1   -1    0    0    0  501 -0.00000000000E+00  0.00000000000E+00  0.26192894028E+03  0.26192894028E+03  0.00000000000E+00 0.  1.
          2   -1    0    0  502    0  0.00000000000E+00 -0.00000000000E+00 -0.94374968852E+02  0.94374968852E+02  0.00000000000E+00 0. -1.
         23    2    1    2    0    0 -0.31960245015E+02 -0.46140083461E+02  0.20462935236E+03  0.23091351363E+03  0.91090693081E+02 0.  0.
         24    2    1    2    0    0  0.19632234564E+02  0.13725267432E+02 -0.33665214984E+02  0.90543166467E+02  0.80566188280E+02 0.  0.
        -11    1    4    4    0    0 -0.21733414975E+02 -0.18755977180E+02 -0.23217599347E+02  0.36921334292E+02  0.00000000000E+00 0.  1.
         12    1    4    4    0    0  0.41365649539E+02  0.32481244612E+02 -0.10447615637E+02  0.53621832176E+02  0.00000000000E+00 0. -1.
        -11    1    3    3    0    0  0.29487343275E+00 -0.25186621079E+02  0.26761540704E+01  0.25330113153E+02  0.00000000000E+00 0. -1.
         11    1    3    3    0    0 -0.32255118447E+02 -0.20953462382E+02  0.20195319829E+03  0.20558340048E+03  0.00000000000E+00 0.  1.
         21    1    1    2  502  501  0.12328010450E+02  0.32414816029E+02 -0.34101659466E+01  0.34847229038E+02  0.00000000000E+00 0. -1.
<scales pt_clust_5="13000.00000" pt_clust_6="13000.00000" pt_clust_7="13000.00000" pt_clust_8="13000.00000" pt_clust_9="34.67997"></scales>
<clustering>
<clus scale="   34.680">  2  9  1 -1</clus>
<clus scale="   80.566">  5  6 -1 -1</clus>
<clus scale="   91.091">  7  8 -1 -1</clus>
<clus scale="   94.963">  2  5  1 -1</clus>
<clus scale="   34.680">  2  5  1 -1</clus>
</clustering>
</event>
<event>
 9    2  0.3791909E-005  0.2478621E+03  0.7546771E-02  0.1116228E+00
          2   -1    0    0  502    0  0.00000000000E+00  0.00000000000E+00  0.34967527548E+03  0.34967527548E+03  0.00000000000E+00 0. -1.
         -1   -1    0    0    0  501 -0.00000000000E+00 -0.00000000000E+00 -0.35217476246E+03  0.35217476246E+03  0.00000000000E+00 0.  1.
         23    2    1    2    0    0 -0.95072182322E+02  0.20153211143E+03 -0.21430237378E+03  0.32683777603E+03  0.10603543108E+03 0.  0.
         24    2    1    2    0    0  0.13853587642E+03 -0.18590508641E+03  0.12252283981E+03  0.27449249566E+03  0.81125789310E+02 0.  0.
        -13    1    4    4    0    0  0.12608367902E+03 -0.16473659814E+03  0.74259815873E+02  0.22034010333E+03  0.00000000000E+00 0.  1.
         14    1    4    4    0    0  0.12452197400E+02 -0.21168488267E+02  0.48263023935E+02  0.54152392329E+02  0.00000000000E+00 0. -1.
        -11    1    3    3    0    0 -0.22629402656E+02  0.39314124868E+02  0.38166444549E+01  0.45522050191E+02  0.00000000000E+00 0. -1.
         11    1    3    3    0    0 -0.72442779666E+02  0.16221798656E+03 -0.21811901823E+03  0.28131572584E+03  0.00000000000E+00 0.  1.
         21    1    1    2  502  501 -0.43463694103E+02 -0.15627025027E+02  0.89280046990E+02  0.10051976625E+03  0.00000000000E+00 0. -1.
<scales pt_clust_5="13000.00000" pt_clust_6="13000.00000" pt_clust_7="13000.00000" pt_clust_8="13000.00000" pt_clust_9="46.18762"></scales>
<clustering>
<clus scale="   46.188">  1  9  2 -1</clus>
<clus scale="   81.126">  5  6 -1 -1</clus>
<clus scale="  106.035">  7  8 -1 -1</clus>
<clus scale="  238.272">  1  5  2 -1</clus>
<clus scale="   46.188">  1  5  2 -1</clus>
</clustering>
</event>
<event>
 9    2  0.3791909E-005  0.2763942E+03  0.7546771E-02  0.1098131E+00
          2   -1    0    0  502    0  0.00000000000E+00  0.00000000000E+00  0.11019753894E+04  0.11019753894E+04  0.00000000000E+00 0. -1.
         -1   -1    0    0    0  501 -0.00000000000E+00 -0.00000000000E+00 -0.14807893602E+03  0.14807893602E+03  0.00000000000E+00 0.  1.
         23    2    1    2    0    0  0.11409568761E+03  0.23781732013E+03  0.37963551956E+02  0.28145881609E+03  0.90570029195E+02 0.  0.
         24    2    1    2    0    0 -0.74132652260E+02 -0.23742920184E+03  0.86643070532E+03  0.90497426879E+03  0.80049884595E+02 0.  0.
        -13    1    4    4    0    0 -0.12186593678E+02 -0.17659803612E+02  0.24204859476E+02  0.32345895433E+02  0.00000000000E+00 0.  1.
         14    1    4    4    0    0 -0.61946058582E+02 -0.21976939822E+03  0.84222584585E+03  0.87262837335E+03  0.00000000000E+00 0. -1.
        -13    1    3    3    0    0  0.35211181361E+02  0.17369417147E+03  0.24402630858E+02  0.17889935966E+03  0.00000000000E+00 0. -1.
         13    1    3    3    0    0  0.78884506250E+02  0.64123148668E+02  0.13560921097E+02  0.10255945643E+03  0.00000000000E+00 0.  1.
         21    1    1    2  502  501 -0.39963035350E+02 -0.38811829737E+00  0.49502196097E+02  0.63621240546E+02  0.00000000000E+00 0.  1.
<scales pt_clust_5="13000.00000" pt_clust_6="13000.00000" pt_clust_7="13000.00000" pt_clust_8="13000.00000" pt_clust_9="39.96492"></scales>
<clustering>
<clus scale="   39.965">  1  9  2 -1</clus>
<clus scale="   80.050">  5  6 -1 -1</clus>
<clus scale="   90.570">  7  8 -1 -1</clus>
<clus scale="  273.128">  1  5  2 -1</clus>
<clus scale="   39.965">  1  5  2 -1</clus>
</clustering>
</event>
<event>
 9    2  0.3791909E-005  0.1378346E+03  0.7546771E-02  0.1217998E+00
         -1   -1    0    0    0  501 -0.00000000000E+00  0.00000000000E+00  0.28016109256E+02  0.28016109256E+02  0.00000000000E+00 0.  1.
          2   -1    0    0  502    0  0.00000000000E+00 -0.00000000000E+00 -0.91384501544E+03  0.91384501544E+03  0.00000000000E+00 0. -1.
         23    2    1    2    0    0 -0.87406615379E+02  0.83219704317E+02 -0.28208387547E+03  0.31927114137E+03  0.88302396992E+02 0.  0.
         24    2    1    2    0    0  0.76744775522E+02 -0.64038799846E+02 -0.54466598532E+03  0.55956684845E+03  0.80394613352E+02 0.  0.
        -13    1    4    4    0    0  0.20481091357E+02 -0.25793723475E+02 -0.47701639730E+02  0.57967557365E+02  0.00000000000E+00 0.  1.
         14    1    4    4    0    0  0.56263684165E+02 -0.38245076371E+02 -0.49696434559E+03  0.50159929108E+03  0.00000000000E+00 0. -1.
        -13    1    3    3    0    0 -0.48698387659E+02  0.12921792466E+02 -0.40302994017E+02  0.64520051208E+02  0.00000000000E+00 0.  1.
         13    1    3    3    0    0 -0.38708227720E+02  0.70297911851E+02 -0.24178088146E+03  0.25475109017E+03  0.00000000000E+00 0. -1.
         21    1    1    2  502  501  0.10661839856E+02 -0.19180904471E+02 -0.59079045393E+02  0.63023134879E+02  0.00000000000E+00 0. -1.
<scales pt_clust_5="13000.00000" pt_clust_6="13000.00000" pt_clust_7="13000.00000" pt_clust_8="13000.00000" pt_clust_9="21.94497"></scales>
<clustering>
<clus scale="   21.945">  1  9  2 -1</clus>
<clus scale="   80.395">  5  6 -1 -1</clus>
<clus scale="   88.302">  7  8 -1 -1</clus>
<clus scale="  132.907">  2  5  1 -1</clus>
<clus scale="  132.907">  2  5  1 -1</clus>
</clustering>
</event>
<event>
 9    2  0.3791909E-005  0.1304959E+03  0.7546771E-02  0.1229845E+00
         -1   -1    0    0    0  501 -0.00000000000E+00  0.00000000000E+00  0.23728213072E+03  0.23728213072E+03  0.00000000000E+00 0.  1.
          2   -1    0    0  502    0  0.00000000000E+00 -0.00000000000E+00 -0.38649901651E+03  0.38649901651E+03  0.00000000000E+00 0. -1.
         23    2    1    2    0    0 -0.85108977295E+02 -0.22756088599E+02  0.18188187032E+03  0.22287781082E+03  0.93979392534E+02 0.  0.
         24    2    1    2    0    0  0.12968947878E+03  0.20391970814E+02 -0.31903226338E+03  0.35465822409E+03  0.82253738283E+02 0.  0.
        -11    1    4    4    0    0  0.48865208714E+02  0.35797176607E+02 -0.20684978323E+03  0.21553672378E+03  0.00000000000E+00 0.  1.
         12    1    4    4    0    0  0.80824270071E+02 -0.15405205793E+02 -0.11218248015E+03  0.13912150032E+03  0.00000000000E+00 0. -1.
        -13    1    3    3    0    0 -0.15956620507E+02  0.32541117892E+02  0.29898498983E+02  0.46983596426E+02  0.00000000000E+00 0. -1.
         13    1    3    3    0    0 -0.69152356788E+02 -0.55297206491E+02  0.15198337134E+03  0.17589421440E+03  0.00000000000E+00 0.  1.
         21    1    1    2  502  501 -0.44580501489E+02  0.23641177849E+01 -0.12066492728E+02  0.46245112311E+02  0.00000000000E+00 0.  1.
<scales pt_clust_5="13000.00000" pt_clust_6="13000.00000" pt_clust_7="13000.00000" pt_clust_8="13000.00000" pt_clust_9="44.64314"></scales>
<clustering>
<clus scale="   44.643">  2  9  1 -1</clus>
<clus scale="   82.254">  5  6 -1 -1</clus>
<clus scale="   93.979">  7  8 -1 -1</clus>
<clus scale="  122.322">  2  5  1 -1</clus>
<clus scale="   44.643">  2  5  1 -1</clus>
</clustering>
</event>
<event>
 9    2  0.3791909E-005  0.1847024E+03  0.7546771E-02  0.1164624E+00
         -3   -1    0    0    0  501 -0.00000000000E+00  0.00000000000E+00  0.42902412062E+03  0.42902412062E+03  0.00000000000E+00 0.  1.
          4   -1    0    0  502    0  0.00000000000E+00 -0.00000000000E+00 -0.55093718054E+03  0.55093718054E+03  0.00000000000E+00 0. -1.
         24    2    1    2    0    0 -0.20706002855E+03 -0.17716690458E+03  0.24919205632E+03  0.37745756193E+03  0.78202062771E+02 0.  0.
         23    2    1    2    0    0  0.89170626356E+02  0.12717004017E+03 -0.42668684406E+03  0.46290815883E+03  0.89992671329E+02 0.  0.
        -13    1    3    3    0    0 -0.11450179656E+03 -0.52002715686E+02  0.13424952223E+03  0.18395074904E+03  0.00000000000E+00 0.  1.
         14    1    3    3    0    0 -0.92558231995E+02 -0.12516418889E+03  0.11494253409E+03  0.19350681289E+03  0.00000000000E+00 0. -1.
        -13    1    4    4    0    0  0.68256019719E+02  0.13911660486E+03 -0.35714738767E+03  0.38931551535E+03  0.00000000000E+00 0. -1.
         13    1    4    4    0    0  0.20914606637E+02 -0.11946564685E+02 -0.69539456396E+02  0.73592643480E+02  0.00000000000E+00 0.  1.
         21    1    1    2  502  501  0.11788940220E+03  0.49996864407E+02  0.55581727826E+02  0.13959558041E+03  0.00000000000E+00 0. -1.
<scales pt_clust_5="13000.00000" pt_clust_6="13000.00000" pt_clust_7="13000.00000" pt_clust_8="13000.00000" pt_clust_9="128.05310"></scales>
<clustering>
<clus scale="   78.202">  5  6 -1 -1</clus>
<clus scale="   89.993">  7  8 -1 -1</clus>
<clus scale="  128.053">  1  9  2 -1</clus>
<clus scale="  179.254">  1  5  2 -1</clus>
<clus scale="  184.702">  2  5  1 -1</clus>
</clustering>
</event>
<event>
 9    2  0.3791909E-005  0.1211506E+03  0.7546771E-02  0.1245415E+00
         -1   -1    0    0    0  501 -0.00000000000E+00  0.00000000000E+00  0.79906003700E+02  0.79906003700E+02  0.00000000000E+00 0.  1.
          2   -1    0    0  502    0  0.00000000000E+00 -0.00000000000E+00 -0.57327839385E+03  0.57327839385E+03  0.00000000000E+00 0. -1.
         23    2    1    2    0    0 -0.77241030761E+02 -0.81234782925E+01  0.61484507970E+01  0.12095535375E+03  0.92521491671E+02 0.  0.
         24    2    1    2    0    0  0.74058438053E+02  0.60894479195E+02 -0.40811319999E+03  0.42663423210E+03  0.79168138475E+02 0.  0.
        -13    1    4    4    0    0 -0.50775379563E+01  0.19660141088E+02 -0.20393929300E+02  0.28778722897E+02  0.00000000000E+00 0.  1.
         14    1    4    4    0    0  0.79135976009E+02  0.41234338107E+02 -0.38771927069E+03  0.39785550920E+03  0.00000000000E+00 0. -1.
        -13    1    3    3    0    0 -0.48906975216E+02  0.76259156696E+01  0.47371121991E+02  0.68513283481E+02  0.00000000000E+00 0.  1.
         13    1    3    3    0    0 -0.28334055545E+02 -0.15749393962E+02 -0.41222671194E+02  0.52442070270E+02  0.00000000000E+00 0. -1.
         21    1    1    2  502  501  0.31825927086E+01 -0.52771000903E+02 -0.91407640954E+02  0.10559481170E+03  0.00000000000E+00 0.  1.
<scales pt_clust_5="13000.00000" pt_clust_6="13000.00000" pt_clust_7="13000.00000" pt_clust_8="13000.00000" pt_clust_9="52.86688"></scales>
<clustering>
<clus scale="   52.867">  2  9  1 -1</clus>
<clus scale="   79.168">  5  6 -1 -1</clus>
<clus scale="   92.521">  7  8 -1 -1</clus>
<clus scale="  111.287">  2  5  1 -1</clus>
<clus scale="   52.867">  2  5  1 -1</clus>
</clustering>
</event>
<event>
 9    2  0.3791909E-005  0.2952713E+03  0.7546771E-02  0.1088014E+00
         -1   -1    0    0    0  501 -0.00000000000E+00  0.00000000000E+00  0.23597693329E+03  0.23597693329E+03  0.00000000000E+00 0.  1.
          2   -1    0    0  502    0  0.00000000000E+00 -0.00000000000E+00 -0.45868847164E+03  0.45868847164E+03  0.00000000000E+00 0. -1.
         23    2    1    2    0    0 -0.26570637319E+02  0.28327779887E+03  0.24244193565E+02  0.29968634618E+03  0.90949519302E+02 0.  0.
         24    2    1    2    0    0  0.45236947166E+02 -0.26987089433E+03 -0.22852617449E+03  0.36552019252E+03  0.80648110415E+02 0.  0.
        -13    1    4    4    0    0  0.34647176776E+02 -0.32346798413E+02 -0.34209971258E+02  0.58455661484E+02  0.00000000000E+00 0.  1.
         14    1    4    4    0    0  0.10589770390E+02 -0.23752409592E+03 -0.19431620323E+03  0.30706453103E+03  0.00000000000E+00 0. -1.
        -13    1    3    3    0    0 -0.18565802311E+02  0.13694326342E+03  0.57045745637E+02  0.14950706842E+03  0.00000000000E+00 0.  1.
         13    1    3    3    0    0 -0.80048350081E+01  0.14633453545E+03 -0.32801552073E+02  0.15017927776E+03  0.00000000000E+00 0. -1.
         21    1    1    2  502  501 -0.18666309847E+02 -0.13406904541E+02 -0.18429557434E+02  0.29458866235E+02  0.00000000000E+00 0. -1.
<scales pt_clust_5="13000.00000" pt_clust_6="13000.00000" pt_clust_7="13000.00000" pt_clust_8="13000.00000" pt_clust_9="22.98208"></scales>
<clustering>
<clus scale="   22.982">  2  9  1 -1</clus>
<clus scale="   80.648">  5  6 -1 -1</clus>
<clus scale="   90.950">  7  8 -1 -1</clus>
<clus scale="  292.263">  2  5  1 -1</clus>
<clus scale="   22.982">  2  5  1 -1</clus>
</clustering>
</event>
<event>
 9    2  0.3791909E-005  0.1724106E+03  0.7546771E-02  0.1177058E+00
          2   -1    0    0  502    0  0.00000000000E+00  0.00000000000E+00  0.56881936806E+03  0.56881936806E+03  0.00000000000E+00 0. -1.
         -1   -1    0    0    0  501 -0.00000000000E+00 -0.00000000000E+00 -0.69684467938E+02  0.69684467938E+02  0.00000000000E+00 0.  1.
         23    2    1    2    0    0 -0.43719103664E+02 -0.12697068985E+03  0.97774832198E+02  0.18999986229E+03  0.92234016248E+02 0.  0.
         24    2    1    2    0    0  0.68105617590E+02  0.13430095183E+03  0.37511244665E+03  0.41193387083E+03  0.79404316578E+02 0.  0.
        -13    1    4    4    0    0 -0.15719803468E+02  0.33109929921E+02  0.11181481054E+03  0.11766873644E+03  0.00000000000E+00 0.  1.
         14    1    4    4    0    0  0.83825421058E+02  0.10119102191E+03  0.26329763611E+03  0.29426513438E+03  0.00000000000E+00 0. -1.
        -13    1    3    3    0    0 -0.47571884466E+02 -0.71011096504E+02  0.10308149080E+02  0.86092496513E+02  0.00000000000E+00 0.  1.
         13    1    3    3    0    0  0.38527808019E+01 -0.55959593344E+02  0.87466683118E+02  0.10390736578E+03  0.00000000000E+00 0. -1.
         21    1    1    2  502  501 -0.24386513926E+02 -0.73302619853E+01  0.26247621273E+02  0.36570102880E+02  0.00000000000E+00 0.  1.
<scales pt_clust_5="13000.00000" pt_clust_6="13000.00000" pt_clust_7="13000.00000" pt_clust_8="13000.00000" pt_clust_9="25.46438"></scales>
<clustering>
<clus scale="   25.464">  2  9  1 -1</clus>
<clus scale="   79.404">  5  6 -1 -1</clus>
<clus scale="   92.234">  7  8 -1 -1</clus>
<clus scale="  165.902">  1  5  2 -1</clus>
<clus scale="  165.902">  1  5  2 -1</clus>
</clustering>
</event>
<event>
 9    2  0.3791909E-005  0.1005436E+03  0.7546771E-02  0.1283581E+00
          2   -1    0    0  502    0  0.00000000000E+00  0.00000000000E+00  0.16044656154E+03  0.16044656154E+03  0.00000000000E+00 0. -1.
         -1   -1    0    0    0  501 -0.00000000000E+00 -0.00000000000E+00 -0.13978503117E+03  0.13978503117E+03  0.00000000000E+00 0.  1.
         23    2    1    2    0    0  0.32629842849E+01 -0.45375403586E+02 -0.96806063763E+02  0.14041310155E+03  0.90966206856E+02 0.  0.
         24    2    1    2    0    0 -0.14128613819E+02  0.27760225023E+02  0.96339076407E+02  0.13024196868E+03  0.81923775181E+02 0.  0.
        -11    1    4    4    0    0 -0.10293291021E+02  0.24775872195E+02 -0.62422291195E+01  0.27545618662E+02  0.00000000000E+00 0.  1.
         12    1    4    4    0    0 -0.38353227981E+01  0.29843528272E+01  0.10258130553E+03  0.10269635001E+03  0.00000000000E+00 0. -1.
        -13    1    3    3    0    0 -0.26020958454E+01 -0.73200884043E+02 -0.71079436569E+02  0.10206579559E+03  0.00000000000E+00 0.  1.
         13    1    3    3    0    0  0.58650801303E+01  0.27825480457E+02 -0.25726627194E+02  0.38347305960E+02  0.00000000000E+00 0. -1.
         21    1    1    2  502  501  0.10865629534E+02  0.17615178563E+02  0.21128517729E+02  0.29576522487E+02  0.00000000000E+00 0. -1.
<scales pt_clust_5="13000.00000" pt_clust_6="13000.00000" pt_clust_7="13000.00000" pt_clust_8="13000.00000" pt_clust_9="20.69677"></scales>
<clustering>
<clus scale="   20.697">  1  9  2 -1</clus>
<clus scale="   81.924">  5  6 -1 -1</clus>
<clus scale="   90.966">  7  8 -1 -1</clus>
<clus scale="   92.443">  1  5  2 -1</clus>
<clus scale="   20.697">  1  5  2 -1</clus>
</clustering>
</event>
<event>
 9    2  0.3791909E-005  0.9264918E+02  0.7546771E-02  0.1301932E+00
          2   -1    0    0  502    0  0.00000000000E+00  0.00000000000E+00  0.81283746911E+03  0.81283746911E+03  0.00000000000E+00 0. -1.
         -1   -1    0    0    0  501 -0.00000000000E+00 -0.00000000000E+00 -0.25876759633E+02  0.25876759633E+02  0.00000000000E+00 0.  1.
         23    2    1    2    0    0  0.95800618955E+01 -0.10989976721E+02  0.77155784728E+02  0.12038801964E+03  0.91256248995E+02 0.  0.
         24    2    1    2    0    0  0.15612743787E+01  0.30166351461E+02  0.54011794040E+03  0.54719603824E+03  0.82363028057E+02 0.  0.
        -11    1    4    4    0    0 -0.13414875580E+02 -0.17407674507E+02  0.50894179339E+02  0.55436481753E+02  0.00000000000E+00 0.  1.
         12    1    4    4    0    0  0.14976149959E+02  0.47574025967E+02  0.48922376106E+03  0.49175955649E+03  0.00000000000E+00 0. -1.
        -11    1    3    3    0    0 -0.27519904897E+02  0.12203058658E+02 -0.17592423549E+01  0.30155509278E+02  0.00000000000E+00 0. -1.
         11    1    3    3    0    0  0.37099966793E+02 -0.23193035378E+02  0.78915027083E+02  0.90232510358E+02  0.00000000000E+00 0.  1.
         21    1    1    2  502  501 -0.11141336274E+02 -0.19176374740E+02  0.16968698435E+03  0.17113017086E+03  0.00000000000E+00 0. -1.
<scales pt_clust_5="13000.00000" pt_clust_6="13000.00000" pt_clust_7="13000.00000" pt_clust_8="13000.00000" pt_clust_9="22.17798"></scales>
<clustering>
<clus scale="   22.178">  1  9  2 -1</clus>
<clus scale="   82.363">  5  6 -1 -1</clus>
<clus scale="   83.904">  1  5  2 -1</clus>
<clus scale="   91.256">  7  8 -1 -1</clus>
<clus scale="   22.178">  1  5  2 -1</clus>
</clustering>
</event>
<event>
 9    2  0.3791909E-005  0.1104382E+03  0.7546771E-02  0.1267344E+00
         -1   -1    0    0    0  501 -0.00000000000E+00  0.00000000000E+00  0.27281607785E+03  0.27281607785E+03  0.00000000000E+00 0.  1.
          2   -1    0    0  502    0  0.00000000000E+00 -0.00000000000E+00 -0.71311968932E+02  0.71311968932E+02  0.00000000000E+00 0. -1.
         23    2    1    2    0    0  0.51721037288E+02  0.38706493439E+02  0.16903144161E+03  0.20308011874E+03  0.92177264237E+02 0.  0.
         24    2    1    2    0    0 -0.28524694827E+02 -0.50482347540E+02  0.53436816972E+02  0.10763780061E+03  0.73268527238E+02 0.  0.
        -11    1    4    4    0    0  0.13418181028E+02 -0.21755762882E+02  0.50638000066E+02  0.56723609294E+02  0.00000000000E+00 0.  1.
         12    1    4    4    0    0 -0.41942875855E+02 -0.28726584659E+02  0.27988169058E+01  0.50914191315E+02  0.00000000000E+00 0. -1.
        -13    1    3    3    0    0 -0.21474544158E+01 -0.21701538104E+02  0.79276035861E+02  0.82220789210E+02  0.00000000000E+00 0.  1.
         13    1    3    3    0    0  0.53868491703E+02  0.60408031543E+02  0.89755405753E+02  0.12085932953E+03  0.00000000000E+00 0. -1.
         21    1    1    2  502  501 -0.23196342461E+02  0.11775854101E+02 -0.20964149670E+02  0.33410127428E+02  0.00000000000E+00 0. -1.
<scales pt_clust_5="13000.00000" pt_clust_6="13000.00000" pt_clust_7="13000.00000" pt_clust_8="13000.00000" pt_clust_9="26.01425"></scales>
<clustering>
<clus scale="   26.014">  2  9  1 -1</clus>
<clus scale="   73.269">  5  6 -1 -1</clus>
<clus scale="   92.177">  7  8 -1 -1</clus>
<clus scale="   95.227">  2  5  1 -1</clus>
<clus scale="   26.014">  2  5  1 -1</clus>
</clustering>
</event>
<event>
 9    2  0.3791909E-005  0.2579901E+03  0.7546771E-02  0.1108855E+00
         -1   -1    0    0    0  501 -0.00000000000E+00  0.00000000000E+00  0.10602585881E+04  0.10602585881E+04  0.00000000000E+00 0.  1.
          2   -1    0    0  502    0  0.00000000000E+00 -0.00000000000E+00 -0.19814116334E+03  0.19814116334E+03  0.00000000000E+00 0. -1.
         24    2    1    2    0    0  0.20902037909E+03  0.12730905376E+03  0.79783566043E+03  0.83839086945E+03  0.80376581723E+02 0.  0.
         23    2    1    2    0    0 -0.18417424647E+03 -0.14298801371E+03  0.17519310601E+03  0.30527228885E+03  0.90182153577E+02 0.  0.
        -11    1    3    3    0    0  0.10602806221E+03  0.24611749522E+02  0.27668814653E+03  0.29732813291E+03  0.00000000000E+00 0.  1.
         12    1    3    3    0    0  0.10299231689E+03  0.10269730423E+03  0.52114751389E+03  0.54106273654E+03  0.00000000000E+00 0. -1.
        -11    1    4    4    0    0 -0.14771116844E+03 -0.15242890432E+03  0.15141764954E+03  0.26073063637E+03  0.00000000000E+00 0. -1.
         11    1    4    4    0    0 -0.36463078031E+02  0.94408906151E+01  0.23775456475E+02  0.44541652481E+02  0.00000000000E+00 0.  1.
         21    1    1    2  502  501 -0.24846132625E+02  0.15678959949E+02 -0.11091134168E+03  0.11473659313E+03  0.00000000000E+00 0. -1.
<scales pt_clust_5="13000.00000" pt_clust_6="13000.00000" pt_clust_7="13000.00000" pt_clust_8="13000.00000" pt_clust_9="29.37959"></scales>
<clustering>
<clus scale="   29.380">  2  9  1 -1</clus>
<clus scale="   80.377">  5  6 -1 -1</clus>
<clus scale="   90.182">  7  8 -1 -1</clus>
<clus scale="  254.728">  1  5  2 -1</clus>
<clus scale="   29.380">  2  5  1 -1</clus>
</clustering>
</event>
<event>
 9    2  0.3791909E-005  0.9903137E+02  0.7546771E-02  0.1286798E+00
         -1   -1    0    0    0  501 -0.00000000000E+00  0.00000000000E+00  0.27725601109E+02  0.27725601109E+02  0.00000000000E+00 0.  1.
          2   -1    0    0  502    0  0.00000000000E+00 -0.00000000000E+00 -0.41898601870E+03  0.41898601870E+03  0.00000000000E+00 0. -1.
         23    2    1    2    0    0  0.43038167602E+02  0.24062791547E+02 -0.16539484763E+03  0.19486001067E+03  0.90463618809E+02 0.  0.
         24    2    1    2    0    0 -0.32513282322E+02 -0.48437878083E+01 -0.16248040743E+03  0.18478580456E+03  0.81641502683E+02 0.  0.
        -13    1    4    4    0    0 -0.42332860165E+02  0.12489809171E+02 -0.36597390916E+02  0.57336161406E+02  0.00000000000E+00 0.  1.
         14    1    4    4    0    0  0.98195778428E+01 -0.17333596980E+02 -0.12588301651E+03  0.12744964315E+03  0.00000000000E+00 0. -1.
        -11    1    3    3    0    0  0.65458845752E+02  0.35247926461E+02 -0.98364710260E+02  0.12330001229E+03  0.00000000000E+00 0.  1.
         11    1    3    3    0    0 -0.22420678150E+02 -0.11185134915E+02 -0.67030137369E+02  0.71559998376E+02  0.00000000000E+00 0. -1.
         21    1    1    2  502  501 -0.10524885280E+02 -0.19219003738E+02 -0.63385162534E+02  0.67065804582E+02  0.00000000000E+00 0.  1.
<scales pt_clust_5="13000.00000" pt_clust_6="13000.00000" pt_clust_7="13000.00000" pt_clust_8="13000.00000" pt_clust_9="21.91217"></scales>
<clustering>
<clus scale="   21.912">  2  9  1 -1</clus>
<clus scale="   81.642">  5  6 -1 -1</clus>
<clus scale="   90.464">  7  8 -1 -1</clus>
<clus scale="   91.043">  2  5  1 -1</clus>
<clus scale="   21.912">  2  5  1 -1</clus>
</clustering>
</event>
<event>
 9    2  0.3791909E-005  0.1297160E+03  0.7546771E-02  0.1231695E+00
         -1   -1    0    0    0  501 -0.00000000000E+00  0.00000000000E+00  0.24007794356E+02  0.24007794356E+02  0.00000000000E+00 0.  1.
          2   -1    0    0  502    0  0.00000000000E+00 -0.00000000000E+00 -0.10423269579E+04  0.10423269579E+04  0.00000000000E+00 0. -1.
         23    2    1    2    0    0  0.24886106327E+02 -0.10318466313E+03 -0.29058292509E+03  0.32358479507E+03  0.94880399714E+02 0.  0.
         24    2    1    2    0    0 -0.53589298297E+01  0.59321633365E+02 -0.50484312055E+03  0.51474421601E+03  0.80915123669E+02 0.  0.
        -11    1    4    4    0    0 -0.33275140695E+02  0.29841865014E+02 -0.12525350053E+03  0.13298951572E+03  0.00000000000E+00 0.  1.
         12    1    4    4    0    0  0.27916210865E+02  0.29479768351E+02 -0.37958962001E+03  0.38175470029E+03  0.00000000000E+00 0. -1.
        -11    1    3    3    0    0 -0.74111256843E+00 -0.28562899863E+02 -0.72592120870E+01  0.29480241799E+02  0.00000000000E+00 0.  1.
         11    1    3    3    0    0  0.25627218895E+02 -0.74621763264E+02 -0.28332371301E+03  0.29410455327E+03  0.00000000000E+00 0. -1.
         21    1    1    2  502  501 -0.19527176497E+02  0.43863029762E+02 -0.22289311795E+03  0.22800574122E+03  0.00000000000E+00 0.  1.
<scales pt_clust_5="13000.00000" pt_clust_6="13000.00000" pt_clust_7="13000.00000" pt_clust_8="13000.00000" pt_clust_9="48.01329"></scales>
<clustering>
<clus scale="   48.013">  2  9  1 -1</clus>
<clus scale="   80.915">  5  6 -1 -1</clus>
<clus scale="   94.880">  7  8 -1 -1</clus>
<clus scale="  119.880">  2  5  1 -1</clus>
<clus scale="   48.013">  2  5  1 -1</clus>
</clustering>
</event>
<event>
 9    2  0.3791909E-005  0.3897069E+03  0.7546771E-02  0.1047403E+00
         -1   -1    0    0    0  501 -0.00000000000E+00  0.00000000000E+00  0.13368193327E+03  0.13368193327E+03  0.00000000000E+00 0.  1.
          2   -1    0    0  502    0  0.00000000000E+00 -0.00000000000E+00 -0.10156635029E+04  0.10156635029E+04  0.00000000000E+00 0. -1.
         24    2    1    2    0    0  0.18860332501E+03  0.64432604761E+02 -0.23223929314E+03  0.31673767187E+03  0.81638769827E+02 0.  0.
         23    2    1    2    0    0  0.12935319392E+03 -0.49337421646E+02 -0.91098980380E+02  0.18964077855E+03  0.92185523327E+02 0.  0.
        -11    1    3    3    0    0  0.53038919047E+02  0.21145363956E+02 -0.18620812615E+02  0.60058205209E+02  0.00000000000E+00 0.  1.
         12    1    3    3    0    0  0.13556440596E+03  0.43287240805E+02 -0.21361848053E+03  0.25667946666E+03  0.00000000000E+00 0. -1.
        -11    1    4    4    0    0  0.10133230619E+03 -0.30788652227E+02 -0.15662759040E+02  0.10705839249E+03  0.00000000000E+00 0. -1.
         11    1    4    4    0    0  0.28020887730E+02 -0.18548769419E+02 -0.75436221340E+02  0.82582386053E+02  0.00000000000E+00 0.  1.
         21    1    1    2  502  501 -0.31795651892E+03 -0.15095183115E+02 -0.55864329607E+03  0.64296698572E+03  0.00000000000E+00 0. -1.
<scales pt_clust_5="13000.00000" pt_clust_6="13000.00000" pt_clust_7="13000.00000" pt_clust_8="13000.00000" pt_clust_9="318.31464"></scales>
<clustering>
<clus scale="   81.639">  5  6 -1 -1</clus>
<clus scale="   92.186">  7  8 -1 -1</clus>
<clus scale="  148.854">  5  7 -1 -1</clus>
<clus scale="  318.315">  2  9  1 -1</clus>
<clus scale="  318.315">  2  5  1 -1</clus>
</clustering>
</event>
<event>
 9    2  0.3791909E-005  0.1427042E+03  0.7546771E-02  0.1212064E+00
         -1   -1    0    0    0  501 -0.00000000000E+00  0.00000000000E+00  0.21200160211E+03  0.21200160211E+03  0.00000000000E+00 0.  1.
          2   -1    0    0  502    0  0.00000000000E+00 -0.00000000000E+00 -0.36939559989E+03  0.36939559989E+03  0.00000000000E+00 0. -1.
         23    2    1    2    0    0  0.39755929257E+02 -0.10279687882E+03  0.11913244159E+03  0.18596408915E+03  0.90787507991E+02 0.  0.
         24    2    1    2    0    0  0.67274147195E+02  0.13419102298E+03 -0.14832156435E+03  0.22549924473E+03  0.79483214550E+02 0.  0.
        -13    1    4    4    0    0  0.51125046375E+02  0.38484611069E+02 -0.25327122080E+02  0.68820772801E+02  0.00000000000E+00 0.  1.
         14    1    4    4    0    0  0.16149100819E+02  0.95706411910E+02 -0.12299444227E+03  0.15667847193E+03  0.00000000000E+00 0. -1.
        -11    1    3    3    0    0 -0.12678451344E+02 -0.42920263623E+02  0.91245533889E+02  0.10162991495E+03  0.00000000000E+00 0.  1.
         11    1    3    3    0    0  0.52434380601E+02 -0.59876615200E+02  0.27886907700E+02  0.84334174199E+02  0.00000000000E+00 0. -1.
         21    1    1    2  502  501 -0.10703007645E+03 -0.31394144156E+02 -0.12820487503E+03  0.16993386812E+03  0.00000000000E+00 0.  1.
<scales pt_clust_5="13000.00000" pt_clust_6="13000.00000" pt_clust_7="13000.00000" pt_clust_8="13000.00000" pt_clust_9="111.53936"></scales>
<clustering>
<clus scale="   79.483">  5  6 -1 -1</clus>
<clus scale="   90.788">  7  8 -1 -1</clus>
<clus scale="  111.539">  2  9  1 -1</clus>
<clus scale="  135.793">  2  5  1 -1</clus>
<clus scale="  111.539">  2  5  1 -1</clus>
</clustering>
</event>
<event>
 9    2  0.3791909E-005  0.1144473E+03  0.7546771E-02  0.1257084E+00
         -1   -1    0    0    0  501 -0.00000000000E+00  0.00000000000E+00  0.78507375688E+02  0.78507375688E+02  0.00000000000E+00 0.  1.
          2   -1    0    0  502    0  0.00000000000E+00 -0.00000000000E+00 -0.33367147770E+03  0.33367147770E+03  0.00000000000E+00 0. -1.
         24    2    1    2    0    0 -0.49364538462E+02  0.37792832883E+02  0.73467172856E+01  0.10225123982E+03  0.80846681531E+02 0.  0.
         23    2    1    2    0    0  0.50667388815E+02 -0.69367811632E+02 -0.16927536927E+03  0.21148206596E+03  0.93227871377E+02 0.  0.
        -13    1    3    3    0    0 -0.55465977033E+02  0.56624763958E+02  0.15632946701E+02  0.80791258958E+02  0.00000000000E+00 0.  1.
         14    1    3    3    0    0  0.61014385705E+01 -0.18831931074E+02 -0.82862294157E+01  0.21459980861E+02  0.00000000000E+00 0. -1.
        -11    1    4    4    0    0  0.44375844692E+02 -0.17210752206E+02 -0.14683206378E+03  0.15435375129E+03  0.00000000000E+00 0.  1.
         11    1    4    4    0    0  0.62915441225E+01 -0.52157059426E+02 -0.22443305485E+02  0.57128314666E+02  0.00000000000E+00 0. -1.
         21    1    1    2  502  501 -0.13028503525E+01  0.31574978748E+02 -0.93235450026E+02  0.98445547606E+02  0.00000000000E+00 0.  1.
<scales pt_clust_5="13000.00000" pt_clust_6="13000.00000" pt_clust_7="13000.00000" pt_clust_8="13000.00000" pt_clust_9="31.60185"></scales>
<clustering>
<clus scale="   31.602">  2  9  1 -1</clus>
<clus scale="   80.847">  5  6 -1 -1</clus>
<clus scale="   93.228">  7  8 -1 -1</clus>
<clus scale="  104.609">  1  5  2 -1</clus>
<clus scale="   31.602">  2  5  1 -1</clus>
</clustering>
</event>
<event>
 9    2  0.3791909E-005  0.1984480E+03  0.7546771E-02  0.1152637E+00
         -1   -1    0    0    0  501 -0.00000000000E+00  0.00000000000E+00  0.22511607147E+02  0.22511607147E+02  0.00000000000E+00 0.  1.
          2   -1    0    0  502    0  0.00000000000E+00 -0.00000000000E+00 -0.19478991211E+04  0.19478991211E+04  0.00000000000E+00 0. -1.
         23    2    1    2    0    0 -0.16954367078E+03 -0.69811274425E+02 -0.88638367416E+03  0.91022036668E+03  0.95950131708E+02 0.  0.
         24    2    1    2    0    0  0.15860325524E+03  0.44295514483E+02 -0.88897429714E+03  0.90761378942E+03  0.79814814396E+02 0.  0.
        -13    1    4    4    0    0  0.88279763434E+02 -0.16315928590E+02 -0.46634995162E+03  0.47491241670E+03  0.00000000000E+00 0.  1.
         14    1    4    4    0    0  0.70323491808E+02  0.60611443072E+02 -0.42262434552E+03  0.43270137272E+03  0.00000000000E+00 0. -1.
        -13    1    3    3    0    0 -0.37995484491E+01 -0.22931293500E+02 -0.38138449235E+02  0.44663431351E+02  0.00000000000E+00 0.  1.
         13    1    3    3    0    0 -0.16574412233E+03 -0.46879980925E+02 -0.84824522492E+03  0.86555693533E+03  0.00000000000E+00 0. -1.
         21    1    1    2  502  501  0.10940415534E+02  0.25515759943E+02 -0.15002954269E+03  0.15257657218E+03  0.00000000000E+00 0.  1.
<scales pt_clust_5="13000.00000" pt_clust_6="13000.00000" pt_clust_7="13000.00000" pt_clust_8="13000.00000" pt_clust_9="27.76233"></scales>
<clustering>
<clus scale="   27.762">  2  9  1 -1</clus>
<clus scale="   79.815">  5  6 -1 -1</clus>
<clus scale="   95.950">  7  8 -1 -1</clus>
<clus scale="  191.169">  2  5  1 -1</clus>
<clus scale="   27.762">  2  5  1 -1</clus>
</clustering>
</event>
<event>
 9    2  0.3791909E-005  0.2070830E+03  0.7546771E-02  0.1144497E+00
          2   -1    0    0  502    0  0.00000000000E+00  0.00000000000E+00  0.42974790872E+03  0.42974790872E+03  0.00000000000E+00 0. -1.
         -1   -1    0    0    0  501 -0.00000000000E+00 -0.00000000000E+00 -0.25959370159E+03  0.25959370159E+03  0.00000000000E+00 0.  1.
         23    2    1    2    0    0  0.15352703702E+03 -0.65649175330E+02 -0.91423980439E+02  0.21070582596E+03  0.90322951540E+02 0.  0.
         24    2    1    2    0    0 -0.26045486775E+03  0.60256531408E+02  0.23358934940E+03  0.36797406263E+03  0.96816005390E+02 0.  0.
        -13    1    4    4    0    0 -0.35198073218E+02  0.43337286450E+02  0.67486103853E+02  0.87586522755E+02  0.00000000000E+00 0.  1.
         14    1    4    4    0    0 -0.22525679453E+03  0.16919244958E+02  0.16610324555E+03  0.28038753987E+03  0.00000000000E+00 0. -1.
        -11    1    3    3    0    0  0.31475609517E+02 -0.47038854640E+02 -0.61677602542E+02  0.83710778850E+02  0.00000000000E+00 0.  1.
         11    1    3    3    0    0  0.12205142750E+03 -0.18610320690E+02 -0.29746377897E+02  0.12699504711E+03  0.00000000000E+00 0. -1.
         21    1    1    2  502  501  0.10692783073E+03  0.53926439222E+01  0.27988838171E+02  0.11066172173E+03  0.00000000000E+00 0.  1.
<scales pt_clust_5="13000.00000" pt_clust_6="13000.00000" pt_clust_7="13000.00000" pt_clust_8="13000.00000" pt_clust_9="107.06373"></scales>
<clustering>
<clus scale="   90.323">  7  8 -1 -1</clus>
<clus scale="   96.816">  5  6 -1 -1</clus>
<clus scale="  107.064">  1  9  2 -1</clus>
<clus scale="  204.128">  2  7  1 -1</clus>
<clus scale="  107.064">  1  5  2 -1</clus>
</clustering>
</event>
<event>
 9    2  0.3791909E-005  0.1856931E+03  0.7546771E-02  0.1163618E+00
         -1   -1    0    0    0  501 -0.00000000000E+00  0.00000000000E+00  0.10655133354E+03  0.10655133354E+03  0.00000000000E+00 0.  1.
          2   -1    0    0  502    0  0.00000000000E+00 -0.00000000000E+00 -0.10446579187E+04  0.10446579187E+04  0.00000000000E+00 0. -1.
         23    2    1    2    0    0  0.15580411800E+03 -0.24980817136E+02 -0.66684602425E+01  0.18213983317E+03  0.90727537470E+02 0.  0.
         24    2    1    2    0    0 -0.18822692022E+03  0.66195850697E+02 -0.76114141528E+03  0.79088163495E+03  0.79663305866E+02 0.  0.
        -13    1    4    4    0    0 -0.28938191556E+02 -0.27501076546E+01 -0.41917545391E+02  0.51010416919E+02  0.00000000000E+00 0.  1.
         14    1    4    4    0    0 -0.15928872867E+03  0.68945958352E+02 -0.71922386989E+03  0.73987121803E+03  0.00000000000E+00 0. -1.
        -13    1    3    3    0    0  0.14609558392E+02 -0.34901760670E+02 -0.14160149752E+02  0.40399033841E+02  0.00000000000E+00 0. -1.
         13    1    3    3    0    0  0.14119455961E+03  0.99209435338E+01  0.74916895091E+01  0.14174079933E+03  0.00000000000E+00 0.  1.
         21    1    1    2  502  501  0.32422802224E+02 -0.41215033561E+02 -0.17029670963E+03  0.17818778411E+03  0.00000000000E+00 0. -1.
<scales pt_clust_5="13000.00000" pt_clust_6="13000.00000" pt_clust_7="13000.00000" pt_clust_8="13000.00000" pt_clust_9="52.43965"></scales>
<clustering>
<clus scale="   52.440">  2  9  1 -1</clus>
<clus scale="   79.663">  5  6 -1 -1</clus>
<clus scale="   90.728">  7  8 -1 -1</clus>
<clus scale="  180.545">  2  5  1 -1</clus>
<clus scale="   52.440">  2  5  1 -1</clus>
</clustering>
</event>
<event>
 9    2  0.3791909E-005  0.3262825E+03  0.7546771E-02  0.1073218E+00
         -1   -1    0    0    0  501 -0.00000000000E+00  0.00000000000E+00  0.11627362011E+04  0.11627362011E+04  0.00000000000E+00 0.  1.
          2   -1    0    0  502    0  0.00000000000E+00 -0.00000000000E+00 -0.17222038291E+03  0.17222038291E+03  0.00000000000E+00 0. -1.
         23    2    1    2    0    0  0.37475279220E+03 -0.49331661986E+02  0.76586585618E+03  0.85921698416E+03  0.93968335510E+02 0.  0.
         24    2    1    2    0    0 -0.22841442863E+03  0.52361310322E+02  0.21689234509E+03  0.32916444497E+03  0.79950512508E+02 0.  0.
        -13    1    4    4    0    0 -0.15606087645E+03  0.13611092022E+01  0.16230070580E+03  0.22516298293E+03  0.00000000000E+00 0.  1.
         14    1    4    4    0    0 -0.72353552176E+02  0.51000201120E+02  0.54591639283E+02  0.10400146204E+03  0.00000000000E+00 0. -1.
        -11    1    3    3    0    0  0.35563602558E+03 -0.68430361607E+02  0.72088255616E+03  0.80674119571E+03  0.00000000000E+00 0.  1.
         11    1    3    3    0    0  0.19116766626E+02  0.19098699622E+02  0.44983300014E+02  0.52475788452E+02  0.00000000000E+00 0. -1.
         21    1    1    2  502  501 -0.14633836357E+03 -0.30296483368E+01  0.77576169725E+01  0.14657515493E+03  0.00000000000E+00 0. -1.
<scales pt_clust_5="13000.00000" pt_clust_6="13000.00000" pt_clust_7="13000.00000" pt_clust_8="13000.00000" pt_clust_9="146.36972"></scales>
<clustering>
<clus scale="   79.951">  5  6 -1 -1</clus>
<clus scale="   93.968">  7  8 -1 -1</clus>
<clus scale="  146.370">  2  9  1 -1</clus>
<clus scale="  322.525">  2  5  1 -1</clus>
<clus scale="  146.370">  2  5  1 -1</clus>
</clustering>
</event>
<event>
 9    2  0.3791909E-005  0.9095586E+02  0.7546771E-02  0.1308537E+00
         -1   -1    0    0    0  501 -0.00000000000E+00  0.00000000000E+00  0.36402837584E+02  0.36402837584E+02  0.00000000000E+00 0.  1.
          2   -1    0    0  502    0  0.00000000000E+00 -0.00000000000E+00 -0.50651377987E+03  0.50651377987E+03  0.00000000000E+00 0. -1.
         23    2    1    2    0    0 -0.14607266895E+02 -0.27021904270E+01 -0.37711542448E+02  0.98933367721E+02  0.90249524849E+02 0.  0.
         24    2    1    2    0    0 -0.58694312075E+01 -0.64024418679E+01 -0.34382203595E+03  0.35261509944E+03  0.77771295889E+02 0.  0.
        -11    1    4    4    0    0 -0.22599727333E+02 -0.33655802073E+02 -0.12347838264E+03  0.12996296268E+03  0.00000000000E+00 0.  1.
         12    1    4    4    0    0  0.16730296125E+02  0.27253360205E+02 -0.22034365331E+03  0.22265213676E+03  0.00000000000E+00 0. -1.
        -11    1    3    3    0    0 -0.15620068783E+02  0.42587701084E+02 -0.12336467232E+02  0.47009437948E+02  0.00000000000E+00 0.  1.
         11    1    3    3    0    0  0.10128018874E+01 -0.45289891511E+02 -0.25375075217E+02  0.51923929773E+02  0.00000000000E+00 0. -1.
         21    1    1    2  502  501  0.20476698103E+02  0.91046322949E+01 -0.88577363888E+02  0.91368150292E+02  0.00000000000E+00 0.  1.
<scales pt_clust_5="13000.00000" pt_clust_6="13000.00000" pt_clust_7="13000.00000" pt_clust_8="13000.00000" pt_clust_9="22.40958"></scales>
<clustering>
<clus scale="   22.410">  2  9  1 -1</clus>
<clus scale="   77.771">  5  6 -1 -1</clus>
<clus scale="   78.590">  2  5  1 -1</clus>
<clus scale="   90.250">  7  8 -1 -1</clus>
<clus scale="   22.410">  2  5  1 -1</clus>
</clustering>
</event>
<event>
 9    2  0.3791909E-005  0.2299997E+03  0.7546771E-02  0.1171342E+00
         -1   -1    0    0    0  501 -0.00000000000E+00  0.00000000000E+00  0.37304335399E+03  0.37304335399E+03  0.00000000000E+00 0.  1.
          2   -1    0    0  502    0  0.00000000000E+00 -0.00000000000E+00 -0.30935669346E+03  0.30935669346E+03  0.00000000000E+00 0. -1.
         24    2    1    2    0    0 -0.14077445368E+02 -0.50885736503E+01  0.17904708683E+03  0.19593006335E+03  0.78145136591E+02 0.  0.
         23    2    1    2    0    0  0.21600839839E+03  0.47340366434E+02  0.18977430851E+02  0.24028309645E+03  0.92060225322E+02 0.  0.
        -11    1    3    3    0    0  0.43479665434E+01 -0.26616455737E+02  0.15887318760E+03  0.16114599054E+03  0.00000000000E+00 0.  1.
         12    1    3    3    0    0 -0.18425411912E+02  0.21527882086E+02  0.20173899231E+02  0.34784072812E+02  0.00000000000E+00 0. -1.
        -13    1    4    4    0    0  0.15108875274E+03 -0.89183491735E+01  0.27951094467E+02  0.15391105171E+03  0.00000000000E+00 0.  1.
         13    1    4    4    0    0  0.64919645655E+02  0.56258715608E+02 -0.89736636162E+01  0.86372044739E+02  0.00000000000E+00 0. -1.
         21    1    1    2  502  501 -0.20193095303E+03 -0.42251792784E+02 -0.13433785716E+03  0.24618688765E+03  0.00000000000E+00 0. -1.
<scales pt_clust_5="13000.00000" pt_clust_6="13000.00000" pt_clust_7="13000.00000" pt_clust_8="13000.00000" pt_clust_9="210.77188"></scales>
<clustering>
<clus scale="   78.145">  5  6 -1 -1</clus>
<clus scale="   79.566">  1  5  2 -1</clus>
<clus scale="   92.060">  7  8 -1 -1</clus>
<clus scale="  210.772">  2  9  1 -1</clus>
<clus scale="  210.772">  2  5  1 -1</clus>
</clustering>
</event>
<event>
 9    2  0.3791909E-005  0.1665166E+03  0.7546771E-02  0.1183038E+00
         -1   -1    0    0    0  501 -0.00000000000E+00  0.00000000000E+00  0.66904508773E+02  0.66904508773E+02  0.00000000000E+00 0.  1.
          2   -1    0    0  502    0  0.00000000000E+00 -0.00000000000E+00 -0.12091119592E+04  0.12091119592E+04  0.00000000000E+00 0. -1.
         23    2    1    2    0    0  0.68120191758E+02 -0.12837924064E+03 -0.73187402293E+02  0.18628998723E+03  0.90697152851E+02 0.  0.
         24    2    1    2    0    0 -0.82686783474E+02  0.68559712676E+02 -0.89843004461E+03  0.90836631196E+03  0.80095401140E+02 0.  0.
        -13    1    4    4    0    0  0.14192676849E+02  0.15013747618E+02 -0.86918704268E+02  0.89340393134E+02  0.00000000000E+00 0.  1.
         14    1    4    4    0    0 -0.96879460324E+02  0.53545965059E+02 -0.81151134034E+03  0.81902591882E+03  0.00000000000E+00 0. -1.
        -11    1    3    3    0    0  0.61463451656E+02 -0.86965366677E+02 -0.91612414783E+02  0.14047620949E+03  0.00000000000E+00 0. -1.
         11    1    3    3    0    0  0.66567401019E+01 -0.41413873962E+02  0.18425012490E+02  0.45813777738E+02  0.00000000000E+00 0.  1.
         21    1    1    2  502  501  0.14566591717E+02  0.59819527963E+02 -0.17059000358E+03  0.18136016884E+03  0.00000000000E+00 0. -1.
<scales pt_clust_5="13000.00000" pt_clust_6="13000.00000" pt_clust_7="13000.00000" pt_clust_8="13000.00000" pt_clust_9="61.56754"></scales>
<clustering>
<clus scale="   61.568">  2  9  1 -1</clus>
<clus scale="   80.095">  5  6 -1 -1</clus>
<clus scale="   90.697">  7  8 -1 -1</clus>
<clus scale="  160.988">  2  5  1 -1</clus>
<clus scale="   61.568">  2  5  1 -1</clus>
</clustering>
</event>
<event>
 9    2  0.3791909E-005  0.1595906E+03  0.7546771E-02  0.1194077E+00
         -1   -1    0    0    0  501 -0.00000000000E+00  0.00000000000E+00  0.76011093016E+02  0.76011093016E+02  0.00000000000E+00 0.  1.
          2   -1    0    0  502    0  0.00000000000E+00 -0.00000000000E+00 -0.54132304062E+03  0.54132304062E+03  0.00000000000E+00 0. -1.
         23    2    1    2    0    0  0.10050521035E+03 -0.50874238943E+02 -0.55634291560E+02  0.16456644620E+03  0.10628948830E+03 0.  0.
         24    2    1    2    0    0 -0.12750276197E+03  0.61081988926E+02 -0.36680296742E+03  0.40108301971E+03  0.79594020540E+02 0.  0.
        -13    1    4    4    0    0 -0.47973369878E+02  0.30215286566E+02 -0.59617594834E+02  0.82271899052E+02  0.00000000000E+00 0.  1.
         14    1    4    4    0    0 -0.79529392096E+02  0.30866702360E+02 -0.30718537259E+03  0.31881112066E+03  0.00000000000E+00 0. -1.
        -11    1    3    3    0    0  0.52131057094E+02 -0.41169466573E+01 -0.77791202655E+02  0.93734025700E+02  0.00000000000E+00 0. -1.
         11    1    3    3    0    0  0.48374153255E+02 -0.46757292285E+02  0.22156911095E+02  0.70832420502E+02  0.00000000000E+00 0.  1.
         21    1    1    2  502  501  0.26997551626E+02 -0.10207749983E+02 -0.42874688620E+02  0.51684667724E+02  0.00000000000E+00 0.  1.
<scales pt_clust_5="13000.00000" pt_clust_6="13000.00000" pt_clust_7="13000.00000" pt_clust_8="13000.00000" pt_clust_9="28.86288"></scales>
<clustering>
<clus scale="   28.863">  2  9  1 -1</clus>
<clus scale="   79.594">  5  6 -1 -1</clus>
<clus scale="  106.289">  7  8 -1 -1</clus>
<clus scale="  143.202">  2  5  1 -1</clus>
<clus scale="   28.863">  2  5  1 -1</clus>
</clustering>
</event>
<event>
 9    2  0.3791909E-005  0.1840661E+03  0.7546771E-02  0.1164789E+00
         -3   -1    0    0    0  501 -0.00000000000E+00  0.00000000000E+00  0.23745415115E+03  0.23745415115E+03  0.00000000000E+00 0.  1.
          4   -1    0    0  502    0  0.00000000000E+00 -0.00000000000E+00 -0.71188992865E+03  0.71188992865E+03  0.00000000000E+00 0. -1.
         23    2    1    2    0    0  0.11679944063E+03 -0.11003909900E+03  0.17607559984E+03  0.25397042798E+03  0.88020729308E+02 0.  0.
         24    2    1    2    0    0 -0.10071682358E+03  0.15021687855E+03 -0.47372199951E+03  0.51336434256E+03  0.80133802127E+02 0.  0.
        -13    1    4    4    0    0 -0.72032835314E+01  0.62202647456E+02 -0.97952054645E+02  0.11625687788E+03  0.00000000000E+00 0.  1.
         14    1    4    4    0    0 -0.93513540051E+02  0.88014231091E+02 -0.37576994486E+03  0.39710746469E+03  0.00000000000E+00 0. -1.
        -11    1    3    3    0    0  0.86185429378E+02 -0.47473337732E+02  0.51047204597E+02  0.11084883008E+03  0.00000000000E+00 0. -1.
         11    1    3    3    0    0  0.30614011250E+02 -0.62565761265E+02  0.12502839525E+03  0.14312159790E+03  0.00000000000E+00 0.  1.
         21    1    1    2  502  501 -0.16082617045E+02 -0.40177779551E+02 -0.17678937784E+03  0.18200930926E+03  0.00000000000E+00 0. -1.
<scales pt_clust_5="13000.00000" pt_clust_6="13000.00000" pt_clust_7="13000.00000" pt_clust_8="13000.00000" pt_clust_9="43.27707"></scales>
<clustering>
<clus scale="   43.277">  2  9  1 -1</clus>
<clus scale="   80.134">  5  6 -1 -1</clus>
<clus scale="   88.021">  7  8 -1 -1</clus>
<clus scale="  180.428">  2  5  1 -1</clus>
<clus scale="   43.277">  2  5  1 -1</clus>
</clustering>
</event>
<event>
 9    2  0.3791909E-005  0.1315437E+03  0.7546771E-02  0.1227643E+00
         -1   -1    0    0    0  501 -0.00000000000E+00  0.00000000000E+00  0.22330351097E+03  0.22330351097E+03  0.00000000000E+00 0.  1.
          2   -1    0    0  502    0  0.00000000000E+00 -0.00000000000E+00 -0.32695882682E+03  0.32695882682E+03  0.00000000000E+00 0. -1.
         24    2    1    2    0    0  0.75400087299E+02 -0.51919029223E+02  0.15135703567E+03  0.19435906420E+03  0.80534060065E+02 0.  0.
         23    2    1    2    0    0 -0.71375116677E+02  0.10599017506E+03 -0.86371330825E+02  0.17876015896E+03  0.90370698521E+02 0.  0.
        -11    1    3    3    0    0  0.78136913867E+02 -0.36136669374E+02  0.15556575459E+03  0.17779746956E+03  0.00000000000E+00 0.  1.
         12    1    3    3    0    0 -0.27368265677E+01 -0.15782359848E+02 -0.42087189191E+01  0.16561594639E+02  0.00000000000E+00 0. -1.
        -11    1    4    4    0    0 -0.24696688362E+02 -0.87910297189E+01 -0.37070203158E+02  0.45402737602E+02  0.00000000000E+00 0.  1.
         11    1    4    4    0    0 -0.46678428315E+02  0.11478120478E+03 -0.49301127667E+02  0.13335742136E+03  0.00000000000E+00 0. -1.
         21    1    1    2  502  501 -0.40249706215E+01 -0.54071145840E+02 -0.16864102070E+03  0.17714311463E+03  0.00000000000E+00 0. -1.
<scales pt_clust_5="13000.00000" pt_clust_6="13000.00000" pt_clust_7="13000.00000" pt_clust_8="13000.00000" pt_clust_9="54.22075"></scales>
<clustering>
<clus scale="   54.221">  2  9  1 -1</clus>
<clus scale="   80.534">  5  6 -1 -1</clus>
<clus scale="   90.371">  7  8 -1 -1</clus>
<clus scale="  124.990">  1  5  2 -1</clus>
<clus scale="   54.221">  2  5  1 -1</clus>
</clustering>
</event>
<event>
 9    2  0.3791909E-005  0.1010087E+03  0.7546771E-02  0.1284218E+00
          2   -1    0    0  502    0  0.00000000000E+00  0.00000000000E+00  0.12256798426E+03  0.12256798426E+03  0.00000000000E+00 0. -1.
         -1   -1    0    0    0  501 -0.00000000000E+00 -0.00000000000E+00 -0.16102695979E+03  0.16102695979E+03  0.00000000000E+00 0.  1.
         24    2    1    2    0    0  0.43006272868E+02  0.10545696694E+02 -0.84544465885E+02  0.12327845326E+03  0.78032423393E+02 0.  0.
         23    2    1    2    0    0 -0.34947785485E+02 -0.41830829872E+02  0.19313175237E+01  0.10560552521E+03  0.90430254504E+02 0.  0.
        -13    1    3    3    0    0  0.47939003736E+02 -0.24009826952E+02 -0.60793860565E+02  0.81058703122E+02  0.00000000000E+00 0.  1.
         14    1    3    3    0    0 -0.49327308683E+01  0.34555523646E+02 -0.23750605319E+02  0.42219750133E+02  0.00000000000E+00 0. -1.
        -13    1    4    4    0    0 -0.30766417434E+02  0.24365917423E+02 -0.80050648188E-01  0.39246360108E+02  0.00000000000E+00 0.  1.
         13    1    4    4    0    0 -0.41813680507E+01 -0.66196747295E+02  0.20113681719E+01  0.66359165103E+02  0.00000000000E+00 0. -1.
         21    1    1    2  502  501 -0.80584873829E+01  0.31285133178E+02  0.44154172832E+02  0.54710965586E+02  0.00000000000E+00 0.  1.
<scales pt_clust_5="13000.00000" pt_clust_6="13000.00000" pt_clust_7="13000.00000" pt_clust_8="13000.00000" pt_clust_9="32.30633"></scales>
<clustering>
<clus scale="   32.306">  1  9  2 -1</clus>
<clus scale="   78.032">  5  6 -1 -1</clus>
<clus scale="   90.079">  2  5  1 -1</clus>
<clus scale="   90.430">  7  8 -1 -1</clus>
<clus scale="   32.306">  1  5  2 -1</clus>
</clustering>
</event>
<event>
 9    2  0.3791909E-005  0.8911973E+02  0.7546771E-02  0.1305850E+00
         -1   -1    0    0    0  501 -0.00000000000E+00  0.00000000000E+00  0.87648341510E+02  0.87648341510E+02  0.00000000000E+00 0.  1.
          2   -1    0    0  502    0  0.00000000000E+00 -0.00000000000E+00 -0.42130016090E+03  0.42130016090E+03  0.00000000000E+00 0. -1.
         23    2    1    2    0    0  0.25170113878E+02 -0.22232099153E+02  0.50719031932E+02  0.10191916220E+03  0.81775880046E+02 0.  0.
         24    2    1    2    0    0 -0.47583789110E+02  0.37745037403E+02 -0.34316260284E+03  0.35762140731E+03  0.80272001012E+02 0.  0.
        -13    1    4    4    0    0 -0.40093160567E+02  0.61210514188E+02 -0.21492412656E+03  0.22703869438E+03  0.00000000000E+00 0.  1.
         14    1    4    4    0    0 -0.74906285434E+01 -0.23465476785E+02 -0.12823847628E+03  0.13058271293E+03  0.00000000000E+00 0. -1.
        -11    1    3    3    0    0  0.48895405761E+02 -0.16271077416E+02  0.56819783071E+02  0.76707212262E+02  0.00000000000E+00 0.  1.
         11    1    3    3    0    0 -0.23725291882E+02 -0.59610217369E+01 -0.61007511390E+01  0.25211949935E+02  0.00000000000E+00 0. -1.
         21    1    1    2  502  501  0.22413675232E+02 -0.15512938251E+02 -0.41208248482E+02  0.49407932901E+02  0.00000000000E+00 0.  1.
<scales pt_clust_5="13000.00000" pt_clust_6="13000.00000" pt_clust_7="13000.00000" pt_clust_8="13000.00000" pt_clust_9="27.25847"></scales>
<clustering>
<clus scale="   27.258">  2  9  1 -1</clus>
<clus scale="   80.272">  5  6 -1 -1</clus>
<clus scale="   81.776">  7  8 -1 -1</clus>
<clus scale="   87.742">  2  5  1 -1</clus>
<clus scale="   27.258">  2  5  1 -1</clus>
</clustering>
</event>
<event>
 9    2  0.3791909E-005  0.1036520E+03  0.7546771E-02  0.1278500E+00
         -1   -1    0    0    0  501 -0.00000000000E+00  0.00000000000E+00  0.87036428207E+02  0.87036428207E+02  0.00000000000E+00 0.  1.
          2   -1    0    0  502    0  0.00000000000E+00 -0.00000000000E+00 -0.62499839027E+03  0.62499839027E+03  0.00000000000E+00 0. -1.
         23    2    1    2    0    0 -0.22146339526E+02  0.39893142545E+02  0.39278526347E+02  0.10997208404E+03  0.92027895005E+02 0.  0.
         24    2    1    2    0    0  0.38823987880E+02 -0.28227461240E+02 -0.57394600635E+03  0.58144512820E+03  0.79751660183E+02 0.  0.
        -11    1    4    4    0    0  0.22834599296E+02  0.15592191442E+02 -0.68774927833E+02  0.74125070370E+02  0.00000000000E+00 0.  1.
         12    1    4    4    0    0  0.15989388584E+02 -0.43819652682E+02 -0.50517107851E+03  0.50732005783E+03  0.00000000000E+00 0. -1.
        -11    1    3    3    0    0 -0.47178682106E+02  0.55225228885E+02  0.21920330452E+02  0.75869327385E+02  0.00000000000E+00 0.  1.
         11    1    3    3    0    0  0.25032342580E+02 -0.15332086340E+02  0.17358195895E+02  0.34102756653E+02  0.00000000000E+00 0. -1.
         21    1    1    2  502  501 -0.16677648354E+02 -0.11665681305E+02 -0.32944820619E+01  0.20617606238E+02  0.00000000000E+00 0.  1.
<scales pt_clust_5="13000.00000" pt_clust_6="13000.00000" pt_clust_7="13000.00000" pt_clust_8="13000.00000" pt_clust_9="20.35269"></scales>
<clustering>
<clus scale="   20.353">  1  9  2 -1</clus>
<clus scale="   79.752">  5  6 -1 -1</clus>
<clus scale="   92.028">  7  8 -1 -1</clus>
<clus scale="   92.924">  2  5  1 -1</clus>
<clus scale="   92.924">  2  5  1 -1</clus>
</clustering>
</event>
<event>
 9    2  0.3791909E-005  0.1486454E+03  0.7546771E-02  0.1204051E+00
          2   -1    0    0  502    0  0.00000000000E+00  0.00000000000E+00  0.39118633276E+03  0.39118633276E+03  0.00000000000E+00 0. -1.
         -1   -1    0    0    0  501 -0.00000000000E+00 -0.00000000000E+00 -0.36658300837E+03  0.36658300837E+03  0.00000000000E+00 0.  1.
         24    2    1    2    0    0 -0.11605621701E+03 -0.71879451735E+02 -0.30229262922E+03  0.34086283542E+03  0.78555316845E+02 0.  0.
         23    2    1    2    0    0  0.76012965321E+02  0.90981306064E+02  0.33978245613E+03  0.37070688675E+03  0.88971396782E+02 0.  0.
        -13    1    3    3    0    0 -0.87446190531E+02 -0.80471248046E+02 -0.18542845372E+03  0.22024116202E+03  0.00000000000E+00 0.  1.
         14    1    3    3    0    0 -0.28610026478E+02  0.85917963106E+01 -0.11686417549E+03  0.12062167340E+03  0.00000000000E+00 0. -1.
        -13    1    4    4    0    0  0.30743933164E+02 -0.14084179058E+02  0.75881430980E+02  0.83075538480E+02  0.00000000000E+00 0.  1.
         13    1    4    4    0    0  0.45269032156E+02  0.10506548512E+03  0.26390102515E+03  0.28763134827E+03  0.00000000000E+00 0. -1.
         21    1    1    2  502  501  0.40043251688E+02 -0.19101854329E+02 -0.12886502519E+02  0.46199618957E+02  0.00000000000E+00 0.  1.
<scales pt_clust_5="13000.00000" pt_clust_6="13000.00000" pt_clust_7="13000.00000" pt_clust_8="13000.00000" pt_clust_9="44.36601"></scales>
<clustering>
<clus scale="   44.366">  2  9  1 -1</clus>
<clus scale="   78.555">  5  6 -1 -1</clus>
<clus scale="   88.971">  7  8 -1 -1</clus>
<clus scale="  142.655">  2  5  1 -1</clus>
<clus scale="  148.645">  1  5  2 -1</clus>
</clustering>
</event>
<event>
 9    2  0.3791909E-005  0.1158481E+03  0.7546771E-02  0.1251978E+00
         -3   -1    0    0    0  501 -0.00000000000E+00  0.00000000000E+00  0.37889549134E+03  0.37889549134E+03  0.00000000000E+00 0.  1.
          4   -1    0    0  502    0  0.00000000000E+00 -0.00000000000E+00 -0.63104020754E+02  0.63104020754E+02  0.00000000000E+00 0. -1.
         23    2    1    2    0    0  0.31823526312E+02 -0.75013746475E+02  0.29040250098E+03  0.31387530533E+03  0.86857905430E+02 0.  0.
         24    2    1    2    0    0 -0.25917193446E+02  0.52245217512E+02  0.10899702067E+02  0.10049759725E+03  0.81115349220E+02 0.  0.
        -13    1    4    4    0    0  0.22060600896E+02  0.36659019256E+02  0.23064183822E+02  0.48605662017E+02  0.00000000000E+00 0.  1.
         14    1    4    4    0    0 -0.47977794342E+02  0.15586198256E+02 -0.12164481755E+02  0.51891935234E+02  0.00000000000E+00 0. -1.
        -11    1    3    3    0    0  0.54930804280E+02 -0.31542676470E+02  0.21232919702E+03  0.22157622076E+03  0.00000000000E+00 0.  1.
         11    1    3    3    0    0 -0.23107277968E+02 -0.43471070005E+02  0.78073303960E+02  0.92299084577E+02  0.00000000000E+00 0. -1.
         21    1    1    2  502  501 -0.59063328661E+01  0.22768528963E+02  0.14489267536E+02  0.27626609506E+02  0.00000000000E+00 0.  1.
<scales pt_clust_5="13000.00000" pt_clust_6="13000.00000" pt_clust_7="13000.00000" pt_clust_8="13000.00000" pt_clust_9="23.52213"></scales>
<clustering>
<clus scale="   23.522">  2  9  1 -1</clus>
<clus scale="   81.115">  5  6 -1 -1</clus>
<clus scale="   86.858">  7  8 -1 -1</clus>
<clus scale="  111.607">  2  5  1 -1</clus>
<clus scale="   23.522">  2  5  1 -1</clus>
</clustering>
</event>
<event>
 9    2  0.3791909E-005  0.1410483E+03  0.7546771E-02  0.1213651E+00
          2   -1    0    0  502    0  0.00000000000E+00  0.00000000000E+00  0.40197139053E+03  0.40197139053E+03  0.00000000000E+00 0. -1.
         -1   -1    0    0    0  501 -0.00000000000E+00 -0.00000000000E+00 -0.47673526414E+03  0.47673526414E+03  0.00000000000E+00 0.  1.
         23    2    1    2    0    0  0.10189766044E+03  0.37894690018E+01 -0.37853992390E+03  0.40286030953E+03  0.92771017717E+02 0.  0.
         24    2    1    2    0    0  0.10833873978E+03 -0.13193091448E+02  0.47026602806E+02  0.14387036577E+03  0.81091556758E+02 0.  0.
        -13    1    4    4    0    0  0.10785092133E+03 -0.13683461438E+02  0.12607239835E+02  0.10944405350E+03  0.00000000000E+00 0.  1.
         14    1    4    4    0    0  0.48781844421E+00  0.49036999051E+00  0.34419362971E+02  0.34426312276E+02  0.00000000000E+00 0. -1.
        -11    1    3    3    0    0  0.90763049480E+02  0.21972299198E+02 -0.36684039286E+03  0.37854007307E+03  0.00000000000E+00 0.  1.
         11    1    3    3    0    0  0.11134610957E+02 -0.18182830196E+02 -0.11699531045E+02  0.24320236466E+02  0.00000000000E+00 0. -1.
         21    1    1    2  502  501 -0.21023640022E+03  0.94036224461E+01  0.25674944748E+03  0.33197597936E+03  0.00000000000E+00 0. -1.
<scales pt_clust_5="13000.00000" pt_clust_6="13000.00000" pt_clust_7="13000.00000" pt_clust_8="13000.00000" pt_clust_9="106.24582"></scales>
<clustering>
<clus scale="   81.092">  5  6 -1 -1</clus>
<clus scale="   92.771">  7  8 -1 -1</clus>
<clus scale="  135.968">  1  5  2 -1</clus>
<clus scale="  106.246">  1  9  2 -1</clus>
<clus scale="  135.968">  1  5  2 -1</clus>
</clustering>
</event>
<event>
 9    2  0.4112474E-005  0.1220443E+03  0.7546771E-02  0.1247991E+00
          2   -1    0    0  502    0  0.00000000000E+00  0.00000000000E+00  0.22662778694E+03  0.22662778694E+03  0.00000000000E+00 0. -1.
         -1   -1    0    0    0  501 -0.00000000000E+00 -0.00000000000E+00 -0.37939725125E+03  0.37939725125E+03  0.00000000000E+00 0.  1.
         24    2    1    2    0    0  0.35276674827E+02  0.54235934699E+02 -0.33592188077E+03  0.35170135653E+03  0.81635493517E+02 0.  0.
         23    2    1    2    0    0 -0.43368042521E+01 -0.33421945670E+02  0.18709383982E+03  0.21682658113E+03  0.10427764410E+03 0.  0.
        -13    1    3    3    0    0  0.50714206996E+00  0.52363460908E+02 -0.28649295160E+03  0.29123942135E+03  0.00000000000E+00 0.  1.
         14    1    3    3    0    0  0.34769532758E+02  0.18724737910E+01 -0.49428929170E+02  0.60461935175E+02  0.00000000000E+00 0. -1.
        -11    1    4    4    0    0 -0.47473135503E+02 -0.36084120608E+02  0.69683263278E+02  0.91714336587E+02  0.00000000000E+00 0. -1.
         11    1    4    4    0    0  0.43136331251E+02  0.26621749381E+01  0.11741057655E+03  0.12511224454E+03  0.00000000000E+00 0.  1.
         21    1    1    2  502  501 -0.30939870575E+02 -0.20813989029E+02 -0.39414233516E+01  0.37497100535E+02  0.00000000000E+00 0. -1.
<scales pt_clust_5="13000.00000" pt_clust_6="13000.00000" pt_clust_7="13000.00000" pt_clust_8="13000.00000" pt_clust_9="37.28938"></scales>
<clustering>
<clus scale="   37.289">  1  9  2 -1</clus>
<clus scale="   81.635">  5  6 -1 -1</clus>
<clus scale="  103.370">  2  5  1 -1</clus>
<clus scale="  104.278">  7  8 -1 -1</clus>
<clus scale="   37.289">  1  5  2 -1</clus>
</clustering>
</event>
<event>
 9    2  0.3791909E-005  0.2491545E+03  0.7546771E-02  0.1113840E+00
          2   -1    0    0  502    0  0.00000000000E+00  0.00000000000E+00  0.41883188124E+03  0.41883188124E+03  0.00000000000E+00 0. -1.
         -1   -1    0    0    0  501 -0.00000000000E+00 -0.00000000000E+00 -0.16144509710E+03  0.16144509710E+03  0.00000000000E+00 0.  1.
         24    2    1    2    0    0 -0.42377120390E+02  0.84745199604E+02  0.12389367302E+02  0.12409136901E+03  0.79168189649E+02 0.  0.
         23    2    1    2    0    0 -0.21037514980E+02  0.76130222003E+02 -0.36067694726E+02  0.12618573933E+03  0.91561861433E+02 0.  0.
        -13    1    3    3    0    0 -0.52785468773E+02  0.32650872408E+02 -0.15666215930E+02  0.64014182055E+02  0.00000000000E+00 0.  1.
         14    1    3    3    0    0  0.10408348383E+02  0.52094327196E+02  0.28055583232E+02  0.60077186956E+02  0.00000000000E+00 0. -1.
        -11    1    4    4    0    0 -0.24807954862E+00  0.43306665493E+02  0.27775639831E+02  0.51449149532E+02  0.00000000000E+00 0.  1.
         11    1    4    4    0    0 -0.20789435432E+02  0.32823556510E+02 -0.63843334557E+02  0.74736589800E+02  0.00000000000E+00 0. -1.
         21    1    1    2  502  501  0.63414635371E+02 -0.16087542161E+03  0.28106511157E+03  0.32999987000E+03  0.00000000000E+00 0. -1.
<scales pt_clust_5="13000.00000" pt_clust_6="13000.00000" pt_clust_7="13000.00000" pt_clust_8="13000.00000" pt_clust_9="172.92287"></scales>
<clustering>
<clus scale="   79.168">  5  6 -1 -1</clus>
<clus scale="   91.562">  7  8 -1 -1</clus>
<clus scale="  104.378">  5  7 -1 -1</clus>
<clus scale="  172.923">  1  9  2 -1</clus>
<clus scale="  172.923">  1  5  2 -1</clus>
</clustering>
</event>
<event>
 9    2  0.3791909E-005  0.1338229E+03  0.7546771E-02  0.1225775E+00
         -1   -1    0    0    0  501 -0.00000000000E+00  0.00000000000E+00  0.13556921326E+03  0.13556921326E+03  0.00000000000E+00 0.  1.
          2   -1    0    0  502    0  0.00000000000E+00 -0.00000000000E+00 -0.30502321377E+03  0.30502321377E+03  0.00000000000E+00 0. -1.
         24    2    1    2    0    0 -0.65381965097E+02 -0.87085295276E+02  0.47792753801E+02  0.14380604838E+03  0.80854079805E+02 0.  0.
         23    2    1    2    0    0  0.69105057559E+02  0.98030459852E+01 -0.94632782218E+02  0.15180157384E+03  0.96003883569E+02 0.  0.
        -13    1    3    3    0    0 -0.57758969645E+02 -0.97315275723E+02  0.22360392178E+02  0.11535314734E+03  0.00000000000E+00 0.  1.
         14    1    3    3    0    0 -0.76229954515E+01  0.10229980447E+02  0.25432361623E+02  0.28452901036E+02  0.00000000000E+00 0. -1.
        -13    1    4    4    0    0  0.84015220509E+02 -0.18849381799E+02 -0.73445686488E+02  0.11317298854E+03  0.00000000000E+00 0.  1.
         13    1    4    4    0    0 -0.14910162950E+02  0.28652427784E+02 -0.21187095730E+02  0.38628585304E+02  0.00000000000E+00 0. -1.
         21    1    1    2  502  501 -0.37230924626E+01  0.77282249291E+02 -0.12261397209E+03  0.14498480481E+03  0.00000000000E+00 0. -1.
<scales pt_clust_5="13000.00000" pt_clust_6="13000.00000" pt_clust_7="13000.00000" pt_clust_8="13000.00000" pt_clust_9="77.37188"></scales>
<clustering>
<clus scale="   77.372">  2  9  1 -1</clus>
<clus scale="   80.854">  5  6 -1 -1</clus>
<clus scale="   96.004">  7  8 -1 -1</clus>
<clus scale="  123.407">  1  5  2 -1</clus>
<clus scale="   77.372">  2  5  1 -1</clus>
</clustering>
</event>
<event>
 9    2  0.3791909E-005  0.1065056E+03  0.7546771E-02  0.1271738E+00
          2   -1    0    0  502    0  0.00000000000E+00  0.00000000000E+00  0.10008770421E+04  0.10008770421E+04  0.00000000000E+00 0. -1.
         -1   -1    0    0    0  501 -0.00000000000E+00 -0.00000000000E+00 -0.10422721539E+03  0.10422721539E+03  0.00000000000E+00 0.  1.
         23    2    1    2    0    0  0.70108155016E+00 -0.53613518022E+02 -0.66411968881E+02  0.12544230895E+03  0.91925635354E+02 0.  0.
         24    2    1    2    0    0  0.47169681628E+02  0.58565325195E+02  0.84404751946E+03  0.85128543867E+03  0.81337610027E+02 0.  0.
        -13    1    4    4    0    0  0.19756628693E+02  0.21655913770E+02  0.70216250880E+02  0.76089584479E+02  0.00000000000E+00 0.  1.
         14    1    4    4    0    0  0.27413052935E+02  0.36909411425E+02  0.77383126858E+03  0.77519585419E+03  0.00000000000E+00 0. -1.
        -13    1    3    3    0    0 -0.40749756975E+02 -0.39632136688E+02 -0.16748957948E+02  0.59260244214E+02  0.00000000000E+00 0.  1.
         13    1    3    3    0    0  0.41450838525E+02 -0.13981381334E+02 -0.49663010932E+02  0.66182064740E+02  0.00000000000E+00 0. -1.
         21    1    1    2  502  501 -0.47870763179E+02 -0.49518071738E+01  0.11901427615E+03  0.12837650988E+03  0.00000000000E+00 0.  1.
<scales pt_clust_5="13000.00000" pt_clust_6="13000.00000" pt_clust_7="13000.00000" pt_clust_8="13000.00000" pt_clust_9="48.12619"></scales>
<clustering>
<clus scale="   48.126">  1  9  2 -1</clus>
<clus scale="   81.338">  5  6 -1 -1</clus>
<clus scale="   91.926">  7  8 -1 -1</clus>
<clus scale="   97.514">  1  5  2 -1</clus>
<clus scale="   48.126">  1  5  2 -1</clus>
</clustering>
</event>
<event>
 9    2  0.3791909E-005  0.1463689E+03  0.7546771E-02  0.1246686E+00
          2   -1    0    0  502    0  0.00000000000E+00  0.00000000000E+00  0.92933745243E+02  0.92933745243E+02  0.00000000000E+00 0. -1.
         -1   -1    0    0    0  501 -0.00000000000E+00 -0.00000000000E+00 -0.54364961576E+03  0.54364961576E+03  0.00000000000E+00 0.  1.
         24    2    1    2    0    0 -0.18380113981E+02  0.22589017173E+02 -0.13178989700E+03  0.14543951565E+03  0.54184716228E+02 0.  0.
         23    2    1    2    0    0  0.10180148528E+03 -0.47878562015E+02  0.10786927558E+02  0.15010237661E+03  0.98784951046E+02 0.  0.
        -13    1    3    3    0    0 -0.32214648783E+02 -0.29557490434E+01 -0.64995975597E+02  0.72601631472E+02  0.00000000000E+00 0.  1.
         14    1    3    3    0    0  0.13834534802E+02  0.25544766217E+02 -0.66793921407E+02  0.72837884175E+02  0.00000000000E+00 0. -1.
        -11    1    4    4    0    0  0.60552727382E+02 -0.75830678638E+02 -0.67588085013E+01  0.97275927692E+02  0.00000000000E+00 0. -1.
         11    1    4    4    0    0  0.41248757898E+02  0.27952116622E+02  0.17545736060E+02  0.52826448922E+02  0.00000000000E+00 0.  1.
         21    1    1    2  502  501 -0.83421371300E+02  0.25289544842E+02 -0.32971290107E+03  0.34104146874E+03  0.00000000000E+00 0.  1.
<scales pt_clust_5="13000.00000" pt_clust_6="13000.00000" pt_clust_7="13000.00000" pt_clust_8="13000.00000" pt_clust_9="108.00644"></scales>
<clustering>
<clus scale="   54.185">  5  6 -1 -1</clus>
<clus scale="   61.515">  2  5  1 -1</clus>
<clus scale="   98.785">  7  8 -1 -1</clus>
<clus scale="  108.006">  2  9  1 -1</clus>
<clus scale="  146.369">  1  5  2 -1</clus>
</clustering>
</event>
<event>
 9    2  0.3791909E-005  0.1090567E+03  0.7546771E-02  0.1265514E+00
         -1   -1    0    0    0  501 -0.00000000000E+00  0.00000000000E+00  0.53274971486E+02  0.53274971486E+02  0.00000000000E+00 0.  1.
          2   -1    0    0  502    0  0.00000000000E+00 -0.00000000000E+00 -0.41359269826E+03  0.41359269826E+03  0.00000000000E+00 0. -1.
         24    2    1    2    0    0  0.37080059167E+02 -0.39811320398E+02 -0.43818191491E+02  0.10778075368E+03  0.82077919924E+02 0.  0.
         23    2    1    2    0    0 -0.38638692026E+02  0.69400318633E+02 -0.16159408138E+03  0.20137313163E+03  0.90161733878E+02 0.  0.
        -11    1    3    3    0    0  0.33209093100E+02  0.16322771527E+01 -0.55367844131E+02  0.64584102974E+02  0.00000000000E+00 0.  1.
         12    1    3    3    0    0  0.38709660664E+01 -0.41443597551E+02  0.11549652641E+02  0.43196650707E+02  0.00000000000E+00 0. -1.
        -11    1    4    4    0    0 -0.57422109069E+01  0.21169885847E+02  0.69457408395E+01  0.23008267399E+02  0.00000000000E+00 0.  1.
         11    1    4    4    0    0 -0.32896481119E+02  0.48230432785E+02 -0.16853982222E+03  0.17836486423E+03  0.00000000000E+00 0. -1.
         21    1    1    2  502  501  0.15586328594E+01 -0.29588998235E+02 -0.15490545390E+03  0.15771378444E+03  0.00000000000E+00 0. -1.
<scales pt_clust_5="13000.00000" pt_clust_6="13000.00000" pt_clust_7="13000.00000" pt_clust_8="13000.00000" pt_clust_9="29.63002"></scales>
<clustering>
<clus scale="   29.630">  2  9  1 -1</clus>
<clus scale="   82.078">  5  6 -1 -1</clus>
<clus scale="   90.162">  7  8 -1 -1</clus>
<clus scale="  102.474">  1  5  2 -1</clus>
<clus scale="   29.630">  2  5  1 -1</clus>
</clustering>
</event>
<event>
 9    2  0.3791909E-005  0.9797888E+02  0.7546771E-02  0.1288790E+00
          2   -1    0    0  502    0  0.00000000000E+00  0.00000000000E+00  0.23502257676E+03  0.23502257676E+03  0.00000000000E+00 0. -1.
         -1   -1    0    0    0  501 -0.00000000000E+00 -0.00000000000E+00 -0.15945720108E+03  0.15945720108E+03  0.00000000000E+00 0.  1.
         23    2    1    2    0    0  0.36219189693E+01 -0.36537238026E+02 -0.12043408054E+03  0.15560514920E+03  0.91435806126E+02 0.  0.
         24    2    1    2    0    0 -0.32056252629E+02  0.20860593419E+02  0.92108175812E+02  0.13002764126E+03  0.83429633526E+02 0.  0.
        -13    1    4    4    0    0 -0.26613283162E+02 -0.14326492431E+02 -0.11060368434E+01  0.30244644873E+02  0.00000000000E+00 0.  1.
         14    1    4    4    0    0 -0.54429694674E+01  0.35187085850E+02  0.93214212656E+02  0.99782996389E+02  0.00000000000E+00 0. -1.
        -11    1    3    3    0    0 -0.22795971314E+01 -0.63105887106E+02 -0.10923718041E+03  0.12617571532E+03  0.00000000000E+00 0.  1.
         11    1    3    3    0    0  0.59015161008E+01  0.26568649080E+02 -0.11196900125E+02  0.29429433882E+02  0.00000000000E+00 0. -1.
         21    1    1    2  502  501  0.28434333660E+02  0.15676644608E+02  0.10389128041E+03  0.10884698738E+03  0.00000000000E+00 0.  1.
<scales pt_clust_5="13000.00000" pt_clust_6="13000.00000" pt_clust_7="13000.00000" pt_clust_8="13000.00000" pt_clust_9="32.46950"></scales>
<clustering>
<clus scale="   32.470">  1  9  2 -1</clus>
<clus scale="   83.430">  5  6 -1 -1</clus>
<clus scale="   90.553">  1  5  2 -1</clus>
<clus scale="   91.436">  7  8 -1 -1</clus>
<clus scale="   32.470">  1  5  2 -1</clus>
</clustering>
</event>
<event>
 9    2  0.3791909E-005  0.3053623E+03  0.7546771E-02  0.1083169E+00
          2   -1    0    0  502    0  0.00000000000E+00  0.00000000000E+00  0.33637507734E+04  0.33637507734E+04  0.00000000000E+00 0. -1.
         -1   -1    0    0    0  501 -0.00000000000E+00 -0.00000000000E+00 -0.41140380099E+02  0.41140380099E+02  0.00000000000E+00 0.  1.
         23    2    1    2    0    0  0.16704439605E+03  0.21466371179E+03  0.87248493723E+03  0.91896571469E+03  0.96351853494E+02 0.  0.
         24    2    1    2    0    0 -0.15619288815E+03 -0.29254298769E+03  0.19398395625E+04  0.19696167811E+04  0.80219188588E+02 0.  0.
        -11    1    4    4    0    0 -0.23003611847E+02 -0.42010941134E+01  0.11723260993E+03  0.11954204357E+03  0.00000000000E+00 0.  1.
         12    1    4    4    0    0 -0.13318927631E+03 -0.28834189358E+03  0.18226069526E+04  0.18500747375E+04  0.00000000000E+00 0. -1.
        -11    1    3    3    0    0  0.11102104861E+03  0.14818068710E+03  0.43240045193E+03  0.47037574352E+03  0.00000000000E+00 0.  1.
         11    1    3    3    0    0  0.56023347438E+02  0.66483024684E+02  0.44008448531E+03  0.44858997117E+03  0.00000000000E+00 0. -1.
         21    1    1    2  502  501 -0.10851507899E+02  0.77879275907E+02  0.51028589351E+03  0.51630865764E+03  0.00000000000E+00 0.  1.
<scales pt_clust_5="13000.00000" pt_clust_6="13000.00000" pt_clust_7="13000.00000" pt_clust_8="13000.00000" pt_clust_9="78.63165"></scales>
<clustering>
<clus scale="   78.632">  1  9  2 -1</clus>
<clus scale="   80.219">  5  6 -1 -1</clus>
<clus scale="   96.352">  7  8 -1 -1</clus>
<clus scale="  300.662">  1  5  2 -1</clus>
<clus scale="   78.632">  1  5  2 -1</clus>
</clustering>
</event>
<event>
 9    2  0.3791909E-005  0.1489785E+03  0.7546771E-02  0.1203805E+00
         -1   -1    0    0    0  501 -0.00000000000E+00  0.00000000000E+00  0.40570167897E+03  0.40570167897E+03  0.00000000000E+00 0.  1.
          2   -1    0    0  502    0  0.00000000000E+00 -0.00000000000E+00 -0.37494655682E+03  0.37494655682E+03  0.00000000000E+00 0. -1.
         23    2    1    2    0    0 -0.89560907258E+02  0.77560579866E+02  0.36886676558E+03  0.39812425370E+03  0.91670229535E+02 0.  0.
         24    2    1    2    0    0  0.52861303655E+02 -0.92482943273E+02 -0.21437746935E+03  0.25260214533E+03  0.80639520330E+02 0.  0.
        -13    1    4    4    0    0  0.72580356580E+02 -0.58746024567E+02 -0.16549579756E+03  0.19002068985E+03  0.00000000000E+00 0.  1.
         14    1    4    4    0    0 -0.19719052924E+02 -0.33736918706E+02 -0.48881671796E+02  0.62581455477E+02  0.00000000000E+00 0. -1.
        -11    1    3    3    0    0 -0.72299719305E+02  0.42296713479E+02  0.33787887650E+03  0.34810687521E+03  0.00000000000E+00 0.  1.
         11    1    3    3    0    0 -0.17261187953E+02  0.35263866387E+02  0.30987889075E+02  0.50017378494E+02  0.00000000000E+00 0. -1.
         21    1    1    2  502  501  0.36699603602E+02  0.14922363407E+02 -0.12373417407E+03  0.12992183676E+03  0.00000000000E+00 0. -1.
<scales pt_clust_5="13000.00000" pt_clust_6="13000.00000" pt_clust_7="13000.00000" pt_clust_8="13000.00000" pt_clust_9="39.61739"></scales>
<clustering>
<clus scale="   39.617">  2  9  1 -1</clus>
<clus scale="   80.640">  5  6 -1 -1</clus>
<clus scale="   91.670">  7  8 -1 -1</clus>
<clus scale="  142.457">  2  5  1 -1</clus>
<clus scale="   39.617">  2  5  1 -1</clus>
</clustering>
</event>
<event>
 9    2  0.3791909E-005  0.1119933E+03  0.7546771E-02  0.1260957E+00
          2   -1    0    0  502    0  0.00000000000E+00  0.00000000000E+00  0.55413719085E+03  0.55413719085E+03  0.00000000000E+00 0. -1.
         -1   -1    0    0    0  501 -0.00000000000E+00 -0.00000000000E+00 -0.33435648776E+02  0.33435648776E+02  0.00000000000E+00 0.  1.
         23    2    1    2    0    0 -0.29637695581E+02 -0.24422427011E+02  0.16204500939E+03  0.19011536212E+03  0.91708330625E+02 0.  0.
         24    2    1    2    0    0  0.60426328791E+02  0.58771950337E+02  0.30528925430E+03  0.32691744568E+03  0.81043223906E+02 0.  0.
        -13    1    4    4    0    0  0.10365590367E+02  0.54081690558E+02  0.87388753060E+02  0.10329118490E+03  0.00000000000E+00 0.  1.
         14    1    4    4    0    0  0.50060738425E+02  0.46902597787E+01  0.21790050124E+03  0.22362626077E+03  0.00000000000E+00 0. -1.
        -11    1    3    3    0    0 -0.18701545509E+02  0.22027610831E+02  0.12868876069E+03  0.13189298909E+03  0.00000000000E+00 0.  1.
         11    1    3    3    0    0 -0.10936150071E+02 -0.46450037842E+02  0.33356248698E+02  0.58222373029E+02  0.00000000000E+00 0. -1.
         21    1    1    2  502  501 -0.30788633211E+02 -0.34349523326E+02  0.53367278386E+02  0.70540031826E+02  0.00000000000E+00 0.  1.
<scales pt_clust_5="13000.00000" pt_clust_6="13000.00000" pt_clust_7="13000.00000" pt_clust_8="13000.00000" pt_clust_9="46.12840"></scales>
<clustering>
<clus scale="   46.128">  2  9  1 -1</clus>
<clus scale="   81.043">  5  6 -1 -1</clus>
<clus scale="   91.708">  7  8 -1 -1</clus>
<clus scale="  103.441">  1  5  2 -1</clus>
<clus scale="  103.441">  1  5  2 -1</clus>
</clustering>
</event>
<event>
 9    2  0.3791909E-005  0.2026656E+03  0.7546771E-02  0.1181486E+00
         -1   -1    0    0    0  501 -0.00000000000E+00  0.00000000000E+00  0.41222042919E+03  0.41222042919E+03  0.00000000000E+00 0.  1.
          2   -1    0    0  502    0  0.00000000000E+00 -0.00000000000E+00 -0.33632531266E+03  0.33632531266E+03  0.00000000000E+00 0. -1.
         24    2    1    2    0    0 -0.19711845779E+03  0.33571718357E+02  0.80456961567E+02  0.22766816135E+03  0.73326136897E+02 0.  0.
         23    2    1    2    0    0  0.15701913648E+02 -0.37507459226E+01 -0.21941649284E+03  0.23809891694E+03  0.91032294990E+02 0.  0.
        -13    1    3    3    0    0 -0.16815040091E+03  0.53885206151E+02  0.58424097357E+02  0.18598803166E+03  0.00000000000E+00 0.  1.
         14    1    3    3    0    0 -0.28968056884E+02 -0.20313487794E+02  0.22032864210E+02  0.41680129694E+02  0.00000000000E+00 0. -1.
        -11    1    4    4    0    0  0.43158131466E+02 -0.65811804057E+01 -0.19908975909E+03  0.20382018649E+03  0.00000000000E+00 0. -1.
         11    1    4    4    0    0 -0.27456217819E+02  0.28304344831E+01 -0.20326733750E+02  0.34278730449E+02  0.00000000000E+00 0.  1.
         21    1    1    2  502  501  0.18141654414E+03 -0.29820972434E+02  0.21485464780E+03  0.28277866356E+03  0.00000000000E+00 0.  1.
<scales pt_clust_5="13000.00000" pt_clust_6="13000.00000" pt_clust_7="13000.00000" pt_clust_8="13000.00000" pt_clust_9="188.93547"></scales>
<clustering>
<clus scale="   73.326">  5  6 -1 -1</clus>
<clus scale="   91.032">  7  8 -1 -1</clus>
<clus scale="   92.453">  2  7  1 -1</clus>
<clus scale="  188.935">  1  9  2 -1</clus>
<clus scale="   92.453">  2  5  1 -1</clus>
</clustering>
</event>
<event>
 9    2  0.3791909E-005  0.1047612E+03  0.7546771E-02  0.1276344E+00
          2   -1    0    0  502    0  0.00000000000E+00  0.00000000000E+00  0.22665587258E+03  0.22665587258E+03  0.00000000000E+00 0. -1.
         -1   -1    0    0    0  501 -0.00000000000E+00 -0.00000000000E+00 -0.68200052352E+02  0.68200052352E+02  0.00000000000E+00 0.  1.
         23    2    1    2    0    0 -0.56366471259E+02 -0.37852086226E+01  0.86280525152E+01  0.10807535200E+03  0.91729665505E+02 0.  0.
         24    2    1    2    0    0  0.36552133157E+02 -0.78582095408E+01  0.12875140249E+03  0.15559739875E+03  0.78967189128E+02 0.  0.
        -13    1    4    4    0    0 -0.86740596565E+01 -0.29863958478E+02  0.23609427978E+02  0.39044851342E+02  0.00000000000E+00 0.  1.
         14    1    4    4    0    0  0.45226192813E+02  0.22005748937E+02  0.10514197452E+03  0.11655254741E+03  0.00000000000E+00 0. -1.
        -11    1    3    3    0    0  0.23476567582E+02 -0.12867135880E+02 -0.27647092908E+01  0.26913863131E+02  0.00000000000E+00 0.  1.
         11    1    3    3    0    0 -0.79843038841E+02  0.90819272571E+01  0.11392761806E+02  0.81161488870E+02  0.00000000000E+00 0. -1.
         21    1    1    2  502  501  0.19814338102E+02  0.11643418163E+02  0.21076365217E+02  0.31183174176E+02  0.00000000000E+00 0. -1.
<scales pt_clust_5="13000.00000" pt_clust_6="13000.00000" pt_clust_7="13000.00000" pt_clust_8="13000.00000" pt_clust_9="22.98211"></scales>
<clustering>
<clus scale="   22.982">  1  9  2 -1</clus>
<clus scale="   78.967">  5  6 -1 -1</clus>
<clus scale="   91.730">  7  8 -1 -1</clus>
<clus scale="   93.789">  1  5  2 -1</clus>
<clus scale="   22.982">  1  5  2 -1</clus>
</clustering>
</event>
<event>
 9    2  0.3791909E-005  0.1364164E+03  0.7546771E-02  0.1221196E+00
          4   -1    0    0  502    0  0.00000000000E+00  0.00000000000E+00  0.15359209703E+03  0.15359209703E+03  0.00000000000E+00 0. -1.
         -3   -1    0    0    0  501 -0.00000000000E+00 -0.00000000000E+00 -0.26418557104E+03  0.26418557104E+03  0.00000000000E+00 0.  1.
         24    2    1    2    0    0  0.10365933561E+03 -0.17155337907E+02 -0.11334809487E+03  0.17289552567E+03  0.77495217323E+02 0.  0.
         23    2    1    2    0    0 -0.99983470677E+02 -0.16237787268E+02 -0.78565750193E+02  0.15689569150E+03  0.90461708827E+02 0.  0.
        -11    1    3    3    0    0  0.69489624244E+02  0.24825351367E+02 -0.47947532848E+02  0.88000408262E+02  0.00000000000E+00 0.  1.
         12    1    3    3    0    0  0.34169711366E+02 -0.41980689273E+02 -0.65400562026E+02  0.84895117410E+02  0.00000000000E+00 0. -1.
        -11    1    4    4    0    0 -0.10972551163E+03 -0.33949658169E+02 -0.72358425559E+02  0.13574980273E+03  0.00000000000E+00 0. -1.
         11    1    4    4    0    0  0.97420409519E+01  0.17711870901E+02 -0.62073246345E+01  0.21145888770E+02  0.00000000000E+00 0.  1.
         21    1    1    2  502  501 -0.36758649329E+01  0.33393125174E+02  0.81320371060E+02  0.87986450895E+02  0.00000000000E+00 0. -1.
<scales pt_clust_5="13000.00000" pt_clust_6="13000.00000" pt_clust_7="13000.00000" pt_clust_8="13000.00000" pt_clust_9="33.59483"></scales>
<clustering>
<clus scale="   33.595">  1  9  2 -1</clus>
<clus scale="   77.495">  5  6 -1 -1</clus>
<clus scale="   90.462">  7  8 -1 -1</clus>
<clus scale="  128.186">  2  5  1 -1</clus>
<clus scale="   33.595">  1  5  2 -1</clus>
</clustering>
</event>
<event>
 9    2  0.3791909E-005  0.1083697E+03  0.7546771E-02  0.1267552E+00
          2   -1    0    0  502    0  0.00000000000E+00  0.00000000000E+00  0.22124788298E+03  0.22124788298E+03  0.00000000000E+00 0. -1.
         -1   -1    0    0    0  501 -0.00000000000E+00 -0.00000000000E+00 -0.12404598013E+03  0.12404598013E+03  0.00000000000E+00 0.  1.
         23    2    1    2    0    0  0.74323000736E+01  0.61060142574E+02 -0.71918976707E+02  0.13102284076E+03  0.90614929760E+02 0.  0.
         24    2    1    2    0    0 -0.26393071050E+02 -0.47865894354E+02  0.93410610529E+02  0.13511520223E+03  0.80887809172E+02 0.  0.
        -13    1    4    4    0    0 -0.37926607622E+01 -0.48261912227E+02  0.10978249932E+02  0.49639887380E+02  0.00000000000E+00 0.  1.
         14    1    4    4    0    0 -0.22600410288E+02  0.39601787340E+00  0.82432360597E+02  0.85475314851E+02  0.00000000000E+00 0. -1.
        -11    1    3    3    0    0  0.40357141935E+02  0.24940593347E+00 -0.27369529055E+02  0.48763226197E+02  0.00000000000E+00 0. -1.
         11    1    3    3    0    0 -0.32924841861E+02  0.60810736641E+02 -0.44549447652E+02  0.82259614566E+02  0.00000000000E+00 0.  1.
         21    1    1    2  502  501  0.18960770976E+02 -0.13194248221E+02  0.75710269028E+02  0.79155820117E+02  0.00000000000E+00 0. -1.
<scales pt_clust_5="13000.00000" pt_clust_6="13000.00000" pt_clust_7="13000.00000" pt_clust_8="13000.00000" pt_clust_9="23.09976"></scales>
<clustering>
<clus scale="   23.100">  1  9  2 -1</clus>
<clus scale="   80.888">  5  6 -1 -1</clus>
<clus scale="   90.615">  7  8 -1 -1</clus>
<clus scale="  100.378">  1  5  2 -1</clus>
<clus scale="   23.100">  1  5  2 -1</clus>
</clustering>
</event>
<event>
 9    2  0.3791909E-005  0.9850195E+02  0.7546771E-02  0.1288757E+00
         -1   -1    0    0    0  501 -0.00000000000E+00  0.00000000000E+00  0.12999080135E+03  0.12999080135E+03  0.00000000000E+00 0.  1.
          2   -1    0    0  502    0  0.00000000000E+00 -0.00000000000E+00 -0.16794989083E+03  0.16794989083E+03  0.00000000000E+00 0. -1.
         23    2    1    2    0    0  0.27273908844E+02 -0.19291251554E+02  0.61184582089E+02  0.11437447159E+03  0.90674958925E+02 0.  0.
         24    2    1    2    0    0 -0.16664048144E+02  0.56442157675E+02 -0.29540527243E+02  0.10395870418E+03  0.80444774607E+02 0.  0.
        -11    1    4    4    0    0  0.23629157072E+02  0.39265576178E+02 -0.37775816769E+02  0.59389686555E+02  0.00000000000E+00 0.  1.
         12    1    4    4    0    0 -0.40293205216E+02  0.17176581496E+02  0.82352895259E+01  0.44569017625E+02  0.00000000000E+00 0. -1.
        -11    1    3    3    0    0 -0.26763528847E+02  0.12647937601E+02  0.47807502649E+01  0.29985202601E+02  0.00000000000E+00 0.  1.
         11    1    3    3    0    0  0.54037437692E+02 -0.31939189155E+02  0.56403831824E+02  0.84389268989E+02  0.00000000000E+00 0. -1.
         21    1    1    2  502  501 -0.10609860700E+02 -0.37150906121E+02 -0.69603144319E+02  0.79607516409E+02  0.00000000000E+00 0. -1.
<scales pt_clust_5="13000.00000" pt_clust_6="13000.00000" pt_clust_7="13000.00000" pt_clust_8="13000.00000" pt_clust_9="38.63624"></scales>
<clustering>
<clus scale="   38.636">  2  9  1 -1</clus>
<clus scale="   80.445">  5  6 -1 -1</clus>
<clus scale="   89.174">  2  5  1 -1</clus>
<clus scale="   90.675">  7  8 -1 -1</clus>
<clus scale="   38.636">  2  5  1 -1</clus>
</clustering>
</event>
<event>
 9    2  0.3791909E-005  0.1566071E+03  0.7546771E-02  0.1192750E+00
          2   -1    0    0  502    0  0.00000000000E+00  0.00000000000E+00  0.74552540476E+02  0.74552540476E+02  0.00000000000E+00 0. -1.
         -1   -1    0    0    0  501 -0.00000000000E+00 -0.00000000000E+00 -0.48937148213E+03  0.48937148213E+03  0.00000000000E+00 0.  1.
         23    2    1    2    0    0 -0.75473772123E+02 -0.12179292437E+03 -0.31528970488E+03  0.35604751055E+03  0.82658484485E+02 0.  0.
         24    2    1    2    0    0  0.71785551818E+02  0.90598703930E+02 -0.10476286300E+03  0.17603199602E+03  0.81551919393E+02 0.  0.
        -11    1    4    4    0    0  0.19091551561E+02  0.13686919221E+02 -0.74338931940E+02  0.77962144023E+02  0.00000000000E+00 0.  1.
         12    1    4    4    0    0  0.52694000257E+02  0.76911784709E+02 -0.30423931059E+02  0.98069852000E+02  0.00000000000E+00 0. -1.
        -13    1    3    3    0    0 -0.53302176520E+01 -0.86756370656E+02 -0.15994704928E+03  0.18203883553E+03  0.00000000000E+00 0. -1.
         13    1    3    3    0    0 -0.70143554471E+02 -0.35036553713E+02 -0.15534265561E+03  0.17400867502E+03  0.00000000000E+00 0.  1.
         21    1    1    2  502  501  0.36882203049E+01  0.31194220440E+02  0.52336262301E+01  0.31844516033E+02  0.00000000000E+00 0. -1.
<scales pt_clust_5="13000.00000" pt_clust_6="13000.00000" pt_clust_7="13000.00000" pt_clust_8="13000.00000" pt_clust_9="31.41150"></scales>
<clustering>
<clus scale="   31.412">  1  9  2 -1</clus>
<clus scale="   81.552">  5  6 -1 -1</clus>
<clus scale="   82.658">  7  8 -1 -1</clus>
<clus scale="  156.026">  1  5  2 -1</clus>
<clus scale="   31.412">  1  5  2 -1</clus>
</clustering>
</event>
<event>
 9    2  0.3791909E-005  0.2493260E+03  0.7546771E-02  0.1114211E+00
         -1   -1    0    0    0  501 -0.00000000000E+00  0.00000000000E+00  0.33221583676E+02  0.33221583676E+02  0.00000000000E+00 0.  1.
          2   -1    0    0  502    0  0.00000000000E+00 -0.00000000000E+00 -0.22775503586E+04  0.22775503586E+04  0.00000000000E+00 0. -1.
         23    2    1    2    0    0  0.18910339274E+03  0.12149397884E+03 -0.72894917674E+03  0.76807841468E+03  0.89758948234E+02 0.  0.
         24    2    1    2    0    0 -0.21679939834E+03 -0.11830173420E+03 -0.13217029820E+04  0.13470206097E+04  0.81046103059E+02 0.  0.
        -13    1    4    4    0    0 -0.14469495859E+03 -0.11852078506E+03 -0.99922675197E+03  0.10165814819E+04  0.00000000000E+00 0.  1.
         14    1    4    4    0    0 -0.72104439751E+02  0.21905085975E+00 -0.32247623002E+03  0.33043912774E+03  0.00000000000E+00 0. -1.
        -13    1    3    3    0    0  0.11514938434E+03  0.33684032297E+02 -0.27875902921E+03  0.30348079200E+03  0.00000000000E+00 0.  1.
         13    1    3    3    0    0  0.73954008406E+02  0.87809946539E+02 -0.45019014753E+03  0.46459762268E+03  0.00000000000E+00 0. -1.
         21    1    1    2  502  501  0.27696005598E+02 -0.31922446343E+01 -0.19367661623E+03  0.19567291797E+03  0.00000000000E+00 0. -1.
<scales pt_clust_5="13000.00000" pt_clust_6="13000.00000" pt_clust_7="13000.00000" pt_clust_8="13000.00000" pt_clust_9="27.87937"></scales>
<clustering>
<clus scale="   27.879">  2  9  1 -1</clus>
<clus scale="   81.046">  5  6 -1 -1</clus>
<clus scale="   89.759">  7  8 -1 -1</clus>
<clus scale="  246.323">  2  5  1 -1</clus>
<clus scale="   27.879">  2  5  1 -1</clus>
</clustering>
</event>
<event>
 9    2  0.3791909E-005  0.1080120E+03  0.7546771E-02  0.1273100E+00
          4   -1    0    0  502    0  0.00000000000E+00  0.00000000000E+00  0.16208179906E+03  0.16208179906E+03  0.00000000000E+00 0. -1.
         -3   -1    0    0    0  501 -0.00000000000E+00 -0.00000000000E+00 -0.18339845274E+03  0.18339845274E+03  0.00000000000E+00 0.  1.
         23    2    1    2    0    0  0.10529683609E+02 -0.56420243575E+02 -0.13101123876E+03  0.17019567239E+03  0.92241552985E+02 0.  0.
         24    2    1    2    0    0  0.21981131360E+02  0.52251837354E+02  0.10935640049E+03  0.14250588101E+03  0.71663652919E+02 0.  0.
        -11    1    4    4    0    0  0.43386564046E+02  0.35228605637E+02  0.98156949951E+02  0.11295235907E+03  0.00000000000E+00 0.  1.
         12    1    4    4    0    0 -0.21405432687E+02  0.17023231717E+02  0.11199450542E+02  0.29553521940E+02  0.00000000000E+00 0. -1.
        -11    1    3    3    0    0  0.18606700481E+01  0.25089822511E+02 -0.19670248008E+02  0.31935559230E+02  0.00000000000E+00 0. -1.
         11    1    3    3    0    0  0.86690135610E+01 -0.81510066086E+02 -0.11134099075E+03  0.13826011316E+03  0.00000000000E+00 0.  1.
         21    1    1    2  502  501 -0.32510814969E+02  0.41684062204E+01  0.33818459328E+00  0.32778698406E+02  0.00000000000E+00 0.  1.
<scales pt_clust_5="13000.00000" pt_clust_6="13000.00000" pt_clust_7="13000.00000" pt_clust_8="13000.00000" pt_clust_9="32.77695"></scales>
<clustering>
<clus scale="   32.777">  1  9  2 -1</clus>
<clus scale="   71.664">  5  6 -1 -1</clus>
<clus scale="   91.070">  1  5  2 -1</clus>
<clus scale="   92.242">  7  8 -1 -1</clus>
<clus scale="   32.777">  1  5  2 -1</clus>
</clustering>
</event>
<event>
 9    2  0.3791909E-005  0.1319066E+03  0.7546771E-02  0.1226898E+00
          2   -1    0    0  502    0  0.00000000000E+00  0.00000000000E+00  0.70454474669E+02  0.70454474669E+02  0.00000000000E+00 0. -1.
         -1   -1    0    0    0  501 -0.00000000000E+00 -0.00000000000E+00 -0.68430451935E+03  0.68430451935E+03  0.00000000000E+00 0.  1.
         24    2    1    2    0    0  0.92078366891E+02  0.33257379368E+02 -0.58487488887E+03  0.59847114861E+03  0.80651107556E+02 0.  0.
         23    2    1    2    0    0 -0.73869088727E+02 -0.48463975414E+02 -0.10797050420E+02  0.12640035823E+03  0.89750070087E+02 0.  0.
        -13    1    3    3    0    0  0.70157666641E+02 -0.14817338826E+02 -0.39125656513E+03  0.39777298987E+03  0.00000000000E+00 0.  1.
         14    1    3    3    0    0  0.21920700250E+02  0.48074718194E+02 -0.19361832375E+03  0.20069815873E+03  0.00000000000E+00 0. -1.
        -11    1    4    4    0    0 -0.27125406090E+02 -0.60348502100E+02 -0.32259398966E+02  0.73609769616E+02  0.00000000000E+00 0.  1.
         11    1    4    4    0    0 -0.46743682637E+02  0.11884526686E+02  0.21462348547E+02  0.52790588614E+02  0.00000000000E+00 0. -1.
         21    1    1    2  502  501 -0.18209278164E+02  0.15206596046E+02 -0.18178105390E+02  0.29887487183E+02  0.00000000000E+00 0. -1.
<scales pt_clust_5="13000.00000" pt_clust_6="13000.00000" pt_clust_7="13000.00000" pt_clust_8="13000.00000" pt_clust_9="23.72379"></scales>
<clustering>
<clus scale="   23.724">  1  9  2 -1</clus>
<clus scale="   80.651">  5  6 -1 -1</clus>
<clus scale="   89.750">  7  8 -1 -1</clus>
<clus scale="  125.892">  2  5  1 -1</clus>
<clus scale="   23.724">  1  5  2 -1</clus>
</clustering>
</event>
<event>
 9    2  0.3791909E-005  0.1227994E+03  0.7546771E-02  0.1241056E+00
         -1   -1    0    0    0  501 -0.00000000000E+00  0.00000000000E+00  0.23951816957E+03  0.23951816957E+03  0.00000000000E+00 0.  1.
          2   -1    0    0  502    0  0.00000000000E+00 -0.00000000000E+00 -0.21115928772E+03  0.21115928772E+03  0.00000000000E+00 0. -1.
         23    2    1    2    0    0  0.61591938024E+02 -0.43402424058E+02  0.14809573798E+03  0.18876249042E+03  0.89563345948E+02 0.  0.
         24    2    1    2    0    0 -0.13020867722E+03  0.55227466448E+02 -0.77487201165E+02  0.18047098691E+03  0.81000852457E+02 0.  0.
        -13    1    4    4    0    0 -0.63657247505E+02  0.29640599247E+02  0.62420138574E+01  0.70496617086E+02  0.00000000000E+00 0.  1.
         14    1    4    4    0    0 -0.66551429719E+02  0.25586867202E+02 -0.83729215022E+02  0.10997436983E+03  0.00000000000E+00 0. -1.
        -13    1    3    3    0    0 -0.96746441767E+01  0.18668759614E+02  0.39911886744E+02  0.45111861289E+02  0.00000000000E+00 0. -1.
         13    1    3    3    0    0  0.71266582201E+02 -0.62071183672E+02  0.10818385124E+03  0.14365062913E+03  0.00000000000E+00 0.  1.
         21    1    1    2  502  501  0.68616739200E+02 -0.11825042391E+02 -0.42249654971E+02  0.81443979956E+02  0.00000000000E+00 0. -1.
<scales pt_clust_5="13000.00000" pt_clust_6="13000.00000" pt_clust_7="13000.00000" pt_clust_8="13000.00000" pt_clust_9="69.62822"></scales>
<clustering>
<clus scale="   69.628">  2  9  1 -1</clus>
<clus scale="   81.001">  5  6 -1 -1</clus>
<clus scale="   89.563">  7  8 -1 -1</clus>
<clus scale="  116.701">  2  5  1 -1</clus>
<clus scale="   69.628">  2  5  1 -1</clus>
</clustering>
</event>
<event>
 9    2  0.3791909E-005  0.1400680E+03  0.7546771E-02  0.1215275E+00
          2   -1    0    0  502    0  0.00000000000E+00  0.00000000000E+00  0.19106795739E+03  0.19106795739E+03  0.00000000000E+00 0. -1.
         -1   -1    0    0    0  501 -0.00000000000E+00 -0.00000000000E+00 -0.13489517249E+03  0.13489517249E+03  0.00000000000E+00 0.  1.
         23    2    1    2    0    0  0.59403453656E+02 -0.10129720615E+03 -0.15262575813E+02  0.14965597037E+03  0.91509939170E+02 0.  0.
         24    2    1    2    0    0 -0.23818086899E+02  0.89146416651E+02  0.53198529310E+02  0.13451550924E+03  0.82158102701E+02 0.  0.
        -13    1    4    4    0    0  0.25664013512E+02  0.38118144864E+02  0.37074795474E+00  0.45954020624E+02  0.00000000000E+00 0.  1.
         14    1    4    4    0    0 -0.49482100410E+02  0.51028271787E+02  0.52827781355E+02  0.88561488614E+02  0.00000000000E+00 0. -1.
        -13    1    3    3    0    0  0.52551117984E+02 -0.67444288751E+01 -0.14188753233E+02  0.54849138922E+02  0.00000000000E+00 0. -1.
         13    1    3    3    0    0  0.68523356724E+01 -0.94552777271E+02 -0.10738225805E+01  0.94806831445E+02  0.00000000000E+00 0.  1.
         21    1    1    2  502  501 -0.35585366758E+02  0.12150789495E+02  0.18236831410E+02  0.41791650273E+02  0.00000000000E+00 0.  1.
<scales pt_clust_5="13000.00000" pt_clust_6="13000.00000" pt_clust_7="13000.00000" pt_clust_8="13000.00000" pt_clust_9="37.60266"></scales>
<clustering>
<clus scale="   37.603">  1  9  2 -1</clus>
<clus scale="   82.158">  5  6 -1 -1</clus>
<clus scale="   91.510">  7  8 -1 -1</clus>
<clus scale="  134.145">  1  5  2 -1</clus>
<clus scale="   37.603">  1  5  2 -1</clus>
</clustering>
</event>
<event>
 9    2  0.3791909E-005  0.9297527E+02  0.7546771E-02  0.1306599E+00
         -1   -1    0    0    0  501 -0.00000000000E+00  0.00000000000E+00  0.13893369223E+03  0.13893369223E+03  0.00000000000E+00 0.  1.
          2   -1    0    0  502    0  0.00000000000E+00 -0.00000000000E+00 -0.35599299669E+03  0.35599299669E+03  0.00000000000E+00 0. -1.
         23    2    1    2    0    0  0.79834975790E+01  0.53808246776E+01  0.80826698312E+02  0.12255850627E+03  0.91623920411E+02 0.  0.
         24    2    1    2    0    0  0.43716545254E+02 -0.56463967438E+02 -0.51289705076E+02  0.11528431318E+03  0.74568914912E+02 0.  0.
        -11    1    4    4    0    0  0.45034533486E+02 -0.71502797886E+02 -0.53517410200E+02  0.10002435957E+03  0.00000000000E+00 0.  1.
         12    1    4    4    0    0 -0.13179882324E+01  0.15038830449E+02  0.22277051243E+01  0.15259953616E+02  0.00000000000E+00 0. -1.
        -11    1    3    3    0    0 -0.24822067917E+02  0.37789909029E+02  0.31959534585E+02  0.55368078628E+02  0.00000000000E+00 0. -1.
         11    1    3    3    0    0  0.32805565496E+02 -0.32409084351E+02  0.48867163727E+02  0.67190427642E+02  0.00000000000E+00 0.  1.
         21    1    1    2  502  501 -0.51700042833E+02  0.51083142760E+02 -0.24659629769E+03  0.25708386947E+03  0.00000000000E+00 0. -1.
<scales pt_clust_5="13000.00000" pt_clust_6="13000.00000" pt_clust_7="13000.00000" pt_clust_8="13000.00000" pt_clust_9="72.68000"></scales>
<clustering>
<clus scale="   72.680">  2  9  1 -1</clus>
<clus scale="   74.569">  5  6 -1 -1</clus>
<clus scale="   76.223">  2  5  1 -1</clus>
<clus scale="   91.624">  7  8 -1 -1</clus>
<clus scale="   72.680">  2  5  1 -1</clus>
</clustering>
</event>
<event>
 9    2  0.3791909E-005  0.9631771E+02  0.7546771E-02  0.1294852E+00
          2   -1    0    0  502    0  0.00000000000E+00  0.00000000000E+00  0.27043161491E+03  0.27043161491E+03  0.00000000000E+00 0. -1.
         -1   -1    0    0    0  501 -0.00000000000E+00 -0.00000000000E+00 -0.88031573930E+02  0.88031573930E+02  0.00000000000E+00 0.  1.
         24    2    1    2    0    0 -0.22820587547E+02  0.28117267969E+02 -0.46879951972E+02  0.98065296805E+02  0.78151855809E+02 0.  0.
         23    2    1    2    0    0  0.24542548538E+02  0.15042912985E+01  0.18099654635E+03  0.20372609006E+03  0.90221784509E+02 0.  0.
        -13    1    3    3    0    0 -0.28834608430E+02  0.94673435565E+01  0.14498725017E+02  0.33634480291E+02  0.00000000000E+00 0.  1.
         14    1    3    3    0    0  0.60140208821E+01  0.18649924412E+02 -0.61378676989E+02  0.64430816514E+02  0.00000000000E+00 0. -1.
        -11    1    4    4    0    0  0.11754259584E+02 -0.37361088738E+02  0.14163707573E+03  0.14695262771E+03  0.00000000000E+00 0. -1.
         11    1    4    4    0    0  0.12788288954E+02  0.38865380036E+02  0.39359470622E+02  0.56773462351E+02  0.00000000000E+00 0.  1.
         21    1    1    2  502  501 -0.17219609908E+01 -0.29621559267E+02  0.48283446596E+02  0.56671801968E+02  0.00000000000E+00 0.  1.
<scales pt_clust_5="13000.00000" pt_clust_6="13000.00000" pt_clust_7="13000.00000" pt_clust_8="13000.00000" pt_clust_9="29.67157"></scales>
<clustering>
<clus scale="   29.672">  1  9  2 -1</clus>
<clus scale="   78.152">  5  6 -1 -1</clus>
<clus scale="   85.117">  2  5  1 -1</clus>
<clus scale="   90.222">  7  8 -1 -1</clus>
<clus scale="   29.672">  1  5  2 -1</clus>
</clustering>
</event>
<event>
 9    2  0.3791909E-005  0.1466077E+03  0.7546771E-02  0.1206895E+00
         -1   -1    0    0    0  501 -0.00000000000E+00  0.00000000000E+00  0.42781383970E+03  0.42781383970E+03  0.00000000000E+00 0.  1.
          2   -1    0    0  502    0  0.00000000000E+00 -0.00000000000E+00 -0.18738148152E+03  0.18738148152E+03  0.00000000000E+00 0. -1.
         23    2    1    2    0    0  0.65370124436E+02 -0.89036835181E+02  0.34582898986E+03  0.37485253507E+03  0.93359100411E+02 0.  0.
         24    2    1    2    0    0 -0.56248870234E+02  0.13185136358E+03 -0.10631721474E+03  0.19655775910E+03  0.82358272394E+02 0.  0.
        -13    1    4    4    0    0 -0.32692364770E+02  0.35443162839E+01 -0.34427912591E+02  0.47609180391E+02  0.00000000000E+00 0.  1.
         14    1    4    4    0    0 -0.23556505464E+02  0.12830704730E+03 -0.71889302149E+02  0.14894857871E+03  0.00000000000E+00 0. -1.
        -11    1    3    3    0    0  0.26359373062E+02 -0.99006449324E+02  0.27367296729E+03  0.29222249500E+03  0.00000000000E+00 0.  1.
         11    1    3    3    0    0  0.39010751374E+02  0.99696141422E+01  0.72156022573E+02  0.82630040073E+02  0.00000000000E+00 0. -1.
         21    1    1    2  502  501 -0.91212542017E+01 -0.42814528404E+02  0.92058305222E+00  0.43785027050E+02  0.00000000000E+00 0.  1.
<scales pt_clust_5="13000.00000" pt_clust_6="13000.00000" pt_clust_7="13000.00000" pt_clust_8="13000.00000" pt_clust_9="43.77535"></scales>
<clustering>
<clus scale="   43.775">  2  9  1 -1</clus>
<clus scale="   82.358">  5  6 -1 -1</clus>
<clus scale="   93.359">  7  8 -1 -1</clus>
<clus scale="  139.860">  2  5  1 -1</clus>
<clus scale="   43.775">  2  5  1 -1</clus>
</clustering>
</event>
<event>
 9    2  0.3791909E-005  0.1876107E+03  0.7546771E-02  0.1161836E+00
         -1   -1    0    0    0  501 -0.00000000000E+00  0.00000000000E+00  0.32271654799E+03  0.32271654799E+03  0.00000000000E+00 0.  1.
          2   -1    0    0  502    0  0.00000000000E+00 -0.00000000000E+00 -0.26961083941E+03  0.26961083941E+03  0.00000000000E+00 0. -1.
         23    2    1    2    0    0 -0.13728558866E+03  0.84788832041E+02  0.21959475490E+03  0.28702519938E+03  0.90139501908E+02 0.  0.
         24    2    1    2    0    0  0.14147659660E+03 -0.10886235066E+03 -0.72476522237E+02  0.20816592533E+03  0.78826184838E+02 0.  0.
        -11    1    4    4    0    0  0.48717875048E+02 -0.80374344911E+02 -0.14411487210E+02  0.95085002144E+02  0.00000000000E+00 0.  1.
         12    1    4    4    0    0  0.92758721556E+02 -0.28488005745E+02 -0.58065035027E+02  0.11308092319E+03  0.00000000000E+00 0. -1.
        -13    1    3    3    0    0 -0.18074837190E+02 -0.10185623940E+02  0.71723828083E+02  0.74664276528E+02  0.00000000000E+00 0.  1.
         13    1    3    3    0    0 -0.11921075147E+03  0.94974455980E+02  0.14787092682E+03  0.21236092285E+03  0.00000000000E+00 0. -1.
         21    1    1    2  502  501 -0.41910079403E+01  0.24073518616E+02 -0.94012524081E+02  0.97136262694E+02  0.00000000000E+00 0. -1.
<scales pt_clust_5="13000.00000" pt_clust_6="13000.00000" pt_clust_7="13000.00000" pt_clust_8="13000.00000" pt_clust_9="24.43561"></scales>
<clustering>
<clus scale="   24.436">  2  9  1 -1</clus>
<clus scale="   78.826">  5  6 -1 -1</clus>
<clus scale="   90.140">  7  8 -1 -1</clus>
<clus scale="  182.445">  2  5  1 -1</clus>
<clus scale="   24.436">  2  5  1 -1</clus>
</clustering>
</event>
<event>
 9    2  0.3791909E-005  0.1152733E+03  0.7546771E-02  0.1255058E+00
         -1   -1    0    0    0  501 -0.00000000000E+00  0.00000000000E+00  0.51183363690E+03  0.51183363690E+03  0.00000000000E+00 0.  1.
          2   -1    0    0  502    0  0.00000000000E+00 -0.00000000000E+00 -0.62161686958E+02  0.62161686958E+02  0.00000000000E+00 0. -1.
         24    2    1    2    0    0  0.78905729822E+01  0.64276183738E+02  0.27791891825E+03  0.29590860283E+03  0.78289764139E+02 0.  0.
         23    2    1    2    0    0 -0.70603863101E+02 -0.79388642133E+02  0.16086453176E+03  0.21266575660E+03  0.89787885969E+02 0.  0.
        -11    1    3    3    0    0 -0.29647760602E+02  0.28671229465E+02  0.18514528095E+03  0.18968343145E+03  0.00000000000E+00 0.  1.
         12    1    3    3    0    0  0.37538333584E+02  0.35604954273E+02  0.92773637298E+02  0.10622517138E+03  0.00000000000E+00 0. -1.
        -13    1    4    4    0    0 -0.17241420598E+02 -0.60327534274E+02  0.28957887703E+02  0.69103091364E+02  0.00000000000E+00 0.  1.
         13    1    4    4    0    0 -0.53362442503E+02 -0.19061107858E+02  0.13190664406E+03  0.14356266524E+03  0.00000000000E+00 0. -1.
         21    1    1    2  502  501  0.62713290119E+02  0.15112458395E+02  0.10888499931E+02  0.65420964431E+02  0.00000000000E+00 0. -1.
<scales pt_clust_5="13000.00000" pt_clust_6="13000.00000" pt_clust_7="13000.00000" pt_clust_8="13000.00000" pt_clust_9="64.50847"></scales>
<clustering>
<clus scale="   64.508">  2  9  1 -1</clus>
<clus scale="   78.290">  5  6 -1 -1</clus>
<clus scale="   89.788">  7  8 -1 -1</clus>
<clus scale="  106.561">  1  5  2 -1</clus>
<clus scale="   64.508">  2  5  1 -1</clus>
</clustering>
</event>
<event>
 9    2  0.3791909E-005  0.1474493E+03  0.7546771E-02  0.1205474E+00
         -1   -1    0    0    0  501 -0.00000000000E+00  0.00000000000E+00  0.12518922649E+03  0.12518922649E+03  0.00000000000E+00 0.  1.
          2   -1    0    0  502    0  0.00000000000E+00 -0.00000000000E+00 -0.41865357595E+03  0.41865357595E+03  0.00000000000E+00 0. -1.
         23    2    1    2    0    0  0.11482592785E+03  0.22433449861E+02  0.14647167794E+01  0.14812069292E+03  0.90825882304E+02 0.  0.
         24    2    1    2    0    0 -0.11735262489E+03  0.12179655916E+02 -0.55232016904E+02  0.15352564639E+03  0.81237711818E+02 0.  0.
        -11    1    4    4    0    0 -0.55865885941E+02  0.40889325708E+02 -0.56080217488E+01  0.69457786293E+02  0.00000000000E+00 0.  1.
         12    1    4    4    0    0 -0.61486738949E+02 -0.28709669792E+02 -0.49623995155E+02  0.84067860097E+02  0.00000000000E+00 0. -1.
        -11    1    3    3    0    0  0.87632530518E+02 -0.26538378692E+02 -0.51994389417E+01  0.91710305385E+02  0.00000000000E+00 0.  1.
         11    1    3    3    0    0  0.27193397336E+02  0.48971828554E+02  0.66641557211E+01  0.56410387537E+02  0.00000000000E+00 0. -1.
         21    1    1    2  502  501  0.25266970356E+01 -0.34613105777E+02 -0.23969704934E+03  0.24219646312E+03  0.00000000000E+00 0. -1.
<scales pt_clust_5="13000.00000" pt_clust_6="13000.00000" pt_clust_7="13000.00000" pt_clust_8="13000.00000" pt_clust_9="34.70521"></scales>
<clustering>
<clus scale="   34.705">  2  9  1 -1</clus>
<clus scale="   81.238">  5  6 -1 -1</clus>
<clus scale="   90.826">  7  8 -1 -1</clus>
<clus scale="  141.745">  2  5  1 -1</clus>
<clus scale="   34.705">  2  5  1 -1</clus>
</clustering>
</event>
<event>
 9    2  0.3791909E-005  0.1170535E+03  0.7546771E-02  0.1250852E+00
          2   -1    0    0  502    0  0.00000000000E+00  0.00000000000E+00  0.69458936269E+03  0.69458936269E+03  0.00000000000E+00 0. -1.
         -1   -1    0    0    0  501 -0.00000000000E+00 -0.00000000000E+00 -0.60183568001E+02  0.60183568001E+02  0.00000000000E+00 0.  1.
         23    2    1    2    0    0  0.30682451500E+02  0.68412253142E+02  0.11892767848E+02  0.11760564022E+03  0.89822043366E+02 0.  0.
         24    2    1    2    0    0 -0.10094444999E+02 -0.78025664519E+02  0.52107931662E+03  0.53321979768E+03  0.81300653608E+02 0.  0.
        -13    1    4    4    0    0  0.18370329573E+02 -0.31836795426E+02  0.71656241002E+02  0.80533641580E+02  0.00000000000E+00 0.  1.
         14    1    4    4    0    0 -0.28464774572E+02 -0.46188869093E+02  0.44942307562E+03  0.45268615610E+03  0.00000000000E+00 0. -1.
        -11    1    3    3    0    0  0.34154262817E+02 -0.82429350032E+01  0.20027203847E+02  0.40441915631E+02  0.00000000000E+00 0. -1.
         11    1    3    3    0    0 -0.34718113169E+01  0.76655188145E+02 -0.81344359984E+01  0.77163724589E+02  0.00000000000E+00 0.  1.
         21    1    1    2  502  501 -0.20588006501E+02  0.96134113766E+01  0.10143371022E+03  0.10394749279E+03  0.00000000000E+00 0.  1.
<scales pt_clust_5="13000.00000" pt_clust_6="13000.00000" pt_clust_7="13000.00000" pt_clust_8="13000.00000" pt_clust_9="22.72188"></scales>
<clustering>
<clus scale="   22.722">  1  9  2 -1</clus>
<clus scale="   81.301">  5  6 -1 -1</clus>
<clus scale="   89.822">  7  8 -1 -1</clus>
<clus scale="  110.649">  1  5  2 -1</clus>
<clus scale="   22.722">  1  5  2 -1</clus>
</clustering>
</event>
<event>
 9    2  0.3791909E-005  0.9288049E+02  0.7546771E-02  0.1301808E+00
         -1   -1    0    0    0  501 -0.00000000000E+00  0.00000000000E+00  0.43504197206E+03  0.43504197206E+03  0.00000000000E+00 0.  1.
          2   -1    0    0  502    0  0.00000000000E+00 -0.00000000000E+00 -0.55743978597E+02  0.55743978597E+02  0.00000000000E+00 0. -1.
         24    2    1    2    0    0  0.72255482796E+01  0.18713749733E+02  0.29528609378E+03  0.30707509129E+03  0.81846328785E+02 0.  0.
         23    2    1    2    0    0 -0.39211233644E+02  0.30957382260E+02  0.56870418009E+02  0.11869574228E+03  0.91425130198E+02 0.  0.
        -13    1    3    3    0    0  0.29500360709E+02 -0.18737400082E+02  0.78126855129E+02  0.85587189089E+02  0.00000000000E+00 0.  1.
         14    1    3    3    0    0 -0.22274812430E+02  0.37451149814E+02  0.21715923865E+03  0.22148790220E+03  0.00000000000E+00 0. -1.
        -13    1    4    4    0    0 -0.18969375684E+02  0.51124052723E+02  0.68751176148E+02  0.87750955564E+02  0.00000000000E+00 0.  1.
         13    1    4    4    0    0 -0.20241857960E+02 -0.20166670462E+02 -0.11880758140E+02  0.30944786720E+02  0.00000000000E+00 0. -1.
         21    1    1    2  502  501  0.31985685365E+02 -0.49671131993E+02  0.27141481680E+02  0.65015117084E+02  0.00000000000E+00 0.  1.
<scales pt_clust_5="13000.00000" pt_clust_6="13000.00000" pt_clust_7="13000.00000" pt_clust_8="13000.00000" pt_clust_9="59.07881"></scales>
<clustering>
<clus scale="   59.079">  2  9  1 -1</clus>
<clus scale="   81.846">  5  6 -1 -1</clus>
<clus scale="   83.469">  1  5  2 -1</clus>
<clus scale="   91.425">  7  8 -1 -1</clus>
<clus scale="   59.079">  2  5  1 -1</clus>
</clustering>
</event>
<event>
 9    2  0.3791909E-005  0.9462441E+02  0.7546771E-02  0.1298103E+00
          2   -1    0    0  502    0  0.00000000000E+00  0.00000000000E+00  0.98215162420E+02  0.98215162420E+02  0.00000000000E+00 0. -1.
         -1   -1    0    0    0  501 -0.00000000000E+00 -0.00000000000E+00 -0.14459651062E+03  0.14459651062E+03  0.00000000000E+00 0.  1.
         23    2    1    2    0    0  0.55618642596E+01  0.25302757603E+02 -0.83928701524E+02  0.12655012218E+03  0.91102923156E+02 0.  0.
         24    2    1    2    0    0 -0.24992321949E+02 -0.17363520258E+02  0.18850109238E+02  0.88151746314E+02  0.80556165300E+02 0.  0.
        -13    1    4    4    0    0  0.23269341754E+02 -0.21086372879E+02  0.23929958971E+02  0.39480885542E+02  0.00000000000E+00 0.  1.
         14    1    4    4    0    0 -0.48261663703E+02  0.37228526211E+01 -0.50798497329E+01  0.48670860772E+02  0.00000000000E+00 0. -1.
        -11    1    3    3    0    0  0.64147734782E+01  0.46264316606E+02 -0.92707448353E+02  0.10380851261E+03  0.00000000000E+00 0.  1.
         11    1    3    3    0    0 -0.85290921862E+00 -0.20961559003E+02  0.87787468291E+01  0.22741609570E+02  0.00000000000E+00 0. -1.
         21    1    1    2  502  501  0.19430457690E+02 -0.79392373455E+01  0.18697244082E+02  0.28109804552E+02  0.00000000000E+00 0.  1.
<scales pt_clust_5="13000.00000" pt_clust_6="13000.00000" pt_clust_7="13000.00000" pt_clust_8="13000.00000" pt_clust_9="20.98986"></scales>
<clustering>
<clus scale="   20.990">  1  9  2 -1</clus>
<clus scale="   80.556">  5  6 -1 -1</clus>
<clus scale="   84.518">  1  5  2 -1</clus>
<clus scale="   91.103">  7  8 -1 -1</clus>
<clus scale="   20.990">  1  5  2 -1</clus>
</clustering>
</event>
<event>
 9    2  0.3791909E-005  0.1088517E+03  0.7546771E-02  0.1267308E+00
          2   -1    0    0  502    0  0.00000000000E+00  0.00000000000E+00  0.10136234027E+04  0.10136234027E+04  0.00000000000E+00 0. -1.
         -1   -1    0    0    0  501 -0.00000000000E+00 -0.00000000000E+00 -0.50269062509E+02  0.50269062509E+02  0.00000000000E+00 0.  1.
         23    2    1    2    0    0  0.43172680755E+02 -0.42292894056E+02  0.17897714253E+02  0.11068178998E+03  0.90981103568E+02 0.  0.
         24    2    1    2    0    0 -0.50657160748E+02  0.20858954189E+02  0.82452662836E+03  0.83016801786E+03  0.79583497604E+02 0.  0.
        -11    1    4    4    0    0 -0.59313170474E+02  0.20573957771E+02  0.35152168555E+03  0.35708379316E+03  0.00000000000E+00 0.  1.
         12    1    4    4    0    0  0.86560097261E+01  0.28499641816E+00  0.47300494281E+03  0.47308422469E+03  0.00000000000E+00 0. -1.
        -13    1    3    3    0    0 -0.15440529972E+02  0.18939905098E+02  0.30257155330E+01  0.24622853722E+02  0.00000000000E+00 0. -1.
         13    1    3    3    0    0  0.58613210727E+02 -0.61232799154E+02  0.14871998720E+02  0.86058936258E+02  0.00000000000E+00 0.  1.
         21    1    1    2  502  501  0.74844799934E+01  0.21433939867E+02  0.12092999753E+03  0.12304265733E+03  0.00000000000E+00 0.  1.
<scales pt_clust_5="13000.00000" pt_clust_6="13000.00000" pt_clust_7="13000.00000" pt_clust_8="13000.00000" pt_clust_9="22.70311"></scales>
<clustering>
<clus scale="   22.703">  1  9  2 -1</clus>
<clus scale="   79.583">  5  6 -1 -1</clus>
<clus scale="   90.981">  7  8 -1 -1</clus>
<clus scale="   99.522">  1  5  2 -1</clus>
<clus scale="   22.703">  1  5  2 -1</clus>
</clustering>
</event>
<event>
 9    2  0.3791909E-005  0.1069186E+03  0.7546771E-02  0.1276377E+00
          2   -1    0    0  502    0  0.00000000000E+00  0.00000000000E+00  0.86628872102E+02  0.86628872102E+02  0.00000000000E+00 0. -1.
         -1   -1    0    0    0  501 -0.00000000000E+00 -0.00000000000E+00 -0.28579779086E+03  0.28579779086E+03  0.00000000000E+00 0.  1.
         24    2    1    2    0    0 -0.24652886724E+02  0.22818435272E+02 -0.20222919569E+03  0.22021862467E+03  0.80443453729E+02 0.  0.
         23    2    1    2    0    0  0.56458181912E+02 -0.17781260723E+02  0.15302229296E+02  0.11775785213E+03  0.10064320135E+03 0.  0.
        -11    1    3    3    0    0 -0.53543605616E+02  0.63601119595E+01 -0.12385201036E+03  0.13508030647E+03  0.00000000000E+00 0.  1.
         12    1    3    3    0    0  0.28890718892E+02  0.16458323313E+02 -0.78377185337E+02  0.85138318199E+02  0.00000000000E+00 0. -1.
        -11    1    4    4    0    0  0.12513398103E+02 -0.31586355345E+02  0.49746729078E+02  0.60241348176E+02  0.00000000000E+00 0.  1.
         11    1    4    4    0    0  0.43944783809E+02  0.13805094623E+02 -0.34444499782E+02  0.57516503951E+02  0.00000000000E+00 0. -1.
         21    1    1    2  502  501 -0.31805295187E+02 -0.50371745500E+01 -0.12241952361E+02  0.34450186168E+02  0.00000000000E+00 0.  1.
<scales pt_clust_5="13000.00000" pt_clust_6="13000.00000" pt_clust_7="13000.00000" pt_clust_8="13000.00000" pt_clust_9="32.20171"></scales>
<clustering>
<clus scale="   32.202">  1  9  2 -1</clus>
<clus scale="   80.443">  5  6 -1 -1</clus>
<clus scale="   88.169">  2  5  1 -1</clus>
<clus scale="  100.643">  7  8 -1 -1</clus>
<clus scale="   32.202">  1  5  2 -1</clus>
</clustering>
</event>
<event>
 9    2  0.3791909E-005  0.1466232E+03  0.7546771E-02  0.1206310E+00
          2   -1    0    0  502    0  0.00000000000E+00  0.00000000000E+00  0.47467574785E+03  0.47467574785E+03  0.00000000000E+00 0. -1.
         -1   -1    0    0    0  501 -0.00000000000E+00 -0.00000000000E+00 -0.99754467354E+02  0.99754467354E+02  0.00000000000E+00 0.  1.
         23    2    1    2    0    0 -0.10305435588E+03 -0.58263053329E+02 -0.17410911783E+02  0.14998379054E+03  0.90427948805E+02 0.  0.
         24    2    1    2    0    0  0.75534156940E+02  0.70320117731E+02  0.31368106372E+03  0.34025180385E+03  0.82007026904E+02 0.  0.
        -13    1    4    4    0    0  0.61965929210E+02  0.35612188731E+02  0.97539990813E+02  0.12092168613E+03  0.00000000000E+00 0.  1.
         14    1    4    4    0    0  0.13568227730E+02  0.34707929001E+02  0.21614107291E+03  0.21933011772E+03  0.00000000000E+00 0. -1.
        -11    1    3    3    0    0 -0.15118675455E+02  0.18057366757E+02  0.16445823247E+02  0.28724692234E+02  0.00000000000E+00 0. -1.
         11    1    3    3    0    0 -0.87935680426E+02 -0.76320420085E+02 -0.33856735030E+02  0.12125909830E+03  0.00000000000E+00 0.  1.
         21    1    1    2  502  501  0.27520198941E+02 -0.12057064403E+02  0.78651128558E+02  0.84194620821E+02  0.00000000000E+00 0. -1.
<scales pt_clust_5="13000.00000" pt_clust_6="13000.00000" pt_clust_7="13000.00000" pt_clust_8="13000.00000" pt_clust_9="30.04553"></scales>
<clustering>
<clus scale="   30.046">  1  9  2 -1</clus>
<clus scale="   82.007">  5  6 -1 -1</clus>
<clus scale="   90.428">  7  8 -1 -1</clus>
<clus scale="  141.585">  1  5  2 -1</clus>
<clus scale="   30.046">  1  5  2 -1</clus>
</clustering>
</event>
<event>
 9    2  0.3791909E-005  0.1777070E+03  0.7546771E-02  0.1171352E+00
          2   -1    0    0  502    0  0.00000000000E+00  0.00000000000E+00  0.26637395435E+03  0.26637395435E+03  0.00000000000E+00 0. -1.
         -1   -1    0    0    0  501 -0.00000000000E+00 -0.00000000000E+00 -0.23163834398E+03  0.23163834398E+03  0.00000000000E+00 0.  1.
         23    2    1    2    0    0 -0.26635274253E+02  0.14610569037E+03 -0.13658920023E+03  0.22134837134E+03  0.91006490324E+02 0.  0.
         24    2    1    2    0    0  0.18669333767E+02 -0.16953823405E+03  0.13176395486E+03  0.22999914779E+03  0.80287678732E+02 0.  0.
        -13    1    4    4    0    0  0.46566903781E+02 -0.13874530431E+03  0.11008841801E+03  0.18313436536E+03  0.00000000000E+00 0.  1.
         14    1    4    4    0    0 -0.27897570013E+02 -0.30792929747E+02  0.21675536847E+02  0.46864782435E+02  0.00000000000E+00 0. -1.
        -13    1    3    3    0    0  0.32957084979E+02  0.62690642208E+02 -0.45262104404E+02  0.84053222221E+02  0.00000000000E+00 0. -1.
         13    1    3    3    0    0 -0.59592359232E+02  0.83415048166E+02 -0.91327095822E+02  0.13729514912E+03  0.00000000000E+00 0.  1.
         21    1    1    2  502  501  0.79659404860E+01  0.23432543681E+02  0.39560855736E+02  0.46664779199E+02  0.00000000000E+00 0. -1.
<scales pt_clust_5="13000.00000" pt_clust_6="13000.00000" pt_clust_7="13000.00000" pt_clust_8="13000.00000" pt_clust_9="24.74955"></scales>
<clustering>
<clus scale="   24.750">  1  9  2 -1</clus>
<clus scale="   80.288">  5  6 -1 -1</clus>
<clus scale="   91.006">  7  8 -1 -1</clus>
<clus scale="  172.464">  1  5  2 -1</clus>
<clus scale="   24.750">  1  5  2 -1</clus>
</clustering>
</event>
<event>
 9    2  0.4783000E-005  0.2895434E+03  0.7546771E-02  0.1092421E+00
         -1   -1    0    0    0  501 -0.00000000000E+00  0.00000000000E+00  0.72199678913E+03  0.72199678913E+03  0.00000000000E+00 0.  1.
          2   -1    0    0  502    0  0.00000000000E+00 -0.00000000000E+00 -0.54931653054E+03  0.54931653054E+03  0.00000000000E+00 0. -1.
         24    2    1    2    0    0  0.26466617956E+03  0.61151701927E+02  0.59694928085E+03  0.66081907095E+03  0.80905397670E+02 0.  0.
         23    2    1    2    0    0 -0.13706843148E+03 -0.72243985953E+02 -0.43992042500E+03  0.48146250655E+03  0.11945382564E+03 0.  0.
        -13    1    3    3    0    0  0.24301054030E+03  0.58924992383E+02  0.47355378811E+03  0.53551794336E+03  0.00000000000E+00 0.  1.
         14    1    3    3    0    0  0.21655639255E+02  0.22267095444E+01  0.12339549274E+03  0.12530112759E+03  0.00000000000E+00 0. -1.
        -13    1    4    4    0    0 -0.24661213389E+02 -0.77157345783E+02 -0.14998804947E+03  0.17046362203E+03  0.00000000000E+00 0.  1.
         13    1    4    4    0    0 -0.11240721809E+03  0.49133598303E+01 -0.28993237554E+03  0.31099888451E+03  0.00000000000E+00 0. -1.
         21    1    1    2  502  501 -0.12759774808E+03  0.11092284026E+02  0.15651402739E+02  0.12903174217E+03  0.00000000000E+00 0. -1.
<scales pt_clust_5="13000.00000" pt_clust_6="13000.00000" pt_clust_7="13000.00000" pt_clust_8="13000.00000" pt_clust_9="128.07898"></scales>
<clustering>
<clus scale="   80.905">  5  6 -1 -1</clus>
<clus scale="  119.454">  7  8 -1 -1</clus>
<clus scale="  128.079">  2  9  1 -1</clus>
<clus scale="  275.884">  1  5  2 -1</clus>
<clus scale="  128.079">  2  5  1 -1</clus>
</clustering>
</event>
<event>
 9    2  0.3791909E-005  0.2351342E+03  0.7546771E-02  0.1123722E+00
          2   -1    0    0  502    0  0.00000000000E+00  0.00000000000E+00  0.18463782717E+03  0.18463782717E+03  0.00000000000E+00 0. -1.
         -1   -1    0    0    0  501 -0.00000000000E+00 -0.00000000000E+00 -0.39403647241E+03  0.39403647241E+03  0.00000000000E+00 0.  1.
         24    2    1    2    0    0  0.20003651956E+03 -0.12662341194E+03 -0.18459451403E+03  0.31114928599E+03  0.81796368829E+02 0.  0.
         23    2    1    2    0    0 -0.18341454772E+03  0.96579491000E+02 -0.27948943378E+01  0.22674102604E+03  0.91843274417E+02 0.  0.
        -11    1    3    3    0    0  0.16797252368E+03 -0.93476182407E+02 -0.18237578116E+03  0.26497828391E+03  0.00000000000E+00 0.  1.
         12    1    3    3    0    0  0.32063995878E+02 -0.33147229538E+02 -0.22187328672E+01  0.46171002082E+02  0.00000000000E+00 0. -1.
        -13    1    4    4    0    0 -0.92264999874E+02  0.59677752827E+02 -0.46264792382E+02  0.11922539746E+03  0.00000000000E+00 0.  1.
         13    1    4    4    0    0 -0.91149547848E+02  0.36901738173E+02  0.43469898045E+02  0.10751562858E+03  0.00000000000E+00 0. -1.
         21    1    1    2  502  501 -0.16621971835E+02  0.30043920945E+02 -0.22009236869E+02  0.40783987556E+02  0.00000000000E+00 0.  1.
<scales pt_clust_5="13000.00000" pt_clust_6="13000.00000" pt_clust_7="13000.00000" pt_clust_8="13000.00000" pt_clust_9="34.33551"></scales>
<clustering>
<clus scale="   34.336">  2  9  1 -1</clus>
<clus scale="   81.796">  5  6 -1 -1</clus>
<clus scale="   91.843">  7  8 -1 -1</clus>
<clus scale="  231.395">  2  5  1 -1</clus>
<clus scale="  235.134">  1  5  2 -1</clus>
</clustering>
</event>
<event>
 9    2  0.3791909E-005  0.9162941E+02  0.7546771E-02  0.1302095E+00
          2   -1    0    0  502    0  0.00000000000E+00  0.00000000000E+00  0.62328463537E+03  0.62328463537E+03  0.00000000000E+00 0. -1.
         -1   -1    0    0    0  501 -0.00000000000E+00 -0.00000000000E+00 -0.67501576286E+02  0.67501576286E+02  0.00000000000E+00 0.  1.
         23    2    1    2    0    0  0.18588725414E+02  0.46721456618E+01 -0.30005010714E+02  0.82387030396E+02  0.74296382496E+02 0.  0.
         24    2    1    2    0    0 -0.39504380522E+02 -0.23524741346E+02  0.56713122187E+03  0.57462103792E+03  0.80234063053E+02 0.  0.
        -13    1    4    4    0    0 -0.42187570984E+02 -0.47998834851E+02  0.32367237865E+03  0.32992042676E+03  0.00000000000E+00 0.  1.
         14    1    4    4    0    0  0.26831904619E+01  0.24474093506E+02  0.24345884322E+03  0.24470061117E+03  0.00000000000E+00 0. -1.
        -13    1    3    3    0    0 -0.23601815686E+02  0.20870031314E+02 -0.13464479942E+02  0.34262167632E+02  0.00000000000E+00 0. -1.
         13    1    3    3    0    0  0.42190541100E+02 -0.16197885652E+02 -0.16540530772E+02  0.48124862765E+02  0.00000000000E+00 0.  1.
         21    1    1    2  502  501  0.20915655107E+02  0.18852595684E+02  0.18656847937E+02  0.33778143340E+02  0.00000000000E+00 0.  1.
<scales pt_clust_5="13000.00000" pt_clust_6="13000.00000" pt_clust_7="13000.00000" pt_clust_8="13000.00000" pt_clust_9="28.15821"></scales>
<clustering>
<clus scale="   28.158">  2  9  1 -1</clus>
<clus scale="   74.296">  7  8 -1 -1</clus>
<clus scale="   80.234">  5  6 -1 -1</clus>
<clus scale="   86.478">  2  7  1 -1</clus>
<clus scale="   91.629">  1  5  2 -1</clus>
</clustering>
</event>
<event>
 9    2  0.3791909E-005  0.2579868E+03  0.7546771E-02  0.1109157E+00
          2   -1    0    0  502    0  0.00000000000E+00  0.00000000000E+00  0.99984768003E+03  0.99984768003E+03  0.00000000000E+00 0. -1.
         -1   -1    0    0    0  501 -0.00000000000E+00 -0.00000000000E+00 -0.12765636816E+03  0.12765636816E+03  0.00000000000E+00 0.  1.
         23    2    1    2    0    0 -0.24049442011E+03  0.24254837377E+02  0.62019882886E+02  0.26724469713E+03  0.95642035905E+02 0.  0.
         24    2    1    2    0    0  0.22696469624E+03 -0.52268426267E+02  0.61359676365E+03  0.66123821237E+03  0.80560681583E+02 0.  0.
        -13    1    4    4    0    0  0.66919712216E+02 -0.25947218496E+02  0.10331489979E+03  0.12579934241E+03  0.00000000000E+00 0.  1.
         14    1    4    4    0    0  0.16004498403E+03 -0.26321207771E+02  0.51028186386E+03  0.53543886997E+03  0.00000000000E+00 0. -1.
        -11    1    3    3    0    0 -0.20952624649E+03  0.69103760104E+01  0.17588966174E+02  0.21037674062E+03  0.00000000000E+00 0.  1.
         11    1    3    3    0    0 -0.30968173619E+02  0.17344461367E+02  0.44430916712E+02  0.56867956507E+02  0.00000000000E+00 0. -1.
         21    1    1    2  502  501  0.13529723862E+02  0.28013588890E+02  0.19657466534E+03  0.19902113868E+03  0.00000000000E+00 0. -1.
<scales pt_clust_5="13000.00000" pt_clust_6="13000.00000" pt_clust_7="13000.00000" pt_clust_8="13000.00000" pt_clust_9="31.10972"></scales>
<clustering>
<clus scale="   31.110">  1  9  2 -1</clus>
<clus scale="   80.561">  5  6 -1 -1</clus>
<clus scale="   95.642">  7  8 -1 -1</clus>
<clus scale="  252.784">  1  5  2 -1</clus>
<clus scale="   31.110">  1  5  2 -1</clus>
</clustering>
</event>
<event>
 9    2  0.3791909E-005  0.1110993E+03  0.7546771E-02  0.1262105E+00
          2   -1    0    0  502    0  0.00000000000E+00  0.00000000000E+00  0.84646836458E+02  0.84646836458E+02  0.00000000000E+00 0. -1.
         -1   -1    0    0    0  501 -0.00000000000E+00 -0.00000000000E+00 -0.25796089016E+03  0.25796089016E+03  0.00000000000E+00 0.  1.
         23    2    1    2    0    0 -0.11053930958E+02  0.64519598824E+02 -0.18815418763E+03  0.21930262298E+03  0.91687916879E+02 0.  0.
         24    2    1    2    0    0  0.26876664315E+02 -0.48963115098E+02  0.72134675383E+01  0.99841746732E+02  0.82441485624E+02 0.  0.
        -11    1    4    4    0    0  0.16164253370E+02 -0.33004341779E+02 -0.36680881180E+02  0.51923566012E+02  0.00000000000E+00 0.  1.
         12    1    4    4    0    0  0.10712410945E+02 -0.15958773319E+02  0.43894348718E+02  0.47918180720E+02  0.00000000000E+00 0. -1.
        -13    1    3    3    0    0 -0.51235703880E+02  0.28215393617E+02 -0.99357451821E+02  0.11529574589E+03  0.00000000000E+00 0.  1.
         13    1    3    3    0    0  0.40181772922E+02  0.36304205208E+02 -0.88796735811E+02  0.10400687709E+03  0.00000000000E+00 0. -1.
         21    1    1    2  502  501 -0.15822733357E+02 -0.15556483727E+02  0.76266663938E+01  0.23463356902E+02  0.00000000000E+00 0. -1.
<scales pt_clust_5="13000.00000" pt_clust_6="13000.00000" pt_clust_7="13000.00000" pt_clust_8="13000.00000" pt_clust_9="22.18926"></scales>
<clustering>
<clus scale="   22.189">  1  9  2 -1</clus>
<clus scale="   82.441">  5  6 -1 -1</clus>
<clus scale="   91.688">  7  8 -1 -1</clus>
<clus scale="  103.600">  1  5  2 -1</clus>
<clus scale="   22.189">  1  5  2 -1</clus>
</clustering>
</event>
<event>
 9    2  0.3791909E-005  0.2320358E+03  0.7546771E-02  0.1125863E+00
          2   -1    0    0  502    0  0.00000000000E+00  0.00000000000E+00  0.50919423744E+03  0.50919423744E+03  0.00000000000E+00 0. -1.
         -1   -1    0    0    0  501 -0.00000000000E+00 -0.00000000000E+00 -0.28287300786E+03  0.28287300786E+03  0.00000000000E+00 0.  1.
         23    2    1    2    0    0  0.94938355806E+02  0.19747339466E+03 -0.18354045692E+03  0.30010811558E+03  0.91480865261E+02 0.  0.
         24    2    1    2    0    0 -0.10849376667E+03 -0.15318779580E+03  0.23779898317E+03  0.31377232519E+03  0.81653643362E+02 0.  0.
        -11    1    4    4    0    0 -0.80494870624E+02 -0.46613059556E+02  0.90119447601E+02  0.12951338291E+03  0.00000000000E+00 0.  1.
         12    1    4    4    0    0 -0.27998896047E+02 -0.10657473625E+03  0.14767953556E+03  0.18425894228E+03  0.00000000000E+00 0. -1.
        -13    1    3    3    0    0  0.64938972384E+02  0.18330630104E+03 -0.12023660225E+03  0.22863750930E+03  0.00000000000E+00 0.  1.
         13    1    3    3    0    0  0.29999383423E+02  0.14167093623E+02 -0.63303854664E+02  0.71470606286E+02  0.00000000000E+00 0. -1.
         21    1    1    2  502  501  0.13555410864E+02 -0.44285598861E+02  0.17206270333E+03  0.17818680453E+03  0.00000000000E+00 0. -1.
<scales pt_clust_5="13000.00000" pt_clust_6="13000.00000" pt_clust_7="13000.00000" pt_clust_8="13000.00000" pt_clust_9="46.31375"></scales>
<clustering>
<clus scale="   46.314">  1  9  2 -1</clus>
<clus scale="   81.654">  5  6 -1 -1</clus>
<clus scale="   91.481">  7  8 -1 -1</clus>
<clus scale="  228.340">  1  5  2 -1</clus>
<clus scale="   46.314">  1  5  2 -1</clus>
</clustering>
</event>
<event>
 9    2  0.3791909E-005  0.9424274E+02  0.7546771E-02  0.1299458E+00
          2   -1    0    0  502    0  0.00000000000E+00  0.00000000000E+00  0.53680985385E+03  0.53680985385E+03  0.00000000000E+00 0. -1.
         -1   -1    0    0    0  501 -0.00000000000E+00 -0.00000000000E+00 -0.47174726115E+02  0.47174726115E+02  0.00000000000E+00 0.  1.
         23    2    1    2    0    0  0.34824497826E+01 -0.24414602896E+02  0.18773959189E+02  0.95287698775E+02  0.90105958200E+02 0.  0.
         24    2    1    2    0    0  0.24450167668E+02  0.44520994214E+02  0.29578212839E+03  0.31026715163E+03  0.78731875880E+02 0.  0.
        -13    1    4    4    0    0  0.30486516724E+02  0.65266669207E+02  0.23182287028E+03  0.24275709875E+03  0.00000000000E+00 0.  1.
         14    1    4    4    0    0 -0.60363490561E+01 -0.20745674993E+02  0.63959258113E+02  0.67510052875E+02  0.00000000000E+00 0. -1.
        -11    1    3    3    0    0 -0.30106422281E+02 -0.35203948304E+02  0.33388887747E+02  0.57101072352E+02  0.00000000000E+00 0.  1.
         11    1    3    3    0    0  0.33588872064E+02  0.10789345408E+02 -0.14614928558E+02  0.38186626423E+02  0.00000000000E+00 0. -1.
         21    1    1    2  502  501 -0.27932617451E+02 -0.20106391317E+02  0.17507904015E+03  0.17842972956E+03  0.00000000000E+00 0. -1.
<scales pt_clust_5="13000.00000" pt_clust_6="13000.00000" pt_clust_7="13000.00000" pt_clust_8="13000.00000" pt_clust_9="34.41654"></scales>
<clustering>
<clus scale="   34.417">  1  9  2 -1</clus>
<clus scale="   78.732">  5  6 -1 -1</clus>
<clus scale="   83.435">  1  5  2 -1</clus>
<clus scale="   90.106">  7  8 -1 -1</clus>
<clus scale="   34.417">  1  5  2 -1</clus>
</clustering>
</event>
<event>
 9    2  0.3791909E-005  0.1208243E+03  0.7546771E-02  0.1243971E+00
          2   -1    0    0  502    0  0.00000000000E+00  0.00000000000E+00  0.40746624575E+03  0.40746624575E+03  0.00000000000E+00 0. -1.
         -1   -1    0    0    0  501 -0.00000000000E+00 -0.00000000000E+00 -0.27236245757E+03  0.27236245757E+03  0.00000000000E+00 0.  1.
         24    2    1    2    0    0  0.10205047770E+03 -0.18583457993E+01 -0.16889970659E+03  0.21524242890E+03  0.85932757801E+02 0.  0.
         23    2    1    2    0    0 -0.36468245932E+02  0.29675398442E+02 -0.41262716597E+02  0.11204751874E+03  0.92959520440E+02 0.  0.
        -11    1    3    3    0    0  0.84729340744E+02  0.94978682156E+00 -0.17675580331E+03  0.19601677807E+03  0.00000000000E+00 0.  1.
         12    1    3    3    0    0  0.17321136959E+02 -0.28081326209E+01  0.78560967207E+01  0.19225650836E+02  0.00000000000E+00 0. -1.
        -11    1    4    4    0    0  0.30533706500E+02  0.11672000790E+01 -0.59830890313E+01  0.31136264115E+02  0.00000000000E+00 0.  1.
         11    1    4    4    0    0 -0.67001952432E+02  0.28508198363E+02 -0.35279627566E+02  0.80911254623E+02  0.00000000000E+00 0. -1.
         21    1    1    2  502  501 -0.65582231772E+02 -0.27817052643E+02  0.34526621137E+03  0.35253875568E+03  0.00000000000E+00 0. -1.
<scales pt_clust_5="13000.00000" pt_clust_6="13000.00000" pt_clust_7="13000.00000" pt_clust_8="13000.00000" pt_clust_9="71.23775"></scales>
<clustering>
<clus scale="   71.238">  1  9  2 -1</clus>
<clus scale="   85.933">  5  6 -1 -1</clus>
<clus scale="   92.960">  7  8 -1 -1</clus>
<clus scale="  115.505">  2  5  1 -1</clus>
<clus scale="   71.238">  1  5  2 -1</clus>
</clustering>
</event>
<event>
 9    2  0.3791909E-005  0.1077319E+03  0.7546771E-02  0.1269528E+00
         -1   -1    0    0    0  501 -0.00000000000E+00  0.00000000000E+00  0.10502596536E+03  0.10502596536E+03  0.00000000000E+00 0.  1.
          2   -1    0    0  502    0  0.00000000000E+00 -0.00000000000E+00 -0.69740911913E+03  0.69740911913E+03  0.00000000000E+00 0. -1.
         23    2    1    2    0    0 -0.14864998481E+01  0.56454345454E+02  0.67758598212E+02  0.12691440920E+03  0.91250955215E+02 0.  0.
         24    2    1    2    0    0  0.24519742515E+02 -0.72249551996E+02 -0.58524608504E+03  0.59558707946E+03  0.79936059589E+02 0.  0.
        -11    1    4    4    0    0  0.17770651645E+02 -0.66004256659E+02 -0.22338335595E+03  0.23360753771E+03  0.00000000000E+00 0.  1.
         12    1    4    4    0    0  0.67490908703E+01 -0.62452953374E+01 -0.36186272909E+03  0.36197954175E+03  0.00000000000E+00 0. -1.
        -11    1    3    3    0    0  0.41298996488E+02  0.41066594410E+02  0.21587497005E+02  0.62113543727E+02  0.00000000000E+00 0.  1.
         11    1    3    3    0    0 -0.42785496336E+02  0.15387751044E+02  0.46171101207E+02  0.64800865470E+02  0.00000000000E+00 0. -1.
         21    1    1    2  502  501 -0.23033242667E+02  0.15795206543E+02 -0.74895666933E+02  0.79933595834E+02  0.00000000000E+00 0.  1.
<scales pt_clust_5="13000.00000" pt_clust_6="13000.00000" pt_clust_7="13000.00000" pt_clust_8="13000.00000" pt_clust_9="27.92882"></scales>
<clustering>
<clus scale="   27.929">  2  9  1 -1</clus>
<clus scale="   79.936">  5  6 -1 -1</clus>
<clus scale="   91.251">  7  8 -1 -1</clus>
<clus scale="   98.332">  2  5  1 -1</clus>
<clus scale="   27.929">  2  5  1 -1</clus>
</clustering>
</event>
<event>
 9    2  0.3791909E-005  0.1716563E+03  0.7546771E-02  0.1177204E+00
         -1   -1    0    0    0  501 -0.00000000000E+00  0.00000000000E+00  0.22148941291E+03  0.22148941291E+03  0.00000000000E+00 0.  1.
          2   -1    0    0  502    0  0.00000000000E+00 -0.00000000000E+00 -0.41559230594E+03  0.41559230594E+03  0.00000000000E+00 0. -1.
         24    2    1    2    0    0  0.12790147229E+02 -0.14290397278E+03  0.15634710415E+03  0.22786178305E+03  0.83014708902E+02 0.  0.
         23    2    1    2    0    0 -0.92198879410E+01  0.16508438997E+03 -0.31668195960E+03  0.36866136064E+03  0.91026771584E+02 0.  0.
        -13    1    3    3    0    0  0.34609429714E+02 -0.13878721427E+03  0.12881424400E+03  0.19249107233E+03  0.00000000000E+00 0.  1.
         14    1    3    3    0    0 -0.21819282485E+02 -0.41167585198E+01  0.27532860142E+02  0.35370710715E+02  0.00000000000E+00 0. -1.
        -13    1    4    4    0    0  0.25296333621E+02  0.13861051079E+03 -0.27184726924E+03  0.30619228597E+03  0.00000000000E+00 0. -1.
         13    1    4    4    0    0 -0.34516221562E+02  0.26473879188E+02 -0.44834690364E+02  0.62469074671E+02  0.00000000000E+00 0.  1.
         21    1    1    2  502  501 -0.35702592877E+01 -0.22180417190E+02 -0.33768037570E+02  0.40558575165E+02  0.00000000000E+00 0. -1.
<scales pt_clust_5="13000.00000" pt_clust_6="13000.00000" pt_clust_7="13000.00000" pt_clust_8="13000.00000" pt_clust_9="22.46592"></scales>
<clustering>
<clus scale="   22.466">  2  9  1 -1</clus>
<clus scale="   83.015">  5  6 -1 -1</clus>
<clus scale="   91.027">  7  8 -1 -1</clus>
<clus scale="  167.545">  1  5  2 -1</clus>
<clus scale="   22.466">  2  5  1 -1</clus>
</clustering>
</event>
<event>
 9    2  0.3791909E-005  0.1089315E+03  0.7546771E-02  0.1268144E+00
         -3   -1    0    0    0  501 -0.00000000000E+00  0.00000000000E+00  0.11313895988E+03  0.11313895988E+03  0.00000000000E+00 0.  1.
          4   -1    0    0  502    0  0.00000000000E+00 -0.00000000000E+00 -0.31805749855E+03  0.31805749855E+03  0.00000000000E+00 0. -1.
         24    2    1    2    0    0 -0.17966681272E+01 -0.41581502990E+02  0.71596544355E+02  0.12135076972E+03  0.88700026723E+02 0.  0.
         23    2    1    2    0    0 -0.20583304730E+02  0.34313601302E+02 -0.25796111325E+03  0.27988011890E+03  0.10093487672E+03 0.  0.
        -13    1    3    3    0    0 -0.41817103262E+02 -0.20253226808E+02  0.57364311572E+02  0.73820915488E+02  0.00000000000E+00 0.  1.
         14    1    3    3    0    0  0.40020435135E+02 -0.21328276181E+02  0.14232232783E+02  0.47529854231E+02  0.00000000000E+00 0. -1.
        -11    1    4    4    0    0 -0.33426603962E+02 -0.13127380265E+02 -0.30337880037E+02  0.47011200050E+02  0.00000000000E+00 0.  1.
         11    1    4    4    0    0  0.12843299232E+02  0.47440981567E+02 -0.22762323321E+03  0.23286891885E+03  0.00000000000E+00 0. -1.
         21    1    1    2  502  501  0.22379972857E+02  0.72679016875E+01 -0.18553969770E+02  0.29965569813E+02  0.00000000000E+00 0.  1.
<scales pt_clust_5="13000.00000" pt_clust_6="13000.00000" pt_clust_7="13000.00000" pt_clust_8="13000.00000" pt_clust_9="23.53052"></scales>
<clustering>
<clus scale="   23.531">  2  9  1 -1</clus>
<clus scale="   88.700">  5  6 -1 -1</clus>
<clus scale="   97.703">  1  5  2 -1</clus>
<clus scale="  100.935">  7  8 -1 -1</clus>
<clus scale="   23.531">  2  5  1 -1</clus>
</clustering>
</event>
<event>
 9    2  0.3791909E-005  0.1006369E+03  0.7546771E-02  0.1284385E+00
          2   -1    0    0  502    0  0.00000000000E+00  0.00000000000E+00  0.47180980395E+03  0.47180980395E+03  0.00000000000E+00 0. -1.
         -1   -1    0    0    0  501 -0.00000000000E+00 -0.00000000000E+00 -0.39451936948E+02  0.39451936948E+02  0.00000000000E+00 0.  1.
         24    2    1    2    0    0 -0.25911670638E+02  0.21075227639E+02  0.64706032683E+02  0.10815619000E+03  0.79970687596E+02 0.  0.
         23    2    1    2    0    0  0.38643466216E+02 -0.53356922867E+02  0.17930996230E+03  0.21159349587E+03  0.90991572224E+02 0.  0.
        -13    1    3    3    0    0  0.15613332563E+02 -0.18566989770E+02  0.39703833415E+01  0.24581969138E+02  0.00000000000E+00 0.  1.
         14    1    3    3    0    0 -0.41525003201E+02  0.39642217408E+02  0.60735649342E+02  0.83574220863E+02  0.00000000000E+00 0. -1.
        -13    1    4    4    0    0 -0.26984791854E+02 -0.29031201484E+02  0.43772537864E+02  0.59051034894E+02  0.00000000000E+00 0.  1.
         13    1    4    4    0    0  0.65628258070E+02 -0.24325721382E+02  0.13553742444E+03  0.15254246098E+03  0.00000000000E+00 0. -1.
         21    1    1    2  502  501 -0.12731795578E+02  0.32281695228E+02  0.18834187202E+03  0.19151205503E+03  0.00000000000E+00 0. -1.
<scales pt_clust_5="13000.00000" pt_clust_6="13000.00000" pt_clust_7="13000.00000" pt_clust_8="13000.00000" pt_clust_9="34.70168"></scales>
<clustering>
<clus scale="   34.702">  1  9  2 -1</clus>
<clus scale="   79.971">  5  6 -1 -1</clus>
<clus scale="   90.794">  2  5  1 -1</clus>
<clus scale="   90.992">  7  8 -1 -1</clus>
<clus scale="   34.702">  1  5  2 -1</clus>
</clustering>
</event>
<event>
 9    2  0.3791909E-005  0.1971997E+03  0.7546771E-02  0.1153058E+00
          2   -1    0    0  502    0  0.00000000000E+00  0.00000000000E+00  0.35099332682E+03  0.35099332682E+03  0.00000000000E+00 0. -1.
         -1   -1    0    0    0  501 -0.00000000000E+00 -0.00000000000E+00 -0.15660865216E+03  0.15660865216E+03  0.00000000000E+00 0.  1.
         23    2    1    2    0    0 -0.17970482799E+03 -0.28817909346E+02 -0.27406621561E+02  0.20504625012E+03  0.90380001556E+02 0.  0.
         24    2    1    2    0    0  0.15597177372E+03  0.32304982876E+02  0.17501037070E+03  0.24998318336E+03  0.80573916345E+02 0.  0.
        -11    1    4    4    0    0  0.88602715531E+02  0.23751794011E+02  0.42528591209E+02  0.10111018736E+03  0.00000000000E+00 0.  1.
         12    1    4    4    0    0  0.67369058189E+02  0.85531888648E+01  0.13248177949E+03  0.14887299600E+03  0.00000000000E+00 0. -1.
        -11    1    3    3    0    0 -0.13822973372E+03 -0.37251821176E+02 -0.56263985010E+02  0.15382065361E+03  0.00000000000E+00 0.  1.
         11    1    3    3    0    0 -0.41475094264E+02  0.84339118298E+01  0.28857363449E+02  0.51225596513E+02  0.00000000000E+00 0. -1.
         21    1    1    2  502  501  0.23733054268E+02 -0.34870735298E+01  0.46780925534E+02  0.52572545501E+02  0.00000000000E+00 0. -1.
<scales pt_clust_5="13000.00000" pt_clust_6="13000.00000" pt_clust_7="13000.00000" pt_clust_8="13000.00000" pt_clust_9="23.98786"></scales>
<clustering>
<clus scale="   23.988">  1  9  2 -1</clus>
<clus scale="   80.574">  5  6 -1 -1</clus>
<clus scale="   90.380">  7  8 -1 -1</clus>
<clus scale="  192.902">  1  5  2 -1</clus>
<clus scale="   23.988">  1  5  2 -1</clus>
</clustering>
</event>
<event>
 9    2  0.3791909E-005  0.3815823E+03  0.7546771E-02  0.1050574E+00
          2   -1    0    0  502    0  0.00000000000E+00  0.00000000000E+00  0.86137261330E+03  0.86137261330E+03  0.00000000000E+00 0. -1.
         -1   -1    0    0    0  501 -0.00000000000E+00 -0.00000000000E+00 -0.53754669712E+03  0.53754669712E+03  0.00000000000E+00 0.  1.
         24    2    1    2    0    0  0.35698135780E+03  0.10809454372E+03 -0.41303314434E+03  0.56222486745E+03  0.79876799237E+02 0.  0.
         23    2    1    2    0    0 -0.33298558006E+03 -0.10660301441E+03  0.62136980091E+03  0.71872923161E+03  0.90706558047E+02 0.  0.
        -11    1    3    3    0    0  0.29997025159E+03  0.70905827021E+02 -0.37052642288E+03  0.48197470701E+03  0.00000000000E+00 0.  1.
         12    1    3    3    0    0  0.57011106216E+02  0.37188716703E+02 -0.42506721456E+02  0.80250160441E+02  0.00000000000E+00 0. -1.
        -13    1    4    4    0    0 -0.22990700187E+03 -0.36549296048E+02  0.45224302050E+03  0.50864214349E+03  0.00000000000E+00 0. -1.
         13    1    4    4    0    0 -0.10307857819E+03 -0.70053718364E+02  0.16912678041E+03  0.21008708811E+03  0.00000000000E+00 0.  1.
         21    1    1    2  502  501 -0.23995777742E+02 -0.14915293125E+01  0.11548925960E+03  0.11796521136E+03  0.00000000000E+00 0. -1.
<scales pt_clust_5="13000.00000" pt_clust_6="13000.00000" pt_clust_7="13000.00000" pt_clust_8="13000.00000" pt_clust_9="24.04209"></scales>
<clustering>
<clus scale="   24.042">  1  9  2 -1</clus>
<clus scale="   79.877">  5  6 -1 -1</clus>
<clus scale="   90.707">  7  8 -1 -1</clus>
<clus scale="  379.154">  2  5  1 -1</clus>
<clus scale="   24.042">  1  5  2 -1</clus>
</clustering>
</event>
<event>
 9    2  0.3791909E-005  0.9313594E+02  0.7546771E-02  0.1301965E+00
          4   -1    0    0  502    0  0.00000000000E+00  0.00000000000E+00  0.29341505297E+03  0.29341505297E+03  0.00000000000E+00 0. -1.
         -3   -1    0    0    0  501 -0.00000000000E+00 -0.00000000000E+00 -0.18730421089E+03  0.18730421089E+03  0.00000000000E+00 0.  1.
         24    2    1    2    0    0 -0.76666346500E+01  0.12978666754E+02 -0.15318369197E+03  0.17378784622E+03  0.80683015131E+02 0.  0.
         23    2    1    2    0    0 -0.88017307207E+00 -0.57248929327E+02  0.12435949798E+03  0.16466277026E+03  0.91489499713E+02 0.  0.
        -11    1    3    3    0    0 -0.15349354355E+02  0.34935660443E+02 -0.14367704051E+03  0.14865798001E+03  0.00000000000E+00 0.  1.
         12    1    3    3    0    0  0.76827197053E+01 -0.21956993689E+02 -0.95066514594E+01  0.25129866213E+02  0.00000000000E+00 0. -1.
        -11    1    4    4    0    0  0.20490627656E+01 -0.77800000144E+02  0.12065191490E+03  0.14357549669E+03  0.00000000000E+00 0. -1.
         11    1    4    4    0    0 -0.29292358377E+01  0.20551070816E+02  0.37075830806E+01  0.21087273570E+02  0.00000000000E+00 0.  1.
         21    1    1    2  502  501  0.85468077221E+01  0.44270262574E+02  0.13493503606E+03  0.14226864738E+03  0.00000000000E+00 0.  1.
<scales pt_clust_5="13000.00000" pt_clust_6="13000.00000" pt_clust_7="13000.00000" pt_clust_8="13000.00000" pt_clust_9="45.08774"></scales>
<clustering>
<clus scale="   45.088">  1  9  2 -1</clus>
<clus scale="   80.683">  5  6 -1 -1</clus>
<clus scale="   82.545">  2  5  1 -1</clus>
<clus scale="   91.489">  7  8 -1 -1</clus>
<clus scale="   45.088">  1  5  2 -1</clus>
</clustering>
</event>
<event>
 9    2  0.3791909E-005  0.1396571E+03  0.7546771E-02  0.1216059E+00
         -1   -1    0    0    0  501 -0.00000000000E+00  0.00000000000E+00  0.11587998331E+03  0.11587998331E+03  0.00000000000E+00 0.  1.
          2   -1    0    0  502    0  0.00000000000E+00 -0.00000000000E+00 -0.54326557012E+03  0.54326557012E+03  0.00000000000E+00 0. -1.
         24    2    1    2    0    0  0.31439420755E+02 -0.10284564245E+03  0.57889240588E+02  0.14638942807E+03  0.80703389807E+02 0.  0.
         23    2    1    2    0    0 -0.14876583590E+02  0.87153316434E+02 -0.46570218924E+03  0.48269510683E+03  0.91098977979E+02 0.  0.
        -13    1    3    3    0    0  0.35222912122E+02 -0.11393646703E+03  0.61429039363E+02  0.13414804857E+03  0.00000000000E+00 0.  1.
         14    1    3    3    0    0 -0.37834913669E+01  0.11090824578E+02 -0.35397987749E+01  0.12241379502E+02  0.00000000000E+00 0. -1.
        -13    1    4    4    0    0 -0.48060663150E+02  0.75740023257E+02 -0.29133810994E+03  0.30483482867E+03  0.00000000000E+00 0. -1.
         13    1    4    4    0    0  0.33184079561E+02  0.11413293177E+02 -0.17436407930E+03  0.17786027816E+03  0.00000000000E+00 0.  1.
         21    1    1    2  502  501 -0.16562837166E+02  0.15692326020E+02 -0.19572638152E+02  0.30061018531E+02  0.00000000000E+00 0. -1.
<scales pt_clust_5="13000.00000" pt_clust_6="13000.00000" pt_clust_7="13000.00000" pt_clust_8="13000.00000" pt_clust_9="22.81615"></scales>
<clustering>
<clus scale="   22.816">  2  9  1 -1</clus>
<clus scale="   80.703">  5  6 -1 -1</clus>
<clus scale="   91.099">  7  8 -1 -1</clus>
<clus scale="  133.109">  1  5  2 -1</clus>
<clus scale="   22.816">  2  5  1 -1</clus>
</clustering>
</event>
<event>
 9    2  0.3791909E-005  0.1251055E+03  0.7546771E-02  0.1237884E+00
         -1   -1    0    0    0  501 -0.00000000000E+00  0.00000000000E+00  0.11581829414E+03  0.11581829414E+03  0.00000000000E+00 0.  1.
          2   -1    0    0  502    0  0.00000000000E+00 -0.00000000000E+00 -0.19634867348E+03  0.19634867348E+03  0.00000000000E+00 0. -1.
         23    2    1    2    0    0 -0.98325354986E+02 -0.59835327520E+02 -0.41017354107E+02  0.15211317877E+03  0.90597207277E+02 0.  0.
         24    2    1    2    0    0  0.61486654383E+02  0.24185658461E+02 -0.27423206993E+02  0.10738356507E+03  0.80085223505E+02 0.  0.
        -13    1    4    4    0    0  0.39548621151E+02 -0.24120104630E+01  0.23365047049E+02  0.45998224455E+02  0.00000000000E+00 0.  1.
         14    1    4    4    0    0  0.21938033233E+02  0.26597668924E+02 -0.50788254043E+02  0.61385340620E+02  0.00000000000E+00 0. -1.
        -13    1    3    3    0    0  0.45436331245E+01 -0.26585115827E+02  0.14457946565E+02  0.30601392197E+02  0.00000000000E+00 0. -1.
         13    1    3    3    0    0 -0.10286898811E+03 -0.33250211693E+02 -0.55475300672E+02  0.12151178658E+03  0.00000000000E+00 0.  1.
         21    1    1    2  502  501  0.36838700603E+02  0.35649669059E+02 -0.12089818239E+02  0.52670223763E+02  0.00000000000E+00 0.  1.
<scales pt_clust_5="13000.00000" pt_clust_6="13000.00000" pt_clust_7="13000.00000" pt_clust_8="13000.00000" pt_clust_9="51.26391"></scales>
<clustering>
<clus scale="   51.264">  1  9  2 -1</clus>
<clus scale="   80.085">  5  6 -1 -1</clus>
<clus scale="   90.597">  7  8 -1 -1</clus>
<clus scale="  117.716">  2  5  1 -1</clus>
<clus scale="  117.716">  2  5  1 -1</clus>
</clustering>
</event>
<event>
 9    2  0.3791909E-005  0.2526843E+03  0.7546771E-02  0.1144990E+00
         -1   -1    0    0    0  501 -0.00000000000E+00  0.00000000000E+00  0.13081711051E+03  0.13081711051E+03  0.00000000000E+00 0.  1.
          2   -1    0    0  502    0  0.00000000000E+00 -0.00000000000E+00 -0.11697168323E+04  0.11697168323E+04  0.00000000000E+00 0. -1.
         24    2    1    2    0    0 -0.71665687371E+02 -0.12464257479E+02  0.31881244864E+02  0.11552682207E+03  0.83896986734E+02 0.  0.
         23    2    1    2    0    0  0.26227948548E+03  0.37173277193E+02 -0.83564112277E+03  0.88130512558E+03  0.90720765352E+02 0.  0.
        -13    1    3    3    0    0 -0.78430207284E+01  0.26472103842E+02 -0.10557586637E+02  0.29559226843E+02  0.00000000000E+00 0.  1.
         14    1    3    3    0    0 -0.63822666642E+02 -0.38936361321E+02  0.42438831501E+02  0.85967595229E+02  0.00000000000E+00 0. -1.
        -13    1    4    4    0    0  0.14800190426E+02 -0.16591373941E+02 -0.12321500895E+03  0.12520486315E+03  0.00000000000E+00 0.  1.
         13    1    4    4    0    0  0.24747929505E+03  0.53764651134E+02 -0.71242611382E+03  0.75610026243E+03  0.00000000000E+00 0. -1.
         21    1    1    2  502  501 -0.19061379811E+03 -0.24709019714E+02 -0.23513984391E+03  0.30370199518E+03  0.00000000000E+00 0.  1.
<scales pt_clust_5="13000.00000" pt_clust_6="13000.00000" pt_clust_7="13000.00000" pt_clust_8="13000.00000" pt_clust_9="235.83705"></scales>
<clustering>
<clus scale="   83.897">  5  6 -1 -1</clus>
<clus scale="   90.721">  7  8 -1 -1</clus>
<clus scale="  111.041">  1  5  2 -1</clus>
<clus scale="  235.837">  1  9  2 -1</clus>
<clus scale="  252.684">  2  5  1 -1</clus>
</clustering>
</event>
<event>
 9    2  0.3791909E-005  0.1984110E+03  0.7546771E-02  0.1179927E+00
         -1   -1    0    0    0  501 -0.00000000000E+00  0.00000000000E+00  0.24117028909E+03  0.24117028909E+03  0.00000000000E+00 0.  1.
          2   -1    0    0  502    0  0.00000000000E+00 -0.00000000000E+00 -0.95531484040E+03  0.95531484040E+03  0.00000000000E+00 0. -1.
         23    2    1    2    0    0 -0.43434452681E+02 -0.74727523382E+01 -0.40002009562E+02  0.10959887824E+03  0.92029123845E+02 0.  0.
         24    2    1    2    0    0  0.18054602529E+03  0.12941154979E+03  0.12667376781E+03  0.26531737688E+03  0.70730831711E+02 0.  0.
        -13    1    4    4    0    0  0.16487703727E+03  0.13520969492E+03  0.10423449675E+03  0.23734137720E+03  0.00000000000E+00 0.  1.
         14    1    4    4    0    0  0.15668988019E+02 -0.57981451217E+01  0.22439271057E+02  0.27975999678E+02  0.00000000000E+00 0. -1.
        -13    1    3    3    0    0  0.33696696997E+01  0.22747565483E+02 -0.48087098923E+02  0.53302678095E+02  0.00000000000E+00 0. -1.
         13    1    3    3    0    0 -0.46804122381E+02 -0.30220317821E+02  0.80850893605E+01  0.56296200147E+02  0.00000000000E+00 0.  1.
         21    1    1    2  502  501 -0.13711157261E+03 -0.12193879746E+03 -0.80081630957E+03  0.82156887437E+03  0.00000000000E+00 0. -1.
<scales pt_clust_5="13000.00000" pt_clust_6="13000.00000" pt_clust_7="13000.00000" pt_clust_8="13000.00000" pt_clust_9="185.37546"></scales>
<clustering>
<clus scale="   70.731">  5  6 -1 -1</clus>
<clus scale="   92.029">  7  8 -1 -1</clus>
<clus scale="  102.038">  1  7  2 -1</clus>
<clus scale="  185.375">  2  9  1 -1</clus>
<clus scale="  185.375">  2  5  1 -1</clus>
</clustering>
</event>
<event>
 9    2  0.3791909E-005  0.9865773E+02  0.7546771E-02  0.1289278E+00
          2   -1    0    0  502    0  0.00000000000E+00  0.00000000000E+00  0.40396600501E+03  0.40396600501E+03  0.00000000000E+00 0. -1.
         -1   -1    0    0    0  501 -0.00000000000E+00 -0.00000000000E+00 -0.69103954156E+02  0.69103954156E+02  0.00000000000E+00 0.  1.
         23    2    1    2    0    0 -0.87068123597E+01  0.31388325728E+02 -0.15209178598E+02  0.98597794985E+02  0.91810514043E+02 0.  0.
         24    2    1    2    0    0  0.16636666935E+02 -0.50496950299E+02  0.18879449498E+03  0.21187386404E+03  0.80127724622E+02 0.  0.
        -11    1    4    4    0    0  0.10071691294E+02  0.20671987970E+02  0.64758248242E+02  0.68719726190E+02  0.00000000000E+00 0.  1.
         12    1    4    4    0    0  0.65649756408E+01 -0.71168938269E+02  0.12403624674E+03  0.14315413785E+03  0.00000000000E+00 0. -1.
        -11    1    3    3    0    0 -0.38048642247E+01  0.63770493937E+02 -0.15925000065E+02  0.65838883009E+02  0.00000000000E+00 0.  1.
         11    1    3    3    0    0 -0.49019481350E+01 -0.32382168210E+02  0.71582146675E+00  0.32758911976E+02  0.00000000000E+00 0. -1.
         21    1    1    2  502  501 -0.79298545749E+01  0.19108624571E+02  0.16127673447E+03  0.16259830014E+03  0.00000000000E+00 0. -1.
<scales pt_clust_5="13000.00000" pt_clust_6="13000.00000" pt_clust_7="13000.00000" pt_clust_8="13000.00000" pt_clust_9="20.68870"></scales>
<clustering>
<clus scale="   20.689">  1  9  2 -1</clus>
<clus scale="   80.128">  5  6 -1 -1</clus>
<clus scale="   87.890">  1  5  2 -1</clus>
<clus scale="   91.811">  7  8 -1 -1</clus>
<clus scale="   20.689">  1  5  2 -1</clus>
</clustering>
</event>
<event>
 9    2  0.3791909E-005  0.1245982E+03  0.7546771E-02  0.1239929E+00
         -1   -1    0    0    0  501 -0.00000000000E+00  0.00000000000E+00  0.22611305551E+03  0.22611305551E+03  0.00000000000E+00 0.  1.
          2   -1    0    0  502    0  0.00000000000E+00 -0.00000000000E+00 -0.15461566353E+03  0.15461566353E+03  0.00000000000E+00 0. -1.
         23    2    1    2    0    0 -0.41474319983E+02  0.67837697178E+02  0.14857248721E+03  0.19312866742E+03  0.94354787083E+02 0.  0.
         24    2    1    2    0    0  0.12138182000E+02 -0.93448562467E+02 -0.31655065914E+02  0.12777109144E+03  0.80271036622E+02 0.  0.
        -11    1    4    4    0    0 -0.26771036947E+02 -0.70571950668E+02 -0.33540306949E+02  0.82595646560E+02  0.00000000000E+00 0.  1.
         12    1    4    4    0    0  0.38909218946E+02 -0.22876611799E+02  0.18852410355E+01  0.45175444881E+02  0.00000000000E+00 0. -1.
        -13    1    3    3    0    0 -0.93129115665E+01  0.45762036422E+02  0.14683351541E+03  0.15408106810E+03  0.00000000000E+00 0.  1.
         13    1    3    3    0    0 -0.32161408416E+02  0.22075660756E+02  0.17389717975E+01  0.39047599312E+02  0.00000000000E+00 0. -1.
         21    1    1    2  502  501  0.29336137983E+02  0.25610865289E+02 -0.45420029318E+02  0.59828960177E+02  0.00000000000E+00 0. -1.
<scales pt_clust_5="13000.00000" pt_clust_6="13000.00000" pt_clust_7="13000.00000" pt_clust_8="13000.00000" pt_clust_9="38.94259"></scales>
<clustering>
<clus scale="   38.943">  2  9  1 -1</clus>
<clus scale="   80.271">  5  6 -1 -1</clus>
<clus scale="   94.355">  7  8 -1 -1</clus>
<clus scale="  114.304">  2  5  1 -1</clus>
<clus scale="   38.943">  2  5  1 -1</clus>
</clustering>
</event>
<event>
 9    2  0.3791909E-005  0.1071180E+03  0.7546771E-02  0.1278740E+00
          2   -1    0    0  502    0  0.00000000000E+00  0.00000000000E+00  0.18199739820E+03  0.18199739820E+03  0.00000000000E+00 0. -1.
         -1   -1    0    0    0  501 -0.00000000000E+00 -0.00000000000E+00 -0.20622839174E+03  0.20622839174E+03  0.00000000000E+00 0.  1.
         23    2    1    2    0    0 -0.46326805614E+02 -0.25247433091E+02 -0.17647079980E+03  0.20701770457E+03  0.94502809614E+02 0.  0.
         24    2    1    2    0    0  0.29686293022E+02  0.81287013426E+01  0.12394426145E+03  0.14418653094E+03  0.66934475270E+02 0.  0.
        -13    1    4    4    0    0  0.35912287935E+02 -0.55831739871E+00  0.22937966950E+02  0.42616363885E+02  0.00000000000E+00 0.  1.
         14    1    4    4    0    0 -0.62259949129E+01  0.86870187413E+01  0.10100629450E+03  0.10157016705E+03  0.00000000000E+00 0. -1.
        -11    1    3    3    0    0 -0.29484979418E+02  0.30149197983E+02 -0.11539481461E+03  0.12285886777E+03  0.00000000000E+00 0. -1.
         11    1    3    3    0    0 -0.16841826196E+02 -0.55396631074E+02 -0.61075985189E+02  0.84158836796E+02  0.00000000000E+00 0.  1.
         21    1    1    2  502  501  0.16640512592E+02  0.17118731748E+02  0.28295544816E+02  0.37021554430E+02  0.00000000000E+00 0.  1.
<scales pt_clust_5="13000.00000" pt_clust_6="13000.00000" pt_clust_7="13000.00000" pt_clust_8="13000.00000" pt_clust_9="23.87379"></scales>
<clustering>
<clus scale="   23.874">  1  9  2 -1</clus>
<clus scale="   66.934">  5  6 -1 -1</clus>
<clus scale="   83.808">  1  5  2 -1</clus>
<clus scale="   94.503">  7  8 -1 -1</clus>
<clus scale="   23.874">  1  5  2 -1</clus>
</clustering>
</event>
<event>
 9    2  0.3791909E-005  0.1233740E+03  0.7546771E-02  0.1241397E+00
          4   -1    0    0  502    0  0.00000000000E+00  0.00000000000E+00  0.83722159786E+02  0.83722159786E+02  0.00000000000E+00 0. -1.
         -3   -1    0    0    0  501 -0.00000000000E+00 -0.00000000000E+00 -0.35934924672E+03  0.35934924672E+03  0.00000000000E+00 0.  1.
         23    2    1    2    0    0 -0.60912670430E+02 -0.61042526440E+02 -0.28726545794E+03  0.31384900909E+03  0.92429506784E+02 0.  0.
         24    2    1    2    0    0  0.41668087679E+02  0.44453536139E+02  0.20047447206E+02  0.10245934216E+03  0.79897873878E+02 0.  0.
        -13    1    4    4    0    0 -0.16551632005E+02  0.35504864593E+02  0.19020667791E+02  0.43546960112E+02  0.00000000000E+00 0.  1.
         14    1    4    4    0    0  0.58219719684E+02  0.89486715459E+01  0.10267794150E+01  0.58912382047E+02  0.00000000000E+00 0. -1.
        -11    1    3    3    0    0 -0.38358508248E+02 -0.81662241418E+02 -0.24923086088E+03  0.26505870830E+03  0.00000000000E+00 0.  1.
         11    1    3    3    0    0 -0.22554162182E+02  0.20619714978E+02 -0.38034597062E+02  0.48790300790E+02  0.00000000000E+00 0. -1.
         21    1    1    2  502  501  0.19244582751E+02  0.16588990301E+02 -0.84090761994E+01  0.26763055262E+02  0.00000000000E+00 0. -1.
<scales pt_clust_5="13000.00000" pt_clust_6="13000.00000" pt_clust_7="13000.00000" pt_clust_8="13000.00000" pt_clust_9="25.40765"></scales>
<clustering>
<clus scale="   25.408">  1  9  2 -1</clus>
<clus scale="   79.898">  5  6 -1 -1</clus>
<clus scale="   92.430">  7  8 -1 -1</clus>
<clus scale="  114.287">  1  5  2 -1</clus>
<clus scale="   25.408">  1  5  2 -1</clus>
</clustering>
</event>
<event>
 9    2  0.3791909E-005  0.1404222E+03  0.7546771E-02  0.1214004E+00
          2   -1    0    0  502    0  0.00000000000E+00  0.00000000000E+00  0.83657587997E+03  0.83657587997E+03  0.00000000000E+00 0. -1.
         -1   -1    0    0    0  501 -0.00000000000E+00 -0.00000000000E+00 -0.17148175439E+03  0.17148175439E+03  0.00000000000E+00 0.  1.
         23    2    1    2    0    0 -0.56834280945E+01  0.11282254576E+03 -0.12993927093E+03  0.19304888071E+03  0.87306517685E+02 0.  0.
         24    2    1    2    0    0 -0.40720484800E+02 -0.62090955837E+02  0.51790569215E+03  0.52947980264E+03  0.81296437525E+02 0.  0.
        -11    1    4    4    0    0  0.75086018965E+01 -0.21132662583E+02  0.29832295684E+02  0.37322036333E+02  0.00000000000E+00 0.  1.
         12    1    4    4    0    0 -0.48229086696E+02 -0.40958293254E+02  0.48807339647E+03  0.49215776630E+03  0.00000000000E+00 0. -1.
        -11    1    3    3    0    0  0.23780855584E+02  0.17352330265E+02 -0.38312480307E+00  0.29441114832E+02  0.00000000000E+00 0. -1.
         11    1    3    3    0    0 -0.29464283678E+02  0.95470215491E+02 -0.12955614613E+03  0.16360776588E+03  0.00000000000E+00 0.  1.
         21    1    1    2  502  501  0.46403912894E+02 -0.50731589919E+02  0.27712770435E+03  0.28552895101E+03  0.00000000000E+00 0. -1.
<scales pt_clust_5="13000.00000" pt_clust_6="13000.00000" pt_clust_7="13000.00000" pt_clust_8="13000.00000" pt_clust_9="68.75331"></scales>
<clustering>
<clus scale="   68.753">  1  9  2 -1</clus>
<clus scale="   81.296">  5  6 -1 -1</clus>
<clus scale="   87.307">  7  8 -1 -1</clus>
<clus scale="  136.767">  1  5  2 -1</clus>
<clus scale="   68.753">  1  5  2 -1</clus>
</clustering>
</event>
<event>
 9    2  0.3791909E-005  0.1034320E+03  0.7546771E-02  0.1276560E+00
         -1   -1    0    0    0  501 -0.00000000000E+00  0.00000000000E+00  0.77947078924E+02  0.77947078924E+02  0.00000000000E+00 0.  1.
          2   -1    0    0  502    0  0.00000000000E+00 -0.00000000000E+00 -0.44554107810E+03  0.44554107810E+03  0.00000000000E+00 0. -1.
         24    2    1    2    0    0  0.27498481270E+02 -0.47199491076E+02  0.29209367616E+02  0.10148249487E+03  0.80383774348E+02 0.  0.
         23    2    1    2    0    0 -0.48098309422E+02  0.32128931289E+02 -0.22622986297E+03  0.24953307042E+03  0.87983445830E+02 0.  0.
        -11    1    3    3    0    0 -0.32995250397E+01 -0.55222953369E+02  0.39565573783E+02  0.68013940285E+02  0.00000000000E+00 0.  1.
         12    1    3    3    0    0  0.30798006309E+02  0.80234622929E+01 -0.10356206167E+02  0.33468554584E+02  0.00000000000E+00 0. -1.
        -11    1    4    4    0    0 -0.25308215619E+02 -0.29207798010E+01 -0.70949683911E+01  0.26445704924E+02  0.00000000000E+00 0.  1.
         11    1    4    4    0    0 -0.22790093803E+02  0.35049711090E+02 -0.21913489458E+03  0.22308736550E+03  0.00000000000E+00 0. -1.
         21    1    1    2  502  501  0.20599828152E+02  0.15070559787E+02 -0.17057350382E+03  0.17247259173E+03  0.00000000000E+00 0. -1.
<scales pt_clust_5="13000.00000" pt_clust_6="13000.00000" pt_clust_7="13000.00000" pt_clust_8="13000.00000" pt_clust_9="25.52400"></scales>
<clustering>
<clus scale="   25.524">  2  9  1 -1</clus>
<clus scale="   80.384">  5  6 -1 -1</clus>
<clus scale="   87.983">  7  8 -1 -1</clus>
<clus scale="   97.050">  1  5  2 -1</clus>
<clus scale="   25.524">  2  5  1 -1</clus>
</clustering>
</event>
<event>
 9    2  0.3791909E-005  0.1581795E+03  0.7546771E-02  0.1210932E+00
          2   -1    0    0  502    0  0.00000000000E+00  0.00000000000E+00  0.79603092940E+03  0.79603092940E+03  0.00000000000E+00 0. -1.
         -1   -1    0    0    0  501 -0.00000000000E+00 -0.00000000000E+00 -0.84442045210E+02  0.84442045210E+02  0.00000000000E+00 0.  1.
         24    2    1    2    0    0 -0.63435316684E+02  0.37242682170E+00  0.16904417130E+02  0.10353213860E+03  0.80056019757E+02 0.  0.
         23    2    1    2    0    0  0.62967792123E+01 -0.12896637949E+03  0.56104334918E+03  0.58287598728E+03  0.91119703740E+02 0.  0.
        -13    1    3    3    0    0 -0.22994089196E+02  0.30658788713E+02 -0.17780743910E+02  0.42247417877E+02  0.00000000000E+00 0.  1.
         14    1    3    3    0    0 -0.40441227488E+02 -0.30286361891E+02  0.34685161039E+02  0.61284720719E+02  0.00000000000E+00 0. -1.
        -11    1    4    4    0    0  0.44038888317E+02 -0.71992785113E+02  0.38251214953E+03  0.39171153842E+03  0.00000000000E+00 0. -1.
         11    1    4    4    0    0 -0.37742109105E+02 -0.56973594381E+02  0.17853119965E+03  0.19116444886E+03  0.00000000000E+00 0.  1.
         21    1    1    2  502  501  0.57138537472E+02  0.12859395267E+03  0.13364111787E+03  0.19406484874E+03  0.00000000000E+00 0.  1.
<scales pt_clust_5="13000.00000" pt_clust_6="13000.00000" pt_clust_7="13000.00000" pt_clust_8="13000.00000" pt_clust_9="129.29787"></scales>
<clustering>
<clus scale="   80.056">  5  6 -1 -1</clus>
<clus scale="   91.120">  7  8 -1 -1</clus>
<clus scale="  102.143">  2  5  1 -1</clus>
<clus scale="  129.298">  2  9  1 -1</clus>
<clus scale="  158.179">  1  5  2 -1</clus>
</clustering>
</event>
<event>
 9    2  0.3791909E-005  0.9143125E+02  0.7546771E-02  0.1305363E+00
          2   -1    0    0  502    0  0.00000000000E+00  0.00000000000E+00  0.78207701055E+03  0.78207701055E+03  0.00000000000E+00 0. -1.
         -1   -1    0    0    0  501 -0.00000000000E+00 -0.00000000000E+00 -0.15372678014E+02  0.15372678014E+02  0.00000000000E+00 0.  1.
         24    2    1    2    0    0 -0.10807895773E+02  0.58217819413E+01  0.17229316750E+03  0.19067601770E+03  0.80757070304E+02 0.  0.
         23    2    1    2    0    0  0.21641801663E+02  0.17077819001E+02  0.41697506710E+03  0.42753825558E+03  0.90336780546E+02 0.  0.
        -11    1    3    3    0    0 -0.11110518798E+02 -0.28668268706E+02  0.25677864913E+02  0.40058282602E+02  0.00000000000E+00 0.  1.
         12    1    3    3    0    0  0.30262302457E+00  0.34490050648E+02  0.14661530259E+03  0.15061773510E+03  0.00000000000E+00 0. -1.
        -11    1    4    4    0    0 -0.10328631307E+02  0.47930170301E+02  0.24936854402E+03  0.25414297668E+03  0.00000000000E+00 0. -1.
         11    1    4    4    0    0  0.31970432970E+02 -0.30852351301E+02  0.16760652308E+03  0.17339527889E+03  0.00000000000E+00 0.  1.
         21    1    1    2  502  501 -0.10833905890E+02 -0.22899600942E+02  0.17743609794E+03  0.17923541528E+03  0.00000000000E+00 0.  1.
<scales pt_clust_5="13000.00000" pt_clust_6="13000.00000" pt_clust_7="13000.00000" pt_clust_8="13000.00000" pt_clust_9="25.33309"></scales>
<clustering>
<clus scale="   25.333">  1  9  2 -1</clus>
<clus scale="   80.757">  5  6 -1 -1</clus>
<clus scale="   81.980">  2  5  1 -1</clus>
<clus scale="   90.337">  7  8 -1 -1</clus>
<clus scale="   25.333">  1  5  2 -1</clus>
</clustering>
</event>
<event>
 9    2  0.3791909E-005  0.1187335E+03  0.7546771E-02  0.1251416E+00
         -1   -1    0    0    0  501 -0.00000000000E+00  0.00000000000E+00  0.23470202717E+03  0.23470202717E+03  0.00000000000E+00 0.  1.
          2   -1    0    0  502    0  0.00000000000E+00 -0.00000000000E+00 -0.16092692294E+03  0.16092692294E+03  0.00000000000E+00 0. -1.
         23    2    1    2    0    0  0.23857622513E+02 -0.69155459493E+02  0.13604614541E+03  0.17941945898E+03  0.91274995759E+02 0.  0.
         24    2    1    2    0    0 -0.92774146025E+02  0.56989115620E+02 -0.65443640706E+02  0.14615542256E+03  0.72275417438E+02 0.  0.
        -11    1    4    4    0    0 -0.18360105657E+02 -0.16065567673E+02 -0.23125932772E+02  0.33615542699E+02  0.00000000000E+00 0.  1.
         12    1    4    4    0    0 -0.74414040368E+02  0.73054683293E+02 -0.42317707934E+02  0.11253987986E+03  0.00000000000E+00 0. -1.
        -11    1    3    3    0    0 -0.34979871401E+02 -0.31825924737E+02  0.55478494451E+02  0.72899548936E+02  0.00000000000E+00 0.  1.
         11    1    3    3    0    0  0.58837493913E+02 -0.37329534756E+02  0.80567650955E+02  0.10651991004E+03  0.00000000000E+00 0. -1.
         21    1    1    2  502  501  0.68916523512E+02  0.12166343873E+02  0.31725995325E+01  0.70054068575E+02  0.00000000000E+00 0. -1.
<scales pt_clust_5="13000.00000" pt_clust_6="13000.00000" pt_clust_7="13000.00000" pt_clust_8="13000.00000" pt_clust_9="69.98219"></scales>
<clustering>
<clus scale="   69.982">  2  9  1 -1</clus>
<clus scale="   72.275">  5  6 -1 -1</clus>
<clus scale="   91.275">  7  8 -1 -1</clus>
<clus scale="  104.834">  2  5  1 -1</clus>
<clus scale="   69.982">  2  5  1 -1</clus>
</clustering>
</event>
<event>
 9    2  0.3791909E-005  0.1337187E+03  0.7546771E-02  0.1225889E+00
         -1   -1    0    0    0  501 -0.00000000000E+00  0.00000000000E+00  0.47245899056E+02  0.47245899056E+02  0.00000000000E+00 0.  1.
          2   -1    0    0  502    0  0.00000000000E+00 -0.00000000000E+00 -0.43813432350E+03  0.43813432350E+03  0.00000000000E+00 0. -1.
         23    2    1    2    0    0  0.83786562926E+02 -0.46629913621E+02 -0.18223009906E+03  0.23154581637E+03  0.10588257223E+03 0.  0.
         24    2    1    2    0    0 -0.67333705491E+02  0.24864415786E+02 -0.17388539885E+03  0.20963497368E+03  0.92512827176E+02 0.  0.
        -11    1    4    4    0    0 -0.71280951376E+02 -0.16423919594E+02 -0.13057078292E+03  0.14966445308E+03  0.00000000000E+00 0.  1.
         12    1    4    4    0    0  0.39472458848E+01  0.41288335379E+02 -0.43314615923E+02  0.59970520600E+02  0.00000000000E+00 0. -1.
        -13    1    3    3    0    0  0.10032095331E+02 -0.31266902877E+02  0.16012991091E+01  0.32875922969E+02  0.00000000000E+00 0.  1.
         13    1    3    3    0    0  0.73754467595E+02 -0.15363010744E+02 -0.18383139817E+03  0.19866989340E+03  0.00000000000E+00 0. -1.
         21    1    1    2  502  501 -0.16452857435E+02  0.21765497836E+02 -0.34772926536E+02  0.44199432504E+02  0.00000000000E+00 0. -1.
<scales pt_clust_5="13000.00000" pt_clust_6="13000.00000" pt_clust_7="13000.00000" pt_clust_8="13000.00000" pt_clust_9="27.28431"></scales>
<clustering>
<clus scale="   27.284">  1  9  2 -1</clus>
<clus scale="   92.513">  5  6 -1 -1</clus>
<clus scale="  105.883">  7  8 -1 -1</clus>
<clus scale="  123.403">  2  5  1 -1</clus>
<clus scale="  123.403">  2  5  1 -1</clus>
</clustering>
</event>
<event>
 9    2  0.3791909E-005  0.1217203E+03  0.7546771E-02  0.1244492E+00
          2   -1    0    0  502    0  0.00000000000E+00  0.00000000000E+00  0.34853453205E+03  0.34853453205E+03  0.00000000000E+00 0. -1.
         -1   -1    0    0    0  501 -0.00000000000E+00 -0.00000000000E+00 -0.10936927231E+03  0.10936927231E+03  0.00000000000E+00 0.  1.
         24    2    1    2    0    0 -0.48017697519E+02  0.62136365319E+02 -0.60059834353E+02  0.12851588710E+03  0.82112863575E+02 0.  0.
         23    2    1    2    0    0  0.23357085067E+02 -0.52742270729E+02  0.24059882885E+03  0.26509613088E+03  0.95188558231E+02 0.  0.
        -13    1    3    3    0    0  0.20988127882E+02  0.25668334040E+02 -0.63172912000E+01  0.33753119152E+02  0.00000000000E+00 0.  1.
         14    1    3    3    0    0 -0.69005825401E+02  0.36468031279E+02 -0.53742543153E+02  0.94762767948E+02  0.00000000000E+00 0. -1.
        -11    1    4    4    0    0 -0.24981030827E+02  0.43342162056E+01  0.20403430399E+02  0.32544389736E+02  0.00000000000E+00 0.  1.
         11    1    4    4    0    0  0.48338115893E+02 -0.57076486935E+02  0.22019539845E+03  0.23255174114E+03  0.00000000000E+00 0. -1.
         21    1    1    2  502  501  0.24660612453E+02 -0.93940945899E+01  0.58626265243E+02  0.64291786380E+02  0.00000000000E+00 0.  1.
<scales pt_clust_5="13000.00000" pt_clust_6="13000.00000" pt_clust_7="13000.00000" pt_clust_8="13000.00000" pt_clust_9="26.38929"></scales>
<clustering>
<clus scale="   26.389">  1  9  2 -1</clus>
<clus scale="   82.113">  5  6 -1 -1</clus>
<clus scale="   95.189">  7  8 -1 -1</clus>
<clus scale="  111.792">  2  5  1 -1</clus>
<clus scale="   26.389">  1  5  2 -1</clus>
</clustering>
</event>
<event>
 9    2  0.3791909E-005  0.1057954E+03  0.7546771E-02  0.1272645E+00
         -1   -1    0    0    0  501 -0.00000000000E+00  0.00000000000E+00  0.56854287147E+02  0.56854287147E+02  0.00000000000E+00 0.  1.
          2   -1    0    0  502    0  0.00000000000E+00 -0.00000000000E+00 -0.27902413275E+03  0.27902413275E+03  0.00000000000E+00 0. -1.
         23    2    1    2    0    0  0.36442127000E+02 -0.31157013970E+02 -0.43279133709E+02  0.11087262265E+03  0.90115852654E+02 0.  0.
         24    2    1    2    0    0 -0.58463014480E+02  0.36009322085E+02 -0.11056400073E+03  0.15305439811E+03  0.80539773922E+02 0.  0.
        -13    1    4    4    0    0 -0.54674851582E+02  0.39188659968E+02 -0.32277505487E+02  0.74611847759E+02  0.00000000000E+00 0.  1.
         14    1    4    4    0    0 -0.37881628978E+01 -0.31793378834E+01 -0.78286495244E+02  0.78442550348E+02  0.00000000000E+00 0. -1.
        -13    1    3    3    0    0  0.24414194639E+02 -0.56093510631E+01  0.25973011060E+02  0.36084830922E+02  0.00000000000E+00 0.  1.
         13    1    3    3    0    0  0.12027932361E+02 -0.25547662907E+02 -0.69252144769E+02  0.74787791731E+02  0.00000000000E+00 0. -1.
         21    1    1    2  502  501  0.22020887480E+02 -0.48523081149E+01 -0.68326711162E+02  0.71951399136E+02  0.00000000000E+00 0.  1.
<scales pt_clust_5="13000.00000" pt_clust_6="13000.00000" pt_clust_7="13000.00000" pt_clust_8="13000.00000" pt_clust_9="22.54915"></scales>
<clustering>
<clus scale="   22.549">  2  9  1 -1</clus>
<clus scale="   80.540">  5  6 -1 -1</clus>
<clus scale="   90.116">  7  8 -1 -1</clus>
<clus scale="   97.767">  2  5  1 -1</clus>
<clus scale="   22.549">  2  5  1 -1</clus>
</clustering>
</event>
<event>
 9    2  0.3791909E-005  0.1113974E+03  0.7546771E-02  0.1259788E+00
          2   -1    0    0  502    0  0.00000000000E+00  0.00000000000E+00  0.22252410795E+03  0.22252410795E+03  0.00000000000E+00 0. -1.
         -1   -1    0    0    0  501 -0.00000000000E+00 -0.00000000000E+00 -0.22323469748E+03  0.22323469748E+03  0.00000000000E+00 0.  1.
         23    2    1    2    0    0 -0.23976132110E+02  0.50399921337E+02 -0.18335221421E+03  0.21511723942E+03  0.97685133239E+02 0.  0.
         24    2    1    2    0    0  0.38344135721E+02 -0.19635300477E+02  0.11036531838E+03  0.15078691130E+03  0.93275781158E+02 0.  0.
        -11    1    4    4    0    0  0.55754922929E+01  0.36114261614E+02  0.52787952766E+02  0.64201977878E+02  0.00000000000E+00 0.  1.
         12    1    4    4    0    0  0.32768643428E+02 -0.55749562091E+02  0.57577365611E+02  0.86584933424E+02  0.00000000000E+00 0. -1.
        -13    1    3    3    0    0  0.22754857718E+02  0.31824555293E+02 -0.14940902147E+03  0.15444624167E+03  0.00000000000E+00 0.  1.
         13    1    3    3    0    0 -0.46730989828E+02  0.18575366044E+02 -0.33943192741E+02  0.60670997746E+02  0.00000000000E+00 0. -1.
         21    1    1    2  502  501 -0.14368003612E+02 -0.30764620860E+02  0.72276306313E+02  0.79854654709E+02  0.00000000000E+00 0. -1.
<scales pt_clust_5="13000.00000" pt_clust_6="13000.00000" pt_clust_7="13000.00000" pt_clust_8="13000.00000" pt_clust_9="33.95440"></scales>
<clustering>
<clus scale="   33.954">  1  9  2 -1</clus>
<clus scale="   93.276">  5  6 -1 -1</clus>
<clus scale="   97.685">  7  8 -1 -1</clus>
<clus scale="  107.552">  1  5  2 -1</clus>
<clus scale="   33.954">  1  5  2 -1</clus>
</clustering>
</event>
<event>
 9    2  0.3791909E-005  0.1464417E+03  0.7546771E-02  0.1212480E+00
         -1   -1    0    0    0  501 -0.00000000000E+00  0.00000000000E+00  0.41361456884E+02  0.41361456884E+02  0.00000000000E+00 0.  1.
          2   -1    0    0  502    0  0.00000000000E+00 -0.00000000000E+00 -0.61506302209E+03  0.61506302209E+03  0.00000000000E+00 0. -1.
         24    2    1    2    0    0 -0.32892047074E+02 -0.91990941712E+02 -0.12915754651E+03  0.18028610754E+03  0.79228710900E+02 0.  0.
         23    2    1    2    0    0  0.96653185931E+01  0.93758684111E+02 -0.35374545422E+03  0.38239945135E+03  0.11049608492E+03 0.  0.
        -11    1    3    3    0    0 -0.48452011925E+02 -0.64979884326E+02 -0.50060699623E+02  0.95268339302E+02  0.00000000000E+00 0.  1.
         12    1    3    3    0    0  0.15559964851E+02 -0.27011057386E+02 -0.79096846892E+02  0.85017768234E+02  0.00000000000E+00 0. -1.
        -11    1    4    4    0    0 -0.22304625552E+02  0.47036923132E+02 -0.45934996898E+02  0.69426165088E+02  0.00000000000E+00 0.  1.
         11    1    4    4    0    0  0.31969944145E+02  0.46721760979E+02 -0.30781045732E+03  0.31297328626E+03  0.00000000000E+00 0. -1.
         21    1    1    2  502  501  0.23226728481E+02 -0.17677423986E+01 -0.90798564469E+02  0.93738920086E+02  0.00000000000E+00 0. -1.
<scales pt_clust_5="13000.00000" pt_clust_6="13000.00000" pt_clust_7="13000.00000" pt_clust_8="13000.00000" pt_clust_9="23.29390"></scales>
<clustering>
<clus scale="   23.294">  2  9  1 -1</clus>
<clus scale="   79.229">  5  6 -1 -1</clus>
<clus scale="  110.496">  7  8 -1 -1</clus>
<clus scale="  124.551">  1  5  2 -1</clus>
<clus scale="   23.294">  2  5  1 -1</clus>
</clustering>
</event>
<event>
 9    2  0.3791909E-005  0.1989598E+03  0.7546771E-02  0.1166814E+00
         -1   -1    0    0    0  501 -0.00000000000E+00  0.00000000000E+00  0.60746703565E+03  0.60746703565E+03  0.00000000000E+00 0.  1.
          2   -1    0    0  502    0  0.00000000000E+00 -0.00000000000E+00 -0.55982528198E+03  0.55982528198E+03  0.00000000000E+00 0. -1.
         23    2    1    2    0    0 -0.61110606372E+02 -0.83318277737E+02  0.45712740679E+03  0.47702992270E+03  0.88969879712E+02 0.  0.
         24    2    1    2    0    0 -0.15272059822E+03 -0.70029539465E+02 -0.38287690223E+03  0.42578675763E+03  0.80448264113E+02 0.  0.
        -11    1    4    4    0    0 -0.47475178453E+02  0.38472347601E+01 -0.17489685017E+03  0.18126665988E+03  0.00000000000E+00 0.  1.
         12    1    4    4    0    0 -0.10524541977E+03 -0.73876774225E+02 -0.20798005205E+03  0.24452009775E+03  0.00000000000E+00 0. -1.
        -13    1    3    3    0    0 -0.46587144247E+02 -0.62997866428E+01  0.89015067277E+02  0.10066643692E+03  0.00000000000E+00 0. -1.
         13    1    3    3    0    0 -0.14523462124E+02 -0.77018491094E+02  0.36811233952E+03  0.37636348578E+03  0.00000000000E+00 0.  1.
         21    1    1    2  502  501  0.21383120459E+03  0.15334781720E+03 -0.26608750894E+02  0.26447563730E+03  0.00000000000E+00 0.  1.
<scales pt_clust_5="13000.00000" pt_clust_6="13000.00000" pt_clust_7="13000.00000" pt_clust_8="13000.00000" pt_clust_9="181.96995"></scales>
<clustering>
<clus scale="   80.448">  5  6 -1 -1</clus>
<clus scale="   88.970">  7  8 -1 -1</clus>
<clus scale="  136.353">  1  7  2 -1</clus>
<clus scale="  181.970">  1  9  2 -1</clus>
<clus scale="  198.960">  2  5  1 -1</clus>
</clustering>
</event>
<event>
 9    2  0.3791909E-005  0.9312539E+02  0.7546771E-02  0.1301797E+00
          2   -1    0    0  502    0  0.00000000000E+00  0.00000000000E+00  0.15702323493E+04  0.15702323493E+04  0.00000000000E+00 0. -1.
         -1   -1    0    0    0  501 -0.00000000000E+00 -0.00000000000E+00 -0.25538434419E+02  0.25538434419E+02  0.00000000000E+00 0.  1.
         23    2    1    2    0    0 -0.10899833321E+02 -0.24044424293E+02  0.91664488056E+02  0.13195033466E+03  0.91167821842E+02 0.  0.
         24    2    1    2    0    0 -0.12359872095E+02 -0.47584129196E+02  0.10131274160E+04  0.10175184854E+04  0.80620663913E+02 0.  0.
        -11    1    4    4    0    0 -0.21693081749E+02  0.11855303252E+02  0.12908126091E+03  0.13142720391E+03  0.00000000000E+00 0.  1.
         12    1    4    4    0    0  0.93332096533E+01 -0.59439432448E+02  0.88404615506E+03  0.88609128153E+03  0.00000000000E+00 0. -1.
        -11    1    3    3    0    0  0.15949497644E+02  0.23078838511E+02  0.66471890780E+02  0.72149369547E+02  0.00000000000E+00 0.  1.
         11    1    3    3    0    0 -0.26849330965E+02 -0.47123262804E+02  0.25192597276E+02  0.59800965110E+02  0.00000000000E+00 0. -1.
         21    1    1    2  502  501  0.23259705417E+02  0.71628553489E+02  0.43990201082E+03  0.44630196358E+03  0.00000000000E+00 0.  1.
<scales pt_clust_5="13000.00000" pt_clust_6="13000.00000" pt_clust_7="13000.00000" pt_clust_8="13000.00000" pt_clust_9="75.31045"></scales>
<clustering>
<clus scale="   75.310">  1  9  2 -1</clus>
<clus scale="   80.621">  5  6 -1 -1</clus>
<clus scale="   82.828">  1  5  2 -1</clus>
<clus scale="   91.168">  7  8 -1 -1</clus>
<clus scale="   75.310">  1  5  2 -1</clus>
</clustering>
</event>
<event>
 9    2  0.3791909E-005  0.1381248E+03  0.7546771E-02  0.1218372E+00
         -1   -1    0    0    0  501 -0.00000000000E+00  0.00000000000E+00  0.11712240705E+03  0.11712240705E+03  0.00000000000E+00 0.  1.
          2   -1    0    0  502    0  0.00000000000E+00 -0.00000000000E+00 -0.29670640692E+03  0.29670640692E+03  0.00000000000E+00 0. -1.
         24    2    1    2    0    0  0.54861439525E+02 -0.81860620052E+02  0.33262606500E+02  0.13147768887E+03  0.80430361287E+02 0.  0.
         23    2    1    2    0    0 -0.70215551385E+02  0.10433408830E+03 -0.19646957886E+03  0.25058616712E+03  0.91527624779E+02 0.  0.
        -11    1    3    3    0    0  0.42142847017E+01 -0.76104347968E+02  0.20578414304E+02  0.78950003866E+02  0.00000000000E+00 0.  1.
         12    1    3    3    0    0  0.50647154823E+02 -0.57562720842E+01  0.12684192196E+02  0.52527685002E+02  0.00000000000E+00 0. -1.
        -11    1    4    4    0    0 -0.85023684012E+02  0.63815376778E+02 -0.10483373724E+03  0.14930352180E+03  0.00000000000E+00 0.  1.
         11    1    4    4    0    0  0.14808132627E+02  0.40518711519E+02 -0.91635841617E+02  0.10128264532E+03  0.00000000000E+00 0. -1.
         21    1    1    2  502  501  0.15354111860E+02 -0.22473468245E+02 -0.16377027512E+02  0.31764957990E+02  0.00000000000E+00 0. -1.
<scales pt_clust_5="13000.00000" pt_clust_6="13000.00000" pt_clust_7="13000.00000" pt_clust_8="13000.00000" pt_clust_9="27.21774"></scales>
<clustering>
<clus scale="   27.218">  2  9  1 -1</clus>
<clus scale="   80.430">  5  6 -1 -1</clus>
<clus scale="   91.528">  7  8 -1 -1</clus>
<clus scale="  131.035">  1  5  2 -1</clus>
<clus scale="   27.218">  2  5  1 -1</clus>
</clustering>
</event>
<event>
 9    2  0.3791909E-005  0.1163835E+03  0.7546771E-02  0.1253049E+00
          2   -1    0    0  502    0  0.00000000000E+00  0.00000000000E+00  0.56605910754E+03  0.56605910754E+03  0.00000000000E+00 0. -1.
         -1   -1    0    0    0  501 -0.00000000000E+00 -0.00000000000E+00 -0.53496875806E+02  0.53496875806E+02  0.00000000000E+00 0.  1.
         24    2    1    2    0    0 -0.27934679867E+02 -0.67438424188E+02  0.24670907335E+02  0.11185907000E+03  0.81089521376E+02 0.  0.
         23    2    1    2    0    0 -0.11015465951E+00  0.63561519380E+02  0.38231932131E+03  0.39839462164E+03  0.92250377926E+02 0.  0.
        -13    1    3    3    0    0 -0.32827932763E+02 -0.54968547997E+02 -0.18510813506E+02  0.66647315437E+02  0.00000000000E+00 0.  1.
         14    1    3    3    0    0  0.48932528957E+01 -0.12469876191E+02  0.43181720841E+02  0.45211754566E+02  0.00000000000E+00 0. -1.
        -13    1    4    4    0    0 -0.38791342698E+02  0.14789879775E+02  0.84600515577E+02  0.94237763386E+02  0.00000000000E+00 0.  1.
         13    1    4    4    0    0  0.38681188039E+02  0.48771639605E+02  0.29771880573E+03  0.30415685826E+03  0.00000000000E+00 0. -1.
         21    1    1    2  502  501  0.28044834527E+02  0.38769048085E+01  0.10557200308E+03  0.10930229169E+03  0.00000000000E+00 0. -1.
<scales pt_clust_5="13000.00000" pt_clust_6="13000.00000" pt_clust_7="13000.00000" pt_clust_8="13000.00000" pt_clust_9="28.31154"></scales>
<clustering>
<clus scale="   28.312">  1  9  2 -1</clus>
<clus scale="   81.090">  5  6 -1 -1</clus>
<clus scale="   92.250">  7  8 -1 -1</clus>
<clus scale="  107.752">  2  5  1 -1</clus>
<clus scale="   28.312">  1  5  2 -1</clus>
</clustering>
</event>
<event>
 9    2  0.3791909E-005  0.1047371E+03  0.7546771E-02  0.1275451E+00
         -1   -1    0    0    0  501 -0.00000000000E+00  0.00000000000E+00  0.45666707773E+02  0.45666707773E+02  0.00000000000E+00 0.  1.
          2   -1    0    0  502    0  0.00000000000E+00 -0.00000000000E+00 -0.46589766238E+03  0.46589766238E+03  0.00000000000E+00 0. -1.
         23    2    1    2    0    0 -0.60567873543E+01 -0.53434030916E+02 -0.43396957552E+02  0.11434981186E+03  0.91108195107E+02 0.  0.
         24    2    1    2    0    0  0.23844467361E+02  0.42150932192E+02 -0.22248181738E+03  0.24143167975E+03  0.80285971449E+02 0.  0.
        -11    1    4    4    0    0  0.51657491295E+02  0.19904312196E+02 -0.10541800331E+03  0.11906986803E+03  0.00000000000E+00 0.  1.
         12    1    4    4    0    0 -0.27813023933E+02  0.22246619995E+02 -0.11706381407E+03  0.12236181172E+03  0.00000000000E+00 0. -1.
        -13    1    3    3    0    0  0.26437558052E+02 -0.56871038740E+02 -0.50960957385E+02  0.80810139838E+02  0.00000000000E+00 0.  1.
         13    1    3    3    0    0 -0.32494345406E+02  0.34370078239E+01  0.75639998321E+01  0.33539672026E+02  0.00000000000E+00 0. -1.
         21    1    1    2  502  501 -0.17787680007E+02  0.11283098724E+02 -0.15435217968E+03  0.15578287855E+03  0.00000000000E+00 0.  1.
<scales pt_clust_5="13000.00000" pt_clust_6="13000.00000" pt_clust_7="13000.00000" pt_clust_8="13000.00000" pt_clust_9="21.06442"></scales>
<clustering>
<clus scale="   21.064">  2  9  1 -1</clus>
<clus scale="   80.286">  5  6 -1 -1</clus>
<clus scale="   91.108">  7  8 -1 -1</clus>
<clus scale="   95.472">  2  5  1 -1</clus>
<clus scale="   21.064">  2  5  1 -1</clus>
</clustering>
</event>
<event>
 9    2  0.3791909E-005  0.1186816E+03  0.7546771E-02  0.1248932E+00
          2   -1    0    0  502    0  0.00000000000E+00  0.00000000000E+00  0.13363792659E+03  0.13363792659E+03  0.00000000000E+00 0. -1.
         -1   -1    0    0    0  501 -0.00000000000E+00 -0.00000000000E+00 -0.16937416899E+03  0.16937416899E+03  0.00000000000E+00 0.  1.
         23    2    1    2    0    0  0.51290665262E+02  0.21080066699E+02 -0.31450376729E+02  0.11059673128E+03  0.90373719729E+02 0.  0.
         24    2    1    2    0    0 -0.10326081028E+03 -0.39937487011E+02 -0.12094815587E+02  0.13658098446E+03  0.79058730976E+02 0.  0.
        -11    1    4    4    0    0 -0.46730731810E+02  0.21210873582E+02  0.50233731628E+01  0.51564490995E+02  0.00000000000E+00 0.  1.
         12    1    4    4    0    0 -0.56530078466E+02 -0.61148360593E+02 -0.17118188750E+02  0.85016493462E+02  0.00000000000E+00 0. -1.
        -13    1    3    3    0    0  0.20134239058E+02  0.11669138948E+02 -0.61836372169E+02  0.66070366348E+02  0.00000000000E+00 0.  1.
         13    1    3    3    0    0  0.31156426205E+02  0.94109277511E+01  0.30385995440E+02  0.44526364930E+02  0.00000000000E+00 0. -1.
         21    1    1    2  502  501  0.51970145014E+02  0.18857420311E+02  0.78089499193E+01  0.55834379842E+02  0.00000000000E+00 0. -1.
<scales pt_clust_5="13000.00000" pt_clust_6="13000.00000" pt_clust_7="13000.00000" pt_clust_8="13000.00000" pt_clust_9="55.28561"></scales>
<clustering>
<clus scale="   55.286">  1  9  2 -1</clus>
<clus scale="   79.059">  5  6 -1 -1</clus>
<clus scale="   90.374">  7  8 -1 -1</clus>
<clus scale="  110.310">  1  5  2 -1</clus>
<clus scale="   55.286">  1  5  2 -1</clus>
</clustering>
</event>
<event>
 9    2  0.3791909E-005  0.1038430E+03  0.7546771E-02  0.1276890E+00
         -1   -1    0    0    0  501 -0.00000000000E+00  0.00000000000E+00  0.24200215559E+02  0.24200215559E+02  0.00000000000E+00 0.  1.
          2   -1    0    0  502    0  0.00000000000E+00 -0.00000000000E+00 -0.96272538559E+03  0.96272538559E+03  0.00000000000E+00 0. -1.
         24    2    1    2    0    0  0.48839970158E+02  0.53455173391E+02 -0.32281007943E+03  0.34044661970E+03  0.80341491374E+02 0.  0.
         23    2    1    2    0    0 -0.52379277906E+02  0.31400578498E+02 -0.40158949894E+03  0.41612535258E+03  0.90313887736E+02 0.  0.
        -11    1    3    3    0    0  0.43638718652E+02 -0.95589609589E+01 -0.14525254398E+03  0.15196714459E+03  0.00000000000E+00 0.  1.
         12    1    3    3    0    0  0.52012515059E+01  0.63014134350E+02 -0.17755753545E+03  0.18847947512E+03  0.00000000000E+00 0. -1.
        -13    1    4    4    0    0 -0.29907404433E+02 -0.23272619985E+02 -0.72883566205E+02  0.82146709634E+02  0.00000000000E+00 0.  1.
         13    1    4    4    0    0 -0.22471873473E+02  0.54673198484E+02 -0.32870593273E+03  0.33397864294E+03  0.00000000000E+00 0. -1.
         21    1    1    2  502  501  0.35393077483E+01 -0.84855751890E+02 -0.21412559167E+03  0.23035362887E+03  0.00000000000E+00 0.  1.
<scales pt_clust_5="13000.00000" pt_clust_6="13000.00000" pt_clust_7="13000.00000" pt_clust_8="13000.00000" pt_clust_9="84.92953"></scales>
<clustering>
<clus scale="   80.341">  5  6 -1 -1</clus>
<clus scale="   84.930">  1  9  2 -1</clus>
<clus scale="   90.314">  7  8 -1 -1</clus>
<clus scale="   95.297">  1  5  2 -1</clus>
<clus scale="  103.843">  2  5  1 -1</clus>
</clustering>
</event>
<event>
 9    2  0.1106858E-004  0.9726080E+02  0.7546771E-02  0.1291485E+00
          2   -1    0    0  502    0  0.00000000000E+00  0.00000000000E+00  0.55866591275E+03  0.55866591275E+03  0.00000000000E+00 0. -1.
         -1   -1    0    0    0  501 -0.00000000000E+00 -0.00000000000E+00 -0.40850827751E+03  0.40850827751E+03  0.00000000000E+00 0.  1.
         23    2    1    2    0    0 -0.30949439934E+02  0.79726968767E+02 -0.37104804850E+03  0.39135083724E+03  0.90357988737E+02 0.  0.
         24    2    1    2    0    0  0.11872268103E+02 -0.33464182913E+02  0.51830999328E+03  0.52569782197E+03  0.80325267524E+02 0.  0.
        -13    1    4    4    0    0 -0.11427352845E+02 -0.40258138428E+02  0.12870543537E+03  0.13533806263E+03  0.00000000000E+00 0.  1.
         14    1    4    4    0    0  0.23299620949E+02  0.67939555148E+01  0.38960455792E+03  0.39035975935E+03  0.00000000000E+00 0. -1.
        -13    1    3    3    0    0 -0.50466440775E+02  0.95612858014E+01 -0.14210889867E+03  0.15110664747E+03  0.00000000000E+00 0. -1.
         13    1    3    3    0    0  0.19517000841E+02  0.70165682966E+02 -0.22893914983E+03  0.24024418976E+03  0.00000000000E+00 0.  1.
         21    1    1    2  502  501  0.19077171831E+02 -0.46262785854E+02  0.28956904597E+01  0.50125531052E+02  0.00000000000E+00 0. -1.
<scales pt_clust_5="13000.00000" pt_clust_6="13000.00000" pt_clust_7="13000.00000" pt_clust_8="13000.00000" pt_clust_9="50.04182"></scales>
<clustering>
<clus scale="   50.042">  2  9  1 -1</clus>
<clus scale="   80.325">  5  6 -1 -1</clus>
<clus scale="   88.018">  1  5  2 -1</clus>
<clus scale="   90.358">  7  8 -1 -1</clus>
<clus scale="   88.018">  1  5  2 -1</clus>
</clustering>
</event>
<event>
 9    2  0.3791909E-005  0.9129225E+02  0.7546771E-02  0.1304989E+00
         -1   -1    0    0    0  501 -0.00000000000E+00  0.00000000000E+00  0.18797964790E+03  0.18797964790E+03  0.00000000000E+00 0.  1.
          2   -1    0    0  502    0  0.00000000000E+00 -0.00000000000E+00 -0.10284471283E+03  0.10284471283E+03  0.00000000000E+00 0. -1.
         23    2    1    2    0    0  0.15301443477E+02 -0.57296888792E+02  0.65062068442E+02  0.12465503501E+03  0.88253823515E+02 0.  0.
         24    2    1    2    0    0 -0.17073360231E+02  0.49100221928E+01 -0.36259547050E+02  0.89222172997E+02  0.79562764246E+02 0.  0.
        -13    1    4    4    0    0  0.94876660361E+01 -0.33500827789E+02 -0.15066107908E+02  0.37938224482E+02  0.00000000000E+00 0.  1.
         14    1    4    4    0    0 -0.26561026267E+02  0.38410849981E+02 -0.21193439142E+02  0.51283948515E+02  0.00000000000E+00 0. -1.
        -13    1    3    3    0    0 -0.17041774572E+02 -0.11662118830E+02 -0.16031199439E+02  0.26142426277E+02  0.00000000000E+00 0. -1.
         13    1    3    3    0    0  0.32343218050E+02 -0.45634769962E+02  0.81093267881E+02  0.98512608730E+02  0.00000000000E+00 0.  1.
         21    1    1    2  502  501  0.17719167533E+01  0.52386866599E+02  0.56332413684E+02  0.76947152725E+02  0.00000000000E+00 0.  1.
<scales pt_clust_5="13000.00000" pt_clust_6="13000.00000" pt_clust_7="13000.00000" pt_clust_8="13000.00000" pt_clust_9="52.41682"></scales>
<clustering>
<clus scale="   52.417">  1  9  2 -1</clus>
<clus scale="   79.563">  5  6 -1 -1</clus>
<clus scale="   82.920">  2  5  1 -1</clus>
<clus scale="   88.254">  7  8 -1 -1</clus>
<clus scale="   82.920">  2  5  1 -1</clus>
</clustering>
</event>
<event>
 9    2  0.3791909E-005  0.1031229E+03  0.7546771E-02  0.1274131E+00
          2   -1    0    0  502    0  0.00000000000E+00  0.00000000000E+00  0.83139000980E+03  0.83139000980E+03  0.00000000000E+00 0. -1.
         -1   -1    0    0    0  501 -0.00000000000E+00 -0.00000000000E+00 -0.55302360587E+02  0.55302360587E+02  0.00000000000E+00 0.  1.
         23    2    1    2    0    0 -0.47455903825E+02  0.39164116474E+02  0.41098345114E+02  0.11733062449E+03  0.91057732484E+02 0.  0.
         24    2    1    2    0    0  0.35367597656E+02  0.51393858737E+02  0.22029945591E+03  0.24662613983E+03  0.91653733659E+02 0.  0.
        -13    1    4    4    0    0 -0.18325818920E+02 -0.13491873940E+02  0.78193360545E+02  0.81437509385E+02  0.00000000000E+00 0.  1.
         14    1    4    4    0    0  0.53693416576E+02  0.64885732677E+02  0.14210609537E+03  0.16518863045E+03  0.00000000000E+00 0. -1.
        -13    1    3    3    0    0 -0.33135978763E+02 -0.20151270584E+02  0.40826602582E+02  0.56310552058E+02  0.00000000000E+00 0. -1.
         13    1    3    3    0    0 -0.14319925062E+02  0.59315387058E+02  0.27174253155E+00  0.61020072432E+02  0.00000000000E+00 0.  1.
         21    1    1    2  502  501  0.12088306169E+02 -0.90557975211E+02  0.51468984819E+03  0.52273560607E+03  0.00000000000E+00 0. -1.
<scales pt_clust_5="13000.00000" pt_clust_6="13000.00000" pt_clust_7="13000.00000" pt_clust_8="13000.00000" pt_clust_9="91.36123"></scales>
<clustering>
<clus scale="   91.058">  7  8 -1 -1</clus>
<clus scale="   91.361">  1  9  2 -1</clus>
<clus scale="   91.654">  5  6 -1 -1</clus>
<clus scale="  102.594">  2  7  1 -1</clus>
<clus scale="   91.361">  1  5  2 -1</clus>
</clustering>
</event>
<event>
 9    2  0.3791909E-005  0.1484649E+03  0.7546771E-02  0.1203931E+00
          2   -1    0    0  502    0  0.00000000000E+00  0.00000000000E+00  0.68266951397E+03  0.68266951397E+03  0.00000000000E+00 0. -1.
         -1   -1    0    0    0  501 -0.00000000000E+00 -0.00000000000E+00 -0.71622648539E+02  0.71622648539E+02  0.00000000000E+00 0.  1.
         24    2    1    2    0    0  0.11645617937E+03  0.26397949385E+02  0.26295511324E+02  0.14851392459E+03  0.84297321644E+02 0.  0.
         23    2    1    2    0    0 -0.94397791552E+02 -0.28120782249E+02  0.47564995475E+03  0.49445593122E+03  0.92423303462E+02 0.  0.
        -11    1    3    3    0    0  0.86067983478E+02  0.36488833778E+01 -0.20208680127E+02  0.88483913128E+02  0.00000000000E+00 0.  1.
         12    1    3    3    0    0  0.30388195893E+02  0.22749066007E+02  0.46504191451E+02  0.60030011464E+02  0.00000000000E+00 0. -1.
        -13    1    4    4    0    0 -0.42353504869E+01  0.25808757863E+02  0.55257057593E+02  0.61134054258E+02  0.00000000000E+00 0.  1.
         13    1    4    4    0    0 -0.90162441065E+02 -0.53929540113E+02  0.42039289716E+03  0.43332187696E+03  0.00000000000E+00 0. -1.
         21    1    1    2  502  501 -0.22058387819E+02  0.17228328646E+01  0.10910139936E+03  0.11132230669E+03  0.00000000000E+00 0.  1.
<scales pt_clust_5="13000.00000" pt_clust_6="13000.00000" pt_clust_7="13000.00000" pt_clust_8="13000.00000" pt_clust_9="22.12556"></scales>
<clustering>
<clus scale="   22.126">  1  9  2 -1</clus>
<clus scale="   84.297">  5  6 -1 -1</clus>
<clus scale="   92.423">  7  8 -1 -1</clus>
<clus scale="  143.547">  2  5  1 -1</clus>
<clus scale="   22.126">  1  5  2 -1</clus>
</clustering>
</event>
<event>
 9    2  0.3791909E-005  0.1607844E+03  0.7546771E-02  0.1194838E+00
          2   -1    0    0  502    0  0.00000000000E+00  0.00000000000E+00  0.82040659569E+03  0.82040659569E+03  0.00000000000E+00 0. -1.
         -1   -1    0    0    0  501 -0.00000000000E+00 -0.00000000000E+00 -0.36585586642E+02  0.36585586642E+02  0.00000000000E+00 0.  1.
         24    2    1    2    0    0 -0.70393010836E+02 -0.85306341206E+02  0.18320025320E+03  0.22844807226E+03  0.79961497765E+02 0.  0.
         23    2    1    2    0    0  0.58119073037E+02  0.10200117118E+03  0.52911117602E+03  0.55409287163E+03  0.11523110792E+03 0.  0.
        -11    1    3    3    0    0 -0.31117961017E+02 -0.52887108433E+02  0.32630547724E+02  0.69499110650E+02  0.00000000000E+00 0.  1.
         12    1    3    3    0    0 -0.39275049819E+02 -0.32419232773E+02  0.15056970547E+03  0.15894896162E+03  0.00000000000E+00 0. -1.
        -13    1    4    4    0    0  0.59468678705E+02  0.74102586680E+02  0.51325358294E+03  0.52197409658E+03  0.00000000000E+00 0. -1.
         13    1    4    4    0    0 -0.13496056683E+01  0.27898584502E+02  0.15857593081E+02  0.32118775054E+02  0.00000000000E+00 0.  1.
         21    1    1    2  502  501  0.12273937799E+02 -0.16694829976E+02  0.71509579826E+02  0.74451238431E+02  0.00000000000E+00 0.  1.
<scales pt_clust_5="13000.00000" pt_clust_6="13000.00000" pt_clust_7="13000.00000" pt_clust_8="13000.00000" pt_clust_9="20.72117"></scales>
<clustering>
<clus scale="   20.721">  1  9  2 -1</clus>
<clus scale="   79.961">  5  6 -1 -1</clus>
<clus scale="  115.231">  7  8 -1 -1</clus>
<clus scale="  137.722">  2  5  1 -1</clus>
<clus scale="   20.721">  1  5  2 -1</clus>
</clustering>
</event>
<event>
 9    2  0.3791909E-005  0.2035684E+03  0.7546771E-02  0.1169651E+00
         -1   -1    0    0    0  501 -0.00000000000E+00  0.00000000000E+00  0.52177468434E+02  0.52177468434E+02  0.00000000000E+00 0.  1.
          2   -1    0    0  502    0  0.00000000000E+00 -0.00000000000E+00 -0.12552891184E+04  0.12552891184E+04  0.00000000000E+00 0. -1.
         24    2    1    2    0    0  0.20313774174E+02 -0.53179338596E+02 -0.15491100443E+03  0.19551059114E+03  0.10481545917E+03 0.  0.
         23    2    1    2    0    0  0.15140299897E+03  0.20492497164E+02 -0.56555804407E+03  0.59863449748E+03  0.12314442664E+03 0.  0.
        -13    1    3    3    0    0  0.44232319845E+02 -0.47306415260E+02 -0.36043450103E+02  0.74118319861E+02  0.00000000000E+00 0.  1.
         14    1    3    3    0    0 -0.23918545671E+02 -0.58729233357E+01 -0.11886755433E+03  0.12139227128E+03  0.00000000000E+00 0. -1.
        -11    1    4    4    0    0  0.12873500178E+03  0.64774894496E+02 -0.45780976819E+03  0.47995653084E+03  0.00000000000E+00 0.  1.
         11    1    4    4    0    0  0.22667997191E+02 -0.44282397332E+02 -0.10774827588E+03  0.11867796664E+03  0.00000000000E+00 0. -1.
         21    1    1    2  502  501 -0.17171677315E+03  0.32686841432E+02 -0.48264260148E+03  0.51332149823E+03  0.00000000000E+00 0. -1.
<scales pt_clust_5="13000.00000" pt_clust_6="13000.00000" pt_clust_7="13000.00000" pt_clust_8="13000.00000" pt_clust_9="162.09728"></scales>
<clustering>
<clus scale="  104.815">  5  6 -1 -1</clus>
<clus scale="  119.277">  1  5  2 -1</clus>
<clus scale="  123.144">  7  8 -1 -1</clus>
<clus scale="  162.097">  1  9  2 -1</clus>
<clus scale="  203.568">  2  5  1 -1</clus>
</clustering>
</event>
<event>
 9    2  0.3791909E-005  0.1295233E+03  0.7546771E-02  0.1230702E+00
         -1   -1    0    0    0  501 -0.00000000000E+00  0.00000000000E+00  0.63854074356E+02  0.63854074356E+02  0.00000000000E+00 0.  1.
          2   -1    0    0  502    0  0.00000000000E+00 -0.00000000000E+00 -0.47619786678E+03  0.47619786678E+03  0.00000000000E+00 0. -1.
         24    2    1    2    0    0 -0.80835032797E+02  0.49691080721E+02 -0.47010041818E+02  0.13351279461E+03  0.81315535183E+02 0.  0.
         23    2    1    2    0    0  0.93025809937E+02 -0.30970403804E+01 -0.26581799739E+03  0.29598144765E+03  0.91007783423E+02 0.  0.
        -11    1    3    3    0    0 -0.64603910852E+02 -0.17460732838E+01 -0.44033153198E+01  0.64777335968E+02  0.00000000000E+00 0.  1.
         12    1    3    3    0    0 -0.16231121945E+02  0.51437154005E+02 -0.42606726499E+02  0.68735458641E+02  0.00000000000E+00 0. -1.
        -11    1    4    4    0    0  0.32168878492E+02 -0.20395562857E+02 -0.21782760563E+02  0.43878290593E+02  0.00000000000E+00 0.  1.
         11    1    4    4    0    0  0.60856931446E+02  0.17298522477E+02 -0.24403523683E+03  0.25210315706E+03  0.00000000000E+00 0. -1.
         21    1    1    2  502  501 -0.12190777140E+02 -0.46594040340E+02 -0.99515753212E+02  0.11055769887E+03  0.00000000000E+00 0. -1.
<scales pt_clust_5="13000.00000" pt_clust_6="13000.00000" pt_clust_7="13000.00000" pt_clust_8="13000.00000" pt_clust_9="48.16243"></scales>
<clustering>
<clus scale="   48.162">  2  9  1 -1</clus>
<clus scale="   81.316">  5  6 -1 -1</clus>
<clus scale="   91.008">  7  8 -1 -1</clus>
<clus scale="  122.907">  1  5  2 -1</clus>
<clus scale="   48.162">  2  5  1 -1</clus>
</clustering>
</event>
<event>
 9    2  0.3791909E-005  0.1636165E+03  0.7546771E-02  0.1192261E+00
          2   -1    0    0  502    0  0.00000000000E+00  0.00000000000E+00  0.37993254182E+03  0.37993254182E+03  0.00000000000E+00 0. -1.
         -1   -1    0    0    0  501 -0.00000000000E+00 -0.00000000000E+00 -0.25132910047E+03  0.25132910047E+03  0.00000000000E+00 0.  1.
         24    2    1    2    0    0  0.64521169102E+02 -0.90730388668E+02 -0.14394782966E+03  0.19961993133E+03  0.82049708283E+02 0.  0.
         23    2    1    2    0    0 -0.94852788894E+02 -0.87795098241E+02  0.14447250482E+03  0.20984106401E+03  0.80348843550E+02 0.  0.
        -11    1    3    3    0    0  0.28422179394E+02 -0.70558292110E+01 -0.40058142012E-01  0.29284921239E+02  0.00000000000E+00 0.  1.
         12    1    3    3    0    0  0.36098989708E+02 -0.83674559457E+02 -0.14390777152E+03  0.17033501009E+03  0.00000000000E+00 0. -1.
        -11    1    4    4    0    0 -0.36700241611E+02 -0.97883148787E+01  0.91472117174E+02  0.99044773021E+02  0.00000000000E+00 0.  1.
         11    1    4    4    0    0 -0.58152547283E+02 -0.78006783363E+02  0.53000387641E+02  0.11079629099E+03  0.00000000000E+00 0. -1.
         21    1    1    2  502  501  0.30331619792E+02  0.17852548691E+03  0.12807876621E+03  0.22180064695E+03  0.00000000000E+00 0.  1.
<scales pt_clust_5="13000.00000" pt_clust_6="13000.00000" pt_clust_7="13000.00000" pt_clust_8="13000.00000" pt_clust_9="142.52862"></scales>
<clustering>
<clus scale="   80.349">  7  8 -1 -1</clus>
<clus scale="   82.050">  5  6 -1 -1</clus>
<clus scale="  138.301">  2  5  1 -1</clus>
<clus scale="  142.529">  2  9  1 -1</clus>
<clus scale="  163.616">  1  5  2 -1</clus>
</clustering>
</event>
<event>
 9    2  0.3791909E-005  0.1655825E+03  0.7546771E-02  0.1200966E+00
          2   -1    0    0  502    0  0.00000000000E+00  0.00000000000E+00  0.23699804242E+03  0.23699804242E+03  0.00000000000E+00 0. -1.
         -1   -1    0    0    0  501 -0.00000000000E+00 -0.00000000000E+00 -0.43036833496E+03  0.43036833496E+03  0.00000000000E+00 0.  1.
         24    2    1    2    0    0 -0.14613609538E+03 -0.46146561989E+02 -0.34648495536E+03  0.38672397504E+03  0.77577993166E+02 0.  0.
         23    2    1    2    0    0  0.53896155195E+02 -0.33114352825E+02  0.96160113196E+02  0.14635048186E+03  0.90389934523E+02 0.  0.
        -11    1    3    3    0    0 -0.14913915789E+03 -0.29529329442E+02 -0.32892602031E+03  0.36236279687E+03  0.00000000000E+00 0.  1.
         12    1    3    3    0    0  0.30030625126E+01 -0.16617232547E+02 -0.17558935044E+02  0.24361178170E+02  0.00000000000E+00 0. -1.
        -13    1    4    4    0    0  0.45680280943E+02 -0.61830347858E+02  0.51166358483E+02  0.92345417990E+02  0.00000000000E+00 0.  1.
         13    1    4    4    0    0  0.82158742517E+01  0.28715995033E+02  0.44993754713E+02  0.54005063871E+02  0.00000000000E+00 0. -1.
         21    1    1    2  502  501  0.92239940187E+02  0.79260914814E+02  0.56954549618E+02  0.13429192048E+03  0.00000000000E+00 0. -1.
<scales pt_clust_5="13000.00000" pt_clust_6="13000.00000" pt_clust_7="13000.00000" pt_clust_8="13000.00000" pt_clust_9="146.28469"></scales>
<clustering>
<clus scale="   77.578">  5  6 -1 -1</clus>
<clus scale="   90.390">  7  8 -1 -1</clus>
<clus scale="  110.325">  1  7  2 -1</clus>
<clus scale="  146.285">  1  9  2 -1</clus>
<clus scale="  110.325">  1  5  2 -1</clus>
</clustering>
</event>
<event>
 9    2  0.3791909E-005  0.1599698E+03  0.7546771E-02  0.1190900E+00
         -1   -1    0    0    0  501 -0.00000000000E+00  0.00000000000E+00  0.19517162535E+03  0.19517162535E+03  0.00000000000E+00 0.  1.
          2   -1    0    0  502    0  0.00000000000E+00 -0.00000000000E+00 -0.29553413413E+03  0.29553413413E+03  0.00000000000E+00 0. -1.
         23    2    1    2    0    0 -0.70676338727E+02 -0.10748651178E+03  0.12254813666E+03  0.20194665692E+03  0.95999538398E+02 0.  0.
         24    2    1    2    0    0  0.88032612581E+02  0.89981748648E+02 -0.21555494948E+03  0.26303434334E+03  0.82925711084E+02 0.  0.
        -11    1    4    4    0    0  0.39528090555E+02  0.62189902468E+02 -0.51998283969E+02  0.90188000574E+02  0.00000000000E+00 0.  1.
         12    1    4    4    0    0  0.48504522027E+02  0.27791846179E+02 -0.16355666552E+03  0.17284634276E+03  0.00000000000E+00 0. -1.
        -11    1    3    3    0    0 -0.22755626641E+02  0.26650483806E+01 -0.82557963522E+01  0.24353217449E+02  0.00000000000E+00 0. -1.
         11    1    3    3    0    0 -0.47920712085E+02 -0.11015156016E+03  0.13080393301E+03  0.17759343947E+03  0.00000000000E+00 0.  1.
         21    1    1    2  502  501 -0.17356273854E+02  0.17504763130E+02 -0.73556959478E+01  0.25724759226E+02  0.00000000000E+00 0.  1.
<scales pt_clust_5="13000.00000" pt_clust_6="13000.00000" pt_clust_7="13000.00000" pt_clust_8="13000.00000" pt_clust_9="24.65070"></scales>
<clustering>
<clus scale="   24.651">  2  9  1 -1</clus>
<clus scale="   82.926">  5  6 -1 -1</clus>
<clus scale="   96.000">  7  8 -1 -1</clus>
<clus scale="  152.483">  2  5  1 -1</clus>
<clus scale="   24.651">  2  5  1 -1</clus>
</clustering>
</event>
<event>
 9    2  0.3791909E-005  0.1558531E+03  0.7546771E-02  0.1195927E+00
         -1   -1    0    0    0  501 -0.00000000000E+00  0.00000000000E+00  0.45342863987E+03  0.45342863987E+03  0.00000000000E+00 0.  1.
          2   -1    0    0  502    0  0.00000000000E+00 -0.00000000000E+00 -0.11784353908E+03  0.11784353908E+03  0.00000000000E+00 0. -1.
         23    2    1    2    0    0  0.83364457207E+01 -0.13132872894E+03  0.36560446077E+03  0.39928633568E+03  0.91903344629E+02 0.  0.
         24    2    1    2    0    0  0.18996004806E+02  0.10084335019E+03 -0.22574784547E+02  0.13037042698E+03  0.77178998813E+02 0.  0.
        -13    1    4    4    0    0  0.16030650770E+02  0.27688952679E+02  0.27071359525E+02  0.41910838349E+02  0.00000000000E+00 0.  1.
         14    1    4    4    0    0  0.29653540360E+01  0.73154397514E+02 -0.49646144072E+02  0.88459588634E+02  0.00000000000E+00 0. -1.
        -13    1    3    3    0    0 -0.23074720965E+01 -0.44521510964E+02  0.25202065748E+03  0.25593339205E+03  0.00000000000E+00 0.  1.
         13    1    3    3    0    0  0.10643917817E+02 -0.86807217980E+02  0.11358380329E+03  0.14335294364E+03  0.00000000000E+00 0. -1.
         21    1    1    2  502  501 -0.27332450527E+02  0.30485378752E+02 -0.74445754356E+01  0.41615416289E+02  0.00000000000E+00 0.  1.
<scales pt_clust_5="13000.00000" pt_clust_6="13000.00000" pt_clust_7="13000.00000" pt_clust_8="13000.00000" pt_clust_9="40.94412"></scales>
<clustering>
<clus scale="   40.944">  2  9  1 -1</clus>
<clus scale="   77.179">  5  6 -1 -1</clus>
<clus scale="   91.903">  7  8 -1 -1</clus>
<clus scale="  147.650">  2  5  1 -1</clus>
<clus scale="   40.944">  2  5  1 -1</clus>
</clustering>
</event>
<event>
 9    2  0.3791909E-005  0.1243672E+03  0.7546771E-02  0.1238811E+00
         -1   -1    0    0    0  501 -0.00000000000E+00  0.00000000000E+00  0.29873321425E+03  0.29873321425E+03  0.00000000000E+00 0.  1.
          2   -1    0    0  502    0  0.00000000000E+00 -0.00000000000E+00 -0.13756317739E+03  0.13756317739E+03  0.00000000000E+00 0. -1.
         23    2    1    2    0    0  0.40300959823E+02  0.81058211740E+02  0.21775154763E+03  0.25260089571E+03  0.90536594629E+02 0.  0.
         24    2    1    2    0    0 -0.73419188660E+02 -0.29036449873E+02 -0.37273380711E+02  0.11907441054E+03  0.80968621400E+02 0.  0.
        -11    1    4    4    0    0  0.71820015513E+00 -0.20008196356E+02 -0.39577947884E+02  0.44353778774E+02  0.00000000000E+00 0.  1.
         12    1    4    4    0    0 -0.74137388815E+02 -0.90282535173E+01  0.23045671723E+01  0.74720631767E+02  0.00000000000E+00 0. -1.
        -11    1    3    3    0    0 -0.27547674733E+02  0.40490917243E+02  0.84308330761E+02  0.97500171272E+02  0.00000000000E+00 0.  1.
         11    1    3    3    0    0  0.67848634556E+02  0.40567294496E+02  0.13344321687E+03  0.15510072444E+03  0.00000000000E+00 0. -1.
         21    1    1    2  502  501  0.33118228837E+02 -0.52021761867E+02 -0.19308130059E+02  0.64621085378E+02  0.00000000000E+00 0. -1.
<scales pt_clust_5="13000.00000" pt_clust_6="13000.00000" pt_clust_7="13000.00000" pt_clust_8="13000.00000" pt_clust_9="61.66912"></scales>
<clustering>
<clus scale="   61.669">  2  9  1 -1</clus>
<clus scale="   80.969">  5  6 -1 -1</clus>
<clus scale="   90.537">  7  8 -1 -1</clus>
<clus scale="  117.585">  2  5  1 -1</clus>
<clus scale="   61.669">  2  5  1 -1</clus>
</clustering>
</event>
<event>
 9    2  0.3791909E-005  0.1385736E+03  0.7546771E-02  0.1217193E+00
         -1   -1    0    0    0  501 -0.00000000000E+00  0.00000000000E+00  0.56444943610E+03  0.56444943610E+03  0.00000000000E+00 0.  1.
          2   -1    0    0  502    0  0.00000000000E+00 -0.00000000000E+00 -0.55970098588E+02  0.55970098588E+02  0.00000000000E+00 0. -1.
         23    2    1    2    0    0  0.87892814808E+02  0.47963666721E+02  0.39438615261E+03  0.41696611024E+03  0.91074911460E+02 0.  0.
         24    2    1    2    0    0 -0.10392651137E+03 -0.60449954491E+02  0.87557576297E+02  0.17002999955E+03  0.82395114037E+02 0.  0.
        -11    1    4    4    0    0 -0.20680123197E+02 -0.55349061597E+02  0.18998485203E+02  0.62065518246E+02  0.00000000000E+00 0.  1.
         12    1    4    4    0    0 -0.83246388173E+02 -0.51008928946E+01  0.68559091094E+02  0.10796448131E+03  0.00000000000E+00 0. -1.
        -11    1    3    3    0    0  0.43036399467E+02  0.43923036639E+02  0.34371489208E+03  0.34917229539E+03  0.00000000000E+00 0.  1.
         11    1    3    3    0    0  0.44856415342E+02  0.40406300824E+01  0.50671260527E+02  0.67793814851E+02  0.00000000000E+00 0. -1.
         21    1    1    2  502  501  0.16033696562E+02  0.12486287770E+02  0.26535608602E+02  0.33423424893E+02  0.00000000000E+00 0.  1.
<scales pt_clust_5="13000.00000" pt_clust_6="13000.00000" pt_clust_7="13000.00000" pt_clust_8="13000.00000" pt_clust_9="20.32208"></scales>
<clustering>
<clus scale="   20.322">  2  9  1 -1</clus>
<clus scale="   82.395">  5  6 -1 -1</clus>
<clus scale="   91.075">  7  8 -1 -1</clus>
<clus scale="  133.030">  2  5  1 -1</clus>
<clus scale="   20.322">  2  5  1 -1</clus>
</clustering>
</event>
<event>
 9    2  0.3791909E-005  0.8889121E+02  0.7546771E-02  0.1308657E+00
         -1   -1    0    0    0  501 -0.00000000000E+00  0.00000000000E+00  0.49275360746E+02  0.49275360746E+02  0.00000000000E+00 0.  1.
          2   -1    0    0  502    0  0.00000000000E+00 -0.00000000000E+00 -0.44526285998E+03  0.44526285998E+03  0.00000000000E+00 0. -1.
         23    2    1    2    0    0  0.17722165296E+02  0.26874774172E+02 -0.20491186416E+02  0.92906726348E+02  0.84707983392E+02 0.  0.
         24    2    1    2    0    0  0.33965389307E+02 -0.18746109130E+02 -0.26450013214E+03  0.27892114184E+03  0.79571472160E+02 0.  0.
        -13    1    4    4    0    0 -0.23549324136E+02  0.25095570382E+01 -0.11353583754E+03  0.11597954539E+03  0.00000000000E+00 0.  1.
         14    1    4    4    0    0  0.57514713443E+02 -0.21255666168E+02 -0.15096429460E+03  0.16294159645E+03  0.00000000000E+00 0. -1.
        -11    1    3    3    0    0 -0.30975515844E+02 -0.26164700476E+00 -0.20523463251E+02  0.37158627327E+02  0.00000000000E+00 0. -1.
         11    1    3    3    0    0  0.48697681140E+02  0.27136421177E+02  0.32276835446E-01  0.55748099022E+02  0.00000000000E+00 0.  1.
         21    1    1    2  502  501 -0.51687554603E+02 -0.81286650428E+01 -0.11099618068E+03  0.12271035255E+03  0.00000000000E+00 0. -1.
<scales pt_clust_5="13000.00000" pt_clust_6="13000.00000" pt_clust_7="13000.00000" pt_clust_8="13000.00000" pt_clust_9="52.32283"></scales>
<clustering>
<clus scale="   52.323">  2  9  1 -1</clus>
<clus scale="   79.571">  5  6 -1 -1</clus>
<clus scale="   84.011">  2  5  1 -1</clus>
<clus scale="   84.708">  7  8 -1 -1</clus>
<clus scale="   52.323">  2  5  1 -1</clus>
</clustering>
</event>
<event>
 9    2  0.3791909E-005  0.1180359E+03  0.7546771E-02  0.1250488E+00
         -1   -1    0    0    0  501 -0.00000000000E+00  0.00000000000E+00  0.19332905601E+03  0.19332905601E+03  0.00000000000E+00 0.  1.
          2   -1    0    0  502    0  0.00000000000E+00 -0.00000000000E+00 -0.23502326185E+03  0.23502326185E+03  0.00000000000E+00 0. -1.
         23    2    1    2    0    0  0.69763171509E+02  0.45854710975E+02  0.13604699809E+03  0.18371961071E+03  0.90964581304E+02 0.  0.
         24    2    1    2    0    0 -0.49684177757E+02  0.23260843848E+02 -0.10945050663E+03  0.14541705693E+03  0.78467335050E+02 0.  0.
        -13    1    4    4    0    0  0.17372065650E+02  0.21883089519E+02 -0.40721573851E+02  0.49385269553E+02  0.00000000000E+00 0.  1.
         14    1    4    4    0    0 -0.67056243407E+02  0.13777543294E+01 -0.68728932779E+02  0.96031787382E+02  0.00000000000E+00 0. -1.
        -11    1    3    3    0    0  0.25519120558E+01  0.55503016223E+02  0.62060166144E+02  0.83298026908E+02  0.00000000000E+00 0.  1.
         11    1    3    3    0    0  0.67211259454E+02 -0.96483052476E+01  0.73986831947E+02  0.10042158380E+03  0.00000000000E+00 0. -1.
         21    1    1    2  502  501 -0.20078993753E+02 -0.69115554823E+02 -0.68290697300E+02  0.99215650209E+02  0.00000000000E+00 0. -1.
<scales pt_clust_5="13000.00000" pt_clust_6="13000.00000" pt_clust_7="13000.00000" pt_clust_8="13000.00000" pt_clust_9="71.97309"></scales>
<clustering>
<clus scale="   71.973">  2  9  1 -1</clus>
<clus scale="   78.467">  5  6 -1 -1</clus>
<clus scale="   90.965">  7  8 -1 -1</clus>
<clus scale="  108.697">  2  5  1 -1</clus>
<clus scale="   71.973">  2  5  1 -1</clus>
</clustering>
</event>
<event>
 9    2  0.3791909E-005  0.1385705E+03  0.7546771E-02  0.1217931E+00
         -1   -1    0    0    0  501 -0.00000000000E+00  0.00000000000E+00  0.44057364455E+03  0.44057364455E+03  0.00000000000E+00 0.  1.
          2   -1    0    0  502    0  0.00000000000E+00 -0.00000000000E+00 -0.21002008058E+03  0.21002008058E+03  0.00000000000E+00 0. -1.
         23    2    1    2    0    0 -0.34381293661E+02  0.76705818485E+02  0.33398473557E+03  0.35645048420E+03  0.91898248870E+02 0.  0.
         24    2    1    2    0    0  0.10167708248E+03 -0.33574346105E+02 -0.15057642168E+03  0.20134387829E+03  0.80003954520E+02 0.  0.
        -11    1    4    4    0    0  0.21928148877E+02 -0.19884517782E+02  0.89489460452E+00  0.29614837446E+02  0.00000000000E+00 0.  1.
         12    1    4    4    0    0  0.79748933599E+02 -0.13689828323E+02 -0.15147131629E+03  0.17172904084E+03  0.00000000000E+00 0. -1.
        -13    1    3    3    0    0  0.24676647358E+02  0.19371687031E+02  0.17107293329E+03  0.17392569588E+03  0.00000000000E+00 0.  1.
         13    1    3    3    0    0 -0.59057941018E+02  0.57334131454E+02  0.16291180229E+03  0.18252478832E+03  0.00000000000E+00 0. -1.
         21    1    1    2  502  501 -0.67295788815E+02 -0.43131472380E+02  0.47145250088E+02  0.92799362647E+02  0.00000000000E+00 0.  1.
<scales pt_clust_5="13000.00000" pt_clust_6="13000.00000" pt_clust_7="13000.00000" pt_clust_8="13000.00000" pt_clust_9="79.93152"></scales>
<clustering>
<clus scale="   79.932">  1  9  2 -1</clus>
<clus scale="   80.004">  5  6 -1 -1</clus>
<clus scale="   91.898">  7  8 -1 -1</clus>
<clus scale="  130.985">  2  5  1 -1</clus>
<clus scale="  130.985">  2  5  1 -1</clus>
</clustering>
</event>
<event>
 9    2  0.3791909E-005  0.1088548E+03  0.7546771E-02  0.1267185E+00
          2   -1    0    0  502    0  0.00000000000E+00  0.00000000000E+00  0.98886198458E+03  0.98886198458E+03  0.00000000000E+00 0. -1.
         -1   -1    0    0    0  501 -0.00000000000E+00 -0.00000000000E+00 -0.34182665492E+02  0.34182665492E+02  0.00000000000E+00 0.  1.
         23    2    1    2    0    0 -0.65078374322E+01 -0.52008032471E+02  0.93302085086E+02  0.14066732526E+03  0.91295289725E+02 0.  0.
         24    2    1    2    0    0  0.31497696403E+02  0.98119327936E+02  0.71637139219E+03  0.72817797728E+03  0.80222737696E+02 0.  0.
        -13    1    4    4    0    0  0.55822916777E+02  0.44884721159E+02  0.36439692004E+03  0.37137036980E+03  0.00000000000E+00 0.  1.
         14    1    4    4    0    0 -0.24325220373E+02  0.53234606777E+02  0.35197447216E+03  0.35680760748E+03  0.00000000000E+00 0. -1.
        -13    1    3    3    0    0 -0.40603872283E+02  0.27978975765E+01  0.37569024877E+02  0.55388936670E+02  0.00000000000E+00 0.  1.
         13    1    3    3    0    0  0.34096034851E+02 -0.54805930048E+02  0.55733060209E+02  0.85278388594E+02  0.00000000000E+00 0. -1.
         21    1    1    2  502  501 -0.24989858971E+02 -0.46111295465E+02  0.14500584181E+03  0.15419934753E+03  0.00000000000E+00 0.  1.
<scales pt_clust_5="13000.00000" pt_clust_6="13000.00000" pt_clust_7="13000.00000" pt_clust_8="13000.00000" pt_clust_9="52.44754"></scales>
<clustering>
<clus scale="   52.448">  1  9  2 -1</clus>
<clus scale="   80.223">  5  6 -1 -1</clus>
<clus scale="   91.295">  7  8 -1 -1</clus>
<clus scale="   99.751">  1  5  2 -1</clus>
<clus scale="   52.448">  1  5  2 -1</clus>
</clustering>
</event>
<event>
 9    2  0.3791909E-005  0.1110631E+03  0.7546771E-02  0.1262121E+00
          2   -1    0    0  502    0  0.00000000000E+00  0.00000000000E+00  0.55967001665E+03  0.55967001665E+03  0.00000000000E+00 0. -1.
         -1   -1    0    0    0  501 -0.00000000000E+00 -0.00000000000E+00 -0.76290762737E+02  0.76290762737E+02  0.00000000000E+00 0.  1.
         23    2    1    2    0    0  0.49203366860E+02  0.50643327891E+02 -0.56443270736E+01  0.11476768662E+03  0.90299753559E+02 0.  0.
         24    2    1    2    0    0  0.15990876798E+02 -0.42015407461E+02  0.39952450417E+03  0.41013087972E+03  0.81033983383E+02 0.  0.
        -11    1    4    4    0    0 -0.27892675330E+02 -0.39270965268E+02  0.18686450356E+03  0.19297293267E+03  0.00000000000E+00 0.  1.
         12    1    4    4    0    0  0.43883552128E+02 -0.27444421932E+01  0.21266000060E+03  0.21715794705E+03  0.00000000000E+00 0. -1.
        -13    1    3    3    0    0  0.49780203534E+01  0.23310152836E+02 -0.44080534107E+02  0.50112247994E+02  0.00000000000E+00 0.  1.
         13    1    3    3    0    0  0.44225346506E+02  0.27333175054E+02  0.38436207033E+02  0.64655438621E+02  0.00000000000E+00 0. -1.
         21    1    1    2  502  501 -0.65194243658E+02 -0.86279204293E+01  0.89499076821E+02  0.11106221306E+03  0.00000000000E+00 0. -1.
<scales pt_clust_5="13000.00000" pt_clust_6="13000.00000" pt_clust_7="13000.00000" pt_clust_8="13000.00000" pt_clust_9="65.76268"></scales>
<clustering>
<clus scale="   65.763">  1  9  2 -1</clus>
<clus scale="   81.034">  5  6 -1 -1</clus>
<clus scale="   90.300">  7  8 -1 -1</clus>
<clus scale="  103.670">  1  5  2 -1</clus>
<clus scale="   65.763">  1  5  2 -1</clus>
</clustering>
</event>
<event>
 9    2  0.3791909E-005  0.9174503E+02  0.7546771E-02  0.1303214E+00
         -1   -1    0    0    0  501 -0.00000000000E+00  0.00000000000E+00  0.68904583511E+03  0.68904583511E+03  0.00000000000E+00 0.  1.
          2   -1    0    0  502    0  0.00000000000E+00 -0.00000000000E+00 -0.23434292298E+02  0.23434292298E+02  0.00000000000E+00 0. -1.
         23    2    1    2    0    0  0.13501088486E+02 -0.18604551589E+02  0.44450065231E+03  0.45419055001E+03  0.90442341233E+02 0.  0.
         24    2    1    2    0    0  0.27853845084E+02  0.84196018756E+01  0.17278473631E+03  0.19387388901E+03  0.82980680622E+02 0.  0.
        -13    1    4    4    0    0 -0.23444519577E+02  0.42287045717E+01  0.11067418785E+03  0.11320911313E+03  0.00000000000E+00 0.  1.
         14    1    4    4    0    0  0.51298364661E+02  0.41908973039E+01  0.62110548462E+02  0.80664775877E+02  0.00000000000E+00 0. -1.
        -13    1    3    3    0    0 -0.35294686577E+02 -0.24383683598E+02  0.17015879284E+03  0.17548302968E+03  0.00000000000E+00 0.  1.
         13    1    3    3    0    0  0.48795775063E+02  0.57791320088E+01  0.27434185947E+03  0.27870752032E+03  0.00000000000E+00 0. -1.
         21    1    1    2  502  501 -0.41354933569E+02  0.10184949714E+02  0.48326154201E+02  0.64415688392E+02  0.00000000000E+00 0.  1.
<scales pt_clust_5="13000.00000" pt_clust_6="13000.00000" pt_clust_7="13000.00000" pt_clust_8="13000.00000" pt_clust_9="42.59065"></scales>
<clustering>
<clus scale="   42.591">  2  9  1 -1</clus>
<clus scale="   82.981">  5  6 -1 -1</clus>
<clus scale="   84.399">  2  5  1 -1</clus>
<clus scale="   90.442">  7  8 -1 -1</clus>
<clus scale="   42.591">  2  5  1 -1</clus>
</clustering>
</event>
<event>
 9    2  0.3791909E-005  0.1099377E+03  0.7546771E-02  0.1263465E+00
         -1   -1    0    0    0  501 -0.00000000000E+00  0.00000000000E+00  0.13152483309E+03  0.13152483309E+03  0.00000000000E+00 0.  1.
          2   -1    0    0  502    0  0.00000000000E+00 -0.00000000000E+00 -0.31705882491E+03  0.31705882491E+03  0.00000000000E+00 0. -1.
         24    2    1    2    0    0  0.54168311513E+02 -0.22089938114E+02  0.84054215330E+02  0.13229701138E+03  0.83756890863E+02 0.  0.
         23    2    1    2    0    0 -0.79031701359E+02  0.40069395019E+02 -0.17055862056E+03  0.21261259950E+03  0.90897239688E+02 0.  0.
        -11    1    3    3    0    0 -0.20078007934E+02 -0.77418196920E+01  0.38246910069E+02  0.43884943940E+02  0.00000000000E+00 0.  1.
         12    1    3    3    0    0  0.74246319447E+02 -0.14348118422E+02  0.45807305260E+02  0.88412067439E+02  0.00000000000E+00 0. -1.
        -13    1    4    4    0    0  0.20364106350E+02  0.54418910182E+01 -0.21228152011E+02  0.29915638771E+02  0.00000000000E+00 0.  1.
         13    1    4    4    0    0 -0.99395807708E+02  0.34627504001E+02 -0.14933046855E+03  0.18269696073E+03  0.00000000000E+00 0. -1.
         21    1    1    2  502  501  0.24863389845E+02 -0.17979456905E+02 -0.99029586596E+02  0.10367404712E+03  0.00000000000E+00 0. -1.
<scales pt_clust_5="13000.00000" pt_clust_6="13000.00000" pt_clust_7="13000.00000" pt_clust_8="13000.00000" pt_clust_9="30.68304"></scales>
<clustering>
<clus scale="   30.683">  2  9  1 -1</clus>
<clus scale="   83.757">  5  6 -1 -1</clus>
<clus scale="   90.897">  7  8 -1 -1</clus>
<clus scale="  104.111">  1  5  2 -1</clus>
<clus scale="   30.683">  2  5  1 -1</clus>
</clustering>
</event>
<event>
 9    2  0.3791909E-005  0.1571658E+03  0.7546771E-02  0.1208080E+00
         -1   -1    0    0    0  501 -0.00000000000E+00  0.00000000000E+00  0.87233390744E+02  0.87233390744E+02  0.00000000000E+00 0.  1.
          2   -1    0    0  502    0  0.00000000000E+00 -0.00000000000E+00 -0.98654364015E+03  0.98654364015E+03  0.00000000000E+00 0. -1.
         23    2    1    2    0    0  0.48183330997E+02  0.32813543294E+02 -0.73322781499E+02  0.13276128889E+03  0.94079580849E+02 0.  0.
         24    2    1    2    0    0  0.87779914150E+02 -0.59099306985E+02 -0.35282324053E+02  0.13827570318E+03  0.81714663836E+02 0.  0.
        -11    1    4    4    0    0  0.92112224808E+02 -0.38359539352E+02 -0.50843824070E+02  0.11198754692E+03  0.00000000000E+00 0.  1.
         12    1    4    4    0    0 -0.43323106581E+01 -0.20739767633E+02  0.15561500016E+02  0.26288156266E+02  0.00000000000E+00 0. -1.
        -11    1    3    3    0    0  0.10120449498E+02 -0.23250692375E+02  0.82940615775E+01  0.26679761082E+02  0.00000000000E+00 0.  1.
         11    1    3    3    0    0  0.38062881499E+02  0.56064235669E+02 -0.81616843076E+02  0.10608152781E+03  0.00000000000E+00 0. -1.
         21    1    1    2  502  501 -0.13596324515E+03  0.26285763691E+02 -0.79070514385E+03  0.80274003881E+03  0.00000000000E+00 0. -1.
<scales pt_clust_5="13000.00000" pt_clust_6="13000.00000" pt_clust_7="13000.00000" pt_clust_8="13000.00000" pt_clust_9="134.25272"></scales>
<clustering>
<clus scale="   81.715">  5  6 -1 -1</clus>
<clus scale="   94.080">  7  8 -1 -1</clus>
<clus scale="  110.677">  1  7  2 -1</clus>
<clus scale="  134.253">  2  9  1 -1</clus>
<clus scale="  134.253">  2  5  1 -1</clus>
</clustering>
</event>
<event>
 9    2  0.3791909E-005  0.2106368E+03  0.7546771E-02  0.1141823E+00
         -1   -1    0    0    0  501 -0.00000000000E+00  0.00000000000E+00  0.73710358003E+02  0.73710358003E+02  0.00000000000E+00 0.  1.
          2   -1    0    0  502    0  0.00000000000E+00 -0.00000000000E+00 -0.10015695655E+04  0.10015695655E+04  0.00000000000E+00 0. -1.
         24    2    1    2    0    0  0.95099807471E+01  0.19971396933E+03 -0.14448805457E+03  0.25962516992E+03  0.80946412315E+02 0.  0.
         23    2    1    2    0    0 -0.31455958005E+01 -0.15742058285E+03 -0.67960552216E+03  0.70342043590E+03  0.90252474840E+02 0.  0.
        -13    1    3    3    0    0  0.29379847147E+02  0.19212789589E+03 -0.13223164245E+03  0.23507767028E+03  0.00000000000E+00 0.  1.
         14    1    3    3    0    0 -0.19869866400E+02  0.75860734390E+01 -0.12256412117E+02  0.24547499648E+02  0.00000000000E+00 0. -1.
        -13    1    4    4    0    0  0.35148596249E+02 -0.94199621149E+02 -0.29186095764E+03  0.30869371720E+03  0.00000000000E+00 0.  1.
         13    1    4    4    0    0 -0.38294192049E+02 -0.63220961699E+02 -0.38774456452E+03  0.39472671870E+03  0.00000000000E+00 0. -1.
         21    1    1    2  502  501 -0.63643849466E+01 -0.42293386479E+02 -0.10376563072E+03  0.11223431763E+03  0.00000000000E+00 0. -1.
<scales pt_clust_5="13000.00000" pt_clust_6="13000.00000" pt_clust_7="13000.00000" pt_clust_8="13000.00000" pt_clust_9="42.76957"></scales>
<clustering>
<clus scale="   42.770">  2  9  1 -1</clus>
<clus scale="   80.946">  5  6 -1 -1</clus>
<clus scale="   90.252">  7  8 -1 -1</clus>
<clus scale="  206.820">  1  5  2 -1</clus>
<clus scale="   42.770">  2  5  1 -1</clus>
</clustering>
</event>
<event>
 9    2  0.3791909E-005  0.9802454E+02  0.7546771E-02  0.1289243E+00
          2   -1    0    0  502    0  0.00000000000E+00  0.00000000000E+00  0.86481159015E+03  0.86481159015E+03  0.00000000000E+00 0. -1.
         -1   -1    0    0    0  501 -0.00000000000E+00 -0.00000000000E+00 -0.47430611145E+02  0.47430611145E+02  0.00000000000E+00 0.  1.
         23    2    1    2    0    0 -0.20633119116E+01 -0.46287253860E+02  0.15718356701E+02  0.10118131851E+03  0.88565373321E+02 0.  0.
         24    2    1    2    0    0 -0.85435651051E+01  0.43130433684E+01  0.51074426939E+03  0.51693875127E+03  0.79210914663E+02 0.  0.
        -13    1    4    4    0    0  0.13429935909E+02 -0.31225411125E+02  0.15113414461E+03  0.15490939011E+03  0.00000000000E+00 0.  1.
         14    1    4    4    0    0 -0.21973501014E+02  0.35538454494E+02  0.35961012478E+03  0.36202936116E+03  0.00000000000E+00 0. -1.
        -13    1    3    3    0    0  0.38265364874E+02 -0.41514754982E+02  0.20979916626E+02  0.60231801665E+02  0.00000000000E+00 0.  1.
         13    1    3    3    0    0 -0.40328676785E+02 -0.47724988781E+01 -0.52615599252E+01  0.40949516842E+02  0.00000000000E+00 0. -1.
         21    1    1    2  502  501  0.10606877017E+02  0.41974210492E+02  0.29091835291E+03  0.29412213152E+03  0.00000000000E+00 0. -1.
<scales pt_clust_5="13000.00000" pt_clust_6="13000.00000" pt_clust_7="13000.00000" pt_clust_8="13000.00000" pt_clust_9="43.29365"></scales>
<clustering>
<clus scale="   43.294">  1  9  2 -1</clus>
<clus scale="   79.211">  5  6 -1 -1</clus>
<clus scale="   88.565">  7  8 -1 -1</clus>
<clus scale="   89.662">  1  5  2 -1</clus>
<clus scale="   43.294">  1  5  2 -1</clus>
</clustering>
</event>
<event>
 9    2  0.3791909E-005  0.9221476E+02  0.7546771E-02  0.1303349E+00
         -1   -1    0    0    0  501 -0.00000000000E+00  0.00000000000E+00  0.15026533422E+03  0.15026533422E+03  0.00000000000E+00 0.  1.
          2   -1    0    0  502    0  0.00000000000E+00 -0.00000000000E+00 -0.22798580459E+03  0.22798580459E+03  0.00000000000E+00 0. -1.
         23    2    1    2    0    0  0.26511183891E+02  0.24623915878E+02  0.10832838504E+03  0.14571400998E+03  0.90489522018E+02 0.  0.
         24    2    1    2    0    0  0.27212381309E+01 -0.17254504824E+02 -0.18461906160E+03  0.20235622382E+03  0.80985926800E+02 0.  0.
        -11    1    4    4    0    0  0.39356086394E+02 -0.13394653437E+01 -0.62501852516E+02  0.73872709925E+02  0.00000000000E+00 0.  1.
         12    1    4    4    0    0 -0.36634848263E+02 -0.15915039481E+02 -0.12211720909E+03  0.12848351390E+03  0.00000000000E+00 0. -1.
        -11    1    3    3    0    0  0.58515931881E+02  0.17906729465E+02  0.50765179177E+02  0.79510179606E+02  0.00000000000E+00 0.  1.
         11    1    3    3    0    0 -0.32004747990E+02  0.67171864134E+01  0.57563205862E+02  0.66203830375E+02  0.00000000000E+00 0. -1.
         21    1    1    2  502  501 -0.29232422022E+02 -0.73694110540E+01 -0.14297938129E+01  0.30180905005E+02  0.00000000000E+00 0. -1.
<scales pt_clust_5="13000.00000" pt_clust_6="13000.00000" pt_clust_7="13000.00000" pt_clust_8="13000.00000" pt_clust_9="30.14702"></scales>
<clustering>
<clus scale="   30.147">  1  9  2 -1</clus>
<clus scale="   80.986">  5  6 -1 -1</clus>
<clus scale="   82.909">  2  5  1 -1</clus>
<clus scale="   90.490">  7  8 -1 -1</clus>
<clus scale="   82.909">  2  5  1 -1</clus>
</clustering>
</event>
<event>
 9    2  0.3791909E-005  0.1630945E+03  0.7546771E-02  0.1188927E+00
         -1   -1    0    0    0  501 -0.00000000000E+00  0.00000000000E+00  0.13013919466E+03  0.13013919466E+03  0.00000000000E+00 0.  1.
          2   -1    0    0  502    0  0.00000000000E+00 -0.00000000000E+00 -0.57057486590E+03  0.57057486590E+03  0.00000000000E+00 0. -1.
         24    2    1    2    0    0  0.56304456044E+02 -0.10786260098E+03  0.47194315165E+02  0.15351609751E+03  0.80841550891E+02 0.  0.
         23    2    1    2    0    0 -0.78056355271E+02  0.14985338444E+03 -0.42478296914E+03  0.46854608070E+03  0.10269385303E+03 0.  0.
        -11    1    3    3    0    0  0.37999616935E+02 -0.10513883144E+03  0.63742163778E+02  0.12869035786E+03  0.00000000000E+00 0.  1.
         12    1    3    3    0    0  0.18304839109E+02 -0.27237695396E+01 -0.16547848613E+02  0.24825739647E+02  0.00000000000E+00 0. -1.
        -11    1    4    4    0    0 -0.76678075712E+01  0.70506880075E+02 -0.75824784963E+02  0.10382395401E+03  0.00000000000E+00 0.  1.
         11    1    4    4    0    0 -0.70388547699E+02  0.79346504368E+02 -0.34895818417E+03  0.36472212670E+03  0.00000000000E+00 0. -1.
         21    1    1    2  502  501  0.21751899226E+02 -0.41990783461E+02 -0.62847017275E+02  0.78651882343E+02  0.00000000000E+00 0.  1.
<scales pt_clust_5="13000.00000" pt_clust_6="13000.00000" pt_clust_7="13000.00000" pt_clust_8="13000.00000" pt_clust_9="47.29028"></scales>
<clustering>
<clus scale="   47.290">  2  9  1 -1</clus>
<clus scale="   80.842">  5  6 -1 -1</clus>
<clus scale="  102.694">  7  8 -1 -1</clus>
<clus scale="  150.297">  1  5  2 -1</clus>
<clus scale="   47.290">  2  5  1 -1</clus>
</clustering>
</event>
<event>
 9    2  0.3791909E-005  0.1069807E+03  0.7546771E-02  0.1270299E+00
          2   -1    0    0  502    0  0.00000000000E+00  0.00000000000E+00  0.44716575239E+03  0.44716575239E+03  0.00000000000E+00 0. -1.
         -1   -1    0    0    0  501 -0.00000000000E+00 -0.00000000000E+00 -0.45351978867E+03  0.45351978867E+03  0.00000000000E+00 0.  1.
         23    2    1    2    0    0 -0.38169132003E+02 -0.36313472426E+02 -0.43610361396E+03  0.44898837128E+03  0.92890497417E+02 0.  0.
         24    2    1    2    0    0  0.63296190947E+02  0.38467165030E+02  0.31442239619E+03  0.33364478194E+03  0.83494111884E+02 0.  0.
        -11    1    4    4    0    0 -0.44862687111E+01 -0.20912941116E+02  0.66349950249E+02  0.69712219955E+02  0.00000000000E+00 0.  1.
         12    1    4    4    0    0  0.67782459658E+02  0.59380106145E+02  0.24807244594E+03  0.26393256199E+03  0.00000000000E+00 0. -1.
        -11    1    3    3    0    0  0.18919253005E+02  0.18445300514E+02 -0.14169212276E+03  0.14413474562E+03  0.00000000000E+00 0. -1.
         11    1    3    3    0    0 -0.57088385007E+02 -0.54758772940E+02 -0.29441149121E+03  0.30485362565E+03  0.00000000000E+00 0.  1.
         21    1    1    2  502  501 -0.25127058944E+02 -0.21536926039E+01  0.11532718150E+03  0.11805238784E+03  0.00000000000E+00 0. -1.
<scales pt_clust_5="13000.00000" pt_clust_6="13000.00000" pt_clust_7="13000.00000" pt_clust_8="13000.00000" pt_clust_9="25.21919"></scales>
<clustering>
<clus scale="   25.219">  1  9  2 -1</clus>
<clus scale="   83.494">  5  6 -1 -1</clus>
<clus scale="   92.890">  7  8 -1 -1</clus>
<clus scale="   98.932">  1  5  2 -1</clus>
<clus scale="   25.219">  1  5  2 -1</clus>
</clustering>
</event>
<event>
 9    2  0.3791909E-005  0.8973954E+02  0.7546771E-02  0.1304198E+00
          2   -1    0    0  502    0  0.00000000000E+00  0.00000000000E+00  0.23616386158E+03  0.23616386158E+03  0.00000000000E+00 0. -1.
         -1   -1    0    0    0  501 -0.00000000000E+00 -0.00000000000E+00 -0.89423545303E+02  0.89423545303E+02  0.00000000000E+00 0.  1.
         23    2    1    2    0    0  0.68261340017E+01 -0.12435577619E+02 -0.26146156449E+02  0.94324166906E+02  0.89510822079E+02 0.  0.
         24    2    1    2    0    0 -0.43190049514E+01 -0.21284541394E+02  0.49993321807E+02  0.10380321226E+03  0.88340755851E+02 0.  0.
        -13    1    4    4    0    0 -0.37716704682E+02 -0.38032002536E+02  0.31085279537E+02  0.61929618381E+02  0.00000000000E+00 0.  1.
         14    1    4    4    0    0  0.33397699730E+02  0.16747461142E+02  0.18908042269E+02  0.41873593880E+02  0.00000000000E+00 0. -1.
        -13    1    3    3    0    0 -0.34772951815E+02  0.53276117036E+01  0.98328607876E+01  0.36527069081E+02  0.00000000000E+00 0. -1.
         13    1    3    3    0    0  0.41599085816E+02 -0.17763189322E+02 -0.35979017237E+02  0.57797097825E+02  0.00000000000E+00 0.  1.
         21    1    1    2  502  501 -0.25071290502E+01  0.33720119013E+02  0.12289315091E+03  0.12746002771E+03  0.00000000000E+00 0. -1.
<scales pt_clust_5="13000.00000" pt_clust_6="13000.00000" pt_clust_7="13000.00000" pt_clust_8="13000.00000" pt_clust_9="33.81319"></scales>
<clustering>
<clus scale="   33.813">  1  9  2 -1</clus>
<clus scale="   88.341">  5  6 -1 -1</clus>
<clus scale="   88.572">  1  5  2 -1</clus>
<clus scale="   89.511">  7  8 -1 -1</clus>
<clus scale="   33.813">  1  5  2 -1</clus>
</clustering>
</event>
<event>
 9    2  0.3791909E-005  0.1014727E+03  0.7546771E-02  0.1281123E+00
         -3   -1    0    0    0  501 -0.00000000000E+00  0.00000000000E+00  0.12031555081E+03  0.12031555081E+03  0.00000000000E+00 0.  1.
          4   -1    0    0  502    0  0.00000000000E+00 -0.00000000000E+00 -0.96774869858E+03  0.96774869858E+03  0.00000000000E+00 0. -1.
         23    2    1    2    0    0 -0.29597236953E+02  0.36745377041E+02  0.84665362515E+02  0.13281301835E+03  0.90801184272E+02 0.  0.
         24    2    1    2    0    0 -0.63045130767E+02 -0.53893042808E+02 -0.49656203334E+03  0.50964078065E+03  0.79251017479E+02 0.  0.
        -13    1    4    4    0    0 -0.63973816885E+02 -0.58810722452E+02 -0.28348076846E+03  0.29650075279E+03  0.00000000000E+00 0.  1.
         14    1    4    4    0    0  0.92868611823E+00  0.49176796442E+01 -0.21308126488E+03  0.21314002786E+03  0.00000000000E+00 0. -1.
        -11    1    3    3    0    0 -0.31040040614E+02 -0.24302000051E+02  0.21280481489E+02  0.44798774762E+02  0.00000000000E+00 0.  1.
         11    1    3    3    0    0  0.14428036608E+01  0.61047377092E+02  0.63384881026E+02  0.88014243591E+02  0.00000000000E+00 0. -1.
         21    1    1    2  502  501  0.92642367720E+02  0.17147665767E+02 -0.43553647695E+03  0.44561045038E+03  0.00000000000E+00 0. -1.
<scales pt_clust_5="13000.00000" pt_clust_6="13000.00000" pt_clust_7="13000.00000" pt_clust_8="13000.00000" pt_clust_9="94.21598"></scales>
<clustering>
<clus scale="   79.251">  5  6 -1 -1</clus>
<clus scale="   90.801">  7  8 -1 -1</clus>
<clus scale="   94.216">  2  9  1 -1</clus>
<clus scale="   94.216">  2  5  1 -1</clus>
<clus scale="   94.216">  2  5  1 -1</clus>
</clustering>
</event>
<event>
 9    2  0.3791909E-005  0.1594438E+03  0.7546771E-02  0.1191367E+00
          2   -1    0    0  502    0  0.00000000000E+00  0.00000000000E+00  0.10829993270E+04  0.10829993270E+04  0.00000000000E+00 0. -1.
         -1   -1    0    0    0  501 -0.00000000000E+00 -0.00000000000E+00 -0.45912006701E+02  0.45912006701E+02  0.00000000000E+00 0.  1.
         23    2    1    2    0    0  0.12546061519E+03 -0.13709021759E+02  0.13718578361E+03  0.20869538775E+03  0.93837745076E+02 0.  0.
         24    2    1    2    0    0 -0.13724456160E+03  0.39128412531E+02  0.77195046321E+03  0.78923318363E+03  0.81328950199E+02 0.  0.
        -11    1    4    4    0    0 -0.70705854683E+02 -0.16418289640E+02  0.25763879427E+03  0.26766887461E+03  0.00000000000E+00 0.  1.
         12    1    4    4    0    0 -0.66538706921E+02  0.55546702171E+02  0.51431166894E+03  0.52156430902E+03  0.00000000000E+00 0. -1.
        -11    1    3    3    0    0  0.46846855054E+02  0.35088483045E+02  0.82701714258E+02  0.10131832515E+03  0.00000000000E+00 0. -1.
         11    1    3    3    0    0  0.78613760137E+02 -0.48797504804E+02  0.54484069351E+02  0.10737706259E+03  0.00000000000E+00 0.  1.
         21    1    1    2  502  501  0.11783946413E+02 -0.25419390772E+02  0.12795107344E+03  0.13098276228E+03  0.00000000000E+00 0. -1.
<scales pt_clust_5="13000.00000" pt_clust_6="13000.00000" pt_clust_7="13000.00000" pt_clust_8="13000.00000" pt_clust_9="28.01797"></scales>
<clustering>
<clus scale="   28.018">  1  9  2 -1</clus>
<clus scale="   81.329">  5  6 -1 -1</clus>
<clus scale="   93.838">  7  8 -1 -1</clus>
<clus scale="  152.418">  1  5  2 -1</clus>
<clus scale="   28.018">  1  5  2 -1</clus>
</clustering>
</event>
<event>
 9    2  0.3791909E-005  0.1083488E+03  0.7546771E-02  0.1268814E+00
          2   -1    0    0  502    0  0.00000000000E+00  0.00000000000E+00  0.22169653632E+03  0.22169653632E+03  0.00000000000E+00 0. -1.
         -1   -1    0    0    0  501 -0.00000000000E+00 -0.00000000000E+00 -0.22641043374E+03  0.22641043374E+03  0.00000000000E+00 0.  1.
         23    2    1    2    0    0 -0.32866445950E+02  0.51017698449E+02 -0.19089817000E+03  0.21999814790E+03  0.90961887325E+02 0.  0.
         24    2    1    2    0    0  0.42430273658E+02 -0.25299053847E+02  0.94179798983E+02  0.13209976716E+03  0.78359069020E+02 0.  0.
        -11    1    4    4    0    0  0.25661666118E+02  0.19230691108E+02  0.70644986329E+01  0.32836682679E+02  0.00000000000E+00 0.  1.
         12    1    4    4    0    0  0.16768607541E+02 -0.44529744955E+02  0.87115300350E+02  0.99263084476E+02  0.00000000000E+00 0. -1.
        -11    1    3    3    0    0 -0.38407827721E+02  0.74098602500E+02 -0.12837264229E+03  0.15311857957E+03  0.00000000000E+00 0.  1.
         11    1    3    3    0    0  0.55413817711E+01 -0.23080904052E+02 -0.62525527714E+02  0.66879568328E+02  0.00000000000E+00 0. -1.
         21    1    1    2  502  501 -0.95638277081E+01 -0.25718644602E+02  0.92004473603E+02  0.96009055008E+02  0.00000000000E+00 0.  1.
<scales pt_clust_5="13000.00000" pt_clust_6="13000.00000" pt_clust_7="13000.00000" pt_clust_8="13000.00000" pt_clust_9="27.43931"></scales>
<clustering>
<clus scale="   27.439">  1  9  2 -1</clus>
<clus scale="   78.359">  5  6 -1 -1</clus>
<clus scale="   90.962">  7  8 -1 -1</clus>
<clus scale="   98.008">  1  5  2 -1</clus>
<clus scale="   27.439">  1  5  2 -1</clus>
</clustering>
</event>
<event>
 9    2  0.3791909E-005  0.1197452E+03  0.7546771E-02  0.1247754E+00
          2   -1    0    0  502    0  0.00000000000E+00  0.00000000000E+00  0.57140483003E+03  0.57140483003E+03  0.00000000000E+00 0. -1.
         -1   -1    0    0    0  501 -0.00000000000E+00 -0.00000000000E+00 -0.27471039193E+03  0.27471039193E+03  0.00000000000E+00 0.  1.
         24    2    1    2    0    0  0.28085770620E+02 -0.70838041067E+02 -0.25450949489E+03  0.27754216056E+03  0.80297754182E+02 0.  0.
         23    2    1    2    0    0 -0.20010979569E+02  0.34120511109E+02  0.37800830812E+03  0.39134410290E+03  0.93248470697E+02 0.  0.
        -13    1    3    3    0    0  0.32562283276E+01 -0.82731272296E+02 -0.20044489646E+03  0.21687144338E+03  0.00000000000E+00 0.  1.
         14    1    3    3    0    0  0.24829542292E+02  0.11893231229E+02 -0.54064598429E+02  0.60670717177E+02  0.00000000000E+00 0. -1.
        -13    1    4    4    0    0  0.31202272608E+02 -0.32245380295E+00  0.62506325778E+02  0.69862196893E+02  0.00000000000E+00 0.  1.
         13    1    4    4    0    0 -0.51213252176E+02  0.34442964912E+02  0.31550198234E+03  0.32148190601E+03  0.00000000000E+00 0. -1.
         21    1    1    2  502  501 -0.80747910510E+01  0.36717529958E+02  0.17319562486E+03  0.17722895849E+03  0.00000000000E+00 0. -1.
<scales pt_clust_5="13000.00000" pt_clust_6="13000.00000" pt_clust_7="13000.00000" pt_clust_8="13000.00000" pt_clust_9="37.59494"></scales>
<clustering>
<clus scale="   37.595">  1  9  2 -1</clus>
<clus scale="   80.298">  5  6 -1 -1</clus>
<clus scale="   93.248">  7  8 -1 -1</clus>
<clus scale="  109.961">  2  5  1 -1</clus>
<clus scale="   37.595">  1  5  2 -1</clus>
</clustering>
</event>
<event>
 9    2  0.3791909E-005  0.1230841E+03  0.7546771E-02  0.1247426E+00
         -1   -1    0    0    0  501 -0.00000000000E+00  0.00000000000E+00  0.74114121555E+02  0.74114121555E+02  0.00000000000E+00 0.  1.
          2   -1    0    0  502    0  0.00000000000E+00 -0.00000000000E+00 -0.70271472328E+03  0.70271472328E+03  0.00000000000E+00 0. -1.
         24    2    1    2    0    0  0.48411694556E+02  0.16797321062E+02  0.28652477155E+01  0.10196255322E+03  0.88103975224E+02 0.  0.
         23    2    1    2    0    0  0.49993137869E+01  0.74699470268E+02 -0.44680906081E+03  0.46197540824E+03  0.90431946798E+02 0.  0.
        -11    1    3    3    0    0  0.52584547664E+02  0.44968187205E+02  0.15342689826E+02  0.70870802483E+02  0.00000000000E+00 0.  1.
         12    1    3    3    0    0 -0.41728531080E+01 -0.28170866144E+02 -0.12477442110E+02  0.31091750738E+02  0.00000000000E+00 0. -1.
        -11    1    4    4    0    0  0.43707402618E+02  0.38637497895E+02 -0.15943931025E+03  0.16977657948E+03  0.00000000000E+00 0.  1.
         11    1    4    4    0    0 -0.38708088831E+02  0.36061972373E+02 -0.28736975056E+03  0.29219882876E+03  0.00000000000E+00 0. -1.
         21    1    1    2  502  501 -0.53411008343E+02 -0.91496791329E+02 -0.18465678863E+03  0.21289088337E+03  0.00000000000E+00 0.  1.
<scales pt_clust_5="13000.00000" pt_clust_6="13000.00000" pt_clust_7="13000.00000" pt_clust_8="13000.00000" pt_clust_9="83.49709"></scales>
<clustering>
<clus scale="   88.104">  5  6 -1 -1</clus>
<clus scale="   90.432">  7  8 -1 -1</clus>
<clus scale="  101.922">  1  5  2 -1</clus>
<clus scale="   83.497">  1  9  2 -1</clus>
<clus scale="  123.084">  2  5  1 -1</clus>
</clustering>
</event>
<event>
 9    2  0.3791909E-005  0.9125146E+02  0.7546771E-02  0.1304282E+00
         -1   -1    0    0    0  501 -0.00000000000E+00  0.00000000000E+00  0.48243673458E+03  0.48243673458E+03  0.00000000000E+00 0.  1.
          2   -1    0    0  502    0  0.00000000000E+00 -0.00000000000E+00 -0.13241371540E+03  0.13241371540E+03  0.00000000000E+00 0. -1.
         24    2    1    2    0    0 -0.99089055055E+01 -0.18676767672E+02  0.44872392546E+03  0.45652402136E+03  0.81326580794E+02 0.  0.
         23    2    1    2    0    0  0.36256857912E+02  0.13605394740E+02 -0.73593267438E+02  0.12157963356E+03  0.88690313860E+02 0.  0.
        -11    1    3    3    0    0 -0.24585868132E+02 -0.46412717056E+02  0.26855806142E+03  0.27364582505E+03  0.00000000000E+00 0.  1.
         12    1    3    3    0    0  0.14676962626E+02  0.27735949384E+02  0.18016586404E+03  0.18287819631E+03  0.00000000000E+00 0. -1.
        -13    1    4    4    0    0 -0.12789587076E+02  0.16548224774E+02  0.11091003600E+02  0.23673352986E+02  0.00000000000E+00 0. -1.
         13    1    4    4    0    0  0.49046444988E+02 -0.29428300343E+01 -0.84684271037E+02  0.97906280573E+02  0.00000000000E+00 0.  1.
         21    1    1    2  502  501 -0.26347952407E+02  0.50713729323E+01 -0.25107638833E+02  0.36746795060E+02  0.00000000000E+00 0. -1.
<scales pt_clust_5="13000.00000" pt_clust_6="13000.00000" pt_clust_7="13000.00000" pt_clust_8="13000.00000" pt_clust_9="26.83158"></scales>
<clustering>
<clus scale="   26.832">  2  9  1 -1</clus>
<clus scale="   81.327">  5  6 -1 -1</clus>
<clus scale="   84.112">  1  5  2 -1</clus>
<clus scale="   88.690">  7  8 -1 -1</clus>
<clus scale="   26.832">  2  5  1 -1</clus>
</clustering>
</event>
<event>
 9    2  0.3791909E-005  0.1311140E+03  0.7546771E-02  0.1232581E+00
          2   -1    0    0  502    0  0.00000000000E+00  0.00000000000E+00  0.15736709719E+03  0.15736709719E+03  0.00000000000E+00 0. -1.
         -1   -1    0    0    0  501 -0.00000000000E+00 -0.00000000000E+00 -0.25665306179E+03  0.25665306179E+03  0.00000000000E+00 0.  1.
         24    2    1    2    0    0  0.87331442072E+02 -0.11275304092E+02 -0.18823339110E+03  0.21896722293E+03  0.68999434337E+02 0.  0.
         23    2    1    2    0    0 -0.11171820755E+03  0.35112923948E+00  0.69990941585E+02  0.16229014851E+03  0.94648186515E+02 0.  0.
        -13    1    3    3    0    0  0.84361161768E+02 -0.12462966438E+02 -0.19425488898E+03  0.21214875216E+03  0.00000000000E+00 0.  1.
         14    1    3    3    0    0  0.29702803037E+01  0.11876623458E+01  0.60214978876E+01  0.68184707773E+01  0.00000000000E+00 0. -1.
        -13    1    4    4    0    0 -0.12062806023E+03  0.19473787238E+02  0.70722776191E+02  0.14118097739E+03  0.00000000000E+00 0. -1.
         13    1    4    4    0    0  0.89098526793E+01 -0.19122657999E+02 -0.73183460595E+00  0.21109171125E+02  0.00000000000E+00 0.  1.
         21    1    1    2  502  501  0.24386765479E+02  0.10924174852E+02  0.18956484906E+02  0.32762787529E+02  0.00000000000E+00 0.  1.
<scales pt_clust_5="13000.00000" pt_clust_6="13000.00000" pt_clust_7="13000.00000" pt_clust_8="13000.00000" pt_clust_9="26.72175"></scales>
<clustering>
<clus scale="   26.722">  1  9  2 -1</clus>
<clus scale="   68.999">  5  6 -1 -1</clus>
<clus scale="   94.648">  7  8 -1 -1</clus>
<clus scale="  113.989">  2  5  1 -1</clus>
<clus scale="   26.722">  1  5  2 -1</clus>
</clustering>
</event>
<event>
 9    2  0.3791909E-005  0.1157442E+03  0.7546771E-02  0.1254385E+00
          2   -1    0    0  502    0  0.00000000000E+00  0.00000000000E+00  0.91193862332E+02  0.91193862332E+02  0.00000000000E+00 0. -1.
         -1   -1    0    0    0  501 -0.00000000000E+00 -0.00000000000E+00 -0.34420539441E+03  0.34420539441E+03  0.00000000000E+00 0.  1.
         23    2    1    2    0    0 -0.41359830295E+02  0.60674783504E+02 -0.28369988779E+03  0.30725691923E+03  0.92353252084E+02 0.  0.
         24    2    1    2    0    0  0.35120979260E+02 -0.34708408069E+02  0.35416778961E+02  0.10102160924E+03  0.80702295669E+02 0.  0.
        -13    1    4    4    0    0  0.16768534645E+01 -0.29199889419E+02 -0.20441980219E+02  0.35683608771E+02  0.00000000000E+00 0.  1.
         14    1    4    4    0    0  0.33444125795E+02 -0.55085186498E+01  0.55858759180E+02  0.65338000467E+02  0.00000000000E+00 0. -1.
        -13    1    3    3    0    0 -0.40182295085E+02 -0.12462333944E+02 -0.13729717550E+03  0.14359819291E+03  0.00000000000E+00 0.  1.
         13    1    3    3    0    0 -0.11775352102E+01  0.73137117448E+02 -0.14640271229E+03  0.16365872633E+03  0.00000000000E+00 0. -1.
         21    1    1    2  502  501  0.62388510354E+01 -0.25966375435E+02 -0.47284232501E+01  0.27120728270E+02  0.00000000000E+00 0. -1.
<scales pt_clust_5="13000.00000" pt_clust_6="13000.00000" pt_clust_7="13000.00000" pt_clust_8="13000.00000" pt_clust_9="26.70535"></scales>
<clustering>
<clus scale="   26.705">  1  9  2 -1</clus>
<clus scale="   80.702">  5  6 -1 -1</clus>
<clus scale="   92.353">  7  8 -1 -1</clus>
<clus scale="  106.679">  1  5  2 -1</clus>
<clus scale="   26.705">  1  5  2 -1</clus>
</clustering>
</event>
<event>
 9    2  0.3791909E-005  0.1231613E+03  0.7546771E-02  0.1242010E+00
          2   -1    0    0  502    0  0.00000000000E+00  0.00000000000E+00  0.36582181440E+03  0.36582181440E+03  0.00000000000E+00 0. -1.
         -1   -1    0    0    0  501 -0.00000000000E+00 -0.00000000000E+00 -0.13550097504E+03  0.13550097504E+03  0.00000000000E+00 0.  1.
         23    2    1    2    0    0 -0.14543396478E+03  0.62963623200E+02  0.99129420446E+01  0.18435774165E+03  0.93669923293E+02 0.  0.
         24    2    1    2    0    0  0.61626973487E+02 -0.28943249770E+02  0.19715879016E+03  0.22357597680E+03  0.80492442477E+02 0.  0.
        -13    1    4    4    0    0 -0.11898919315E+02 -0.25811559316E+02  0.83195361590E+02  0.87916375411E+02  0.00000000000E+00 0.  1.
         14    1    4    4    0    0  0.73525892802E+02 -0.31316904534E+01  0.11396342857E+03  0.13565960138E+03  0.00000000000E+00 0. -1.
        -13    1    3    3    0    0 -0.64275100462E+02  0.46574399381E+02  0.48489914163E+02  0.93014703099E+02  0.00000000000E+00 0. -1.
         13    1    3    3    0    0 -0.81158864313E+02  0.16389223819E+02 -0.38576972118E+02  0.91343038551E+02  0.00000000000E+00 0.  1.
         21    1    1    2  502  501  0.83806991289E+02 -0.34020373430E+02  0.23249107164E+02  0.93389070994E+02  0.00000000000E+00 0.  1.
<scales pt_clust_5="13000.00000" pt_clust_6="13000.00000" pt_clust_7="13000.00000" pt_clust_8="13000.00000" pt_clust_9="90.44887"></scales>
<clustering>
<clus scale="   80.492">  5  6 -1 -1</clus>
<clus scale="   90.449">  2  9  1 -1</clus>
<clus scale="   93.670">  7  8 -1 -1</clus>
<clus scale="  113.462">  1  5  2 -1</clus>
<clus scale="  113.462">  1  5  2 -1</clus>
</clustering>
</event>
<event>
 9    2  0.3791909E-005  0.1368943E+03  0.7546771E-02  0.1226156E+00
          4   -1    0    0  502    0  0.00000000000E+00  0.00000000000E+00  0.75062967080E+03  0.75062967080E+03  0.00000000000E+00 0. -1.
         -3   -1    0    0    0  501 -0.00000000000E+00 -0.00000000000E+00 -0.64156175936E+02  0.64156175936E+02  0.00000000000E+00 0.  1.
         23    2    1    2    0    0  0.55174271723E+02  0.83414335088E+02  0.66766813982E+02  0.15375623673E+03  0.95817646219E+02 0.  0.
         24    2    1    2    0    0 -0.76422268581E+02  0.29827149737E+02  0.32958587408E+03  0.34886748258E+03  0.79697239683E+02 0.  0.
        -13    1    4    4    0    0 -0.11571112752E+02  0.28090558137E+02  0.31343044133E+02  0.43650389715E+02  0.00000000000E+00 0.  1.
         14    1    4    4    0    0 -0.64851155830E+02  0.17365915994E+01  0.29824282995E+03  0.30521709287E+03  0.00000000000E+00 0. -1.
        -13    1    3    3    0    0  0.44131926030E+02  0.19597567546E+02 -0.13955881487E+02  0.50263885414E+02  0.00000000000E+00 0.  1.
         13    1    3    3    0    0  0.11042345694E+02  0.63816767543E+02  0.80722695469E+02  0.10349235132E+03  0.00000000000E+00 0. -1.
         21    1    1    2  502  501  0.21247996858E+02 -0.11324148483E+03  0.29012080680E+03  0.31216212742E+03  0.00000000000E+00 0. -1.
<scales pt_clust_5="13000.00000" pt_clust_6="13000.00000" pt_clust_7="13000.00000" pt_clust_8="13000.00000" pt_clust_9="97.77033"></scales>
<clustering>
<clus scale="   79.697">  5  6 -1 -1</clus>
<clus scale="   95.818">  7  8 -1 -1</clus>
<clus scale="  114.375">  1  5  2 -1</clus>
<clus scale="   97.770">  1  9  2 -1</clus>
<clus scale="  114.375">  1  5  2 -1</clus>
</clustering>
</event>
<event>
 9    2  0.3791909E-005  0.1001454E+03  0.7546771E-02  0.1286634E+00
          2   -1    0    0  502    0  0.00000000000E+00  0.00000000000E+00  0.96271436016E+02  0.96271436016E+02  0.00000000000E+00 0. -1.
         -1   -1    0    0    0  501 -0.00000000000E+00 -0.00000000000E+00 -0.18080532541E+03  0.18080532541E+03  0.00000000000E+00 0.  1.
         23    2    1    2    0    0 -0.28468163960E+02 -0.33280855733E+02 -0.11267566096E+03  0.15333095854E+03  0.94321400301E+02 0.  0.
         24    2    1    2    0    0  0.58316749764E+01  0.31990050180E+02  0.41756250159E+02  0.97299048082E+02  0.81646485452E+02 0.  0.
        -13    1    4    4    0    0  0.33744198319E+01 -0.24418485856E+02 -0.35527166670E+01  0.24905239538E+02  0.00000000000E+00 0.  1.
         14    1    4    4    0    0  0.24572551444E+01  0.56408536037E+02  0.45308966826E+02  0.72393808544E+02  0.00000000000E+00 0. -1.
        -13    1    3    3    0    0 -0.61902795575E+02 -0.96984539024E+01 -0.61333251869E+02  0.87680008513E+02  0.00000000000E+00 0. -1.
         13    1    3    3    0    0  0.33434631616E+02 -0.23582401830E+02 -0.51342409092E+02  0.65650950022E+02  0.00000000000E+00 0.  1.
         21    1    1    2  502  501  0.22636488983E+02  0.12908055525E+01 -0.13614478588E+02  0.26446754804E+02  0.00000000000E+00 0. -1.
<scales pt_clust_5="13000.00000" pt_clust_6="13000.00000" pt_clust_7="13000.00000" pt_clust_8="13000.00000" pt_clust_9="22.67326"></scales>
<clustering>
<clus scale="   22.673">  2  9  1 -1</clus>
<clus scale="   81.646">  5  6 -1 -1</clus>
<clus scale="   88.310">  1  5  2 -1</clus>
<clus scale="   94.321">  7  8 -1 -1</clus>
<clus scale="   88.310">  1  5  2 -1</clus>
</clustering>
</event>
<event>
 9    2  0.3791909E-005  0.1986347E+03  0.7546771E-02  0.1151894E+00
         -1   -1    0    0    0  501 -0.00000000000E+00  0.00000000000E+00  0.69095148963E+03  0.69095148963E+03  0.00000000000E+00 0.  1.
          2   -1    0    0  502    0  0.00000000000E+00 -0.00000000000E+00 -0.32890061796E+03  0.32890061796E+03  0.00000000000E+00 0. -1.
         23    2    1    2    0    0 -0.11746107861E+03 -0.13263483253E+03  0.61701488370E+03  0.64839020576E+03  0.91177784732E+02 0.  0.
         24    2    1    2    0    0  0.13922169995E+03  0.94487219470E+02 -0.26718660268E+03  0.32587509732E+03  0.80593932915E+02 0.  0.
        -13    1    4    4    0    0  0.34625493798E+02  0.53525467887E+02 -0.48766748326E+02  0.80262670498E+02  0.00000000000E+00 0.  1.
         14    1    4    4    0    0  0.10459620615E+03  0.40961751583E+02 -0.21841985435E+03  0.24561242682E+03  0.00000000000E+00 0. -1.
        -11    1    3    3    0    0 -0.63684854612E+02 -0.12836942497E+03  0.40439056057E+03  0.42902936432E+03  0.00000000000E+00 0.  1.
         11    1    3    3    0    0 -0.53776223996E+02 -0.42654075630E+01  0.21262432313E+03  0.21936084143E+03  0.00000000000E+00 0. -1.
         21    1    1    2  502  501 -0.21760621343E+02  0.38147613059E+02  0.12222590647E+02  0.45586804510E+02  0.00000000000E+00 0.  1.
<scales pt_clust_5="13000.00000" pt_clust_6="13000.00000" pt_clust_7="13000.00000" pt_clust_8="13000.00000" pt_clust_9="43.91771"></scales>
<clustering>
<clus scale="   43.918">  2  9  1 -1</clus>
<clus scale="   80.594">  5  6 -1 -1</clus>
<clus scale="   91.178">  7  8 -1 -1</clus>
<clus scale="  194.005">  2  5  1 -1</clus>
<clus scale="   43.918">  2  5  1 -1</clus>
</clustering>
</event>
<event>
 9    2  0.3791909E-005  0.1787888E+03  0.7546771E-02  0.1170509E+00
         -1   -1    0    0    0  501 -0.00000000000E+00  0.00000000000E+00  0.21838881335E+03  0.21838881335E+03  0.00000000000E+00 0.  1.
          2   -1    0    0  502    0  0.00000000000E+00 -0.00000000000E+00 -0.37914218057E+03  0.37914218057E+03  0.00000000000E+00 0. -1.
         24    2    1    2    0    0  0.55689456415E+02 -0.12307309446E+03  0.10540897093E+03  0.18809514324E+03  0.77591427511E+02 0.  0.
         23    2    1    2    0    0 -0.10678518237E+03  0.11725531703E+03 -0.29761635807E+03  0.34915338960E+03  0.90447268249E+02 0.  0.
        -11    1    3    3    0    0  0.42108553214E+02 -0.12278790837E+03  0.64419266803E+02  0.14491322449E+03  0.00000000000E+00 0.  1.
         12    1    3    3    0    0  0.13580903202E+02 -0.28518608762E+00  0.40989704126E+02  0.43181918753E+02  0.00000000000E+00 0. -1.
        -11    1    4    4    0    0 -0.21455401128E+02 -0.18108458387E+01 -0.52801857603E+01  0.22169658587E+02  0.00000000000E+00 0.  1.
         11    1    4    4    0    0 -0.85329781239E+02  0.11906616287E+03 -0.29233617231E+03  0.32698373101E+03  0.00000000000E+00 0. -1.
         21    1    1    2  502  501  0.51095725952E+02  0.58177774277E+01  0.31454019922E+02  0.60282461081E+02  0.00000000000E+00 0.  1.
<scales pt_clust_5="13000.00000" pt_clust_6="13000.00000" pt_clust_7="13000.00000" pt_clust_8="13000.00000" pt_clust_9="51.42587"></scales>
<clustering>
<clus scale="   51.426">  1  9  2 -1</clus>
<clus scale="   77.591">  5  6 -1 -1</clus>
<clus scale="   90.447">  7  8 -1 -1</clus>
<clus scale="  172.642">  1  5  2 -1</clus>
<clus scale="  178.789">  2  5  1 -1</clus>
</clustering>
</event>
<event>
 9    2  0.3791909E-005  0.1892995E+03  0.7546771E-02  0.1160191E+00
         -1   -1    0    0    0  501 -0.00000000000E+00  0.00000000000E+00  0.13859984930E+03  0.13859984930E+03  0.00000000000E+00 0.  1.
          2   -1    0    0  502    0  0.00000000000E+00 -0.00000000000E+00 -0.46976931667E+03  0.46976931667E+03  0.00000000000E+00 0. -1.
         24    2    1    2    0    0 -0.24497645076E+02 -0.14587748131E+03  0.35824691876E+02  0.17207949343E+03  0.80296757972E+02 0.  0.
         23    2    1    2    0    0  0.17203075048E+02  0.16955072033E+03 -0.36306732084E+03  0.41120874239E+03  0.90726830655E+02 0.  0.
        -11    1    3    3    0    0 -0.53344711752E+02 -0.10547372146E+03  0.19332610026E+02  0.11976691530E+03  0.00000000000E+00 0.  1.
         12    1    3    3    0    0  0.28847066676E+02 -0.40403759852E+02  0.16492081850E+02  0.52312578122E+02  0.00000000000E+00 0. -1.
        -11    1    4    4    0    0 -0.33088114504E+02  0.30328066280E+02 -0.77673263166E+02  0.89709256694E+02  0.00000000000E+00 0. -1.
         11    1    4    4    0    0  0.50291189552E+02  0.13922265405E+03 -0.28539405767E+03  0.32149948570E+03  0.00000000000E+00 0.  1.
         21    1    1    2  502  501  0.72945700278E+01 -0.23673239016E+02 -0.39268384047E+01  0.25080930151E+02  0.00000000000E+00 0.  1.
<scales pt_clust_5="13000.00000" pt_clust_6="13000.00000" pt_clust_7="13000.00000" pt_clust_8="13000.00000" pt_clust_9="24.77162"></scales>
<clustering>
<clus scale="   24.772">  1  9  2 -1</clus>
<clus scale="   80.297">  5  6 -1 -1</clus>
<clus scale="   90.727">  7  8 -1 -1</clus>
<clus scale="  184.528">  1  5  2 -1</clus>
<clus scale="  189.299">  2  5  1 -1</clus>
</clustering>
</event>
<event>
 9    2  0.3791909E-005  0.1884125E+03  0.7546771E-02  0.1180117E+00
          2   -1    0    0  502    0  0.00000000000E+00  0.00000000000E+00  0.34353916465E+03  0.34353916465E+03  0.00000000000E+00 0. -1.
         -1   -1    0    0    0  501 -0.00000000000E+00 -0.00000000000E+00 -0.43466890820E+03  0.43466890820E+03  0.00000000000E+00 0.  1.
         24    2    1    2    0    0 -0.79658587516E+02  0.25267059601E+02 -0.20310838153E+02  0.12037795565E+03  0.84228304003E+02 0.  0.
         23    2    1    2    0    0 -0.39333327870E+02  0.92955104389E+02 -0.32495861920E+03  0.35332634035E+03  0.95150598931E+02 0.  0.
        -13    1    3    3    0    0 -0.41227755146E+02  0.52392367464E+02 -0.28722193056E+02  0.72592371065E+02  0.00000000000E+00 0.  1.
         14    1    3    3    0    0 -0.38430832369E+02 -0.27125307863E+02  0.84113549033E+01  0.47785584590E+02  0.00000000000E+00 0. -1.
        -11    1    4    4    0    0 -0.59513117823E+02  0.54763516699E+02 -0.27798774804E+03  0.28951345740E+03  0.00000000000E+00 0.  1.
         11    1    4    4    0    0  0.20179789953E+02  0.38191587689E+02 -0.46970871164E+02  0.63812882953E+02  0.00000000000E+00 0. -1.
         21    1    1    2  502  501  0.11899191539E+03 -0.11822216399E+03  0.25413971380E+03  0.30450377685E+03  0.00000000000E+00 0. -1.
<scales pt_clust_5="13000.00000" pt_clust_6="13000.00000" pt_clust_7="13000.00000" pt_clust_8="13000.00000" pt_clust_9="162.62118"></scales>
<clustering>
<clus scale="   84.228">  5  6 -1 -1</clus>
<clus scale="   95.151">  7  8 -1 -1</clus>
<clus scale="  118.652">  2  5  1 -1</clus>
<clus scale="  162.621">  1  9  2 -1</clus>
<clus scale="  162.621">  1  5  2 -1</clus>
</clustering>
</event>
<event>
 9    2  0.3791909E-005  0.1176231E+03  0.7546771E-02  0.1250831E+00
         -1   -1    0    0    0  501 -0.00000000000E+00  0.00000000000E+00  0.14887577925E+03  0.14887577925E+03  0.00000000000E+00 0.  1.
          2   -1    0    0  502    0  0.00000000000E+00 -0.00000000000E+00 -0.25334506602E+03  0.25334506602E+03  0.00000000000E+00 0. -1.
         23    2    1    2    0    0 -0.84510652727E+02  0.33192251644E+01  0.88584996804E+02  0.15313378546E+03  0.91921634624E+02 0.  0.
         24    2    1    2    0    0  0.19717995013E+02 -0.19345683371E+02 -0.13945383318E+03  0.16348364785E+03  0.80724697160E+02 0.  0.
        -13    1    4    4    0    0 -0.14139953494E+02  0.21523439087E+02 -0.78736325443E+02  0.82840845355E+02  0.00000000000E+00 0.  1.
         14    1    4    4    0    0  0.33857948507E+02 -0.40869122458E+02 -0.60717507738E+02  0.80642802490E+02  0.00000000000E+00 0. -1.
        -11    1    3    3    0    0 -0.11916606510E+02 -0.21793314405E+02  0.69753890066E+02  0.74044305945E+02  0.00000000000E+00 0. -1.
         11    1    3    3    0    0 -0.72594046217E+02  0.25112539570E+02  0.18831106738E+02  0.79089479520E+02  0.00000000000E+00 0.  1.
         21    1    1    2  502  501  0.64792657714E+02  0.16026458206E+02 -0.53600450400E+02  0.85603411961E+02  0.00000000000E+00 0. -1.
<scales pt_clust_5="13000.00000" pt_clust_6="13000.00000" pt_clust_7="13000.00000" pt_clust_8="13000.00000" pt_clust_9="66.74531"></scales>
<clustering>
<clus scale="   66.745">  2  9  1 -1</clus>
<clus scale="   80.725">  5  6 -1 -1</clus>
<clus scale="   91.922">  7  8 -1 -1</clus>
<clus scale="  109.097">  2  5  1 -1</clus>
<clus scale="   66.745">  2  5  1 -1</clus>
</clustering>
</event>
<event>
 9    2  0.3791909E-005  0.1312726E+03  0.7546771E-02  0.1228470E+00
         -1   -1    0    0    0  501 -0.00000000000E+00  0.00000000000E+00  0.17313174002E+03  0.17313174002E+03  0.00000000000E+00 0.  1.
          2   -1    0    0  502    0  0.00000000000E+00 -0.00000000000E+00 -0.20297037152E+03  0.20297037152E+03  0.00000000000E+00 0. -1.
         23    2    1    2    0    0 -0.97002004101E+02  0.11514889959E+02  0.10885134900E+03  0.17315079872E+03  0.92685497400E+02 0.  0.
         24    2    1    2    0    0  0.72780423066E+02  0.11094933491E+02 -0.12679122811E+03  0.16774521373E+03  0.81500636036E+02 0.  0.
        -11    1    4    4    0    0  0.11644085180E+02  0.38771818787E+02 -0.31999016890E+02  0.51602090400E+02  0.00000000000E+00 0.  1.
         12    1    4    4    0    0  0.61136337886E+02 -0.27676885296E+02 -0.94792211221E+02  0.11614312333E+03  0.00000000000E+00 0. -1.
        -13    1    3    3    0    0 -0.64099032968E+02  0.51914389081E+02  0.63996173462E+02  0.10439971283E+03  0.00000000000E+00 0.  1.
         13    1    3    3    0    0 -0.32902971133E+02 -0.40399499123E+02  0.44855175539E+02  0.68751085892E+02  0.00000000000E+00 0. -1.
         21    1    1    2  502  501  0.24221581035E+02 -0.22609823449E+02 -0.11898752390E+02  0.35206099083E+02  0.00000000000E+00 0.  1.
<scales pt_clust_5="13000.00000" pt_clust_6="13000.00000" pt_clust_7="13000.00000" pt_clust_8="13000.00000" pt_clust_9="33.13441"></scales>
<clustering>
<clus scale="   33.134">  2  9  1 -1</clus>
<clus scale="   81.501">  5  6 -1 -1</clus>
<clus scale="   92.685">  7  8 -1 -1</clus>
<clus scale="  123.630">  2  5  1 -1</clus>
<clus scale="   33.134">  2  5  1 -1</clus>
</clustering>
</event>
<event>
 9    2  0.3791909E-005  0.1082989E+03  0.7546771E-02  0.1267247E+00
          2   -1    0    0  502    0  0.00000000000E+00  0.00000000000E+00  0.68103909745E+03  0.68103909745E+03  0.00000000000E+00 0. -1.
         -1   -1    0    0    0  501 -0.00000000000E+00 -0.00000000000E+00 -0.69825482515E+02  0.69825482515E+02  0.00000000000E+00 0.  1.
         23    2    1    2    0    0 -0.92452027414E+01 -0.64694115218E+02  0.32457231074E+01  0.11427648456E+03  0.93689796065E+02 0.  0.
         24    2    1    2    0    0 -0.46522463891E+02  0.14522544717E+02  0.21331993894E+03  0.23487398581E+03  0.85353083783E+02 0.  0.
        -11    1    4    4    0    0 -0.17696120181E+02 -0.20070599451E+02  0.13362064046E+02  0.29908633994E+02  0.00000000000E+00 0.  1.
         12    1    4    4    0    0 -0.28826343710E+02  0.34593144168E+02  0.19995787489E+03  0.20496535182E+03  0.00000000000E+00 0. -1.
        -11    1    3    3    0    0  0.16432936620E+02 -0.61987641184E+02  0.35231567097E+02  0.73169477144E+02  0.00000000000E+00 0. -1.
         11    1    3    3    0    0 -0.25678139361E+02 -0.27064740346E+01 -0.31985843989E+02  0.41107007413E+02  0.00000000000E+00 0.  1.
         21    1    1    2  502  501  0.55767666633E+02  0.50171570501E+02  0.39464795289E+03  0.40171410959E+03  0.00000000000E+00 0. -1.
<scales pt_clust_5="13000.00000" pt_clust_6="13000.00000" pt_clust_7="13000.00000" pt_clust_8="13000.00000" pt_clust_9="75.01479"></scales>
<clustering>
<clus scale="   75.015">  1  9  2 -1</clus>
<clus scale="   85.353">  5  6 -1 -1</clus>
<clus scale="   93.690">  7  8 -1 -1</clus>
<clus scale="  101.173">  1  5  2 -1</clus>
<clus scale="   75.015">  1  5  2 -1</clus>
</clustering>
</event>
<event>
 9    2  0.3791909E-005  0.1408938E+03  0.7546771E-02  0.1215092E+00
          2   -1    0    0  502    0  0.00000000000E+00  0.00000000000E+00  0.56488781545E+03  0.56488781545E+03  0.00000000000E+00 0. -1.
         -1   -1    0    0    0  501 -0.00000000000E+00 -0.00000000000E+00 -0.10179831838E+03  0.10179831838E+03  0.00000000000E+00 0.  1.
         24    2    1    2    0    0 -0.10438717193E+03 -0.20656768915E+02 -0.15818129764E+02  0.13426255653E+03  0.80329553037E+02 0.  0.
         23    2    1    2    0    0  0.86231352269E+02  0.68564997894E+02  0.18899903341E+03  0.23802278803E+03  0.93793432276E+02 0.  0.
        -11    1    3    3    0    0 -0.88893879564E+02 -0.26864547350E+02 -0.43022404757E+02  0.10234624096E+03  0.00000000000E+00 0.  1.
         12    1    3    3    0    0 -0.15493292366E+02  0.62077784351E+01  0.27204274993E+02  0.31916315566E+02  0.00000000000E+00 0. -1.
        -11    1    4    4    0    0  0.47869119414E+02  0.67743786732E+02  0.57220050384E+02  0.10077106430E+03  0.00000000000E+00 0.  1.
         11    1    4    4    0    0  0.38362232855E+02  0.82121116187E+00  0.13177898303E+03  0.13725172373E+03  0.00000000000E+00 0. -1.
         21    1    1    2  502  501  0.18155819661E+02 -0.47908228978E+02  0.28990859342E+03  0.29440078928E+03  0.00000000000E+00 0. -1.
<scales pt_clust_5="13000.00000" pt_clust_6="13000.00000" pt_clust_7="13000.00000" pt_clust_8="13000.00000" pt_clust_9="51.23312"></scales>
<clustering>
<clus scale="   51.233">  1  9  2 -1</clus>
<clus scale="   80.330">  5  6 -1 -1</clus>
<clus scale="   93.793">  7  8 -1 -1</clus>
<clus scale="  132.313">  2  5  1 -1</clus>
<clus scale="   51.233">  1  5  2 -1</clus>
</clustering>
</event>
<event>
 9    2  0.3791909E-005  0.1256699E+03  0.7546771E-02  0.1251283E+00
          2   -1    0    0  502    0  0.00000000000E+00  0.00000000000E+00  0.11721994862E+04  0.11721994862E+04  0.00000000000E+00 0. -1.
         -1   -1    0    0    0  501 -0.00000000000E+00 -0.00000000000E+00 -0.44404455806E+02  0.44404455806E+02  0.00000000000E+00 0.  1.
         24    2    1    2    0    0  0.25556012981E+02  0.30232989231E+02  0.27035426405E+02  0.92680871650E+02  0.79320150350E+02 0.  0.
         23    2    1    2    0    0 -0.30530401213E+01  0.64252847283E+02  0.35454700839E+03  0.37141579802E+03  0.90046457024E+02 0.  0.
        -11    1    3    3    0    0 -0.26795224554E+02  0.22672984071E+02  0.16333741868E+02  0.38714847140E+02  0.00000000000E+00 0.  1.
         12    1    3    3    0    0  0.52351237535E+02  0.75600051600E+01  0.10701684536E+02  0.53966024510E+02  0.00000000000E+00 0. -1.
        -11    1    4    4    0    0  0.40688620710E+02  0.31618470742E+02  0.22532909289E+03  0.23114603966E+03  0.00000000000E+00 0.  1.
         11    1    4    4    0    0 -0.43741660831E+02  0.32634376541E+02  0.12921791550E+03  0.14026975836E+03  0.00000000000E+00 0. -1.
         21    1    1    2  502  501 -0.22502972860E+02 -0.94485836515E+02  0.74621259562E+03  0.75250727236E+03  0.00000000000E+00 0. -1.
<scales pt_clust_5="13000.00000" pt_clust_6="13000.00000" pt_clust_7="13000.00000" pt_clust_8="13000.00000" pt_clust_9="87.66168"></scales>
<clustering>
<clus scale="   79.320">  5  6 -1 -1</clus>
<clus scale="   88.650">  2  5  1 -1</clus>
<clus scale="   87.662">  1  9  2 -1</clus>
<clus scale="   90.046">  7  8 -1 -1</clus>
<clus scale="   87.662">  1  5  2 -1</clus>
</clustering>
</event>
<event>
 9    2  0.3791909E-005  0.1029410E+03  0.7546771E-02  0.1280116E+00
          2   -1    0    0  502    0  0.00000000000E+00  0.00000000000E+00  0.82042808772E+02  0.82042808772E+02  0.00000000000E+00 0. -1.
         -1   -1    0    0    0  501 -0.00000000000E+00 -0.00000000000E+00 -0.49407389804E+03  0.49407389804E+03  0.00000000000E+00 0.  1.
         24    2    1    2    0    0 -0.16018542337E+02 -0.22738849182E+02 -0.39404496045E+03  0.40268988484E+03  0.78192477522E+02 0.  0.
         23    2    1    2    0    0  0.58062792626E+01  0.50301349914E+02  0.37575943100E+02  0.11056884237E+03  0.90827191524E+02 0.  0.
        -11    1    3    3    0    0 -0.13910823766E+02 -0.48764266211E+02 -0.17830692235E+03  0.18537751545E+03  0.00000000000E+00 0.  1.
         12    1    3    3    0    0 -0.21077185714E+01  0.26025417029E+02 -0.21573803810E+03  0.21731236939E+03  0.00000000000E+00 0. -1.
        -11    1    4    4    0    0 -0.38694465993E+02  0.94234927630E+01  0.29595287080E+02  0.49617990000E+02  0.00000000000E+00 0.  1.
         11    1    4    4    0    0  0.44500745255E+02  0.40877857151E+02  0.79806560201E+01  0.60950852365E+02  0.00000000000E+00 0. -1.
         21    1    1    2  502  501  0.10212263074E+02 -0.27562500732E+02 -0.55562071925E+02  0.62857979607E+02  0.00000000000E+00 0.  1.
<scales pt_clust_5="13000.00000" pt_clust_6="13000.00000" pt_clust_7="13000.00000" pt_clust_8="13000.00000" pt_clust_9="29.39357"></scales>
<clustering>
<clus scale="   29.394">  2  9  1 -1</clus>
<clus scale="   78.192">  5  6 -1 -1</clus>
<clus scale="   90.827">  7  8 -1 -1</clus>
<clus scale="   91.985">  2  5  1 -1</clus>
<clus scale="  102.941">  1  5  2 -1</clus>
</clustering>
</event>
<event>
 9    2  0.3791909E-005  0.1523976E+03  0.7546771E-02  0.1198956E+00
          2   -1    0    0  502    0  0.00000000000E+00  0.00000000000E+00  0.70926339031E+03  0.70926339031E+03  0.00000000000E+00 0. -1.
         -1   -1    0    0    0  501 -0.00000000000E+00 -0.00000000000E+00 -0.82355539484E+02  0.82355539484E+02  0.00000000000E+00 0.  1.
         24    2    1    2    0    0  0.96649773478E+02 -0.84984172144E+02  0.12980413936E+02  0.15348953319E+03  0.82626009373E+02 0.  0.
         23    2    1    2    0    0 -0.70893517723E+02  0.61167673052E+02  0.38280279828E+03  0.40435769405E+03  0.90552676873E+02 0.  0.
        -11    1    3    3    0    0  0.90776779108E+02 -0.81056428614E+02 -0.16826741451E+02  0.12285645068E+03  0.00000000000E+00 0.  1.
         12    1    3    3    0    0  0.58729943698E+01 -0.39277435301E+01  0.29807155387E+02  0.30633082515E+02  0.00000000000E+00 0. -1.
        -11    1    4    4    0    0  0.19227055910E+02  0.25598485768E+02  0.12231496508E+03  0.12643540974E+03  0.00000000000E+00 0.  1.
         11    1    4    4    0    0 -0.90120573633E+02  0.35569187284E+02  0.26048783320E+03  0.27792228432E+03  0.00000000000E+00 0. -1.
         21    1    1    2  502  501 -0.25756255755E+02  0.23816499091E+02  0.23112463861E+03  0.23377170255E+03  0.00000000000E+00 0. -1.
<scales pt_clust_5="13000.00000" pt_clust_6="13000.00000" pt_clust_7="13000.00000" pt_clust_8="13000.00000" pt_clust_9="35.08006"></scales>
<clustering>
<clus scale="   35.080">  1  9  2 -1</clus>
<clus scale="   82.626">  5  6 -1 -1</clus>
<clus scale="   90.553">  7  8 -1 -1</clus>
<clus scale="  147.825">  2  5  1 -1</clus>
<clus scale="   35.080">  1  5  2 -1</clus>
</clustering>
</event>
<event>
 9    2  0.3791909E-005  0.1426843E+03  0.7546771E-02  0.1226741E+00
          2   -1    0    0  502    0  0.00000000000E+00  0.00000000000E+00  0.36850765163E+03  0.36850765163E+03  0.00000000000E+00 0. -1.
         -1   -1    0    0    0  501 -0.00000000000E+00 -0.00000000000E+00 -0.97450305512E+02  0.97450305512E+02  0.00000000000E+00 0.  1.
         23    2    1    2    0    0 -0.53899094507E+00 -0.79764125886E+02  0.70195911449E+02  0.13925558217E+03  0.90011359790E+02 0.  0.
         24    2    1    2    0    0 -0.26901353257E+02 -0.62935835652E+02  0.13313172573E+03  0.16637906106E+03  0.72617720611E+02 0.  0.
        -13    1    4    4    0    0 -0.23089892267E+02  0.10942195314E+02  0.29083154188E+02  0.38713106575E+02  0.00000000000E+00 0.  1.
         14    1    4    4    0    0 -0.38114609905E+01 -0.73878030966E+02  0.10404857154E+03  0.12766595448E+03  0.00000000000E+00 0. -1.
        -13    1    3    3    0    0 -0.44752934300E+02 -0.48135887613E+02  0.42213855552E+02  0.78114649108E+02  0.00000000000E+00 0. -1.
         13    1    3    3    0    0  0.44213943355E+02 -0.31628238273E+02  0.27982055898E+02  0.61140933060E+02  0.00000000000E+00 0.  1.
         21    1    1    2  502  501  0.27440344202E+02  0.14269996154E+03  0.67729708944E+02  0.16032331392E+03  0.00000000000E+00 0.  1.
<scales pt_clust_5="13000.00000" pt_clust_6="13000.00000" pt_clust_7="13000.00000" pt_clust_8="13000.00000" pt_clust_9="110.71022"></scales>
<clustering>
<clus scale="   72.618">  5  6 -1 -1</clus>
<clus scale="   90.011">  7  8 -1 -1</clus>
<clus scale="   99.789">  1  5  2 -1</clus>
<clus scale="  110.710">  1  9  2 -1</clus>
<clus scale="   99.789">  1  5  2 -1</clus>
</clustering>
</event>
<event>
 9    2  0.3791909E-005  0.2331548E+03  0.7546771E-02  0.1124442E+00
          2   -1    0    0  502    0  0.00000000000E+00  0.00000000000E+00  0.69826185149E+03  0.69826185149E+03  0.00000000000E+00 0. -1.
         -1   -1    0    0    0  501 -0.00000000000E+00 -0.00000000000E+00 -0.11172617539E+03  0.11172617539E+03  0.00000000000E+00 0.  1.
         23    2    1    2    0    0  0.25317358611E+02  0.21644768319E+03  0.10656916209E+03  0.25607536363E+03  0.82018518322E+02 0.  0.
         24    2    1    2    0    0 -0.48251066267E+02 -0.21433914889E+03  0.34609896901E+03  0.41807849792E+03  0.82071297869E+02 0.  0.
        -13    1    4    4    0    0 -0.31139510326E+02 -0.15031790621E+03  0.16563570433E+03  0.22583252330E+03  0.00000000000E+00 0.  1.
         14    1    4    4    0    0 -0.17111555942E+02 -0.64021242679E+02  0.18046326467E+03  0.19224597462E+03  0.00000000000E+00 0. -1.
        -13    1    3    3    0    0  0.43634921331E+02  0.14614362637E+03  0.40330847264E+02  0.15776103172E+03  0.00000000000E+00 0. -1.
         13    1    3    3    0    0 -0.18317562720E+02  0.70304056812E+02  0.66238314822E+02  0.98314331909E+02  0.00000000000E+00 0.  1.
         21    1    1    2  502  501  0.22933707656E+02 -0.21085342990E+01  0.13386754501E+03  0.13583416533E+03  0.00000000000E+00 0. -1.
<scales pt_clust_5="13000.00000" pt_clust_6="13000.00000" pt_clust_7="13000.00000" pt_clust_8="13000.00000" pt_clust_9="23.03043"></scales>
<clustering>
<clus scale="   23.030">  1  9  2 -1</clus>
<clus scale="   82.019">  7  8 -1 -1</clus>
<clus scale="   82.071">  5  6 -1 -1</clus>
<clus scale="  233.136">  2  7  1 -1</clus>
<clus scale="   23.030">  1  5  2 -1</clus>
</clustering>
</event>
<event>
 9    2  0.3791909E-005  0.1797977E+03  0.7546771E-02  0.1169750E+00
         -1   -1    0    0    0  501 -0.00000000000E+00  0.00000000000E+00  0.43210959566E+02  0.43210959566E+02  0.00000000000E+00 0.  1.
          2   -1    0    0  502    0  0.00000000000E+00 -0.00000000000E+00 -0.11638771655E+04  0.11638771655E+04  0.00000000000E+00 0. -1.
         24    2    1    2    0    0 -0.11560241489E+03 -0.10375266258E+03 -0.21037210637E+03  0.27256555076E+03  0.76857159739E+02 0.  0.
         23    2    1    2    0    0  0.13035481061E+03  0.82662753255E+02 -0.69970678913E+03  0.72236830785E+03  0.91656281924E+02 0.  0.
        -13    1    3    3    0    0 -0.76145853315E+02 -0.10915502177E+03 -0.15393467358E+03  0.20349175286E+03  0.00000000000E+00 0.  1.
         14    1    3    3    0    0 -0.39456561574E+02  0.54023591852E+01 -0.56437432795E+02  0.69073797901E+02  0.00000000000E+00 0. -1.
        -11    1    4    4    0    0  0.72843365233E+02  0.93891813103E+02 -0.41418755809E+03  0.43089808737E+03  0.00000000000E+00 0. -1.
         11    1    4    4    0    0  0.57511445376E+02 -0.11229059847E+02 -0.28551923104E+03  0.29147022048E+03  0.00000000000E+00 0.  1.
         21    1    1    2  502  501 -0.14752395720E+02  0.21089909328E+02 -0.21058731039E+03  0.21215426640E+03  0.00000000000E+00 0.  1.
<scales pt_clust_5="13000.00000" pt_clust_6="13000.00000" pt_clust_7="13000.00000" pt_clust_8="13000.00000" pt_clust_9="25.73747"></scales>
<clustering>
<clus scale="   25.737">  2  9  1 -1</clus>
<clus scale="   76.857">  5  6 -1 -1</clus>
<clus scale="   91.656">  7  8 -1 -1</clus>
<clus scale="  172.723">  1  5  2 -1</clus>
<clus scale="   25.737">  2  5  1 -1</clus>
</clustering>
</event>
<event>
 9    2  0.3791909E-005  0.1548764E+03  0.7546771E-02  0.1196566E+00
         -1   -1    0    0    0  501 -0.00000000000E+00  0.00000000000E+00  0.43776231827E+03  0.43776231827E+03  0.00000000000E+00 0.  1.
          2   -1    0    0  502    0  0.00000000000E+00 -0.00000000000E+00 -0.82066129112E+02  0.82066129112E+02  0.00000000000E+00 0. -1.
         23    2    1    2    0    0 -0.26830145837E+02  0.11861522132E+03  0.21035669617E+03  0.26014563456E+03  0.92932147856E+02 0.  0.
         24    2    1    2    0    0  0.79819415346E+02 -0.10754079290E+03  0.12916596508E+03  0.20318424068E+03  0.81632272556E+02 0.  0.
        -11    1    4    4    0    0  0.94822413616E+02 -0.80297160531E+02  0.91340710281E+02  0.15421429722E+03  0.00000000000E+00 0.  1.
         12    1    4    4    0    0 -0.15002998270E+02 -0.27243632370E+02  0.37825254798E+02  0.48969943459E+02  0.00000000000E+00 0. -1.
        -13    1    3    3    0    0 -0.34337531820E+02  0.29791765825E+02  0.19436324528E+02  0.49440733344E+02  0.00000000000E+00 0. -1.
         13    1    3    3    0    0  0.75073859831E+01  0.88823455496E+02  0.19092037164E+03  0.21070490122E+03  0.00000000000E+00 0.  1.
         21    1    1    2  502  501 -0.52989269509E+02 -0.11074428419E+02  0.16173527905E+02  0.56498572131E+02  0.00000000000E+00 0.  1.
<scales pt_clust_5="13000.00000" pt_clust_6="13000.00000" pt_clust_7="13000.00000" pt_clust_8="13000.00000" pt_clust_9="54.13414"></scales>
<clustering>
<clus scale="   54.134">  2  9  1 -1</clus>
<clus scale="   81.632">  5  6 -1 -1</clus>
<clus scale="   92.932">  7  8 -1 -1</clus>
<clus scale="  148.372">  2  5  1 -1</clus>
<clus scale="   54.134">  2  5  1 -1</clus>
</clustering>
</event>
<event>
 9    2  0.3791909E-005  0.1199935E+03  0.7546771E-02  0.1246535E+00
         -1   -1    0    0    0  501 -0.00000000000E+00  0.00000000000E+00  0.29939455490E+02  0.29939455490E+02  0.00000000000E+00 0.  1.
          2   -1    0    0  502    0  0.00000000000E+00 -0.00000000000E+00 -0.60213894078E+03  0.60213894078E+03  0.00000000000E+00 0. -1.
         23    2    1    2    0    0  0.79456834830E+02 -0.26907789920E+02 -0.19777990868E+03  0.23447147947E+03  0.93928508179E+02 0.  0.
         24    2    1    2    0    0 -0.70350575034E+02  0.89014750424E+01 -0.34474521998E+03  0.36172211800E+03  0.83457679638E+02 0.  0.
        -11    1    4    4    0    0 -0.48124448809E+02 -0.95607956243E+01 -0.70122097565E+02  0.85583175643E+02  0.00000000000E+00 0.  1.
         12    1    4    4    0    0 -0.22226126225E+02  0.18462270667E+02 -0.27462312241E+03  0.27613894236E+03  0.00000000000E+00 0. -1.
        -13    1    3    3    0    0  0.55388802575E+02  0.30703724104E+02 -0.10567935439E+03  0.12320212688E+03  0.00000000000E+00 0.  1.
         13    1    3    3    0    0  0.24068032255E+02 -0.57611514024E+02 -0.92100554292E+02  0.11126935259E+03  0.00000000000E+00 0. -1.
         21    1    1    2  502  501 -0.91062597959E+01  0.18006314878E+02 -0.29674356634E+02  0.35884798795E+02  0.00000000000E+00 0.  1.
<scales pt_clust_5="13000.00000" pt_clust_6="13000.00000" pt_clust_7="13000.00000" pt_clust_8="13000.00000" pt_clust_9="20.17799"></scales>
<clustering>
<clus scale="   20.178">  1  9  2 -1</clus>
<clus scale="   83.458">  5  6 -1 -1</clus>
<clus scale="   93.929">  7  8 -1 -1</clus>
<clus scale="  111.987">  2  5  1 -1</clus>
<clus scale="  111.987">  2  5  1 -1</clus>
</clustering>
</event>
<event>
 9    2  0.3791909E-005  0.1190243E+03  0.7546771E-02  0.1258147E+00
          2   -1    0    0  502    0  0.00000000000E+00  0.00000000000E+00  0.63177787684E+03  0.63177787684E+03  0.00000000000E+00 0. -1.
         -1   -1    0    0    0  501 -0.00000000000E+00 -0.00000000000E+00 -0.16315796610E+03  0.16315796610E+03  0.00000000000E+00 0.  1.
         23    2    1    2    0    0  0.62623172110E+02  0.30658834060E+02 -0.11831186217E+03  0.16606372467E+03  0.93369363989E+02 0.  0.
         24    2    1    2    0    0  0.27197038441E+02  0.12814869842E+02  0.45181391223E+03  0.46090048546E+03  0.85962471023E+02 0.  0.
        -13    1    4    4    0    0  0.25584479809E+02  0.16006571282E+02  0.45668138117E+02  0.54738969395E+02  0.00000000000E+00 0.  1.
         14    1    4    4    0    0  0.16125586321E+01 -0.31917014397E+01  0.40614577412E+03  0.40616151607E+03  0.00000000000E+00 0. -1.
        -13    1    3    3    0    0  0.39711800387E+02  0.32202575692E+02 -0.60581004790E+01  0.51485275104E+02  0.00000000000E+00 0. -1.
         13    1    3    3    0    0  0.22911371723E+02 -0.15437416316E+01 -0.11225376169E+03  0.11457844957E+03  0.00000000000E+00 0.  1.
         21    1    1    2  502  501 -0.89820210551E+02 -0.43473703902E+02  0.13511786067E+03  0.16797163280E+03  0.00000000000E+00 0.  1.
<scales pt_clust_5="13000.00000" pt_clust_6="13000.00000" pt_clust_7="13000.00000" pt_clust_8="13000.00000" pt_clust_9="73.81697"></scales>
<clustering>
<clus scale="   85.962">  5  6 -1 -1</clus>
<clus scale="   91.068">  1  5  2 -1</clus>
<clus scale="   73.817">  1  9  2 -1</clus>
<clus scale="   93.369">  7  8 -1 -1</clus>
<clus scale="   91.068">  1  5  2 -1</clus>
</clustering>
</event>
<event>
 9    2  0.3791909E-005  0.1646930E+03  0.7546771E-02  0.1186572E+00
          2   -1    0    0  502    0  0.00000000000E+00  0.00000000000E+00  0.91657020581E+02  0.91657020581E+02  0.00000000000E+00 0. -1.
         -1   -1    0    0    0  501 -0.00000000000E+00 -0.00000000000E+00 -0.48135593265E+03  0.48135593265E+03  0.00000000000E+00 0.  1.
         24    2    1    2    0    0  0.13081572988E+03 -0.26232130234E+02 -0.34703262217E+03  0.38638940404E+03  0.10518674282E+03 0.  0.
         23    2    1    2    0    0 -0.11138793443E+03 -0.77673304028E+01 -0.40939366421E+02  0.14742680412E+03  0.87126502805E+02 0.  0.
        -13    1    3    3    0    0  0.95148455297E+02 -0.30383026079E+02 -0.33330120146E+03  0.34794546658E+03  0.00000000000E+00 0.  1.
         14    1    3    3    0    0  0.35667274581E+02  0.41508958456E+01 -0.13731420702E+02  0.38443937453E+02  0.00000000000E+00 0. -1.
        -13    1    4    4    0    0 -0.25254005113E+02 -0.39016030926E+02  0.13852135054E+01  0.46496604821E+02  0.00000000000E+00 0.  1.
         13    1    4    4    0    0 -0.86133929315E+02  0.31248700523E+02 -0.42324579927E+02  0.10093019929E+03  0.00000000000E+00 0. -1.
         21    1    1    2  502  501 -0.19427795450E+02  0.33999460636E+02 -0.17269234776E+01  0.39196745073E+02  0.00000000000E+00 0. -1.
<scales pt_clust_5="13000.00000" pt_clust_6="13000.00000" pt_clust_7="13000.00000" pt_clust_8="13000.00000" pt_clust_9="39.15868"></scales>
<clustering>
<clus scale="   39.159">  1  9  2 -1</clus>
<clus scale="   87.127">  7  8 -1 -1</clus>
<clus scale="  105.187">  5  6 -1 -1</clus>
<clus scale="  153.787">  1  7  2 -1</clus>
<clus scale="   39.159">  1  5  2 -1</clus>
</clustering>
</event>
<event>
 9    2  0.3791909E-005  0.1337687E+03  0.7546771E-02  0.1222726E+00
         -1   -1    0    0    0  501 -0.00000000000E+00  0.00000000000E+00  0.61860360739E+02  0.61860360739E+02  0.00000000000E+00 0.  1.
          2   -1    0    0  502    0  0.00000000000E+00 -0.00000000000E+00 -0.69803991404E+03  0.69803991404E+03  0.00000000000E+00 0. -1.
         23    2    1    2    0    0  0.62677108620E+02  0.10140934526E+03 -0.74664046522E+02  0.16373791771E+03  0.83804001109E+02 0.  0.
         24    2    1    2    0    0 -0.69586603477E+02 -0.44424337407E+02 -0.20601006476E+03  0.23605244115E+03  0.80403924366E+02 0.  0.
        -11    1    4    4    0    0 -0.80981891479E+02 -0.13948309744E+02 -0.15737574726E+03  0.17753801823E+03  0.00000000000E+00 0.  1.
         12    1    4    4    0    0  0.11395288003E+02 -0.30476027663E+02 -0.48634317498E+02  0.58514422917E+02  0.00000000000E+00 0. -1.
        -13    1    3    3    0    0  0.22885272417E+01  0.27591312622E+02  0.16143851212E+02  0.32049053357E+02  0.00000000000E+00 0. -1.
         13    1    3    3    0    0  0.60388581378E+02  0.73818032635E+02 -0.90807897734E+02  0.13168886435E+03  0.00000000000E+00 0.  1.
         21    1    1    2  502  501  0.69094948570E+01 -0.56985007851E+02 -0.35550544202E+03  0.36010991592E+03  0.00000000000E+00 0. -1.
<scales pt_clust_5="13000.00000" pt_clust_6="13000.00000" pt_clust_7="13000.00000" pt_clust_8="13000.00000" pt_clust_9="57.40237"></scales>
<clustering>
<clus scale="   57.402">  2  9  1 -1</clus>
<clus scale="   80.404">  5  6 -1 -1</clus>
<clus scale="   83.804">  7  8 -1 -1</clus>
<clus scale="  131.665">  2  5  1 -1</clus>
<clus scale="   57.402">  2  5  1 -1</clus>
</clustering>
</event>
<event>
 9    2  0.3791909E-005  0.1020104E+03  0.7546771E-02  0.1284772E+00
         -1   -1    0    0    0  501 -0.00000000000E+00  0.00000000000E+00  0.22296946421E+03  0.22296946421E+03  0.00000000000E+00 0.  1.
          2   -1    0    0  502    0  0.00000000000E+00 -0.00000000000E+00 -0.59875974764E+03  0.59875974764E+03  0.00000000000E+00 0. -1.
         23    2    1    2    0    0 -0.39132551413E+02 -0.13007708548E+02  0.19571821013E+03  0.22104294008E+03  0.94094667850E+02 0.  0.
         24    2    1    2    0    0 -0.23979774620E+02 -0.19656779667E+02 -0.46685223761E+03  0.47418304495E+03  0.77052772689E+02 0.  0.
        -11    1    4    4    0    0  0.18288494734E+02  0.11141714342E+02 -0.54975976276E+02  0.58999701742E+02  0.00000000000E+00 0.  1.
         12    1    4    4    0    0 -0.42268269353E+02 -0.30798494009E+02 -0.41187626133E+03  0.41518334321E+03  0.00000000000E+00 0. -1.
        -13    1    3    3    0    0  0.74962331072E+01 -0.42155844180E+02  0.53240264188E+02  0.68321551798E+02  0.00000000000E+00 0. -1.
         13    1    3    3    0    0 -0.46628784521E+02  0.29148135632E+02  0.14247794594E+03  0.15272138828E+03  0.00000000000E+00 0.  1.
         21    1    1    2  502  501  0.63112326033E+02  0.32664488215E+02 -0.10465625595E+03  0.12650322683E+03  0.00000000000E+00 0.  1.
<scales pt_clust_5="13000.00000" pt_clust_6="13000.00000" pt_clust_7="13000.00000" pt_clust_8="13000.00000" pt_clust_9="71.06430"></scales>
<clustering>
<clus scale="   71.064">  2  9  1 -1</clus>
<clus scale="   77.053">  5  6 -1 -1</clus>
<clus scale="   86.542">  2  5  1 -1</clus>
<clus scale="   94.095">  7  8 -1 -1</clus>
<clus scale="   71.064">  2  5  1 -1</clus>
</clustering>
</event>
<event>
 9    2  0.3791909E-005  0.1043685E+03  0.7546771E-02  0.1276948E+00
          2   -1    0    0  502    0  0.00000000000E+00  0.00000000000E+00  0.16679653326E+03  0.16679653326E+03  0.00000000000E+00 0. -1.
         -1   -1    0    0    0  501 -0.00000000000E+00 -0.00000000000E+00 -0.23479262779E+03  0.23479262779E+03  0.00000000000E+00 0.  1.
         23    2    1    2    0    0 -0.10940160860E+02 -0.46561790465E+02 -0.19022019282E+03  0.21681492760E+03  0.92397530410E+02 0.  0.
         24    2    1    2    0    0 -0.22352802954E+02  0.59512226129E+02  0.83562043652E+02  0.13213499245E+03  0.80222741369E+02 0.  0.
        -13    1    4    4    0    0 -0.42352695776E+02  0.42602328333E+01  0.26003255869E+02  0.49880554719E+02  0.00000000000E+00 0.  1.
         14    1    4    4    0    0  0.19999892822E+02  0.55251993295E+02  0.57558787783E+02  0.82254437735E+02  0.00000000000E+00 0. -1.
        -11    1    3    3    0    0  0.20076591238E+02 -0.47586255264E+02 -0.17458646761E+03  0.18206580096E+03  0.00000000000E+00 0.  1.
         11    1    3    3    0    0 -0.31016752098E+02  0.10244647992E+01 -0.15633725206E+02  0.34749126646E+02  0.00000000000E+00 0. -1.
         21    1    1    2  502  501  0.33292963814E+02 -0.12950435664E+02  0.38662054636E+02  0.52639240990E+02  0.00000000000E+00 0. -1.
<scales pt_clust_5="13000.00000" pt_clust_6="13000.00000" pt_clust_7="13000.00000" pt_clust_8="13000.00000" pt_clust_9="35.72303"></scales>
<clustering>
<clus scale="   35.723">  1  9  2 -1</clus>
<clus scale="   80.223">  5  6 -1 -1</clus>
<clus scale="   92.398">  7  8 -1 -1</clus>
<clus scale="   93.761">  1  5  2 -1</clus>
<clus scale="   35.723">  1  5  2 -1</clus>
</clustering>
</event>
<event>
 9    2  0.3791909E-005  0.1139619E+03  0.7546771E-02  0.1257945E+00
          2   -1    0    0  502    0  0.00000000000E+00  0.00000000000E+00  0.10345516890E+03  0.10345516890E+03  0.00000000000E+00 0. -1.
         -1   -1    0    0    0  501 -0.00000000000E+00 -0.00000000000E+00 -0.20562688846E+03  0.20562688846E+03  0.00000000000E+00 0.  1.
         24    2    1    2    0    0 -0.54164373856E+02  0.47618197481E+02 -0.13036458484E+03  0.16836852140E+03  0.78433168327E+02 0.  0.
         23    2    1    2    0    0  0.55505044908E+02 -0.22758645274E+02  0.92322188803E+01  0.10941975309E+03  0.91042202058E+02 0.  0.
        -13    1    3    3    0    0 -0.68635041114E+02  0.54151904399E+02 -0.92332819728E+02  0.12715560238E+03  0.00000000000E+00 0.  1.
         14    1    3    3    0    0  0.14470667257E+02 -0.65337069178E+01 -0.38031765108E+02  0.41212919020E+02  0.00000000000E+00 0. -1.
        -13    1    4    4    0    0  0.25053622516E+02  0.24617719604E+02 -0.25362769561E+02  0.43324198775E+02  0.00000000000E+00 0.  1.
         13    1    4    4    0    0  0.30451422393E+02 -0.47376364878E+02  0.34594988442E+02  0.66095554314E+02  0.00000000000E+00 0. -1.
         21    1    1    2  502  501 -0.13406710518E+01 -0.24859552207E+02  0.18960646394E+02  0.31293782873E+02  0.00000000000E+00 0.  1.
<scales pt_clust_5="13000.00000" pt_clust_6="13000.00000" pt_clust_7="13000.00000" pt_clust_8="13000.00000" pt_clust_9="24.89568"></scales>
<clustering>
<clus scale="   24.896">  1  9  2 -1</clus>
<clus scale="   78.433">  5  6 -1 -1</clus>
<clus scale="   91.042">  7  8 -1 -1</clus>
<clus scale="  104.165">  2  5  1 -1</clus>
<clus scale="   24.896">  1  5  2 -1</clus>
</clustering>
</event>
<event>
 9    2  0.3791909E-005  0.1022230E+03  0.7546771E-02  0.1278773E+00
          2   -1    0    0  502    0  0.00000000000E+00  0.00000000000E+00  0.53392636842E+03  0.53392636842E+03  0.00000000000E+00 0. -1.
         -1   -1    0    0    0  501 -0.00000000000E+00 -0.00000000000E+00 -0.72498731649E+02  0.72498731649E+02  0.00000000000E+00 0.  1.
         23    2    1    2    0    0 -0.20850032490E+02 -0.22498467592E+02 -0.25432075402E+02  0.98834846511E+02  0.90446843653E+02 0.  0.
         24    2    1    2    0    0  0.34105484524E+02  0.25330912700E+01  0.46128365468E+03  0.47254088869E+03  0.96657543882E+02 0.  0.
        -11    1    4    4    0    0 -0.32983865618E+02  0.10318581653E+02  0.13630658182E+03  0.14061967417E+03  0.00000000000E+00 0.  1.
         12    1    4    4    0    0  0.67089350142E+02 -0.77854903829E+01  0.32497707286E+03  0.33192121452E+03  0.00000000000E+00 0. -1.
        -11    1    3    3    0    0  0.55531937651E+01 -0.54036342249E+02 -0.12815036305E+02  0.55812090090E+02  0.00000000000E+00 0. -1.
         11    1    3    3    0    0 -0.26403226255E+02  0.31537874657E+02 -0.12617039096E+02  0.43022756422E+02  0.00000000000E+00 0.  1.
         21    1    1    2  502  501 -0.13255452034E+02  0.19965376322E+02  0.25576057497E+02  0.35049364864E+02  0.00000000000E+00 0.  1.
<scales pt_clust_5="13000.00000" pt_clust_6="13000.00000" pt_clust_7="13000.00000" pt_clust_8="13000.00000" pt_clust_9="23.96504"></scales>
<clustering>
<clus scale="   23.965">  2  9  1 -1</clus>
<clus scale="   90.447">  7  8 -1 -1</clus>
<clus scale="   96.372">  2  7  1 -1</clus>
<clus scale="   96.658">  5  6 -1 -1</clus>
<clus scale="  102.223">  1  5  2 -1</clus>
</clustering>
</event>
<event>
 9    2  0.3791909E-005  0.9923398E+02  0.7546771E-02  0.1290262E+00
         -1   -1    0    0    0  501 -0.00000000000E+00  0.00000000000E+00  0.17284034000E+03  0.17284034000E+03  0.00000000000E+00 0.  1.
          2   -1    0    0  502    0  0.00000000000E+00 -0.00000000000E+00 -0.22282943330E+03  0.22282943330E+03  0.00000000000E+00 0. -1.
         23    2    1    2    0    0  0.14267997129E+02  0.28095764962E+02  0.10785964971E+03  0.14534772300E+03  0.92191695914E+02 0.  0.
         24    2    1    2    0    0 -0.87257375490E+02 -0.31819023857E+02 -0.10977901015E+03  0.16284627520E+03  0.76427602479E+02 0.  0.
        -13    1    4    4    0    0 -0.65289269624E+02  0.45562974181E+01 -0.29027821483E+02  0.71596529205E+02  0.00000000000E+00 0.  1.
         14    1    4    4    0    0 -0.21968105866E+02 -0.36375321275E+02 -0.80751188665E+02  0.91249745994E+02  0.00000000000E+00 0. -1.
        -13    1    3    3    0    0  0.29372899018E+02  0.51934750977E+02  0.99317421614E+02  0.11586170977E+03  0.00000000000E+00 0.  1.
         13    1    3    3    0    0 -0.15104901889E+02 -0.23838986015E+02  0.85422280999E+01  0.29486013230E+02  0.00000000000E+00 0. -1.
         21    1    1    2  502  501  0.72989378361E+02  0.37232588949E+01 -0.48069732868E+02  0.87475775095E+02  0.00000000000E+00 0. -1.
<scales pt_clust_5="13000.00000" pt_clust_6="13000.00000" pt_clust_7="13000.00000" pt_clust_8="13000.00000" pt_clust_9="73.08428"></scales>
<clustering>
<clus scale="   73.084">  2  9  1 -1</clus>
<clus scale="   76.428">  5  6 -1 -1</clus>
<clus scale="   84.789">  2  5  1 -1</clus>
<clus scale="   92.192">  7  8 -1 -1</clus>
<clus scale="   73.084">  2  5  1 -1</clus>
</clustering>
</event>
<event>
 9    2  0.3791909E-005  0.1005418E+03  0.7546771E-02  0.1285787E+00
          2   -1    0    0  502    0  0.00000000000E+00  0.00000000000E+00  0.33369653447E+03  0.33369653447E+03  0.00000000000E+00 0. -1.
         -1   -1    0    0    0  501 -0.00000000000E+00 -0.00000000000E+00 -0.17796581520E+03  0.17796581520E+03  0.00000000000E+00 0.  1.
         23    2    1    2    0    0 -0.34848205071E+02  0.48278641407E+00 -0.15034916396E+03  0.18064210303E+03  0.93872614769E+02 0.  0.
         24    2    1    2    0    0  0.51489639904E+02  0.11774174335E+02  0.19097293436E+03  0.21407248002E+03  0.81034257224E+02 0.  0.
        -11    1    4    4    0    0  0.29115887738E+02 -0.32760465876E+02  0.11640094700E+03  0.12437911202E+03  0.00000000000E+00 0.  1.
         12    1    4    4    0    0  0.22373752167E+02  0.44534640211E+02  0.74571987363E+02  0.89693368004E+02  0.00000000000E+00 0. -1.
        -13    1    3    3    0    0 -0.13235825611E+02  0.45808994735E+02 -0.92288209777E+02  0.10387860580E+03  0.00000000000E+00 0.  1.
         13    1    3    3    0    0 -0.21612379460E+02 -0.45326208321E+02 -0.58060954185E+02  0.76763497234E+02  0.00000000000E+00 0. -1.
         21    1    1    2  502  501 -0.16641434833E+02 -0.12256960749E+02  0.11510694887E+03  0.11694776662E+03  0.00000000000E+00 0. -1.
<scales pt_clust_5="13000.00000" pt_clust_6="13000.00000" pt_clust_7="13000.00000" pt_clust_8="13000.00000" pt_clust_9="20.66810"></scales>
<clustering>
<clus scale="   20.668">  1  9  2 -1</clus>
<clus scale="   81.034">  5  6 -1 -1</clus>
<clus scale="   88.674">  1  5  2 -1</clus>
<clus scale="   93.873">  7  8 -1 -1</clus>
<clus scale="   20.668">  1  5  2 -1</clus>
</clustering>
</event>
<event>
 9    2  0.3791909E-005  0.9120295E+02  0.7546771E-02  0.1307290E+00
         -1   -1    0    0    0  501 -0.00000000000E+00  0.00000000000E+00  0.56720790384E+03  0.56720790384E+03  0.00000000000E+00 0.  1.
          2   -1    0    0  502    0  0.00000000000E+00 -0.00000000000E+00 -0.34819937047E+02  0.34819937047E+02  0.00000000000E+00 0. -1.
         24    2    1    2    0    0  0.42191498327E+01 -0.28612891386E+02  0.42966517102E+03  0.43694203962E+03  0.73957339198E+02 0.  0.
         23    2    1    2    0    0 -0.31410289929E+02  0.30893959553E+02  0.58441022036E+02  0.11307198717E+03  0.86190940214E+02 0.  0.
        -11    1    3    3    0    0 -0.25249372608E+02 -0.38761949803E+02  0.20699985648E+03  0.21210601159E+03  0.00000000000E+00 0.  1.
         12    1    3    3    0    0  0.29468522440E+02  0.10149058417E+02  0.22266531454E+03  0.22483602803E+03  0.00000000000E+00 0. -1.
        -13    1    4    4    0    0 -0.11276196407E+02  0.51289868964E+02  0.54107916309E+01  0.52792801875E+02  0.00000000000E+00 0. -1.
         13    1    4    4    0    0 -0.20134093522E+02 -0.20395909411E+02  0.53030230405E+02  0.60279185292E+02  0.00000000000E+00 0.  1.
         21    1    1    2  502  501  0.27191140096E+02 -0.22810681666E+01  0.44281773731E+02  0.52013814092E+02  0.00000000000E+00 0.  1.
<scales pt_clust_5="13000.00000" pt_clust_6="13000.00000" pt_clust_7="13000.00000" pt_clust_8="13000.00000" pt_clust_9="27.28665"></scales>
<clustering>
<clus scale="   27.287">  2  9  1 -1</clus>
<clus scale="   73.957">  5  6 -1 -1</clus>
<clus scale="   79.742">  1  5  2 -1</clus>
<clus scale="   86.191">  7  8 -1 -1</clus>
<clus scale="   27.287">  2  5  1 -1</clus>
</clustering>
</event>
<event>
 9    2  0.3791909E-005  0.1112967E+03  0.7546771E-02  0.1264376E+00
          2   -1    0    0  502    0  0.00000000000E+00  0.00000000000E+00  0.43242063882E+03  0.43242063882E+03  0.00000000000E+00 0. -1.
         -1   -1    0    0    0  501 -0.00000000000E+00 -0.00000000000E+00 -0.90839541420E+02  0.90839541420E+02  0.00000000000E+00 0.  1.
         24    2    1    2    0    0 -0.31398270959E+02 -0.45081616626E+02 -0.44815110436E+02  0.10755173182E+03  0.80875072286E+02 0.  0.
         23    2    1    2    0    0  0.24093252592E+02  0.65563779281E+02  0.24046888978E+03  0.26816976050E+03  0.95972076756E+02 0.  0.
        -13    1    3    3    0    0  0.21739613167E+02 -0.38254014997E+02 -0.16834449395E+02  0.47110286886E+02  0.00000000000E+00 0.  1.
         14    1    3    3    0    0 -0.53137884126E+02 -0.68276016291E+01 -0.27980661042E+02  0.60441444934E+02  0.00000000000E+00 0. -1.
        -13    1    4    4    0    0  0.46043744574E+02  0.74385148833E+02  0.14106366385E+03  0.16598835514E+03  0.00000000000E+00 0.  1.
         13    1    4    4    0    0 -0.21950491982E+02 -0.88213695519E+01  0.99405225928E+02  0.10218140536E+03  0.00000000000E+00 0. -1.
         21    1    1    2  502  501  0.73050183672E+01 -0.20482162655E+02  0.14592731805E+03  0.14753868792E+03  0.00000000000E+00 0.  1.
<scales pt_clust_5="13000.00000" pt_clust_6="13000.00000" pt_clust_7="13000.00000" pt_clust_8="13000.00000" pt_clust_9="21.74586"></scales>
<clustering>
<clus scale="   21.746">  1  9  2 -1</clus>
<clus scale="   80.875">  5  6 -1 -1</clus>
<clus scale="   95.972">  7  8 -1 -1</clus>
<clus scale="   98.575">  2  5  1 -1</clus>
<clus scale="   21.746">  1  5  2 -1</clus>
</clustering>
</event>
<event>
 9    2  0.3791909E-005  0.1383985E+03  0.7546771E-02  0.1216608E+00
         -1   -1    0    0    0  501 -0.00000000000E+00  0.00000000000E+00  0.48250342382E+03  0.48250342382E+03  0.00000000000E+00 0.  1.
          2   -1    0    0  502    0  0.00000000000E+00 -0.00000000000E+00 -0.47379867096E+02  0.47379867096E+02  0.00000000000E+00 0. -1.
         24    2    1    2    0    0  0.83934385124E+02 -0.46888263903E+02  0.23795049449E+03  0.26941377824E+03  0.81974726472E+02 0.  0.
         23    2    1    2    0    0 -0.10787393814E+03  0.43462408645E+02  0.16031040707E+03  0.21638216723E+03  0.87155310711E+02 0.  0.
        -13    1    3    3    0    0  0.17428235746E+01 -0.28542942355E+02  0.12668092525E+03  0.12986837111E+03  0.00000000000E+00 0.  1.
         14    1    3    3    0    0  0.82191561550E+02 -0.18345321548E+02  0.11126956923E+03  0.13954540713E+03  0.00000000000E+00 0. -1.
        -11    1    4    4    0    0 -0.44859903386E+02 -0.25153317141E+02  0.67719195340E+02  0.85035226304E+02  0.00000000000E+00 0.  1.
         11    1    4    4    0    0 -0.63014034750E+02  0.68615725786E+02  0.92591211730E+02  0.13134694092E+03  0.00000000000E+00 0. -1.
         21    1    1    2  502  501  0.23939553012E+02  0.34258552584E+01  0.36862655166E+02  0.44087345447E+02  0.00000000000E+00 0. -1.
<scales pt_clust_5="13000.00000" pt_clust_6="13000.00000" pt_clust_7="13000.00000" pt_clust_8="13000.00000" pt_clust_9="24.18344"></scales>
<clustering>
<clus scale="   24.183">  1  9  2 -1</clus>
<clus scale="   81.975">  5  6 -1 -1</clus>
<clus scale="   87.155">  7  8 -1 -1</clus>
<clus scale="  135.196">  1  5  2 -1</clus>
<clus scale="  138.398">  2  5  1 -1</clus>
</clustering>
</event>
<event>
 9    2  0.3791909E-005  0.1547272E+03  0.7546771E-02  0.1197009E+00
          2   -1    0    0  502    0  0.00000000000E+00  0.00000000000E+00  0.63482224662E+03  0.63482224662E+03  0.00000000000E+00 0. -1.
         -1   -1    0    0    0  501 -0.00000000000E+00 -0.00000000000E+00 -0.87861074483E+02  0.87861074483E+02  0.00000000000E+00 0.  1.
         23    2    1    2    0    0  0.73662064501E+02  0.57644501778E+02  0.12278935655E+02  0.13245555796E+03  0.92976955430E+02 0.  0.
         24    2    1    2    0    0 -0.67155989909E+02 -0.11175883217E+03  0.50599832105E+03  0.52863671863E+03  0.80140600389E+02 0.  0.
        -11    1    4    4    0    0 -0.36181706464E+02 -0.80611498494E+02  0.18929655225E+03  0.20890312172E+03  0.00000000000E+00 0.  1.
         12    1    4    4    0    0 -0.30974283445E+02 -0.31147333672E+02  0.31670176880E+03  0.31973359690E+03  0.00000000000E+00 0. -1.
        -11    1    3    3    0    0  0.71649201368E+02  0.78193257778E+02 -0.40483927303E+01  0.10613285590E+03  0.00000000000E+00 0.  1.
         11    1    3    3    0    0  0.20128631333E+01 -0.20548756001E+02  0.16327328385E+02  0.26322702053E+02  0.00000000000E+00 0. -1.
         21    1    1    2  502  501 -0.65060745923E+01  0.54114330389E+02  0.28683915432E+02  0.61591044516E+02  0.00000000000E+00 0.  1.
<scales pt_clust_5="13000.00000" pt_clust_6="13000.00000" pt_clust_7="13000.00000" pt_clust_8="13000.00000" pt_clust_9="54.50403"></scales>
<clustering>
<clus scale="   54.504">  2  9  1 -1</clus>
<clus scale="   80.141">  5  6 -1 -1</clus>
<clus scale="   92.977">  7  8 -1 -1</clus>
<clus scale="  147.371">  1  5  2 -1</clus>
<clus scale="  147.371">  1  5  2 -1</clus>
</clustering>
</event>
<event>
 9    2  0.3791909E-005  0.1210429E+03  0.7546771E-02  0.1245185E+00
         -1   -1    0    0    0  501 -0.00000000000E+00  0.00000000000E+00  0.69624517290E+02  0.69624517290E+02  0.00000000000E+00 0.  1.
          2   -1    0    0  502    0  0.00000000000E+00 -0.00000000000E+00 -0.42654504444E+03  0.42654504444E+03  0.00000000000E+00 0. -1.
         23    2    1    2    0    0 -0.59069078149E+02  0.48971620842E+02 -0.10726687355E+02  0.11929309368E+03  0.90710554712E+02 0.  0.
         24    2    1    2    0    0  0.80896219534E+02 -0.49921298783E+02 -0.25645927323E+03  0.28452053470E+03  0.78385211823E+02 0.  0.
        -11    1    4    4    0    0  0.46568638517E+02 -0.20600724406E+02 -0.43939124096E+02  0.67258267638E+02  0.00000000000E+00 0.  1.
         12    1    4    4    0    0  0.34327581017E+02 -0.29320574377E+02 -0.21252014913E+03  0.21726226706E+03  0.00000000000E+00 0. -1.
        -11    1    3    3    0    0 -0.38283052757E+02  0.16746655586E+01 -0.43609326822E+02  0.58053165452E+02  0.00000000000E+00 0. -1.
         11    1    3    3    0    0 -0.20786025391E+02  0.47296955283E+02  0.32882639467E+02  0.61239928225E+02  0.00000000000E+00 0.  1.
         21    1    1    2  502  501 -0.21827141385E+02  0.94967794146E+00 -0.89734566569E+02  0.92355933359E+02  0.00000000000E+00 0. -1.
<scales pt_clust_5="13000.00000" pt_clust_6="13000.00000" pt_clust_7="13000.00000" pt_clust_8="13000.00000" pt_clust_9="21.84779"></scales>
<clustering>
<clus scale="   21.848">  2  9  1 -1</clus>
<clus scale="   78.385">  5  6 -1 -1</clus>
<clus scale="   90.711">  7  8 -1 -1</clus>
<clus scale="  112.104">  2  5  1 -1</clus>
<clus scale="   21.848">  2  5  1 -1</clus>
</clustering>
</event>
<event>
 9    2  0.3791909E-005  0.1618718E+03  0.7546771E-02  0.1188623E+00
         -1   -1    0    0    0  501 -0.00000000000E+00  0.00000000000E+00  0.32584275565E+03  0.32584275565E+03  0.00000000000E+00 0.  1.
          2   -1    0    0  502    0  0.00000000000E+00 -0.00000000000E+00 -0.15553898272E+03  0.15553898272E+03  0.00000000000E+00 0. -1.
         24    2    1    2    0    0 -0.65274793507E+02 -0.12323051971E+03  0.23761920160E+03  0.28609419868E+03  0.77074288141E+02 0.  0.
         23    2    1    2    0    0  0.30660908658E+02  0.11038084253E+03 -0.48451612254E+02  0.15382576455E+03  0.90502957918E+02 0.  0.
        -13    1    3    3    0    0 -0.81809426544E+02 -0.10680717636E+03  0.21495009872E+03  0.25358253120E+03  0.00000000000E+00 0.  1.
         14    1    3    3    0    0  0.16534633036E+02 -0.16423343345E+02  0.22669102887E+02  0.32511667474E+02  0.00000000000E+00 0. -1.
        -13    1    4    4    0    0  0.47004290913E+02  0.68444606889E+02  0.59211824313E+01  0.83241383805E+02  0.00000000000E+00 0. -1.
         13    1    4    4    0    0 -0.16343382255E+02  0.41936235644E+02 -0.54372794685E+02  0.70584380747E+02  0.00000000000E+00 0.  1.
         21    1    1    2  502  501  0.34613884849E+02  0.12849677172E+02 -0.18863816413E+02  0.41461775136E+02  0.00000000000E+00 0.  1.
<scales pt_clust_5="13000.00000" pt_clust_6="13000.00000" pt_clust_7="13000.00000" pt_clust_8="13000.00000" pt_clust_9="36.92202"></scales>
<clustering>
<clus scale="   36.922">  2  9  1 -1</clus>
<clus scale="   77.074">  5  6 -1 -1</clus>
<clus scale="   90.503">  7  8 -1 -1</clus>
<clus scale="  154.765">  1  5  2 -1</clus>
<clus scale="   36.922">  2  5  1 -1</clus>
</clustering>
</event>
<event>
 9    2  0.3791909E-005  0.4097205E+03  0.7546771E-02  0.1040692E+00
         -1   -1    0    0    0  501 -0.00000000000E+00  0.00000000000E+00  0.24905843339E+03  0.24905843339E+03  0.00000000000E+00 0.  1.
          2   -1    0    0  502    0  0.00000000000E+00 -0.00000000000E+00 -0.10304339701E+04  0.10304339701E+04  0.00000000000E+00 0. -1.
         23    2    1    2    0    0 -0.68136655392E+02 -0.41280827596E+03 -0.77066914943E+02  0.43541346891E+03  0.92694676333E+02 0.  0.
         24    2    1    2    0    0  0.12750203291E+03  0.33525461513E+03 -0.55073249970E+03  0.66207771584E+03  0.79926154833E+02 0.  0.
        -11    1    4    4    0    0  0.79798783038E+02  0.19855334063E+03 -0.25565256331E+03  0.33339092366E+03  0.00000000000E+00 0.  1.
         12    1    4    4    0    0  0.47703249868E+02  0.13670127451E+03 -0.29507993638E+03  0.32868679218E+03  0.00000000000E+00 0. -1.
        -13    1    3    3    0    0 -0.30363718139E+02 -0.35640696604E+03 -0.83227658860E+02  0.36725294283E+03  0.00000000000E+00 0. -1.
         13    1    3    3    0    0 -0.37772937253E+02 -0.56401309924E+02  0.61607439172E+01  0.68160526080E+02  0.00000000000E+00 0.  1.
         21    1    1    2  502  501 -0.59365377514E+02  0.77553660824E+02 -0.15357612210E+03  0.18200121877E+03  0.00000000000E+00 0.  1.
<scales pt_clust_5="13000.00000" pt_clust_6="13000.00000" pt_clust_7="13000.00000" pt_clust_8="13000.00000" pt_clust_9="97.66687"></scales>
<clustering>
<clus scale="   79.926">  5  6 -1 -1</clus>
<clus scale="   92.695">  7  8 -1 -1</clus>
<clus scale="   97.667">  2  9  1 -1</clus>
<clus scale="  407.022">  2  5  1 -1</clus>
<clus scale="   97.667">  2  5  1 -1</clus>
</clustering>
</event>
<event>
 9    2  0.7768405E-005  0.1727469E+03  0.7546771E-02  0.1176405E+00
         -1   -1    0    0    0  501 -0.00000000000E+00  0.00000000000E+00  0.23652370786E+03  0.23652370786E+03  0.00000000000E+00 0.  1.
          2   -1    0    0  502    0  0.00000000000E+00 -0.00000000000E+00 -0.13298564499E+04  0.13298564499E+04  0.00000000000E+00 0. -1.
         23    2    1    2    0    0  0.14161537746E+03 -0.36356317251E+02  0.19297723315E+03  0.25879447876E+03  0.91420308398E+02 0.  0.
         24    2    1    2    0    0 -0.14981070062E+03  0.61775777710E+02 -0.12468789067E+04  0.12599608803E+04  0.80838846485E+02 0.  0.
        -11    1    4    4    0    0 -0.10616372201E+03  0.59366715375E+02 -0.63645942858E+03  0.64797819947E+03  0.00000000000E+00 0.  1.
         12    1    4    4    0    0 -0.43646978603E+02  0.24090623353E+01 -0.61041947811E+03  0.61198268079E+03  0.00000000000E+00 0. -1.
        -13    1    3    3    0    0  0.38511819010E+02 -0.53835290032E+02  0.92732503719E+02  0.11393294476E+03  0.00000000000E+00 0. -1.
         13    1    3    3    0    0  0.10310355845E+03  0.17478972781E+02  0.10024472943E+03  0.14486153400E+03  0.00000000000E+00 0.  1.
         21    1    1    2  502  501  0.81953231532E+01 -0.25419460460E+02 -0.39431068446E+02  0.47624798692E+02  0.00000000000E+00 0. -1.
<scales pt_clust_5="13000.00000" pt_clust_6="13000.00000" pt_clust_7="13000.00000" pt_clust_8="13000.00000" pt_clust_9="26.70791"></scales>
<clustering>
<clus scale="   26.708">  2  9  1 -1</clus>
<clus scale="   80.839">  5  6 -1 -1</clus>
<clus scale="   91.420">  7  8 -1 -1</clus>
<clus scale="  167.388">  2  5  1 -1</clus>
<clus scale="   26.708">  2  5  1 -1</clus>
</clustering>
</event>
<event>
 9    2  0.3791909E-005  0.1387450E+03  0.7546771E-02  0.1230054E+00
          2   -1    0    0  502    0  0.00000000000E+00  0.00000000000E+00  0.16045038990E+04  0.16045038990E+04  0.00000000000E+00 0. -1.
         -1   -1    0    0    0  501 -0.00000000000E+00 -0.00000000000E+00 -0.40162260511E+02  0.40162260511E+02  0.00000000000E+00 0.  1.
         23    2    1    2    0    0  0.51182196339E+02  0.39210662240E+02  0.93222364588E+02  0.16772782410E+03  0.12363300718E+03 0.  0.
         24    2    1    2    0    0 -0.22435530824E+02 -0.49633416259E+02  0.12518030175E+04  0.12555007034E+04  0.79400203888E+02 0.  0.
        -11    1    4    4    0    0 -0.28991167753E+02 -0.55216537942E+01  0.15459535084E+03  0.15738709913E+03  0.00000000000E+00 0.  1.
         12    1    4    4    0    0  0.65556369292E+01 -0.44111762465E+02  0.10972076667E+04  0.10981136042E+04  0.00000000000E+00 0. -1.
        -11    1    3    3    0    0  0.22346829090E+02 -0.37883189260E+02  0.83267086865E+00  0.43991023398E+02  0.00000000000E+00 0.  1.
         11    1    3    3    0    0  0.28835367249E+02  0.77093851500E+02  0.92389693720E+02  0.12373680071E+03  0.00000000000E+00 0. -1.
         21    1    1    2  502  501 -0.28746665515E+02  0.10422754019E+02  0.21931625631E+03  0.22143763199E+03  0.00000000000E+00 0. -1.
<scales pt_clust_5="13000.00000" pt_clust_6="13000.00000" pt_clust_7="13000.00000" pt_clust_8="13000.00000" pt_clust_9="30.57784"></scales>
<clustering>
<clus scale="   30.578">  1  9  2 -1</clus>
<clus scale="   79.400">  5  6 -1 -1</clus>
<clus scale="  101.338">  1  5  2 -1</clus>
<clus scale="  123.633">  7  8 -1 -1</clus>
<clus scale="   30.578">  1  5  2 -1</clus>
</clustering>
</event>
<event>
 9    2  0.3791909E-005  0.1398940E+03  0.7546771E-02  0.1215959E+00
          2   -1    0    0  502    0  0.00000000000E+00  0.00000000000E+00  0.89920745429E+02  0.89920745429E+02  0.00000000000E+00 0. -1.
         -1   -1    0    0    0  501 -0.00000000000E+00 -0.00000000000E+00 -0.26759314484E+03  0.26759314484E+03  0.00000000000E+00 0.  1.
         23    2    1    2    0    0 -0.91208645965E+02  0.39640708424E+02 -0.11673895037E+03  0.17809288036E+03  0.90546610322E+02 0.  0.
         24    2    1    2    0    0  0.10043063680E+03 -0.63623876306E+02 -0.55524062675E+02  0.15316269851E+03  0.79003672280E+02 0.  0.
        -11    1    4    4    0    0  0.89499099745E+01 -0.22952738844E+02 -0.46524643962E+02  0.52644768067E+02  0.00000000000E+00 0.  1.
         12    1    4    4    0    0  0.91480726823E+02 -0.40671137462E+02 -0.89994187128E+01  0.10051793044E+03  0.00000000000E+00 0. -1.
        -11    1    3    3    0    0 -0.65316691214E+00  0.26804556266E+02 -0.70874449282E+02  0.75776635084E+02  0.00000000000E+00 0.  1.
         11    1    3    3    0    0 -0.90555479053E+02  0.12836152158E+02 -0.45864501085E+02  0.10231624528E+03  0.00000000000E+00 0. -1.
         21    1    1    2  502  501 -0.92219908325E+01  0.23983167882E+02 -0.54093863675E+01  0.26258311398E+02  0.00000000000E+00 0.  1.
<scales pt_clust_5="13000.00000" pt_clust_6="13000.00000" pt_clust_7="13000.00000" pt_clust_8="13000.00000" pt_clust_9="25.69509"></scales>
<clustering>
<clus scale="   25.695">  1  9  2 -1</clus>
<clus scale="   79.004">  5  6 -1 -1</clus>
<clus scale="   90.547">  7  8 -1 -1</clus>
<clus scale="  132.715">  1  5  2 -1</clus>
<clus scale="   25.695">  1  5  2 -1</clus>
</clustering>
</event>
<event>
 9    2  0.3791909E-005  0.2019617E+03  0.7546771E-02  0.1185812E+00
         -1   -1    0    0    0  501 -0.00000000000E+00  0.00000000000E+00  0.54221054916E+02  0.54221054916E+02  0.00000000000E+00 0.  1.
          2   -1    0    0  502    0  0.00000000000E+00 -0.00000000000E+00 -0.10242270525E+04  0.10242270525E+04  0.00000000000E+00 0. -1.
         24    2    1    2    0    0 -0.14096351685E+02  0.13140240006E+02 -0.16756391317E+03  0.18780715674E+03  0.82598366119E+02 0.  0.
         23    2    1    2    0    0  0.18367880813E+03 -0.52384769454E+02 -0.40226729826E+03  0.45424869353E+03  0.89670662423E+02 0.  0.
        -13    1    3    3    0    0 -0.41573519612E+02  0.62024586454E+01 -0.43276643637E+02  0.60329892347E+02  0.00000000000E+00 0.  1.
         14    1    3    3    0    0  0.27477167927E+02  0.69377813605E+01 -0.12428726954E+03  0.12747726439E+03  0.00000000000E+00 0. -1.
        -11    1    4    4    0    0  0.16930742697E+03 -0.37956597523E+02 -0.39693010689E+03  0.43319651185E+03  0.00000000000E+00 0.  1.
         11    1    4    4    0    0  0.14371381166E+02 -0.14428171931E+02 -0.53371913665E+01  0.21052181682E+02  0.00000000000E+00 0. -1.
         21    1    1    2  502  501 -0.16958245645E+03  0.39244529448E+02 -0.40017478619E+03  0.43639225719E+03  0.00000000000E+00 0. -1.
<scales pt_clust_5="13000.00000" pt_clust_6="13000.00000" pt_clust_7="13000.00000" pt_clust_8="13000.00000" pt_clust_9="180.96330"></scales>
<clustering>
<clus scale="   82.598">  5  6 -1 -1</clus>
<clus scale="   84.817">  1  5  2 -1</clus>
<clus scale="   89.671">  7  8 -1 -1</clus>
<clus scale="  180.963">  2  9  1 -1</clus>
<clus scale="  180.963">  2  5  1 -1</clus>
</clustering>
</event>
<event>
 9    2  0.3791909E-005  0.9579086E+02  0.7546771E-02  0.1291145E+00
          4   -1    0    0  502    0  0.00000000000E+00  0.00000000000E+00  0.28992462617E+03  0.28992462617E+03  0.00000000000E+00 0. -1.
         -3   -1    0    0    0  501 -0.00000000000E+00 -0.00000000000E+00 -0.12573415043E+03  0.12573415043E+03  0.00000000000E+00 0.  1.
         24    2    1    2    0    0  0.23039666654E+02  0.66450525032E+01 -0.89684349318E+02  0.12884203605E+03  0.89342066120E+02 0.  0.
         23    2    1    2    0    0 -0.24864307713E+02 -0.34721231163E+02  0.22218302856E+03  0.24443784145E+03  0.92524388471E+02 0.  0.
        -13    1    3    3    0    0  0.27056380157E+02  0.44370132170E+02 -0.66434457053E+02  0.84346270931E+02  0.00000000000E+00 0.  1.
         14    1    3    3    0    0 -0.40167135034E+01 -0.37725079667E+02 -0.23249892265E+02  0.44495765119E+02  0.00000000000E+00 0. -1.
        -13    1    4    4    0    0 -0.42663892072E+02 -0.57321427810E+02  0.17693342198E+03  0.19081768678E+03  0.00000000000E+00 0. -1.
         13    1    4    4    0    0  0.17799584359E+02  0.22600196647E+02  0.45249606580E+02  0.53620154676E+02  0.00000000000E+00 0.  1.
         21    1    1    2  502  501  0.18246410596E+01  0.28076178660E+02  0.31691796502E+02  0.42378899097E+02  0.00000000000E+00 0.  1.
<scales pt_clust_5="13000.00000" pt_clust_6="13000.00000" pt_clust_7="13000.00000" pt_clust_8="13000.00000" pt_clust_9="28.13541"></scales>
<clustering>
<clus scale="   28.135">  1  9  2 -1</clus>
<clus scale="   89.342">  5  6 -1 -1</clus>
<clus scale="   92.524">  7  8 -1 -1</clus>
<clus scale="   92.721">  2  5  1 -1</clus>
<clus scale="   28.135">  1  5  2 -1</clus>
</clustering>
</event>
<event>
 9    2  0.3791909E-005  0.3849975E+03  0.7546771E-02  0.1103133E+00
         -1   -1    0    0    0  501 -0.00000000000E+00  0.00000000000E+00  0.19935063834E+04  0.19935063834E+04  0.00000000000E+00 0.  1.
          2   -1    0    0  502    0  0.00000000000E+00 -0.00000000000E+00 -0.14948873858E+03  0.14948873858E+03  0.00000000000E+00 0. -1.
         24    2    1    2    0    0 -0.10419932591E+02  0.43413107247E+02  0.30011454840E+03  0.31296840980E+03  0.76728159743E+02 0.  0.
         23    2    1    2    0    0 -0.34554683780E+03 -0.15417709861E+03  0.13591655964E+04  0.14139630784E+04  0.93740460735E+02 0.  0.
        -11    1    3    3    0    0 -0.13341012303E+02  0.17661977792E+02  0.15137879437E+02  0.26815731626E+02  0.00000000000E+00 0.  1.
         12    1    3    3    0    0  0.29210797118E+01  0.25751129455E+02  0.28497666896E+03  0.28615267818E+03  0.00000000000E+00 0. -1.
        -11    1    4    4    0    0 -0.22619134376E+03 -0.77826087288E+02  0.70003597937E+03  0.73977685573E+03  0.00000000000E+00 0. -1.
         11    1    4    4    0    0 -0.11935549404E+03 -0.76351011323E+02  0.65912961699E+03  0.67418622271E+03  0.00000000000E+00 0.  1.
         21    1    1    2  502  501  0.35596677039E+03  0.11076399136E+03  0.18473750008E+03  0.41606363377E+03  0.00000000000E+00 0.  1.
<scales pt_clust_5="13000.00000" pt_clust_6="13000.00000" pt_clust_7="13000.00000" pt_clust_8="13000.00000" pt_clust_9="373.41100"></scales>
<clustering>
<clus scale="   76.728">  5  6 -1 -1</clus>
<clus scale="   88.772">  1  5  2 -1</clus>
<clus scale="   93.740">  7  8 -1 -1</clus>
<clus scale="  373.411">  2  9  1 -1</clus>
<clus scale="  373.411">  2  5  1 -1</clus>
</clustering>
</event>
<event>
 9    2  0.3791909E-005  0.9598085E+02  0.7546771E-02  0.1292661E+00
         -3   -1    0    0    0  501 -0.00000000000E+00  0.00000000000E+00  0.52015920000E+02  0.52015920000E+02  0.00000000000E+00 0.  1.
          4   -1    0    0  502    0  0.00000000000E+00 -0.00000000000E+00 -0.33904140907E+03  0.33904140907E+03  0.00000000000E+00 0. -1.
         23    2    1    2    0    0 -0.12496858353E+02  0.30777541520E+02 -0.14457693773E+02  0.98381490735E+02  0.91468378576E+02 0.  0.
         24    2    1    2    0    0  0.17299418300E+01 -0.13239682541E+02 -0.21170624455E+03  0.22842919369E+03  0.84747157211E+02 0.  0.
        -13    1    4    4    0    0  0.12598320941E+02  0.26395014568E+02 -0.29110127058E+02  0.41265166690E+02  0.00000000000E+00 0.  1.
         14    1    4    4    0    0 -0.10868379111E+02 -0.39634697109E+02 -0.18259611749E+03  0.18716402700E+03  0.00000000000E+00 0. -1.
        -11    1    3    3    0    0  0.22583480220E+02  0.50272143550E+02  0.16502565270E+01  0.55136424825E+02  0.00000000000E+00 0.  1.
         11    1    3    3    0    0 -0.35080338572E+02 -0.19494602030E+02 -0.16107950300E+02  0.43245065910E+02  0.00000000000E+00 0. -1.
         21    1    1    2  502  501  0.10766916523E+02 -0.17537858979E+02 -0.60861550748E+02  0.64246644647E+02  0.00000000000E+00 0.  1.
<scales pt_clust_5="13000.00000" pt_clust_6="13000.00000" pt_clust_7="13000.00000" pt_clust_8="13000.00000" pt_clust_9="20.57919"></scales>
<clustering>
<clus scale="   20.579">  2  9  1 -1</clus>
<clus scale="   84.747">  5  6 -1 -1</clus>
<clus scale="   89.599">  2  5  1 -1</clus>
<clus scale="   91.468">  7  8 -1 -1</clus>
<clus scale="   20.579">  2  5  1 -1</clus>
</clustering>
</event>
<event>
 9    2  0.3791909E-005  0.2082848E+03  0.7546771E-02  0.1143504E+00
          2   -1    0    0  502    0  0.00000000000E+00  0.00000000000E+00  0.81775955283E+03  0.81775955283E+03  0.00000000000E+00 0. -1.
         -1   -1    0    0    0  501 -0.00000000000E+00 -0.00000000000E+00 -0.11557786548E+03  0.11557786548E+03  0.00000000000E+00 0.  1.
         24    2    1    2    0    0  0.12806274073E+03 -0.14923321097E+03  0.15969289348E+03  0.26658813639E+03  0.83046959098E+02 0.  0.
         23    2    1    2    0    0 -0.19864645701E+03  0.37107382278E+02  0.19495005223E+03  0.29481186863E+03  0.89839536484E+02 0.  0.
        -13    1    3    3    0    0  0.56475558994E+02 -0.12568848626E+03  0.96277003928E+02  0.16809623978E+03  0.00000000000E+00 0.  1.
         14    1    3    3    0    0  0.71587181734E+02 -0.23544724713E+02  0.63415889556E+02  0.98491896614E+02  0.00000000000E+00 0. -1.
        -11    1    4    4    0    0 -0.15931644757E+03  0.64613721310E+02  0.13889110687E+03  0.22101448599E+03  0.00000000000E+00 0.  1.
         11    1    4    4    0    0 -0.39330009437E+02 -0.27506339032E+02  0.56058945365E+02  0.73797382641E+02  0.00000000000E+00 0. -1.
         21    1    1    2  502  501  0.70583716280E+02  0.11212582870E+03  0.34753874164E+03  0.37193741329E+03  0.00000000000E+00 0. -1.
<scales pt_clust_5="13000.00000" pt_clust_6="13000.00000" pt_clust_7="13000.00000" pt_clust_8="13000.00000" pt_clust_9="132.49250"></scales>
<clustering>
<clus scale="   83.047">  5  6 -1 -1</clus>
<clus scale="   89.840">  7  8 -1 -1</clus>
<clus scale="  132.492">  1  9  2 -1</clus>
<clus scale="  205.446">  2  5  1 -1</clus>
<clus scale="  132.492">  1  5  2 -1</clus>
</clustering>
</event>
<event>
 9    2  0.3791909E-005  0.9597394E+02  0.7546771E-02  0.1296750E+00
          2   -1    0    0  502    0  0.00000000000E+00  0.00000000000E+00  0.73268853071E+03  0.73268853071E+03  0.00000000000E+00 0. -1.
         -1   -1    0    0    0  501 -0.00000000000E+00 -0.00000000000E+00 -0.37321892865E+02  0.37321892865E+02  0.00000000000E+00 0.  1.
         24    2    1    2    0    0 -0.15159212109E+02 -0.19065305855E+02  0.22611399420E+02  0.86462936468E+02  0.79820275619E+02 0.  0.
         23    2    1    2    0    0 -0.10175629226E+02  0.18972974291E+02  0.52844827736E+03  0.53703345459E+03  0.93187082411E+02 0.  0.
        -11    1    3    3    0    0  0.21976988302E+02  0.99006055085E+01  0.30325770801E+02  0.38738383794E+02  0.00000000000E+00 0.  1.
         12    1    3    3    0    0 -0.37136200412E+02 -0.28965911364E+02 -0.77143713812E+01  0.47724552674E+02  0.00000000000E+00 0. -1.
        -11    1    4    4    0    0  0.32907201033E+02  0.36232347076E+02  0.25050325427E+03  0.25524017563E+03  0.00000000000E+00 0.  1.
         11    1    4    4    0    0 -0.43082830259E+02 -0.17259372785E+02  0.27794502309E+03  0.28179327897E+03  0.00000000000E+00 0. -1.
         21    1    1    2  502  501  0.25334841335E+02  0.92331564373E-01  0.14430696107E+03  0.14651403252E+03  0.00000000000E+00 0.  1.
<scales pt_clust_5="13000.00000" pt_clust_6="13000.00000" pt_clust_7="13000.00000" pt_clust_8="13000.00000" pt_clust_9="25.33501"></scales>
<clustering>
<clus scale="   25.335">  1  9  2 -1</clus>
<clus scale="   79.820">  5  6 -1 -1</clus>
<clus scale="   83.057">  2  5  1 -1</clus>
<clus scale="   93.187">  7  8 -1 -1</clus>
<clus scale="   25.335">  1  5  2 -1</clus>
</clustering>
</event>
<event>
 9    2  0.3791909E-005  0.1196272E+03  0.7546771E-02  0.1258930E+00
          2   -1    0    0  502    0  0.00000000000E+00  0.00000000000E+00  0.68073788882E+02  0.68073788882E+02  0.00000000000E+00 0. -1.
         -1   -1    0    0    0  501 -0.00000000000E+00 -0.00000000000E+00 -0.39592614959E+03  0.39592614959E+03  0.00000000000E+00 0.  1.
         23    2    1    2    0    0  0.10820808236E+02 -0.39459923769E+02 -0.32565319962E+03  0.34713399547E+03  0.11303905925E+03 0.  0.
         24    2    1    2    0    0 -0.32648387703E+02  0.22906875074E+02 -0.74849514464E+01  0.88966369060E+02  0.79172900542E+02 0.  0.
        -13    1    4    4    0    0 -0.13617041246E+02  0.28658423076E+02 -0.39876837753E+02  0.50959701870E+02  0.00000000000E+00 0.  1.
         14    1    4    4    0    0 -0.19031346457E+02 -0.57515480019E+01  0.32391886306E+02  0.38006667190E+02  0.00000000000E+00 0. -1.
        -13    1    3    3    0    0  0.78704386699E+00  0.36357656220E+02 -0.55413537550E+02  0.66280907867E+02  0.00000000000E+00 0. -1.
         13    1    3    3    0    0  0.10033764369E+02 -0.75817579989E+02 -0.27023966207E+03  0.28085308761E+03  0.00000000000E+00 0.  1.
         21    1    1    2  502  501  0.21827579467E+02  0.16553048694E+02  0.52857903543E+01  0.27899573942E+02  0.00000000000E+00 0. -1.
<scales pt_clust_5="13000.00000" pt_clust_6="13000.00000" pt_clust_7="13000.00000" pt_clust_8="13000.00000" pt_clust_9="27.39428"></scales>
<clustering>
<clus scale="   27.394">  1  9  2 -1</clus>
<clus scale="   79.173">  5  6 -1 -1</clus>
<clus scale="   88.324">  1  5  2 -1</clus>
<clus scale="  113.039">  7  8 -1 -1</clus>
<clus scale="   27.394">  1  5  2 -1</clus>
</clustering>
</event>
<event>
 9    2  0.3791909E-005  0.9983040E+02  0.7546771E-02  0.1284888E+00
         -1   -1    0    0    0  501 -0.00000000000E+00  0.00000000000E+00  0.18299484961E+03  0.18299484961E+03  0.00000000000E+00 0.  1.
          2   -1    0    0  502    0  0.00000000000E+00 -0.00000000000E+00 -0.13614232402E+03  0.13614232402E+03  0.00000000000E+00 0. -1.
         23    2    1    2    0    0 -0.23807743625E+02  0.56701051037E+02  0.97150751645E+02  0.14614937062E+03  0.90219466544E+02 0.  0.
         24    2    1    2    0    0  0.32165761561E+02  0.62706648150E+01  0.59292917362E+01  0.88153687118E+02  0.81620822086E+02 0.  0.
        -11    1    4    4    0    0 -0.23425131859E+02  0.10833696074E+02  0.17507491774E+02  0.31186824806E+02  0.00000000000E+00 0.  1.
         12    1    4    4    0    0  0.55590893421E+02 -0.45630312594E+01 -0.11578200038E+02  0.56966862312E+02  0.00000000000E+00 0. -1.
        -13    1    3    3    0    0  0.32944037507E+00 -0.24028627720E+02  0.29779746069E+02  0.38266392004E+02  0.00000000000E+00 0. -1.
         13    1    3    3    0    0 -0.24137184000E+02  0.80729678757E+02  0.67371005576E+02  0.10788297862E+03  0.00000000000E+00 0.  1.
         21    1    1    2  502  501 -0.83580179358E+01 -0.62971715852E+02 -0.56227517787E+02  0.84834115883E+02  0.00000000000E+00 0. -1.
<scales pt_clust_5="13000.00000" pt_clust_6="13000.00000" pt_clust_7="13000.00000" pt_clust_8="13000.00000" pt_clust_9="63.52396"></scales>
<clustering>
<clus scale="   63.524">  2  9  1 -1</clus>
<clus scale="   81.621">  5  6 -1 -1</clus>
<clus scale="   90.219">  7  8 -1 -1</clus>
<clus scale="   92.133">  2  5  1 -1</clus>
<clus scale="   63.524">  2  5  1 -1</clus>
</clustering>
</event>
<event>
 9    2  0.3791909E-005  0.9830822E+02  0.7546771E-02  0.1288887E+00
          2   -1    0    0  502    0  0.00000000000E+00  0.00000000000E+00  0.12399514911E+04  0.12399514911E+04  0.00000000000E+00 0. -1.
         -1   -1    0    0    0  501 -0.00000000000E+00 -0.00000000000E+00 -0.13627775301E+02  0.13627775301E+02  0.00000000000E+00 0.  1.
         24    2    1    2    0    0 -0.20012879410E+02 -0.62442596530E+02  0.37744768337E+03  0.39139870477E+03  0.80166072677E+02 0.  0.
         23    2    1    2    0    0  0.84243944468E+01  0.30529111636E+01  0.50241562815E+03  0.51047579988E+03  0.89909889106E+02 0.  0.
        -11    1    3    3    0    0 -0.31960603705E+02  0.68168609757E+01  0.14029014415E+03  0.14404608405E+03  0.00000000000E+00 0.  1.
         12    1    3    3    0    0  0.11947724295E+02 -0.69259457506E+02  0.23715753922E+03  0.24735262072E+03  0.00000000000E+00 0. -1.
        -11    1    4    4    0    0 -0.14134193695E+02 -0.39631458418E+02  0.23384290404E+03  0.23759825694E+03  0.00000000000E+00 0. -1.
         11    1    4    4    0    0  0.22558588142E+02  0.42684369581E+02  0.26857272411E+03  0.27287754294E+03  0.00000000000E+00 0.  1.
         21    1    1    2  502  501  0.11588484964E+02  0.59389685366E+02  0.34646040430E+03  0.35170476178E+03  0.00000000000E+00 0.  1.
<scales pt_clust_5="13000.00000" pt_clust_6="13000.00000" pt_clust_7="13000.00000" pt_clust_8="13000.00000" pt_clust_9="60.50973"></scales>
<clustering>
<clus scale="   60.510">  1  9  2 -1</clus>
<clus scale="   80.166">  5  6 -1 -1</clus>
<clus scale="   89.484">  2  5  1 -1</clus>
<clus scale="   89.910">  7  8 -1 -1</clus>
<clus scale="   60.510">  1  5  2 -1</clus>
</clustering>
</event>
<event>
 9    2  0.3791909E-005  0.1367687E+03  0.7546771E-02  0.1220240E+00
         -1   -1    0    0    0  501 -0.00000000000E+00  0.00000000000E+00  0.60835709570E+02  0.60835709570E+02  0.00000000000E+00 0.  1.
          2   -1    0    0  502    0  0.00000000000E+00 -0.00000000000E+00 -0.44237219056E+03  0.44237219056E+03  0.00000000000E+00 0. -1.
         24    2    1    2    0    0 -0.28196826497E+02  0.10056041612E+03 -0.65584320560E+02  0.14693240585E+03  0.79877221219E+02 0.  0.
         23    2    1    2    0    0  0.51403188671E+02 -0.84617714776E+02 -0.28044511054E+03  0.31096042435E+03  0.90799119075E+02 0.  0.
        -13    1    3    3    0    0  0.29993955847E+01  0.65428453586E+02  0.92267627762E+00  0.65503665883E+02  0.00000000000E+00 0.  1.
         14    1    3    3    0    0 -0.31196222081E+02  0.35131962532E+02 -0.66506996838E+02  0.81428739962E+02  0.00000000000E+00 0. -1.
        -13    1    4    4    0    0  0.75994520582E+02 -0.52947129215E+02 -0.21655153490E+03  0.23552735068E+03  0.00000000000E+00 0. -1.
         13    1    4    4    0    0 -0.24591331911E+02 -0.31670585561E+02 -0.63893575649E+02  0.75433073676E+02  0.00000000000E+00 0.  1.
         21    1    1    2  502  501 -0.23206362174E+02 -0.15942701343E+02 -0.35507049886E+02  0.45315069934E+02  0.00000000000E+00 0. -1.
<scales pt_clust_5="13000.00000" pt_clust_6="13000.00000" pt_clust_7="13000.00000" pt_clust_8="13000.00000" pt_clust_9="28.15502"></scales>
<clustering>
<clus scale="   28.155">  2  9  1 -1</clus>
<clus scale="   79.877">  5  6 -1 -1</clus>
<clus scale="   90.799">  7  8 -1 -1</clus>
<clus scale="  129.775">  1  5  2 -1</clus>
<clus scale="   28.155">  2  5  1 -1</clus>
</clustering>
</event>
<event>
 9    2  0.3791909E-005  0.1358216E+03  0.7546771E-02  0.1221311E+00
         -1   -1    0    0    0  501 -0.00000000000E+00  0.00000000000E+00  0.14977942856E+03  0.14977942856E+03  0.00000000000E+00 0.  1.
          2   -1    0    0  502    0  0.00000000000E+00 -0.00000000000E+00 -0.17115777181E+03  0.17115777181E+03  0.00000000000E+00 0. -1.
         23    2    1    2    0    0  0.96861809636E+02 -0.52839076288E+02  0.26157161147E+02  0.14511176860E+03  0.90548606606E+02 0.  0.
         24    2    1    2    0    0 -0.93468517879E+02  0.75101497137E+01 -0.35156231955E+02  0.12871415499E+03  0.80861652632E+02 0.  0.
        -13    1    4    4    0    0 -0.10754274984E+03 -0.63268720816E+00 -0.29853478006E+02  0.11161126056E+03  0.00000000000E+00 0.  1.
         14    1    4    4    0    0  0.14074231957E+02  0.81428369219E+01 -0.53027539491E+01  0.17102894427E+02  0.00000000000E+00 0. -1.
        -13    1    3    3    0    0  0.45566595170E+02  0.18314001138E+02  0.29580180830E+02  0.57329785722E+02  0.00000000000E+00 0. -1.
         13    1    3    3    0    0  0.51295214466E+02 -0.71153077426E+02 -0.34230196825E+01  0.87781982879E+02  0.00000000000E+00 0.  1.
         21    1    1    2  502  501 -0.33932917574E+01  0.45328926574E+02 -0.12379272445E+02  0.47111276777E+02  0.00000000000E+00 0. -1.
<scales pt_clust_5="13000.00000" pt_clust_6="13000.00000" pt_clust_7="13000.00000" pt_clust_8="13000.00000" pt_clust_9="45.45576"></scales>
<clustering>
<clus scale="   45.456">  2  9  1 -1</clus>
<clus scale="   80.862">  5  6 -1 -1</clus>
<clus scale="   90.549">  7  8 -1 -1</clus>
<clus scale="  129.565">  2  5  1 -1</clus>
<clus scale="   45.456">  2  5  1 -1</clus>
</clustering>
</event>
<event>
 9    2  0.3791909E-005  0.3858037E+03  0.7546771E-02  0.1058878E+00
          2   -1    0    0  502    0  0.00000000000E+00  0.00000000000E+00  0.37979085039E+04  0.37979085039E+04  0.00000000000E+00 0. -1.
         -1   -1    0    0    0  501 -0.00000000000E+00 -0.00000000000E+00 -0.10929507831E+03  0.10929507831E+03  0.00000000000E+00 0.  1.
         23    2    1    2    0    0 -0.22598109939E+02 -0.27470780788E+03  0.28400414907E+03  0.40596833512E+03  0.90426092204E+02 0.  0.
         24    2    1    2    0    0 -0.32121756432E+03 -0.18932812304E+02  0.97589973080E+03  0.10307972112E+04  0.81384464371E+02 0.  0.
        -13    1    4    4    0    0 -0.23463198979E+03  0.92896672828E+01  0.60734639844E+03  0.65115905603E+03  0.00000000000E+00 0.  1.
         14    1    4    4    0    0 -0.86585574531E+02 -0.28222479587E+02  0.36855333236E+03  0.37963815518E+03  0.00000000000E+00 0. -1.
        -13    1    3    3    0    0 -0.44390985029E+02 -0.77607912764E+02  0.11319465224E+03  0.14424485076E+03  0.00000000000E+00 0. -1.
         13    1    3    3    0    0  0.21792875090E+02 -0.19709989512E+03  0.17080949683E+03  0.26172348436E+03  0.00000000000E+00 0.  1.
         21    1    1    2  502  501  0.34381567426E+03  0.29364062018E+03  0.24287095457E+04  0.24704380359E+04  0.00000000000E+00 0. -1.
<scales pt_clust_5="13000.00000" pt_clust_6="13000.00000" pt_clust_7="13000.00000" pt_clust_8="13000.00000" pt_clust_9="377.12204"></scales>
<clustering>
<clus scale="   81.384">  5  6 -1 -1</clus>
<clus scale="   90.426">  7  8 -1 -1</clus>
<clus scale="  290.090">  2  7  1 -1</clus>
<clus scale="  377.122">  1  9  2 -1</clus>
<clus scale="  377.122">  1  5  2 -1</clus>
</clustering>
</event>
<event>
 9    2  0.3791909E-005  0.9162604E+02  0.7546771E-02  0.1303526E+00
         -1   -1    0    0    0  501 -0.00000000000E+00  0.00000000000E+00  0.15294249145E+03  0.15294249145E+03  0.00000000000E+00 0.  1.
          2   -1    0    0  502    0  0.00000000000E+00 -0.00000000000E+00 -0.13155235013E+03  0.13155235013E+03  0.00000000000E+00 0. -1.
         23    2    1    2    0    0 -0.28457872989E+01 -0.69556723928E+01  0.68071333354E+02  0.11370521573E+03  0.90767228534E+02 0.  0.
         24    2    1    2    0    0  0.23557729930E+02 -0.27613739162E+02  0.19840292540E+02  0.93013429658E+02  0.83308917042E+02 0.  0.
        -13    1    4    4    0    0  0.40687982020E+02 -0.23037715411E+01 -0.17848565625E+02  0.44490342087E+02  0.00000000000E+00 0.  1.
         14    1    4    4    0    0 -0.17130252090E+02 -0.25309967621E+02  0.37688858165E+02  0.48523087571E+02  0.00000000000E+00 0. -1.
        -13    1    3    3    0    0 -0.34254169295E+02 -0.82186784454E+01 -0.36333100051E+01  0.35413214074E+02  0.00000000000E+00 0. -1.
         13    1    3    3    0    0  0.31408381996E+02  0.12630060526E+01  0.71704643359E+02  0.78292001655E+02  0.00000000000E+00 0.  1.
         21    1    1    2  502  501 -0.20711942631E+02  0.34569411555E+02 -0.66521484576E+02  0.77776196185E+02  0.00000000000E+00 0. -1.
<scales pt_clust_5="13000.00000" pt_clust_6="13000.00000" pt_clust_7="13000.00000" pt_clust_8="13000.00000" pt_clust_9="40.29924"></scales>
<clustering>
<clus scale="   40.299">  2  9  1 -1</clus>
<clus scale="   83.309">  5  6 -1 -1</clus>
<clus scale="   84.244">  2  5  1 -1</clus>
<clus scale="   90.767">  7  8 -1 -1</clus>
<clus scale="   40.299">  2  5  1 -1</clus>
</clustering>
</event>
<event>
 9    2  0.3791909E-005  0.1128890E+03  0.7546771E-02  0.1261373E+00
         -1   -1    0    0    0  501 -0.00000000000E+00  0.00000000000E+00  0.20043478263E+02  0.20043478263E+02  0.00000000000E+00 0.  1.
          2   -1    0    0  502    0  0.00000000000E+00 -0.00000000000E+00 -0.80745508360E+03  0.80745508360E+03  0.00000000000E+00 0. -1.
         24    2    1    2    0    0  0.61506662942E+02 -0.29692238004E+02 -0.27010900572E+03  0.28869034997E+03  0.75621059327E+02 0.  0.
         23    2    1    2    0    0 -0.66637993627E+02  0.22166677222E+00 -0.46420687653E+03  0.47786560829E+03  0.91797843311E+02 0.  0.
        -13    1    3    3    0    0  0.67859416038E+02 -0.15228516508E+02 -0.12771968188E+03  0.14542738807E+03  0.00000000000E+00 0.  1.
         14    1    3    3    0    0 -0.63527530965E+01 -0.14463721495E+02 -0.14238932384E+03  0.14326296191E+03  0.00000000000E+00 0. -1.
        -13    1    4    4    0    0 -0.45229874896E+02  0.44999621510E+02 -0.26186640993E+03  0.26952685240E+03  0.00000000000E+00 0.  1.
         13    1    4    4    0    0 -0.21408118731E+02 -0.44777954738E+02 -0.20234046661E+03  0.20833875589E+03  0.00000000000E+00 0. -1.
         21    1    1    2  502  501  0.51313306846E+01  0.29470571231E+02 -0.53095723085E+02  0.60942603598E+02  0.00000000000E+00 0.  1.
<scales pt_clust_5="13000.00000" pt_clust_6="13000.00000" pt_clust_7="13000.00000" pt_clust_8="13000.00000" pt_clust_9="29.91396"></scales>
<clustering>
<clus scale="   29.914">  1  9  2 -1</clus>
<clus scale="   75.621">  5  6 -1 -1</clus>
<clus scale="   91.798">  7  8 -1 -1</clus>
<clus scale="  100.178">  1  5  2 -1</clus>
<clus scale="  112.889">  2  5  1 -1</clus>
</clustering>
</event>
<event>
 9    2  0.3791909E-005  0.1295794E+03  0.7546771E-02  0.1231140E+00
         -1   -1    0    0    0  501 -0.00000000000E+00  0.00000000000E+00  0.16173433291E+03  0.16173433291E+03  0.00000000000E+00 0.  1.
          2   -1    0    0  502    0  0.00000000000E+00 -0.00000000000E+00 -0.31540551803E+03  0.31540551803E+03  0.00000000000E+00 0. -1.
         24    2    1    2    0    0  0.70233468526E+02  0.24463416618E+01  0.40260373060E+02  0.11396863366E+03  0.80182461490E+02 0.  0.
         23    2    1    2    0    0 -0.15454144925E+03 -0.20051626572E+02 -0.37653591620E+02  0.18473191527E+03  0.91776687083E+02 0.  0.
        -11    1    3    3    0    0  0.49771571644E+02  0.39594508906E+02  0.18142370945E+02  0.66136828643E+02  0.00000000000E+00 0.  1.
         12    1    3    3    0    0  0.20461896882E+02 -0.37148167244E+02  0.22118002115E+02  0.47831805017E+02  0.00000000000E+00 0. -1.
        -11    1    4    4    0    0 -0.12427998973E+03 -0.73988181881E+01  0.12156592495E+02  0.12509213045E+03  0.00000000000E+00 0.  1.
         11    1    4    4    0    0 -0.30261459522E+02 -0.12652808384E+02 -0.49810184115E+02  0.59639784825E+02  0.00000000000E+00 0. -1.
         21    1    1    2  502  501  0.84307980729E+02  0.17605284910E+02 -0.15627796656E+03  0.17843930201E+03  0.00000000000E+00 0. -1.
<scales pt_clust_5="13000.00000" pt_clust_6="13000.00000" pt_clust_7="13000.00000" pt_clust_8="13000.00000" pt_clust_9="86.12654"></scales>
<clustering>
<clus scale="   80.182">  5  6 -1 -1</clus>
<clus scale="   86.127">  2  9  1 -1</clus>
<clus scale="   91.777">  7  8 -1 -1</clus>
<clus scale="  121.643">  1  5  2 -1</clus>
<clus scale="   86.127">  2  5  1 -1</clus>
</clustering>
</event>
<event>
 9    2  0.3791909E-005  0.1566956E+03  0.7546771E-02  0.1194163E+00
          2   -1    0    0  502    0  0.00000000000E+00  0.00000000000E+00  0.33945766749E+03  0.33945766749E+03  0.00000000000E+00 0. -1.
         -1   -1    0    0    0  501 -0.00000000000E+00 -0.00000000000E+00 -0.17372611525E+03  0.17372611525E+03  0.00000000000E+00 0.  1.
         23    2    1    2    0    0  0.44864290116E+02 -0.11933891941E+03 -0.93810595418E+02  0.18256330317E+03  0.90963452212E+02 0.  0.
         24    2    1    2    0    0 -0.60495952548E+01  0.13359028223E+03  0.23604874268E+03  0.28306396627E+03  0.80766570900E+02 0.  0.
        -13    1    4    4    0    0  0.17115058972E+02  0.17466718424E+02  0.73603781275E+01  0.25537945538E+02  0.00000000000E+00 0.  1.
         14    1    4    4    0    0 -0.23164654227E+02  0.11612356381E+03  0.22868836455E+03  0.25752602074E+03  0.00000000000E+00 0. -1.
        -13    1    3    3    0    0  0.69744532953E+02 -0.92449645734E+02 -0.88050811157E+02  0.14547914702E+03  0.00000000000E+00 0.  1.
         13    1    3    3    0    0 -0.24880242837E+02 -0.26889273672E+02 -0.57597842604E+01  0.37084156145E+02  0.00000000000E+00 0. -1.
         21    1    1    2  502  501 -0.38814694861E+02 -0.14251362824E+02  0.23493404985E+02  0.47556513300E+02  0.00000000000E+00 0. -1.
<scales pt_clust_5="13000.00000" pt_clust_6="13000.00000" pt_clust_7="13000.00000" pt_clust_8="13000.00000" pt_clust_9="41.34830"></scales>
<clustering>
<clus scale="   41.348">  1  9  2 -1</clus>
<clus scale="   80.767">  5  6 -1 -1</clus>
<clus scale="   90.963">  7  8 -1 -1</clus>
<clus scale="  151.005">  1  5  2 -1</clus>
<clus scale="   41.348">  1  5  2 -1</clus>
</clustering>
</event>
<event>
 9    2  0.3791909E-005  0.9591566E+02  0.7546771E-02  0.1296270E+00
          2   -1    0    0  502    0  0.00000000000E+00  0.00000000000E+00  0.19007520874E+03  0.19007520874E+03  0.00000000000E+00 0. -1.
         -1   -1    0    0    0  501 -0.00000000000E+00 -0.00000000000E+00 -0.21722194473E+03  0.21722194473E+03  0.00000000000E+00 0.  1.
         23    2    1    2    0    0 -0.16966121564E+02 -0.15156979030E+02 -0.15051455744E+03  0.17796033435E+03  0.92182782047E+02 0.  0.
         24    2    1    2    0    0 -0.16615991658E+02  0.62863490893E+02  0.11888339127E+02  0.10351414795E+03  0.79661386841E+02 0.  0.
        -11    1    4    4    0    0  0.26641110020E+02  0.45620230751E+02 -0.69423168621E+01  0.53283674426E+02  0.00000000000E+00 0.  1.
         12    1    4    4    0    0 -0.43257101678E+02  0.17243260142E+02  0.18830655989E+02  0.50230473528E+02  0.00000000000E+00 0. -1.
        -11    1    3    3    0    0 -0.24895775343E+02 -0.36168425513E+02 -0.25152196313E+02  0.50602249094E+02  0.00000000000E+00 0. -1.
         11    1    3    3    0    0  0.79296537788E+01  0.21011446483E+02 -0.12536236113E+03  0.12735808526E+03  0.00000000000E+00 0.  1.
         21    1    1    2  502  501  0.33582113223E+02 -0.47706511863E+02  0.11147948232E+03  0.12582267117E+03  0.00000000000E+00 0. -1.
<scales pt_clust_5="13000.00000" pt_clust_6="13000.00000" pt_clust_7="13000.00000" pt_clust_8="13000.00000" pt_clust_9="58.34098"></scales>
<clustering>
<clus scale="   58.341">  1  9  2 -1</clus>
<clus scale="   79.661">  5  6 -1 -1</clus>
<clus scale="   83.953">  1  5  2 -1</clus>
<clus scale="   92.183">  7  8 -1 -1</clus>
<clus scale="   58.341">  1  5  2 -1</clus>
</clustering>
</event>
<event>
 9    2  0.3791909E-005  0.2163302E+03  0.7546771E-02  0.1137747E+00
         -1   -1    0    0    0  501 -0.00000000000E+00  0.00000000000E+00  0.25865335115E+03  0.25865335115E+03  0.00000000000E+00 0.  1.
          2   -1    0    0  502    0  0.00000000000E+00 -0.00000000000E+00 -0.29181059046E+03  0.29181059046E+03  0.00000000000E+00 0. -1.
         24    2    1    2    0    0 -0.15563128238E+03 -0.12679603707E+03  0.89833265695E+02  0.23369010192E+03  0.79010866585E+02 0.  0.
         23    2    1    2    0    0  0.10698907148E+03  0.15796863212E+03 -0.40593921850E+02  0.21614088147E+03  0.93103512300E+02 0.  0.
        -13    1    3    3    0    0 -0.16264438411E+03 -0.12045576802E+03  0.74484907679E+02  0.21566360195E+03  0.00000000000E+00 0.  1.
         14    1    3    3    0    0  0.70131017324E+01 -0.63402690481E+01  0.15348358016E+02  0.18026499973E+02  0.00000000000E+00 0. -1.
        -11    1    4    4    0    0  0.49546594176E+02  0.13641339408E+03 -0.50187392011E+01  0.14521937482E+03  0.00000000000E+00 0. -1.
         11    1    4    4    0    0  0.57442477304E+02  0.21555238039E+02 -0.35575182649E+02  0.70921506655E+02  0.00000000000E+00 0.  1.
         21    1    1    2  502  501  0.48642210897E+02 -0.31172595049E+02 -0.82396583161E+02  0.10063295822E+03  0.00000000000E+00 0. -1.
<scales pt_clust_5="13000.00000" pt_clust_6="13000.00000" pt_clust_7="13000.00000" pt_clust_8="13000.00000" pt_clust_9="57.77366"></scales>
<clustering>
<clus scale="   57.774">  2  9  1 -1</clus>
<clus scale="   79.011">  5  6 -1 -1</clus>
<clus scale="   93.104">  7  8 -1 -1</clus>
<clus scale="  210.649">  1  5  2 -1</clus>
<clus scale="   57.774">  2  5  1 -1</clus>
</clustering>
</event>
<event>
 9    2  0.3791909E-005  0.9272035E+02  0.7546771E-02  0.1297694E+00
          2   -1    0    0  502    0  0.00000000000E+00  0.00000000000E+00  0.74032545140E+02  0.74032545140E+02  0.00000000000E+00 0. -1.
         -1   -1    0    0    0  501 -0.00000000000E+00 -0.00000000000E+00 -0.30369801241E+03  0.30369801241E+03  0.00000000000E+00 0.  1.
         24    2    1    2    0    0  0.26580297615E+02 -0.34866865387E+02 -0.23200667126E+03  0.24971631722E+03  0.81295344607E+02 0.  0.
         23    2    1    2    0    0 -0.92731143458E+01  0.24323945225E+02 -0.27532141037E+02  0.91915646148E+02  0.83742595230E+02 0.  0.
        -11    1    3    3    0    0  0.37749194736E+02 -0.47810603741E+02 -0.22132991332E+03  0.22955998359E+03  0.00000000000E+00 0.  1.
         12    1    3    3    0    0 -0.11168897121E+02  0.12943738354E+02 -0.10676757933E+02  0.20156333631E+02  0.00000000000E+00 0. -1.
        -13    1    4    4    0    0  0.18372256704E+02 -0.24686456497E+02 -0.15148861397E+02  0.34299401633E+02  0.00000000000E+00 0.  1.
         13    1    4    4    0    0 -0.27645371050E+02  0.49010401721E+02 -0.12383279639E+02  0.57616244515E+02  0.00000000000E+00 0. -1.
         21    1    1    2  502  501 -0.17307183269E+02  0.10542920162E+02  0.29873345029E+02  0.36098594176E+02  0.00000000000E+00 0. -1.
<scales pt_clust_5="13000.00000" pt_clust_6="13000.00000" pt_clust_7="13000.00000" pt_clust_8="13000.00000" pt_clust_9="20.26553"></scales>
<clustering>
<clus scale="   20.266">  1  9  2 -1</clus>
<clus scale="   81.295">  5  6 -1 -1</clus>
<clus scale="   83.743">  7  8 -1 -1</clus>
<clus scale="   90.516">  2  5  1 -1</clus>
<clus scale="   20.266">  1  5  2 -1</clus>
</clustering>
</event>
<event>
 9    2  0.3791909E-005  0.9400926E+02  0.7546771E-02  0.1303995E+00
          2   -1    0    0  502    0  0.00000000000E+00  0.00000000000E+00  0.32754085696E+03  0.32754085696E+03  0.00000000000E+00 0. -1.
         -1   -1    0    0    0  501 -0.00000000000E+00 -0.00000000000E+00 -0.16254798388E+03  0.16254798388E+03  0.00000000000E+00 0.  1.
         23    2    1    2    0    0  0.10679840407E+02 -0.35274358410E+02 -0.10641066674E+03  0.14490743790E+03  0.91195373847E+02 0.  0.
         24    2    1    2    0    0 -0.11588901559E+02 -0.12833202046E+02  0.67398093022E+01  0.76179443810E+02  0.73884294107E+02 0.  0.
        -11    1    4    4    0    0  0.13989476058E+02  0.21713613989E+02 -0.12955461129E+02  0.28896893361E+02  0.00000000000E+00 0.  1.
         12    1    4    4    0    0 -0.25578377617E+02 -0.34546816034E+02  0.19695270432E+02  0.47282550449E+02  0.00000000000E+00 0. -1.
        -13    1    3    3    0    0  0.35341114204E+02  0.89483992210E+01 -0.79739712749E+02  0.87678332507E+02  0.00000000000E+00 0.  1.
         13    1    3    3    0    0 -0.24661273797E+02 -0.44222757631E+02 -0.26670953993E+02  0.57229105398E+02  0.00000000000E+00 0. -1.
         21    1    1    2  502  501  0.90906115157E+00  0.48107560456E+02  0.26466373052E+03  0.26900195913E+03  0.00000000000E+00 0. -1.
<scales pt_clust_5="13000.00000" pt_clust_6="13000.00000" pt_clust_7="13000.00000" pt_clust_8="13000.00000" pt_clust_9="48.11615"></scales>
<clustering>
<clus scale="   48.116">  1  9  2 -1</clus>
<clus scale="   73.884">  5  6 -1 -1</clus>
<clus scale="   77.331">  1  5  2 -1</clus>
<clus scale="   91.195">  7  8 -1 -1</clus>
<clus scale="   48.116">  1  5  2 -1</clus>
</clustering>
</event>
<event>
 9    2  0.3791909E-005  0.1267289E+03  0.7546771E-02  0.1246040E+00
          2   -1    0    0  502    0  0.00000000000E+00  0.00000000000E+00  0.22614440160E+03  0.22614440160E+03  0.00000000000E+00 0. -1.
         -1   -1    0    0    0  501 -0.00000000000E+00 -0.00000000000E+00 -0.25610755232E+03  0.25610755232E+03  0.00000000000E+00 0.  1.
         23    2    1    2    0    0 -0.46608874998E+02 -0.99900974863E+01 -0.51984673010E+02  0.10918312941E+03  0.83344827329E+02 0.  0.
         24    2    1    2    0    0  0.66118591940E+01 -0.96036611103E+02  0.15412217028E+03  0.19902283804E+03  0.81176963075E+02 0.  0.
        -11    1    4    4    0    0  0.51735051473E+01 -0.31834177157E+02  0.12393564335E+03  0.12806335809E+03  0.00000000000E+00 0.  1.
         12    1    4    4    0    0  0.14383540466E+01 -0.64202433946E+02  0.30186526926E+02  0.70959479950E+02  0.00000000000E+00 0. -1.
        -11    1    3    3    0    0 -0.62644122588E+02  0.13383973131E+02 -0.21532393590E+02  0.67580032593E+02  0.00000000000E+00 0. -1.
         11    1    3    3    0    0  0.16035247590E+02 -0.23374070617E+02 -0.30452279419E+02  0.41603096812E+02  0.00000000000E+00 0.  1.
         21    1    1    2  502  501  0.39997015804E+02  0.10602670859E+03 -0.13210064800E+03  0.17404598648E+03  0.00000000000E+00 0.  1.
<scales pt_clust_5="13000.00000" pt_clust_6="13000.00000" pt_clust_7="13000.00000" pt_clust_8="13000.00000" pt_clust_9="97.31657"></scales>
<clustering>
<clus scale="   81.177">  5  6 -1 -1</clus>
<clus scale="   83.345">  7  8 -1 -1</clus>
<clus scale="   96.013">  2  7  1 -1</clus>
<clus scale="   97.317">  2  9  1 -1</clus>
<clus scale="  126.729">  1  5  2 -1</clus>
</clustering>
</event>
<event>
 9    2  0.3791909E-005  0.1075874E+03  0.7546771E-02  0.1269664E+00
          2   -1    0    0  502    0  0.00000000000E+00  0.00000000000E+00  0.66681908680E+03  0.66681908680E+03  0.00000000000E+00 0. -1.
         -1   -1    0    0    0  501 -0.00000000000E+00 -0.00000000000E+00 -0.26598807599E+02  0.26598807599E+02  0.00000000000E+00 0.  1.
         23    2    1    2    0    0 -0.46708999806E+02 -0.29963331689E+02  0.14056037186E+03  0.17672084549E+03  0.91616085834E+02 0.  0.
         24    2    1    2    0    0  0.34365723665E+02  0.51307663117E+02  0.33117025052E+03  0.34641287053E+03  0.80713460983E+02 0.  0.
        -11    1    4    4    0    0 -0.10902164714E+02  0.54409170849E+02  0.20302109689E+03  0.21046800434E+03  0.00000000000E+00 0.  1.
         12    1    4    4    0    0  0.45267888379E+02 -0.31015077317E+01  0.12814915363E+03  0.13594486620E+03  0.00000000000E+00 0. -1.
        -11    1    3    3    0    0  0.14716843132E+02 -0.35389908540E+02  0.86900703990E+02  0.94977699763E+02  0.00000000000E+00 0. -1.
         11    1    3    3    0    0 -0.61425842938E+02  0.54265768507E+01  0.53659667867E+02  0.81743145723E+02  0.00000000000E+00 0.  1.
         21    1    1    2  502  501  0.12343276140E+02 -0.21344331428E+02  0.16848965682E+03  0.17028417838E+03  0.00000000000E+00 0. -1.
<scales pt_clust_5="13000.00000" pt_clust_6="13000.00000" pt_clust_7="13000.00000" pt_clust_8="13000.00000" pt_clust_9="24.65638"></scales>
<clustering>
<clus scale="   24.656">  1  9  2 -1</clus>
<clus scale="   80.713">  5  6 -1 -1</clus>
<clus scale="   91.616">  7  8 -1 -1</clus>
<clus scale="   98.469">  1  5  2 -1</clus>
<clus scale="   24.656">  1  5  2 -1</clus>
</clustering>
</event>
<event>
 9    2  0.3791909E-005  0.9900314E+02  0.7546771E-02  0.1290275E+00
         -1   -1    0    0    0  501 -0.00000000000E+00  0.00000000000E+00  0.12232790181E+03  0.12232790181E+03  0.00000000000E+00 0.  1.
          2   -1    0    0  502    0  0.00000000000E+00 -0.00000000000E+00 -0.16180884530E+03  0.16180884530E+03  0.00000000000E+00 0. -1.
         24    2    1    2    0    0 -0.29251075730E+02 -0.23256947345E+02  0.51997342572E+02  0.10361017924E+03  0.81454493903E+02 0.  0.
         23    2    1    2    0    0 -0.55847431444E+01 -0.21433922965E+02 -0.66599184451E+02  0.11864136880E+03  0.95654171955E+02 0.  0.
        -13    1    3    3    0    0 -0.26290746640E+02  0.26513757421E+02  0.34305908803E+02  0.50705799178E+02  0.00000000000E+00 0.  1.
         14    1    3    3    0    0 -0.29603290907E+01 -0.49770704766E+02  0.17691433769E+02  0.52904380065E+02  0.00000000000E+00 0. -1.
        -13    1    4    4    0    0  0.42250041685E+02 -0.83246107325E+00 -0.46452539154E+02  0.62798068503E+02  0.00000000000E+00 0. -1.
         13    1    4    4    0    0 -0.47834784829E+02 -0.20601461892E+02 -0.20146645297E+02  0.55843300301E+02  0.00000000000E+00 0.  1.
         21    1    1    2  502  501  0.34835818875E+02  0.44690870310E+02 -0.24879101608E+02  0.61885199059E+02  0.00000000000E+00 0. -1.
<scales pt_clust_5="13000.00000" pt_clust_6="13000.00000" pt_clust_7="13000.00000" pt_clust_8="13000.00000" pt_clust_9="56.66399"></scales>
<clustering>
<clus scale="   56.664">  2  9  1 -1</clus>
<clus scale="   81.454">  5  6 -1 -1</clus>
<clus scale="   85.362">  1  5  2 -1</clus>
<clus scale="   95.654">  7  8 -1 -1</clus>
<clus scale="   56.664">  2  5  1 -1</clus>
</clustering>
</event>
<event>
 9    2  0.3791909E-005  0.1301004E+03  0.7546771E-02  0.1234377E+00
          2   -1    0    0  502    0  0.00000000000E+00  0.00000000000E+00  0.22216546955E+03  0.22216546955E+03  0.00000000000E+00 0. -1.
         -1   -1    0    0    0  501 -0.00000000000E+00 -0.00000000000E+00 -0.10847911383E+03  0.10847911383E+03  0.00000000000E+00 0.  1.
         23    2    1    2    0    0  0.64465594472E+02  0.55169258783E+02 -0.34468835898E+02  0.13789994997E+03  0.10309624421E+03 0.  0.
         24    2    1    2    0    0 -0.48186516625E+02 -0.43415627241E+02  0.11727658070E+03  0.15591197342E+03  0.79673646835E+02 0.  0.
        -13    1    4    4    0    0 -0.85000467699E+01 -0.51722332461E+02  0.31805240957E+02  0.61310878501E+02  0.00000000000E+00 0.  1.
         14    1    4    4    0    0 -0.39686469855E+02  0.83067052199E+01  0.85471339745E+02  0.94601094915E+02  0.00000000000E+00 0. -1.
        -13    1    3    3    0    0  0.38557851562E+02 -0.21224206572E+02  0.10909542155E+02  0.45345264050E+02  0.00000000000E+00 0.  1.
         13    1    3    3    0    0  0.25907742910E+02  0.76393465355E+02 -0.45378378053E+02  0.92554685924E+02  0.00000000000E+00 0. -1.
         21    1    1    2  502  501 -0.16279077847E+02 -0.11753631542E+02  0.30878610912E+02  0.36832659989E+02  0.00000000000E+00 0.  1.
<scales pt_clust_5="13000.00000" pt_clust_6="13000.00000" pt_clust_7="13000.00000" pt_clust_8="13000.00000" pt_clust_9="20.07875"></scales>
<clustering>
<clus scale="   20.079">  1  9  2 -1</clus>
<clus scale="   79.674">  5  6 -1 -1</clus>
<clus scale="  103.096">  7  8 -1 -1</clus>
<clus scale="  112.451">  1  5  2 -1</clus>
<clus scale="   20.079">  1  5  2 -1</clus>
</clustering>
</event>
<event>
 9    2  0.3791909E-005  0.1343790E+03  0.7546771E-02  0.1226536E+00
          2   -1    0    0  502    0  0.00000000000E+00  0.00000000000E+00  0.55121221376E+03  0.55121221376E+03  0.00000000000E+00 0. -1.
         -1   -1    0    0    0  501 -0.00000000000E+00 -0.00000000000E+00 -0.60186918818E+02  0.60186918818E+02  0.00000000000E+00 0.  1.
         23    2    1    2    0    0 -0.42214073343E+02  0.66526073503E+01  0.37715994647E+02  0.11362979052E+03  0.98300294345E+02 0.  0.
         24    2    1    2    0    0  0.10509512257E+03 -0.14376352310E+02  0.37320098332E+03  0.39563695231E+03  0.77446496279E+02 0.  0.
        -13    1    4    4    0    0  0.58287641406E+02 -0.38208095644E+02  0.28110111630E+03  0.28961206000E+03  0.00000000000E+00 0.  1.
         14    1    4    4    0    0  0.46807481162E+02  0.23831743334E+02  0.92099867020E+02  0.10602489230E+03  0.00000000000E+00 0. -1.
        -11    1    3    3    0    0 -0.40737239650E+02 -0.40000211860E+02  0.64637409695E+01  0.57457110878E+02  0.00000000000E+00 0.  1.
         11    1    3    3    0    0 -0.14768336927E+01  0.46652819210E+02  0.31252253677E+02  0.56172679640E+02  0.00000000000E+00 0. -1.
         21    1    1    2  502  501 -0.62881049225E+02  0.77237449599E+01  0.80108316970E+02  0.10213238975E+03  0.00000000000E+00 0. -1.
<scales pt_clust_5="13000.00000" pt_clust_6="13000.00000" pt_clust_7="13000.00000" pt_clust_8="13000.00000" pt_clust_9="63.35363"></scales>
<clustering>
<clus scale="   63.354">  2  9  1 -1</clus>
<clus scale="   77.446">  5  6 -1 -1</clus>
<clus scale="   98.300">  7  8 -1 -1</clus>
<clus scale="  119.970">  1  5  2 -1</clus>
<clus scale="  119.970">  1  5  2 -1</clus>
</clustering>
</event>
<event>
 9    2  0.3791909E-005  0.3357416E+03  0.7546771E-02  0.1069222E+00
         -1   -1    0    0    0  501 -0.00000000000E+00  0.00000000000E+00  0.14617059446E+03  0.14617059446E+03  0.00000000000E+00 0.  1.
          2   -1    0    0  502    0  0.00000000000E+00 -0.00000000000E+00 -0.17036066252E+04  0.17036066252E+04  0.00000000000E+00 0. -1.
         23    2    1    2    0    0 -0.29584181790E+03  0.43604260553E+02 -0.17714193661E+03  0.36171390901E+03  0.10016972353E+03 0.  0.
         24    2    1    2    0    0  0.40751280360E+03  0.34630124812E+02 -0.97052608243E+03  0.10562058671E+04  0.79900103065E+02 0.  0.
        -13    1    4    4    0    0  0.13644111551E+03  0.47296606712E+02 -0.30399057140E+03  0.33654630367E+03  0.00000000000E+00 0.  1.
         14    1    4    4    0    0  0.27107168808E+03 -0.12666481899E+02 -0.66653551103E+03  0.71965956348E+03  0.00000000000E+00 0. -1.
        -13    1    3    3    0    0 -0.75848774854E+02 -0.25200459392E+02 -0.18922825229E+02  0.82135090644E+02  0.00000000000E+00 0.  1.
         13    1    3    3    0    0 -0.21999304304E+03  0.68804719946E+02 -0.15821911138E+03  0.27957881837E+03  0.00000000000E+00 0. -1.
         21    1    1    2  502  501 -0.11167098570E+03 -0.78234385366E+02 -0.40976801167E+03  0.43185744348E+03  0.00000000000E+00 0. -1.
<scales pt_clust_5="13000.00000" pt_clust_6="13000.00000" pt_clust_7="13000.00000" pt_clust_8="13000.00000" pt_clust_9="136.34892"></scales>
<clustering>
<clus scale="   79.900">  5  6 -1 -1</clus>
<clus scale="  100.170">  7  8 -1 -1</clus>
<clus scale="  136.349">  2  9  1 -1</clus>
<clus scale="  330.261">  2  5  1 -1</clus>
<clus scale="  136.349">  2  5  1 -1</clus>
</clustering>
</event>
<event>
 9    2  0.3791909E-005  0.9629292E+02  0.7546771E-02  0.1291954E+00
          2   -1    0    0  502    0  0.00000000000E+00  0.00000000000E+00  0.10405058276E+03  0.10405058276E+03  0.00000000000E+00 0. -1.
         -1   -1    0    0    0  501 -0.00000000000E+00 -0.00000000000E+00 -0.13379743328E+03  0.13379743328E+03  0.00000000000E+00 0.  1.
         24    2    1    2    0    0  0.24096939938E+02  0.27733604237E+01 -0.32121945495E+02  0.90868667357E+02  0.81467424671E+02 0.  0.
         23    2    1    2    0    0 -0.60757698565E+02 -0.11569461265E+02 -0.68754765475E+01  0.10815982156E+03  0.88464255224E+02 0.  0.
        -13    1    3    3    0    0  0.33294511685E+02 -0.32066075614E+02 -0.65570064940E+01  0.46687814767E+02  0.00000000000E+00 0.  1.
         14    1    3    3    0    0 -0.91975717467E+01  0.34839436038E+02 -0.25564939001E+02  0.44180852590E+02  0.00000000000E+00 0. -1.
        -13    1    4    4    0    0 -0.16003530693E+02  0.29611920997E+02 -0.27993956007E+02  0.43779452175E+02  0.00000000000E+00 0.  1.
         13    1    4    4    0    0 -0.44754167871E+02 -0.41181382262E+02  0.21118479460E+02  0.64380369381E+02  0.00000000000E+00 0. -1.
         21    1    1    2  502  501  0.36660758627E+02  0.87961008415E+01  0.92505715237E+01  0.38819527131E+02  0.00000000000E+00 0. -1.
<scales pt_clust_5="13000.00000" pt_clust_6="13000.00000" pt_clust_7="13000.00000" pt_clust_8="13000.00000" pt_clust_9="37.70123"></scales>
<clustering>
<clus scale="   37.701">  1  9  2 -1</clus>
<clus scale="   81.467">  5  6 -1 -1</clus>
<clus scale="   88.464">  7  8 -1 -1</clus>
<clus scale="   89.907">  2  5  1 -1</clus>
<clus scale="   37.701">  1  5  2 -1</clus>
</clustering>
</event>
<event>
 9    2  0.3791909E-005  0.9837607E+02  0.7546771E-02  0.1298470E+00
         -1   -1    0    0    0  501 -0.00000000000E+00  0.00000000000E+00  0.18835284951E+03  0.18835284951E+03  0.00000000000E+00 0.  1.
          2   -1    0    0  502    0  0.00000000000E+00 -0.00000000000E+00 -0.86633912471E+02  0.86633912471E+02  0.00000000000E+00 0. -1.
         24    2    1    2    0    0 -0.71424518499E+01  0.77733444539E+00  0.12950337680E+03  0.14956252181E+03  0.74472843775E+02 0.  0.
         23    2    1    2    0    0 -0.75438394031E+01 -0.15448511029E+02 -0.31035362278E+02  0.10441236091E+03  0.98199701589E+02 0.  0.
        -11    1    3    3    0    0 -0.38716959119E+02  0.20768625105E+01  0.45315432631E+02  0.59638953007E+02  0.00000000000E+00 0.  1.
         12    1    3    3    0    0  0.31574507269E+02 -0.12995280651E+01  0.84187944174E+02  0.89923568805E+02  0.00000000000E+00 0. -1.
        -13    1    4    4    0    0 -0.41919628202E+02 -0.10763476049E+02 -0.48972606201E+02  0.65356130572E+02  0.00000000000E+00 0.  1.
         13    1    4    4    0    0  0.34375788799E+02 -0.46850349795E+01  0.17937243923E+02  0.39056230334E+02  0.00000000000E+00 0. -1.
         21    1    1    2  502  501  0.14686291253E+02  0.14671176584E+02  0.32509225154E+01  0.21011879267E+02  0.00000000000E+00 0. -1.
<scales pt_clust_5="13000.00000" pt_clust_6="13000.00000" pt_clust_7="13000.00000" pt_clust_8="13000.00000" pt_clust_9="20.75887"></scales>
<clustering>
<clus scale="   20.759">  2  9  1 -1</clus>
<clus scale="   74.473">  5  6 -1 -1</clus>
<clus scale="   74.705">  1  5  2 -1</clus>
<clus scale="   98.200">  7  8 -1 -1</clus>
<clus scale="   20.759">  2  5  1 -1</clus>
</clustering>
</event>
<event>
 9    2  0.3791909E-005  0.1192747E+03  0.7546771E-02  0.1247073E+00
          2   -1    0    0  502    0  0.00000000000E+00  0.00000000000E+00  0.69481585534E+03  0.69481585534E+03  0.00000000000E+00 0. -1.
         -1   -1    0    0    0  501 -0.00000000000E+00 -0.00000000000E+00 -0.46269161844E+02  0.46269161844E+02  0.00000000000E+00 0.  1.
         23    2    1    2    0    0  0.92832763239E+02  0.17903985493E+02  0.81560285851E+02  0.15361936293E+03  0.89489406135E+02 0.  0.
         24    2    1    2    0    0 -0.42842123783E+02  0.10756199504E+02  0.27878447439E+03  0.29355950501E+03  0.80655169828E+02 0.  0.
        -13    1    4    4    0    0 -0.89758522099E+01  0.40222982996E+02  0.82673711236E+02  0.92376386666E+02  0.00000000000E+00 0.  1.
         14    1    4    4    0    0 -0.33866271573E+02 -0.29466783492E+02  0.19611076316E+03  0.20118311834E+03  0.00000000000E+00 0. -1.
        -13    1    3    3    0    0  0.45273122655E+02 -0.31209727237E+02  0.61221841448E+02  0.82291047991E+02  0.00000000000E+00 0. -1.
         13    1    3    3    0    0  0.47559640584E+02  0.49113712730E+02  0.20338444403E+02  0.71328314934E+02  0.00000000000E+00 0.  1.
         21    1    1    2  502  501 -0.49990639456E+02 -0.28660184997E+02  0.28820193325E+03  0.29390614925E+03  0.00000000000E+00 0. -1.
<scales pt_clust_5="13000.00000" pt_clust_6="13000.00000" pt_clust_7="13000.00000" pt_clust_8="13000.00000" pt_clust_9="57.62352"></scales>
<clustering>
<clus scale="   57.624">  1  9  2 -1</clus>
<clus scale="   80.655">  5  6 -1 -1</clus>
<clus scale="   89.489">  7  8 -1 -1</clus>
<clus scale="  112.798">  1  5  2 -1</clus>
<clus scale="   57.624">  1  5  2 -1</clus>
</clustering>
</event>
<event>
 9    2  0.3791909E-005  0.1052668E+03  0.7546771E-02  0.1274807E+00
         -1   -1    0    0    0  501 -0.00000000000E+00  0.00000000000E+00  0.10832892887E+03  0.10832892887E+03  0.00000000000E+00 0.  1.
          2   -1    0    0  502    0  0.00000000000E+00 -0.00000000000E+00 -0.27776752276E+03  0.27776752276E+03  0.00000000000E+00 0. -1.
         24    2    1    2    0    0 -0.49388324911E+02 -0.33272964980E+02  0.67281502173E+02  0.11754362062E+03  0.75785258318E+02 0.  0.
         23    2    1    2    0    0  0.45948212263E+02  0.63836671298E+01 -0.19136529760E+03  0.21571414765E+03  0.88090447592E+02 0.  0.
        -13    1    3    3    0    0 -0.68404628908E+02 -0.15782849147E+02  0.53479758745E+02  0.88251777198E+02  0.00000000000E+00 0.  1.
         14    1    3    3    0    0  0.19016303996E+02 -0.17490115833E+02  0.13801743428E+02  0.29291843424E+02  0.00000000000E+00 0. -1.
        -11    1    4    4    0    0 -0.22581103279E+02  0.19255949448E+02 -0.51755255730E+02  0.59659905382E+02  0.00000000000E+00 0.  1.
         11    1    4    4    0    0  0.68529315542E+02 -0.12872282318E+02 -0.13961004187E+03  0.15605424227E+03  0.00000000000E+00 0. -1.
         21    1    1    2  502  501  0.34401126485E+01  0.26889297851E+02 -0.45354798466E+02  0.52838683347E+02  0.00000000000E+00 0. -1.
<scales pt_clust_5="13000.00000" pt_clust_6="13000.00000" pt_clust_7="13000.00000" pt_clust_8="13000.00000" pt_clust_9="27.10846"></scales>
<clustering>
<clus scale="   27.108">  2  9  1 -1</clus>
<clus scale="   75.785">  5  6 -1 -1</clus>
<clus scale="   88.090">  7  8 -1 -1</clus>
<clus scale="   95.208">  1  5  2 -1</clus>
<clus scale="   27.108">  2  5  1 -1</clus>
</clustering>
</event>
<event>
 9    2  0.3791909E-005  0.1305786E+03  0.7546771E-02  0.1244166E+00
          2   -1    0    0  502    0  0.00000000000E+00  0.00000000000E+00  0.17799764277E+03  0.17799764277E+03  0.00000000000E+00 0. -1.
         -1   -1    0    0    0  501 -0.00000000000E+00 -0.00000000000E+00 -0.20363747989E+03  0.20363747989E+03  0.00000000000E+00 0.  1.
         23    2    1    2    0    0  0.67488416251E+02  0.37476786536E+02 -0.63026684187E+02  0.13638982565E+03  0.93116194965E+02 0.  0.
         24    2    1    2    0    0  0.84345616935E+01  0.36472071435E+02  0.88973396854E+02  0.12737289017E+03  0.83103754290E+02 0.  0.
        -11    1    4    4    0    0  0.27911984658E+02 -0.11436320556E+02  0.78530978613E+01  0.31169527771E+02  0.00000000000E+00 0.  1.
         12    1    4    4    0    0 -0.19477422965E+02  0.47908391991E+02  0.81120298993E+02  0.96203362401E+02  0.00000000000E+00 0. -1.
        -11    1    3    3    0    0  0.17344814992E+02 -0.19204790222E+02 -0.54374895317E+02  0.60218733093E+02  0.00000000000E+00 0. -1.
         11    1    3    3    0    0  0.50143601259E+02  0.56681576758E+02 -0.86517888698E+01  0.76171092559E+02  0.00000000000E+00 0.  1.
         21    1    1    2  502  501 -0.75922977945E+02 -0.73948857971E+02 -0.51586549791E+02  0.11787240684E+03  0.00000000000E+00 0. -1.
<scales pt_clust_5="13000.00000" pt_clust_6="13000.00000" pt_clust_7="13000.00000" pt_clust_8="13000.00000" pt_clust_9="91.54318"></scales>
<clustering>
<clus scale="   83.104">  5  6 -1 -1</clus>
<clus scale="   91.146">  1  5  2 -1</clus>
<clus scale="   91.543">  1  9  2 -1</clus>
<clus scale="   93.116">  7  8 -1 -1</clus>
<clus scale="   91.146">  1  5  2 -1</clus>
</clustering>
</event>
<event>
 9    2  0.3791909E-005  0.9249214E+02  0.7546771E-02  0.1302665E+00
          2   -1    0    0  502    0  0.00000000000E+00  0.00000000000E+00  0.16214218921E+03  0.16214218921E+03  0.00000000000E+00 0. -1.
         -1   -1    0    0    0  501 -0.00000000000E+00 -0.00000000000E+00 -0.10636523740E+03  0.10636523740E+03  0.00000000000E+00 0.  1.
         23    2    1    2    0    0  0.36393410035E+00  0.10367508571E+02 -0.26232417846E+02  0.95163372061E+02  0.90886247331E+02 0.  0.
         24    2    1    2    0    0 -0.42598976929E+02  0.58592287969E+01  0.16207547028E+02  0.93488023404E+02  0.81414510634E+02 0.  0.
        -11    1    4    4    0    0  0.92756068732E+01  0.22502245659E+02  0.28663724800E+02  0.37603152288E+02  0.00000000000E+00 0.  1.
         12    1    4    4    0    0 -0.51874583803E+02 -0.16643016862E+02 -0.12456177772E+02  0.55884871116E+02  0.00000000000E+00 0. -1.
        -13    1    3    3    0    0 -0.43761842869E+02  0.90960280710E+01 -0.18550756626E+01  0.44735644889E+02  0.00000000000E+00 0. -1.
         13    1    3    3    0    0  0.44125776969E+02  0.12714804995E+01 -0.24377342183E+02  0.50427727172E+02  0.00000000000E+00 0.  1.
         21    1    1    2  502  501  0.42235042829E+02 -0.16226737367E+02  0.65801822634E+02  0.79856031146E+02  0.00000000000E+00 0.  1.
<scales pt_clust_5="13000.00000" pt_clust_6="13000.00000" pt_clust_7="13000.00000" pt_clust_8="13000.00000" pt_clust_9="45.24495"></scales>
<clustering>
<clus scale="   45.245">  1  9  2 -1</clus>
<clus scale="   81.415">  5  6 -1 -1</clus>
<clus scale="   83.203">  1  5  2 -1</clus>
<clus scale="   90.886">  7  8 -1 -1</clus>
<clus scale="   45.245">  1  5  2 -1</clus>
</clustering>
</event>
<event>
 9    2  0.3791909E-005  0.2021709E+03  0.7546771E-02  0.1148365E+00
         -1   -1    0    0    0  501 -0.00000000000E+00  0.00000000000E+00  0.54383950732E+02  0.54383950732E+02  0.00000000000E+00 0.  1.
          2   -1    0    0  502    0  0.00000000000E+00 -0.00000000000E+00 -0.16388742961E+04  0.16388742961E+04  0.00000000000E+00 0. -1.
         23    2    1    2    0    0 -0.17553139437E+03 -0.57391560911E+02 -0.17710731855E+03  0.27077994206E+03  0.88598606453E+02 0.  0.
         24    2    1    2    0    0  0.15926803668E+03  0.43227824346E+02 -0.12736381258E+04  0.12870057733E+04  0.83635116373E+02 0.  0.
        -13    1    4    4    0    0  0.65280458275E+02 -0.57916490838E+01 -0.27244206164E+03  0.28021377265E+03  0.00000000000E+00 0.  1.
         14    1    4    4    0    0  0.93987578409E+02  0.49019473430E+02 -0.10011960641E+04  0.10067920006E+04  0.00000000000E+00 0. -1.
        -11    1    3    3    0    0 -0.11052201236E+03 -0.13204764476E+02 -0.15173186882E+03  0.18818087319E+03  0.00000000000E+00 0. -1.
         11    1    3    3    0    0 -0.65009382013E+02 -0.44186796434E+02 -0.25375449730E+02  0.82599068868E+02  0.00000000000E+00 0.  1.
         21    1    1    2  502  501  0.16263357687E+02  0.14163736565E+02 -0.13374490107E+03  0.13547253153E+03  0.00000000000E+00 0. -1.
<scales pt_clust_5="13000.00000" pt_clust_6="13000.00000" pt_clust_7="13000.00000" pt_clust_8="13000.00000" pt_clust_9="21.56637"></scales>
<clustering>
<clus scale="   21.566">  2  9  1 -1</clus>
<clus scale="   83.635">  5  6 -1 -1</clus>
<clus scale="   88.599">  7  8 -1 -1</clus>
<clus scale="  200.045">  2  5  1 -1</clus>
<clus scale="   21.566">  2  5  1 -1</clus>
</clustering>
</event>
<event>
 9    2  0.3791909E-005  0.1347525E+03  0.7546771E-02  0.1238302E+00
          2   -1    0    0  502    0  0.00000000000E+00  0.00000000000E+00  0.98530561068E+03  0.98530561068E+03  0.00000000000E+00 0. -1.
         -1   -1    0    0    0  501 -0.00000000000E+00 -0.00000000000E+00 -0.23528339551E+02  0.23528339551E+02  0.00000000000E+00 0.  1.
         23    2    1    2    0    0  0.35164255369E+02  0.21416367482E+02  0.23952277416E+03  0.27407137514E+03  0.12668375459E+03 0.  0.
         24    2    1    2    0    0 -0.61407134411E+02 -0.21065482838E+01  0.57269158067E+03  0.58169192556E+03  0.81330043544E+02 0.  0.
        -11    1    4    4    0    0 -0.61907160258E+02 -0.24444442222E+02  0.26648450283E+03  0.27467074379E+03  0.00000000000E+00 0.  1.
         12    1    4    4    0    0  0.50002584705E+00  0.22337893938E+02  0.30620707784E+03  0.30702118177E+03  0.00000000000E+00 0. -1.
        -13    1    3    3    0    0  0.82197814302E+02  0.15882260650E+02  0.17541149171E+03  0.19436542466E+03  0.00000000000E+00 0.  1.
         13    1    3    3    0    0 -0.47033558933E+02  0.55341068323E+01  0.64111282442E+02  0.79705950472E+02  0.00000000000E+00 0. -1.
         21    1    1    2  502  501  0.26242879042E+02 -0.19309819199E+02  0.14956291630E+03  0.15307064953E+03  0.00000000000E+00 0.  1.
<scales pt_clust_5="13000.00000" pt_clust_6="13000.00000" pt_clust_7="13000.00000" pt_clust_8="13000.00000" pt_clust_9="32.58156"></scales>
<clustering>
<clus scale="   32.582">  1  9  2 -1</clus>
<clus scale="   81.330">  5  6 -1 -1</clus>
<clus scale="   93.403">  1  5  2 -1</clus>
<clus scale="  126.684">  7  8 -1 -1</clus>
<clus scale="   32.582">  1  5  2 -1</clus>
</clustering>
</event>
<event>
 9    2  0.3791909E-005  0.1010951E+03  0.7546771E-02  0.1284559E+00
          2   -1    0    0  502    0  0.00000000000E+00  0.00000000000E+00  0.22162748996E+03  0.22162748996E+03  0.00000000000E+00 0. -1.
         -1   -1    0    0    0  501 -0.00000000000E+00 -0.00000000000E+00 -0.97315665305E+02  0.97315665305E+02  0.00000000000E+00 0.  1.
         23    2    1    2    0    0  0.42689396420E+01 -0.17919678899E+02  0.11527237743E+02  0.94191508455E+02  0.91650555467E+02 0.  0.
         24    2    1    2    0    0  0.18952115435E+02  0.67945048117E+02  0.73087234185E+01  0.10572680594E+03  0.78415737026E+02 0.  0.
        -13    1    4    4    0    0  0.82564245953E+00  0.60650631916E+02 -0.26882462150E+02  0.66346421219E+02  0.00000000000E+00 0.  1.
         14    1    4    4    0    0  0.18126472975E+02  0.72944162010E+01  0.34191185569E+02  0.39380384722E+02  0.00000000000E+00 0. -1.
        -13    1    3    3    0    0 -0.29731010808E+02 -0.41193164125E+02 -0.19547932809E+01  0.50839266233E+02  0.00000000000E+00 0.  1.
         13    1    3    3    0    0  0.33999950450E+02  0.23273485226E+02  0.13482031023E+02  0.43352242222E+02  0.00000000000E+00 0. -1.
         21    1    1    2  502  501 -0.23221055077E+02 -0.50025369218E+02  0.10547586349E+03  0.11902484087E+03  0.00000000000E+00 0. -1.
<scales pt_clust_5="13000.00000" pt_clust_6="13000.00000" pt_clust_7="13000.00000" pt_clust_8="13000.00000" pt_clust_9="55.15211"></scales>
<clustering>
<clus scale="   55.152">  1  9  2 -1</clus>
<clus scale="   78.416">  5  6 -1 -1</clus>
<clus scale="   89.272">  1  5  2 -1</clus>
<clus scale="   91.651">  7  8 -1 -1</clus>
<clus scale="   55.152">  1  5  2 -1</clus>
</clustering>
</event>
<event>
 9    2  0.3791909E-005  0.2327200E+03  0.7546771E-02  0.1124740E+00
          4   -1    0    0  502    0  0.00000000000E+00  0.00000000000E+00  0.65779533557E+02  0.65779533557E+02  0.00000000000E+00 0. -1.
         -3   -1    0    0    0  501 -0.00000000000E+00 -0.00000000000E+00 -0.60739825432E+03  0.60739825432E+03  0.00000000000E+00 0.  1.
         24    2    1    2    0    0 -0.91848214688E+02 -0.38082972812E+02 -0.14120507227E+03  0.19128030164E+03  0.82236694986E+02 0.  0.
         23    2    1    2    0    0 -0.44143520109E+02 -0.23614532763E+02 -0.86670788909E+02  0.13442818389E+03  0.89737475171E+02 0.  0.
        -13    1    3    3    0    0 -0.94010388727E+02 -0.32625667970E+02 -0.15041867720E+03  0.18035566487E+03  0.00000000000E+00 0.  1.
         14    1    3    3    0    0  0.21621740383E+01 -0.54573048427E+01  0.92136049347E+01  0.10924636773E+02  0.00000000000E+00 0. -1.
        -13    1    4    4    0    0 -0.26788176717E+02 -0.54750976706E+02 -0.75580231695E+02  0.97096072449E+02  0.00000000000E+00 0.  1.
         13    1    4    4    0    0 -0.17355343391E+02  0.31136443943E+02 -0.11090557214E+02  0.37332111445E+02  0.00000000000E+00 0. -1.
         21    1    1    2  502  501  0.13599173480E+03  0.61697505575E+02 -0.31374285959E+03  0.34746930234E+03  0.00000000000E+00 0. -1.
<scales pt_clust_5="13000.00000" pt_clust_6="13000.00000" pt_clust_7="13000.00000" pt_clust_8="13000.00000" pt_clust_9="149.33296"></scales>
<clustering>
<clus scale="   82.237">  5  6 -1 -1</clus>
<clus scale="   89.737">  7  8 -1 -1</clus>
<clus scale="   92.798">  5  7 -1 -1</clus>
<clus scale="  149.333">  2  9  1 -1</clus>
<clus scale="  232.720">  1  5  2 -1</clus>
</clustering>
</event>
<event>
 9    2  0.3791909E-005  0.1048141E+03  0.7546771E-02  0.1274816E+00
         -1   -1    0    0    0  501 -0.00000000000E+00  0.00000000000E+00  0.45643639140E+03  0.45643639140E+03  0.00000000000E+00 0.  1.
          2   -1    0    0  502    0  0.00000000000E+00 -0.00000000000E+00 -0.33354043399E+02  0.33354043399E+02  0.00000000000E+00 0. -1.
         23    2    1    2    0    0 -0.14330223749E+02 -0.64165976377E+02  0.26750226000E+03  0.29014928906E+03  0.91140128363E+02 0.  0.
         24    2    1    2    0    0 -0.22988958977E+01  0.35934189997E+02  0.13235611896E+03  0.15948004366E+03  0.81358411779E+02 0.  0.
        -11    1    4    4    0    0 -0.32598209771E+02 -0.33069495084E+01  0.84260269567E+02  0.90406704524E+02  0.00000000000E+00 0.  1.
         12    1    4    4    0    0  0.30299313873E+02  0.39241139505E+02  0.48095849392E+02  0.69073339137E+02  0.00000000000E+00 0. -1.
        -13    1    3    3    0    0 -0.37106246460E+02 -0.55477658024E+02  0.25328109569E+03  0.26192738974E+03  0.00000000000E+00 0.  1.
         13    1    3    3    0    0  0.22776022711E+02 -0.86883183527E+01  0.14221164312E+02  0.28221899311E+02  0.00000000000E+00 0. -1.
         21    1    1    2  502  501  0.16629119647E+02  0.28231786380E+02  0.23223969048E+02  0.40161102087E+02  0.00000000000E+00 0. -1.
<scales pt_clust_5="13000.00000" pt_clust_6="13000.00000" pt_clust_7="13000.00000" pt_clust_8="13000.00000" pt_clust_9="32.76525"></scales>
<clustering>
<clus scale="   32.765">  2  9  1 -1</clus>
<clus scale="   81.358">  5  6 -1 -1</clus>
<clus scale="   91.140">  7  8 -1 -1</clus>
<clus scale="   96.430">  2  5  1 -1</clus>
<clus scale="   32.765">  2  5  1 -1</clus>
</clustering>
</event>
<event>
 9    2  0.3791909E-005  0.1035181E+03  0.7546771E-02  0.1275688E+00
         -3   -1    0    0    0  501 -0.00000000000E+00  0.00000000000E+00  0.56322353590E+03  0.56322353590E+03  0.00000000000E+00 0.  1.
          4   -1    0    0  502    0  0.00000000000E+00 -0.00000000000E+00 -0.50740968442E+02  0.50740968442E+02  0.00000000000E+00 0. -1.
         23    2    1    2    0    0  0.50254680761E+02  0.91554933792E+02  0.28832567807E+03  0.32015287421E+03  0.91969165426E+02 0.  0.
         24    2    1    2    0    0 -0.20962131012E+02 -0.25920914457E+02  0.49296173395E+02  0.10475569142E+03  0.86211005278E+02 0.  0.
        -13    1    4    4    0    0  0.27060390837E+02 -0.11778945840E+02 -0.60510485101E+01  0.30126790494E+02  0.00000000000E+00 0.  1.
         14    1    4    4    0    0 -0.48022521849E+02 -0.14141968617E+02  0.55347221905E+02  0.74628900928E+02  0.00000000000E+00 0. -1.
        -11    1    3    3    0    0  0.37905833868E+02 -0.80857107260E+01  0.79816963711E+02  0.88729807028E+02  0.00000000000E+00 0. -1.
         11    1    3    3    0    0  0.12348846894E+02  0.99640644518E+02  0.20850871436E+03  0.23142306718E+03  0.00000000000E+00 0.  1.
         21    1    1    2  502  501 -0.29292549750E+02 -0.65634019335E+02  0.17486071600E+03  0.18905593872E+03  0.00000000000E+00 0. -1.
<scales pt_clust_5="13000.00000" pt_clust_6="13000.00000" pt_clust_7="13000.00000" pt_clust_8="13000.00000" pt_clust_9="71.87404"></scales>
<clustering>
<clus scale="   71.874">  1  9  2 -1</clus>
<clus scale="   86.211">  5  6 -1 -1</clus>
<clus scale="   91.969">  7  8 -1 -1</clus>
<clus scale="   98.438">  2  5  1 -1</clus>
<clus scale="   98.438">  2  5  1 -1</clus>
</clustering>
</event>
<event>
 9    2  0.3791909E-005  0.1004235E+03  0.7546771E-02  0.1286698E+00
         -3   -1    0    0    0  501 -0.00000000000E+00  0.00000000000E+00  0.64155371356E+02  0.64155371356E+02  0.00000000000E+00 0.  1.
          4   -1    0    0  502    0  0.00000000000E+00 -0.00000000000E+00 -0.29198611001E+03  0.29198611001E+03  0.00000000000E+00 0. -1.
         23    2    1    2    0    0 -0.40716537908E+02 -0.12506237824E+02 -0.60389860219E+00  0.10129611252E+03  0.91903728291E+02 0.  0.
         24    2    1    2    0    0  0.25466011586E+02  0.29125169333E+02 -0.13916897790E+03  0.16394457389E+03  0.77543701634E+02 0.  0.
        -13    1    4    4    0    0  0.41759046208E+01 -0.26625623614E+02 -0.45328246008E+02  0.52735300306E+02  0.00000000000E+00 0.  1.
         14    1    4    4    0    0  0.21290106966E+02  0.55750792946E+02 -0.93840731888E+02  0.11120927358E+03  0.00000000000E+00 0. -1.
        -11    1    3    3    0    0 -0.48212683936E+02  0.27977290623E+02 -0.14923480479E+02  0.57705302638E+02  0.00000000000E+00 0. -1.
         11    1    3    3    0    0  0.74961460274E+01 -0.40483528447E+02  0.14319581877E+02  0.43590809879E+02  0.00000000000E+00 0.  1.
         21    1    1    2  502  501  0.15250526322E+02 -0.16618931509E+02 -0.88057862155E+02  0.90900794963E+02  0.00000000000E+00 0. -1.
<scales pt_clust_5="13000.00000" pt_clust_6="13000.00000" pt_clust_7="13000.00000" pt_clust_8="13000.00000" pt_clust_9="22.55587"></scales>
<clustering>
<clus scale="   22.556">  2  9  1 -1</clus>
<clus scale="   77.544">  5  6 -1 -1</clus>
<clus scale="   87.473">  2  5  1 -1</clus>
<clus scale="   91.904">  7  8 -1 -1</clus>
<clus scale="   22.556">  2  5  1 -1</clus>
</clustering>
</event>
<event>
 9    2  0.3791909E-005  0.1126297E+03  0.7546771E-02  0.1260534E+00
          2   -1    0    0  502    0  0.00000000000E+00  0.00000000000E+00  0.27653206474E+03  0.27653206474E+03  0.00000000000E+00 0. -1.
         -1   -1    0    0    0  501 -0.00000000000E+00 -0.00000000000E+00 -0.11421813975E+03  0.11421813975E+03  0.00000000000E+00 0.  1.
         24    2    1    2    0    0 -0.12240962024E+02 -0.62634326612E+02 -0.66424118251E+02  0.12221090311E+03  0.80314639582E+02 0.  0.
         23    2    1    2    0    0  0.36441078486E+02  0.56789452507E+02  0.19928635933E+03  0.22997494120E+03  0.92846251680E+02 0.  0.
        -11    1    3    3    0    0 -0.28803867693E+02 -0.60166805681E+02 -0.15333247872E+02  0.68445714184E+02  0.00000000000E+00 0.  1.
         12    1    3    3    0    0  0.16562905669E+02 -0.24675209318E+01 -0.51090870379E+02  0.53765188922E+02  0.00000000000E+00 0. -1.
        -13    1    4    4    0    0  0.33195777460E+02 -0.18872762400E+02  0.54028357978E+02  0.66160443375E+02  0.00000000000E+00 0.  1.
         13    1    4    4    0    0  0.32453010260E+01  0.75662214907E+02  0.14525800135E+03  0.16381449783E+03  0.00000000000E+00 0. -1.
         21    1    1    2  502  501 -0.24200116462E+02  0.58448741052E+01  0.29451683920E+02  0.38564360176E+02  0.00000000000E+00 0.  1.
<scales pt_clust_5="13000.00000" pt_clust_6="13000.00000" pt_clust_7="13000.00000" pt_clust_8="13000.00000" pt_clust_9="24.89595"></scales>
<clustering>
<clus scale="   24.896">  1  9  2 -1</clus>
<clus scale="   80.315">  5  6 -1 -1</clus>
<clus scale="   92.846">  7  8 -1 -1</clus>
<clus scale="  102.545">  2  5  1 -1</clus>
<clus scale="   24.896">  1  5  2 -1</clus>
</clustering>
</event>
<event>
 9    2  0.3791909E-005  0.9434039E+02  0.7546771E-02  0.1295054E+00
         -1   -1    0    0    0  501 -0.00000000000E+00  0.00000000000E+00  0.16354301662E+03  0.16354301662E+03  0.00000000000E+00 0.  1.
          2   -1    0    0  502    0  0.00000000000E+00 -0.00000000000E+00 -0.12320208155E+03  0.12320208155E+03  0.00000000000E+00 0. -1.
         23    2    1    2    0    0 -0.23950528088E+02 -0.13223431292E+02  0.55228962874E+02  0.10764759376E+03  0.88256893048E+02 0.  0.
         24    2    1    2    0    0 -0.77102935511E+01  0.39261370084E+02 -0.65709140841E+02  0.11380456900E+03  0.83862297420E+02 0.  0.
        -13    1    4    4    0    0  0.36536287200E+02  0.22688327791E+02 -0.17889467575E+02  0.46579969412E+02  0.00000000000E+00 0.  1.
         14    1    4    4    0    0 -0.44246580751E+02  0.16573042293E+02 -0.47819673266E+02  0.67224599592E+02  0.00000000000E+00 0. -1.
        -11    1    3    3    0    0  0.10241933979E+02  0.29932809601E+02  0.39055773286E+02  0.50261553192E+02  0.00000000000E+00 0.  1.
         11    1    3    3    0    0 -0.34192462067E+02 -0.43156240893E+02  0.16173189588E+02  0.57386040565E+02  0.00000000000E+00 0. -1.
         21    1    1    2  502  501  0.31660821639E+02 -0.26037938792E+02  0.50821113045E+02  0.65292935410E+02  0.00000000000E+00 0.  1.
<scales pt_clust_5="13000.00000" pt_clust_6="13000.00000" pt_clust_7="13000.00000" pt_clust_8="13000.00000" pt_clust_9="40.99246"></scales>
<clustering>
<clus scale="   40.992">  1  9  2 -1</clus>
<clus scale="   83.862">  5  6 -1 -1</clus>
<clus scale="   88.257">  7  8 -1 -1</clus>
<clus scale="   90.243">  2  5  1 -1</clus>
<clus scale="   90.243">  2  5  1 -1</clus>
</clustering>
</event>
<event>
 9    2  0.3791909E-005  0.1271857E+03  0.7546771E-02  0.1234583E+00
          2   -1    0    0  502    0  0.00000000000E+00  0.00000000000E+00  0.61721069165E+02  0.61721069165E+02  0.00000000000E+00 0. -1.
         -1   -1    0    0    0  501 -0.00000000000E+00 -0.00000000000E+00 -0.90835693455E+03  0.90835693455E+03  0.00000000000E+00 0.  1.
         23    2    1    2    0    0 -0.75083680057E+02 -0.39950451310E+02 -0.69453713258E+03  0.70564259295E+03  0.91192340028E+02 0.  0.
         24    2    1    2    0    0  0.10515775361E+03  0.19995327696E+02 -0.17594456752E+03  0.22117710877E+03  0.80652689535E+02 0.  0.
        -13    1    4    4    0    0  0.50596252960E+02 -0.78928313005E+01 -0.14238464047E+03  0.15131313043E+03  0.00000000000E+00 0.  1.
         14    1    4    4    0    0  0.54561500652E+02  0.27888158997E+02 -0.33559927054E+02  0.69863978340E+02  0.00000000000E+00 0. -1.
        -13    1    3    3    0    0 -0.73361445551E+02  0.10537677553E+02 -0.40165188730E+03  0.40843259287E+03  0.00000000000E+00 0.  1.
         13    1    3    3    0    0 -0.17222345064E+01 -0.50488128863E+02 -0.29288524528E+03  0.29721000008E+03  0.00000000000E+00 0. -1.
         21    1    1    2  502  501 -0.30074073554E+02  0.19955123613E+02  0.23845834714E+02  0.43258301999E+02  0.00000000000E+00 0. -1.
<scales pt_clust_5="13000.00000" pt_clust_6="13000.00000" pt_clust_7="13000.00000" pt_clust_8="13000.00000" pt_clust_9="36.09234"></scales>
<clustering>
<clus scale="   36.092">  1  9  2 -1</clus>
<clus scale="   80.653">  5  6 -1 -1</clus>
<clus scale="   91.192">  7  8 -1 -1</clus>
<clus scale="  119.854">  1  5  2 -1</clus>
<clus scale="   36.092">  1  5  2 -1</clus>
</clustering>
</event>
<event>
 9    2  0.3791909E-005  0.5555367E+03  0.7546771E-02  0.1000220E+00
         -1   -1    0    0    0  501 -0.00000000000E+00  0.00000000000E+00  0.31553235907E+03  0.31553235907E+03  0.00000000000E+00 0.  1.
          2   -1    0    0  502    0  0.00000000000E+00 -0.00000000000E+00 -0.98086006040E+03  0.98086006040E+03  0.00000000000E+00 0. -1.
         24    2    1    2    0    0 -0.52728558142E+02  0.41343286524E+02 -0.78874857720E+02  0.13084486219E+03  0.80059768911E+02 0.  0.
         23    2    1    2    0    0 -0.28718749963E+03  0.31676695837E+03 -0.55931504416E+02  0.44081397507E+03  0.91491319646E+02 0.  0.
        -13    1    3    3    0    0  0.14307652801E+02  0.18400575807E+02 -0.48390887410E+02  0.53711899082E+02  0.00000000000E+00 0.  1.
         14    1    3    3    0    0 -0.67036210943E+02  0.22942710717E+02 -0.30483970310E+02  0.77132963112E+02  0.00000000000E+00 0. -1.
        -11    1    4    4    0    0 -0.75548065699E+02  0.53473267357E+02 -0.44780394333E+02  0.10282112754E+03  0.00000000000E+00 0. -1.
         11    1    4    4    0    0 -0.21163943393E+03  0.26329369101E+03 -0.11151110083E+02  0.33799284753E+03  0.00000000000E+00 0.  1.
         21    1    1    2  502  501  0.33991605778E+03 -0.35811024489E+03 -0.53052133920E+03  0.72473358221E+03  0.00000000000E+00 0. -1.
<scales pt_clust_5="13000.00000" pt_clust_6="13000.00000" pt_clust_7="13000.00000" pt_clust_8="13000.00000" pt_clust_9="493.74677"></scales>
<clustering>
<clus scale="   80.060">  5  6 -1 -1</clus>
<clus scale="   91.491">  7  8 -1 -1</clus>
<clus scale="  102.333">  5  7 -1 -1</clus>
<clus scale="  493.747">  2  9  1 -1</clus>
<clus scale="  493.747">  2  5  1 -1</clus>
</clustering>
</event>
<event>
 9    2  0.3791909E-005  0.1188642E+03  0.7546771E-02  0.1252067E+00
         -1   -1    0    0    0  501 -0.00000000000E+00  0.00000000000E+00  0.35946215509E+03  0.35946215509E+03  0.00000000000E+00 0.  1.
          2   -1    0    0  502    0  0.00000000000E+00 -0.00000000000E+00 -0.14862574986E+03  0.14862574986E+03  0.00000000000E+00 0. -1.
         23    2    1    2    0    0  0.14916621668E+02 -0.60823084733E+02  0.29993394601E+03  0.32222654879E+03  0.99737773868E+02 0.  0.
         24    2    1    2    0    0 -0.33064685768E+02  0.70809478228E+02 -0.20173370725E+02  0.11389176880E+03  0.80356172515E+02 0.  0.
        -13    1    4    4    0    0 -0.49070567100E+02  0.11276686534E+02 -0.67465755999E+01  0.50799611190E+02  0.00000000000E+00 0.  1.
         14    1    4    4    0    0  0.16005881332E+02  0.59532791693E+02 -0.13426795125E+02  0.63092157606E+02  0.00000000000E+00 0. -1.
        -11    1    3    3    0    0  0.49548459818E+02 -0.53753114555E+02  0.25373755551E+03  0.26405907345E+03  0.00000000000E+00 0.  1.
         11    1    3    3    0    0 -0.34631838151E+02 -0.70699701783E+01  0.46196390500E+02  0.58167475339E+02  0.00000000000E+00 0. -1.
         21    1    1    2  502  501  0.18148064101E+02 -0.99863934949E+01 -0.68924170067E+02  0.71969587362E+02  0.00000000000E+00 0.  1.
<scales pt_clust_5="13000.00000" pt_clust_6="13000.00000" pt_clust_7="13000.00000" pt_clust_8="13000.00000" pt_clust_9="20.71425"></scales>
<clustering>
<clus scale="   20.714">  2  9  1 -1</clus>
<clus scale="   80.356">  5  6 -1 -1</clus>
<clus scale="   99.738">  7  8 -1 -1</clus>
<clus scale="  103.142">  2  5  1 -1</clus>
<clus scale="   20.714">  2  5  1 -1</clus>
</clustering>
</event>
<event>
 9    2  0.3791909E-005  0.2381656E+03  0.7546771E-02  0.1124548E+00
         -1   -1    0    0    0  501 -0.00000000000E+00  0.00000000000E+00  0.22102774256E+03  0.22102774256E+03  0.00000000000E+00 0.  1.
          2   -1    0    0  502    0  0.00000000000E+00 -0.00000000000E+00 -0.10664729170E+04  0.10664729170E+04  0.00000000000E+00 0. -1.
         23    2    1    2    0    0  0.15382601012E+03 -0.12164261086E+03  0.89474970499E+02  0.24949939864E+03  0.12563762736E+03 0.  0.
         24    2    1    2    0    0 -0.12293118147E+03  0.20681919719E+03 -0.28498226309E+03  0.38177813457E+03  0.81568364327E+02 0.  0.
        -11    1    4    4    0    0 -0.33855774311E+02  0.38040926637E+02 -0.18869485132E+02  0.54308222423E+02  0.00000000000E+00 0.  1.
         12    1    4    4    0    0 -0.89075407158E+02  0.16877827055E+03 -0.26611277796E+03  0.32746991215E+03  0.00000000000E+00 0. -1.
        -13    1    3    3    0    0  0.45581967427E+02 -0.11455432741E+03  0.59861124004E+02  0.13705387207E+03  0.00000000000E+00 0.  1.
         13    1    3    3    0    0  0.10824404270E+03 -0.70882834569E+01  0.29613846495E+02  0.11244552657E+03  0.00000000000E+00 0. -1.
         21    1    1    2  502  501 -0.30894828654E+02 -0.85176586322E+02 -0.64993788182E+03  0.65622312632E+03  0.00000000000E+00 0. -1.
<scales pt_clust_5="13000.00000" pt_clust_6="13000.00000" pt_clust_7="13000.00000" pt_clust_8="13000.00000" pt_clust_9="90.60652"></scales>
<clustering>
<clus scale="   81.568">  5  6 -1 -1</clus>
<clus scale="   90.607">  2  9  1 -1</clus>
<clus scale="  125.638">  7  8 -1 -1</clus>
<clus scale="  218.155">  2  5  1 -1</clus>
<clus scale="   90.607">  2  5  1 -1</clus>
</clustering>
</event>
<event>
 9    2  0.3791909E-005  0.1496076E+03  0.7546771E-02  0.1202445E+00
          2   -1    0    0  502    0  0.00000000000E+00  0.00000000000E+00  0.60590857529E+03  0.60590857529E+03  0.00000000000E+00 0. -1.
         -1   -1    0    0    0  501 -0.00000000000E+00 -0.00000000000E+00 -0.53774862015E+02  0.53774862015E+02  0.00000000000E+00 0.  1.
         24    2    1    2    0    0  0.24067384659E+02  0.12761129788E+03  0.12170701955E+03  0.19487201248E+03  0.79363847485E+02 0.  0.
         23    2    1    2    0    0 -0.38910952012E+02 -0.98146498030E+02  0.29424744229E+03  0.32469256655E+03  0.87732025052E+02 0.  0.
        -13    1    3    3    0    0  0.43761953374E+02  0.65404401766E+02  0.34421589930E+02  0.85893481632E+02  0.00000000000E+00 0.  1.
         14    1    3    3    0    0 -0.19694568715E+02  0.62206896115E+02  0.87285429618E+02  0.10897853084E+03  0.00000000000E+00 0. -1.
        -11    1    4    4    0    0  0.67602680661E+01 -0.87769193333E+02  0.21937814578E+03  0.23638084391E+03  0.00000000000E+00 0. -1.
         11    1    4    4    0    0 -0.45671220078E+02 -0.10377304697E+02  0.74869296506E+02  0.88311722639E+02  0.00000000000E+00 0.  1.
         21    1    1    2  502  501  0.14843567353E+02 -0.29464799851E+02  0.13617925144E+03  0.14011885828E+03  0.00000000000E+00 0. -1.
<scales pt_clust_5="13000.00000" pt_clust_6="13000.00000" pt_clust_7="13000.00000" pt_clust_8="13000.00000" pt_clust_9="32.99251"></scales>
<clustering>
<clus scale="   32.993">  1  9  2 -1</clus>
<clus scale="   79.364">  5  6 -1 -1</clus>
<clus scale="   87.732">  7  8 -1 -1</clus>
<clus scale="  144.859">  2  5  1 -1</clus>
<clus scale="   32.993">  1  5  2 -1</clus>
</clustering>
</event>
<event>
 9    2  0.3791909E-005  0.1206776E+03  0.7546771E-02  0.1244298E+00
         -1   -1    0    0    0  501 -0.00000000000E+00  0.00000000000E+00  0.10524950627E+03  0.10524950627E+03  0.00000000000E+00 0.  1.
          2   -1    0    0  502    0  0.00000000000E+00 -0.00000000000E+00 -0.20039648442E+03  0.20039648442E+03  0.00000000000E+00 0. -1.
         23    2    1    2    0    0 -0.37582820978E+02  0.94022579077E+02 -0.58384437898E+01  0.13451304013E+03  0.88356984618E+02 0.  0.
         24    2    1    2    0    0  0.11514648875E+02 -0.55770210167E+02 -0.69691056581E+02  0.12085732269E+03  0.80664401064E+02 0.  0.
        -11    1    4    4    0    0 -0.29039481876E+02 -0.44236867338E+02 -0.22294375690E+02  0.57421521461E+02  0.00000000000E+00 0.  1.
         12    1    4    4    0    0  0.40554130751E+02 -0.11533342830E+02 -0.47396680891E+02  0.63435801227E+02  0.00000000000E+00 0. -1.
        -11    1    3    3    0    0 -0.53105882698E+02  0.21038321620E+02  0.10626219331E+02  0.58101310579E+02  0.00000000000E+00 0. -1.
         11    1    3    3    0    0  0.15523061720E+02  0.72984257456E+02 -0.16464663121E+02  0.76411729553E+02  0.00000000000E+00 0.  1.
         21    1    1    2  502  501  0.26068172103E+02 -0.38252368909E+02 -0.19617477779E+02  0.50275627876E+02  0.00000000000E+00 0.  1.
<scales pt_clust_5="13000.00000" pt_clust_6="13000.00000" pt_clust_7="13000.00000" pt_clust_8="13000.00000" pt_clust_9="46.29032"></scales>
<clustering>
<clus scale="   46.290">  2  9  1 -1</clus>
<clus scale="   80.664">  5  6 -1 -1</clus>
<clus scale="   88.357">  7  8 -1 -1</clus>
<clus scale="  115.165">  2  5  1 -1</clus>
<clus scale="   46.290">  2  5  1 -1</clus>
</clustering>
</event>
<event>
 9    2  0.3791909E-005  0.1070253E+03  0.7546771E-02  0.1272994E+00
         -1   -1    0    0    0  501 -0.00000000000E+00  0.00000000000E+00  0.15572937870E+03  0.15572937870E+03  0.00000000000E+00 0.  1.
          2   -1    0    0  502    0  0.00000000000E+00 -0.00000000000E+00 -0.29438089994E+03  0.29438089994E+03  0.00000000000E+00 0. -1.
         23    2    1    2    0    0  0.20428075163E+02  0.54207345046E+02  0.11527294126E+03  0.15822320695E+03  0.91602345588E+02 0.  0.
         24    2    1    2    0    0 -0.40135230465E+02 -0.27748212146E+02 -0.10055603938E+03  0.13501027005E+03  0.75732793166E+02 0.  0.
        -11    1    4    4    0    0 -0.50747742245E+02  0.63190290722E+01 -0.40840293097E+02  0.65446107689E+02  0.00000000000E+00 0.  1.
         12    1    4    4    0    0  0.10612511780E+02 -0.34067241218E+02 -0.59715746281E+02  0.69564162357E+02  0.00000000000E+00 0. -1.
        -13    1    3    3    0    0 -0.32079590765E+02  0.38352042716E+02  0.75156803294E+02  0.90269177494E+02  0.00000000000E+00 0.  1.
         13    1    3    3    0    0  0.52507665929E+02  0.15855302330E+02  0.40116137969E+02  0.67954029452E+02  0.00000000000E+00 0. -1.
         21    1    1    2  502  501  0.19707155302E+02 -0.26459132900E+02 -0.15336842312E+03  0.15687680165E+03  0.00000000000E+00 0. -1.
<scales pt_clust_5="13000.00000" pt_clust_6="13000.00000" pt_clust_7="13000.00000" pt_clust_8="13000.00000" pt_clust_9="32.99178"></scales>
<clustering>
<clus scale="   32.992">  2  9  1 -1</clus>
<clus scale="   75.733">  5  6 -1 -1</clus>
<clus scale="   91.602">  7  8 -1 -1</clus>
<clus scale="   93.802">  2  5  1 -1</clus>
<clus scale="   32.992">  2  5  1 -1</clus>
</clustering>
</event>
<event>
 9    2  0.3791909E-005  0.3117999E+03  0.7546771E-02  0.1079811E+00
          2   -1    0    0  502    0  0.00000000000E+00  0.00000000000E+00  0.15088104910E+04  0.15088104910E+04  0.00000000000E+00 0. -1.
         -1   -1    0    0    0  501 -0.00000000000E+00 -0.00000000000E+00 -0.20693481108E+03  0.20693481108E+03  0.00000000000E+00 0.  1.
         23    2    1    2    0    0 -0.27296650178E+03  0.14385953666E+03 -0.24174811849E+02  0.32249322356E+03  0.90615563421E+02 0.  0.
         24    2    1    2    0    0  0.26168577173E+03  0.55594281389E+01  0.94148290138E+03  0.98052273198E+03  0.80773906465E+02 0.  0.
        -13    1    4    4    0    0  0.12461206792E+03  0.53784858160E+01  0.59455251638E+03  0.60749468337E+03  0.00000000000E+00 0.  1.
         14    1    4    4    0    0  0.13707370381E+03  0.18094232299E+00  0.34693038500E+03  0.37302804861E+03  0.00000000000E+00 0. -1.
        -13    1    3    3    0    0 -0.92901442982E+02  0.96430242738E+02  0.51061597339E+01  0.13399829361E+03  0.00000000000E+00 0. -1.
         13    1    3    3    0    0 -0.18006505880E+03  0.47429293921E+02 -0.29280971583E+02  0.18849492995E+03  0.00000000000E+00 0.  1.
         21    1    1    2  502  501  0.11280730053E+02 -0.14941896480E+03  0.38456759038E+03  0.41272934652E+03  0.00000000000E+00 0. -1.
<scales pt_clust_5="13000.00000" pt_clust_6="13000.00000" pt_clust_7="13000.00000" pt_clust_8="13000.00000" pt_clust_9="149.84419"></scales>
<clustering>
<clus scale="   80.774">  5  6 -1 -1</clus>
<clus scale="   90.616">  7  8 -1 -1</clus>
<clus scale="  149.844">  1  9  2 -1</clus>
<clus scale="  309.083">  1  5  2 -1</clus>
<clus scale="  149.844">  1  5  2 -1</clus>
</clustering>
</event>
<event>
 9    2  0.3791909E-005  0.1272889E+03  0.7546771E-02  0.1234180E+00
          2   -1    0    0  502    0  0.00000000000E+00  0.00000000000E+00  0.16145811097E+03  0.16145811097E+03  0.00000000000E+00 0. -1.
         -1   -1    0    0    0  501 -0.00000000000E+00 -0.00000000000E+00 -0.23102045781E+03  0.23102045781E+03  0.00000000000E+00 0.  1.
         23    2    1    2    0    0 -0.65326095808E+02  0.52462300927E+02 -0.15655843926E+03  0.19966737364E+03  0.91305659069E+02 0.  0.
         24    2    1    2    0    0  0.89626967224E+02 -0.71883529860E+02  0.72017701188E+02  0.15828484739E+03  0.81653588476E+02 0.  0.
        -11    1    4    4    0    0  0.15469786859E+02 -0.26794442437E+02 -0.15865793269E+02  0.34770387502E+02  0.00000000000E+00 0.  1.
         12    1    4    4    0    0  0.74157180365E+02 -0.45089087423E+02  0.87883494457E+02  0.12351445989E+03  0.00000000000E+00 0. -1.
        -11    1    3    3    0    0 -0.64984530260E+02 -0.60184980702E+00 -0.11567197977E+03  0.13267764808E+03  0.00000000000E+00 0.  1.
         11    1    3    3    0    0 -0.34156554726E+00  0.53064150734E+02 -0.40886459496E+02  0.66989725557E+02  0.00000000000E+00 0. -1.
         21    1    1    2  502  501 -0.24300871416E+02  0.19421228933E+02  0.14978391240E+02  0.34526347750E+02  0.00000000000E+00 0. -1.
<scales pt_clust_5="13000.00000" pt_clust_6="13000.00000" pt_clust_7="13000.00000" pt_clust_8="13000.00000" pt_clust_9="31.10814"></scales>
<clustering>
<clus scale="   31.108">  1  9  2 -1</clus>
<clus scale="   81.654">  5  6 -1 -1</clus>
<clus scale="   91.306">  7  8 -1 -1</clus>
<clus scale="  120.553">  1  5  2 -1</clus>
<clus scale="   31.108">  1  5  2 -1</clus>
</clustering>
</event>
<event>
 9    2  0.3791909E-005  0.1785897E+03  0.7546771E-02  0.1170555E+00
          4   -1    0    0  502    0  0.00000000000E+00  0.00000000000E+00  0.19513651478E+03  0.19513651478E+03  0.00000000000E+00 0. -1.
         -3   -1    0    0    0  501 -0.00000000000E+00 -0.00000000000E+00 -0.42062731289E+03  0.42062731289E+03  0.00000000000E+00 0.  1.
         24    2    1    2    0    0 -0.31229191418E+02  0.15374086189E+03 -0.34770821863E+03  0.38938839705E+03  0.78171628139E+02 0.  0.
         23    2    1    2    0    0  0.36224761530E+02 -0.13032434663E+03  0.12084759901E+03  0.20239282612E+03  0.89788892440E+02 0.  0.
        -11    1    3    3    0    0  0.12558950235E+02  0.10823836088E+03 -0.18293294862E+03  0.21292659225E+03  0.00000000000E+00 0.  1.
         12    1    3    3    0    0 -0.43788141653E+02  0.45502501012E+02 -0.16477527001E+03  0.17646180480E+03  0.00000000000E+00 0. -1.
        -11    1    4    4    0    0  0.80461143417E+01 -0.24422824989E+02 -0.13481162379E+02  0.29033705852E+02  0.00000000000E+00 0.  1.
         11    1    4    4    0    0  0.28178647189E+02 -0.10590152164E+03  0.13432876139E+03  0.17335912027E+03  0.00000000000E+00 0. -1.
         21    1    1    2  502  501 -0.49955701126E+01 -0.23416515258E+02  0.13698215048E+01  0.23982604499E+02  0.00000000000E+00 0.  1.
<scales pt_clust_5="13000.00000" pt_clust_6="13000.00000" pt_clust_7="13000.00000" pt_clust_8="13000.00000" pt_clust_9="23.94345"></scales>
<clustering>
<clus scale="   23.943">  1  9  2 -1</clus>
<clus scale="   78.172">  5  6 -1 -1</clus>
<clus scale="   89.789">  7  8 -1 -1</clus>
<clus scale="  173.041">  2  5  1 -1</clus>
<clus scale="   23.943">  1  5  2 -1</clus>
</clustering>
</event>
<event>
 9    2  0.3791909E-005  0.2843521E+03  0.7546771E-02  0.1093382E+00
         -1   -1    0    0    0  501 -0.00000000000E+00  0.00000000000E+00  0.42804933668E+03  0.42804933668E+03  0.00000000000E+00 0.  1.
          2   -1    0    0  502    0  0.00000000000E+00 -0.00000000000E+00 -0.41662585780E+03  0.41662585780E+03  0.00000000000E+00 0. -1.
         23    2    1    2    0    0  0.21179199931E+03  0.15689047066E+03  0.27222428899E+03  0.38984768812E+03  0.91677072707E+02 0.  0.
         24    2    1    2    0    0 -0.25082254469E+03 -0.15015938247E+03 -0.15871505731E+03  0.34532777144E+03  0.92741637085E+02 0.  0.
        -13    1    4    4    0    0 -0.14158459833E+03 -0.31473068171E+02 -0.66947005439E+02  0.15974559162E+03  0.00000000000E+00 0.  1.
         14    1    4    4    0    0 -0.10923794636E+03 -0.11868631430E+03 -0.91768051868E+02  0.18558217983E+03  0.00000000000E+00 0. -1.
        -13    1    3    3    0    0 -0.17067596149E+01  0.25438229403E+02  0.10988332937E+02  0.27762564800E+02  0.00000000000E+00 0. -1.
         13    1    3    3    0    0  0.21349875893E+03  0.13145224126E+03  0.26123595605E+03  0.36208512332E+03  0.00000000000E+00 0.  1.
         21    1    1    2  502  501  0.39030545375E+02 -0.67310881912E+01 -0.10208575280E+03  0.10949973491E+03  0.00000000000E+00 0.  1.
<scales pt_clust_5="13000.00000" pt_clust_6="13000.00000" pt_clust_7="13000.00000" pt_clust_8="13000.00000" pt_clust_9="39.60670"></scales>
<clustering>
<clus scale="   39.607">  2  9  1 -1</clus>
<clus scale="   91.677">  7  8 -1 -1</clus>
<clus scale="   92.742">  5  6 -1 -1</clus>
<clus scale="  284.007">  1  7  2 -1</clus>
<clus scale="   39.607">  2  5  1 -1</clus>
</clustering>
</event>
<event>
 9    2  0.3791909E-005  0.2597246E+03  0.7546771E-02  0.1107816E+00
         -3   -1    0    0    0  501 -0.00000000000E+00  0.00000000000E+00  0.32926614328E+03  0.32926614328E+03  0.00000000000E+00 0.  1.
          4   -1    0    0  502    0  0.00000000000E+00 -0.00000000000E+00 -0.10320224890E+04  0.10320224890E+04  0.00000000000E+00 0. -1.
         24    2    1    2    0    0 -0.23503275626E+03  0.55989772377E+02  0.21952367536E+03  0.33657562929E+03  0.81958886407E+02 0.  0.
         23    2    1    2    0    0  0.27767028115E+03  0.39264896928E+02 -0.84443326658E+03  0.89451497022E+03  0.91907415798E+02 0.  0.
        -11    1    3    3    0    0 -0.11727135018E+03 -0.13339480287E+02  0.11173597334E+03  0.16252827153E+03  0.00000000000E+00 0.  1.
         12    1    3    3    0    0 -0.11776140608E+03  0.69329252664E+02  0.10778770203E+03  0.17404735777E+03  0.00000000000E+00 0. -1.
        -13    1    4    4    0    0  0.19968682519E+03  0.45740157118E+02 -0.71002069713E+03  0.73898334250E+03  0.00000000000E+00 0. -1.
         13    1    4    4    0    0  0.77983455957E+02 -0.64752601908E+01 -0.13441256944E+03  0.15553162772E+03  0.00000000000E+00 0.  1.
         21    1    1    2  502  501 -0.42637524888E+02 -0.95254669304E+02 -0.77846754533E+02  0.13019803280E+03  0.00000000000E+00 0. -1.
<scales pt_clust_5="13000.00000" pt_clust_6="13000.00000" pt_clust_7="13000.00000" pt_clust_8="13000.00000" pt_clust_9="104.36192"></scales>
<clustering>
<clus scale="   81.959">  5  6 -1 -1</clus>
<clus scale="   91.907">  7  8 -1 -1</clus>
<clus scale="  104.362">  2  9  1 -1</clus>
<clus scale="  256.373">  1  5  2 -1</clus>
<clus scale="  104.362">  2  5  1 -1</clus>
</clustering>
</event>
<event>
 9    2  0.3791909E-005  0.1060805E+03  0.7546771E-02  0.1273000E+00
         -1   -1    0    0    0  501 -0.00000000000E+00  0.00000000000E+00  0.66867618976E+03  0.66867618976E+03  0.00000000000E+00 0.  1.
          2   -1    0    0  502    0  0.00000000000E+00 -0.00000000000E+00 -0.22352282144E+03  0.22352282144E+03  0.00000000000E+00 0. -1.
         24    2    1    2    0    0  0.51193083446E+02 -0.11408078076E+02  0.53844031788E+03  0.54685375870E+03  0.79876037997E+02 0.  0.
         23    2    1    2    0    0 -0.54805912771E+02  0.36369139622E+02  0.99888108789E+02  0.15053069889E+03  0.91408176000E+02 0.  0.
        -13    1    3    3    0    0  0.57964603644E+02 -0.33565769299E+02  0.30510556184E+03  0.31237150960E+03  0.00000000000E+00 0.  1.
         14    1    3    3    0    0 -0.67715201978E+01  0.22157691222E+02  0.23333475604E+03  0.23448224909E+03  0.00000000000E+00 0. -1.
        -13    1    4    4    0    0 -0.47146337250E+02  0.63108697531E+02  0.92993392102E+02  0.12187393403E+03  0.00000000000E+00 0.  1.
         13    1    4    4    0    0 -0.76595755215E+01 -0.26739557910E+02  0.68947166868E+01  0.28656764866E+02  0.00000000000E+00 0. -1.
         21    1    1    2  502  501  0.36128293248E+01 -0.24961061545E+02 -0.19317505835E+03  0.19481455360E+03  0.00000000000E+00 0. -1.
<scales pt_clust_5="13000.00000" pt_clust_6="13000.00000" pt_clust_7="13000.00000" pt_clust_8="13000.00000" pt_clust_9="25.22116"></scales>
<clustering>
<clus scale="   25.221">  2  9  1 -1</clus>
<clus scale="   79.876">  5  6 -1 -1</clus>
<clus scale="   91.408">  7  8 -1 -1</clus>
<clus scale="   96.321">  1  5  2 -1</clus>
<clus scale="   25.221">  2  5  1 -1</clus>
</clustering>
</event>
<event>
 9    2  0.3791909E-005  0.9498368E+02  0.7546771E-02  0.1297056E+00
         -1   -1    0    0    0  501 -0.00000000000E+00  0.00000000000E+00  0.51878437284E+02  0.51878437284E+02  0.00000000000E+00 0.  1.
          2   -1    0    0  502    0  0.00000000000E+00 -0.00000000000E+00 -0.26413735349E+03  0.26413735349E+03  0.00000000000E+00 0. -1.
         23    2    1    2    0    0  0.34399180340E+02  0.39593741254E+01 -0.25531921287E+02  0.10028375443E+03  0.90586821043E+02 0.  0.
         24    2    1    2    0    0 -0.14713557843E+02  0.12062889132E+02 -0.13750685116E+03  0.16035280554E+03  0.80267590281E+02 0.  0.
        -13    1    4    4    0    0  0.13169348195E+02 -0.28290381212E+02 -0.36178862538E+02  0.47777478957E+02  0.00000000000E+00 0.  1.
         14    1    4    4    0    0 -0.27882906038E+02  0.40353270344E+02 -0.10132798863E+03  0.11257532658E+03  0.00000000000E+00 0. -1.
        -13    1    3    3    0    0 -0.23953362735E+02 -0.38249738270E+01  0.15264439370E+02  0.28660026524E+02  0.00000000000E+00 0. -1.
         13    1    3    3    0    0  0.58352543075E+02  0.77843479524E+01 -0.40796360657E+02  0.71623727907E+02  0.00000000000E+00 0.  1.
         21    1    1    2  502  501 -0.19685622497E+02 -0.16022263257E+02 -0.49220143757E+02  0.55379230804E+02  0.00000000000E+00 0. -1.
<scales pt_clust_5="13000.00000" pt_clust_6="13000.00000" pt_clust_7="13000.00000" pt_clust_8="13000.00000" pt_clust_9="25.38182"></scales>
<clustering>
<clus scale="   25.382">  2  9  1 -1</clus>
<clus scale="   80.268">  5  6 -1 -1</clus>
<clus scale="   85.199">  2  5  1 -1</clus>
<clus scale="   90.587">  7  8 -1 -1</clus>
<clus scale="   25.382">  2  5  1 -1</clus>
</clustering>
</event>
<event>
 9    2  0.3791909E-005  0.1286526E+03  0.7546771E-02  0.1234404E+00
         -3   -1    0    0    0  501 -0.00000000000E+00  0.00000000000E+00  0.33078282610E+03  0.33078282610E+03  0.00000000000E+00 0.  1.
          4   -1    0    0  502    0  0.00000000000E+00 -0.00000000000E+00 -0.20608867714E+03  0.20608867714E+03  0.00000000000E+00 0. -1.
         24    2    1    2    0    0  0.76933081806E+02  0.55486967465E+02  0.21104214858E+03  0.24501066722E+03  0.80584961014E+02 0.  0.
         23    2    1    2    0    0 -0.26499323714E+02  0.67758818115E+02 -0.10593799135E+03  0.15726196755E+03  0.90636619728E+02 0.  0.
        -13    1    3    3    0    0  0.23010648289E+02  0.61172695672E+02  0.80740898808E+02  0.10387820450E+03  0.00000000000E+00 0.  1.
         14    1    3    3    0    0  0.53922433517E+02 -0.56857282065E+01  0.13030124977E+03  0.14113246272E+03  0.00000000000E+00 0. -1.
        -11    1    4    4    0    0 -0.31734216400E+02 -0.67760182938E+01 -0.68577921343E+01  0.33166311634E+02  0.00000000000E+00 0.  1.
         11    1    4    4    0    0  0.52348926853E+01  0.74534836408E+02 -0.99080199217E+02  0.12409565591E+03  0.00000000000E+00 0. -1.
         21    1    1    2  502  501 -0.50433758092E+02 -0.12324578558E+03  0.19589991734E+02  0.13459886847E+03  0.00000000000E+00 0. -1.
<scales pt_clust_5="13000.00000" pt_clust_6="13000.00000" pt_clust_7="13000.00000" pt_clust_8="13000.00000" pt_clust_9="100.28732"></scales>
<clustering>
<clus scale="   80.585">  5  6 -1 -1</clus>
<clus scale="   90.637">  7  8 -1 -1</clus>
<clus scale="  116.226">  2  7  1 -1</clus>
<clus scale="  100.287">  2  9  1 -1</clus>
<clus scale="  116.226">  2  5  1 -1</clus>
</clustering>
</event>
<event>
 9    2  0.3791909E-005  0.1563452E+03  0.7546771E-02  0.1204600E+00
         -1   -1    0    0    0  501 -0.00000000000E+00  0.00000000000E+00  0.74367408369E+02  0.74367408369E+02  0.00000000000E+00 0.  1.
          2   -1    0    0  502    0  0.00000000000E+00 -0.00000000000E+00 -0.60944821089E+03  0.60944821089E+03  0.00000000000E+00 0. -1.
         23    2    1    2    0    0 -0.74966786441E+02 -0.82671697662E+02 -0.78531918116E+02  0.18674069820E+03  0.12747626264E+03 0.  0.
         24    2    1    2    0    0  0.66456532980E+02  0.22713544688E+02 -0.14743487654E+03  0.18208464441E+03  0.80531975169E+02 0.  0.
        -11    1    4    4    0    0 -0.72226528799E+01  0.26929015056E+02 -0.68842005440E+02  0.74273550336E+02  0.00000000000E+00 0.  1.
         12    1    4    4    0    0  0.73679185859E+02 -0.42154703687E+01 -0.78592871096E+02  0.10781109408E+03  0.00000000000E+00 0. -1.
        -13    1    3    3    0    0 -0.35275211424E+01 -0.67490341250E+02  0.13839062701E+02  0.68984847785E+02  0.00000000000E+00 0.  1.
         13    1    3    3    0    0 -0.71439265299E+02 -0.15181356413E+02 -0.92370980817E+02  0.11775585041E+03  0.00000000000E+00 0. -1.
         21    1    1    2  502  501  0.85102534618E+01  0.59958152975E+02 -0.30911400786E+03  0.31499027664E+03  0.00000000000E+00 0. -1.
<scales pt_clust_5="13000.00000" pt_clust_6="13000.00000" pt_clust_7="13000.00000" pt_clust_8="13000.00000" pt_clust_9="60.55910"></scales>
<clustering>
<clus scale="   60.559">  2  9  1 -1</clus>
<clus scale="   80.532">  5  6 -1 -1</clus>
<clus scale="  121.157">  2  5  1 -1</clus>
<clus scale="  127.476">  7  8 -1 -1</clus>
<clus scale="   60.559">  2  5  1 -1</clus>
</clustering>
</event>
<event>
 9    2  0.3791909E-005  0.1159910E+03  0.7546771E-02  0.1253616E+00
          2   -1    0    0  502    0  0.00000000000E+00  0.00000000000E+00  0.10096609849E+03  0.10096609849E+03  0.00000000000E+00 0. -1.
         -1   -1    0    0    0  501 -0.00000000000E+00 -0.00000000000E+00 -0.33090743958E+03  0.33090743958E+03  0.00000000000E+00 0.  1.
         23    2    1    2    0    0  0.69947140402E+02 -0.30803581615E+02 -0.26713915053E+03  0.29259846680E+03  0.91701002934E+02 0.  0.
         24    2    1    2    0    0 -0.40778455367E+02  0.30338045163E+02  0.47345658983E+01  0.95630013219E+02  0.80866580907E+02 0.  0.
        -13    1    4    4    0    0 -0.32203013810E+02  0.30596490559E+01 -0.34361941593E+02  0.47192569128E+02  0.00000000000E+00 0.  1.
         14    1    4    4    0    0 -0.85754415569E+01  0.27278396107E+02  0.39096507492E+02  0.48437444091E+02  0.00000000000E+00 0. -1.
        -11    1    3    3    0    0  0.57936298406E+02  0.96790622001E+01 -0.22649997734E+03  0.23399260385E+03  0.00000000000E+00 0.  1.
         11    1    3    3    0    0  0.12010841995E+02 -0.40482643815E+02 -0.40639173187E+02  0.58605862958E+02  0.00000000000E+00 0. -1.
         21    1    1    2  502  501 -0.29168685035E+02  0.46553645221E+00  0.32463243542E+02  0.43645058049E+02  0.00000000000E+00 0.  1.
<scales pt_clust_5="13000.00000" pt_clust_6="13000.00000" pt_clust_7="13000.00000" pt_clust_8="13000.00000" pt_clust_9="29.17240"></scales>
<clustering>
<clus scale="   29.172">  1  9  2 -1</clus>
<clus scale="   80.867">  5  6 -1 -1</clus>
<clus scale="   91.701">  7  8 -1 -1</clus>
<clus scale="  107.630">  1  5  2 -1</clus>
<clus scale="   29.172">  1  5  2 -1</clus>
</clustering>
</event>
<event>
 9    2  0.3791909E-005  0.1293483E+03  0.7546771E-02  0.1230888E+00
          2   -1    0    0  502    0  0.00000000000E+00  0.00000000000E+00  0.14312519837E+03  0.14312519837E+03  0.00000000000E+00 0. -1.
         -1   -1    0    0    0  501 -0.00000000000E+00 -0.00000000000E+00 -0.16834773367E+03  0.16834773367E+03  0.00000000000E+00 0.  1.
         23    2    1    2    0    0  0.79089944052E+02 -0.44234911404E+02 -0.68002417629E+02  0.14408697979E+03  0.89021246359E+02 0.  0.
         24    2    1    2    0    0 -0.98014517793E+02  0.27452187425E+02  0.15246479425E+02  0.12999761730E+03  0.79413204669E+02 0.  0.
        -13    1    4    4    0    0 -0.47150450933E+02  0.53103189174E+02  0.16936382987E+02  0.73006539380E+02  0.00000000000E+00 0.  1.
         14    1    4    4    0    0 -0.50864066860E+02 -0.25651001748E+02 -0.16899035614E+01  0.56991077918E+02  0.00000000000E+00 0. -1.
        -11    1    3    3    0    0  0.12855131386E+02 -0.35082234864E+02  0.12535807766E+02  0.39410202770E+02  0.00000000000E+00 0. -1.
         11    1    3    3    0    0  0.66234812666E+02 -0.91526765409E+01 -0.80538225395E+02  0.10467677702E+03  0.00000000000E+00 0.  1.
         21    1    1    2  502  501  0.18924573741E+02  0.16782723979E+02  0.27533402907E+02  0.37388334960E+02  0.00000000000E+00 0. -1.
<scales pt_clust_5="13000.00000" pt_clust_6="13000.00000" pt_clust_7="13000.00000" pt_clust_8="13000.00000" pt_clust_9="25.29425"></scales>
<clustering>
<clus scale="   25.294">  1  9  2 -1</clus>
<clus scale="   79.413">  5  6 -1 -1</clus>
<clus scale="   89.021">  7  8 -1 -1</clus>
<clus scale="  122.934">  1  5  2 -1</clus>
<clus scale="   25.294">  1  5  2 -1</clus>
</clustering>
</event>
<event>
 9    2  0.3791909E-005  0.1041549E+03  0.7546771E-02  0.1275245E+00
          2   -1    0    0  502    0  0.00000000000E+00  0.00000000000E+00  0.28264595821E+03  0.28264595821E+03  0.00000000000E+00 0. -1.
         -1   -1    0    0    0  501 -0.00000000000E+00 -0.00000000000E+00 -0.24672241345E+03  0.24672241345E+03  0.00000000000E+00 0.  1.
         23    2    1    2    0    0  0.46744502018E+02 -0.29783256987E+02 -0.21535377962E+03  0.24020633825E+03  0.90828099570E+02 0.  0.
         24    2    1    2    0    0 -0.13785882063E+02 -0.67773932167E+01  0.10465814757E+03  0.13450067824E+03  0.83072985926E+02 0.  0.
        -11    1    4    4    0    0  0.24421785889E+02  0.31935309858E+01  0.88452080446E+02  0.91817170515E+02  0.00000000000E+00 0.  1.
         12    1    4    4    0    0 -0.38207667953E+02 -0.99709242025E+01  0.16206067122E+02  0.42683507721E+02  0.00000000000E+00 0. -1.
        -13    1    3    3    0    0  0.47108012515E+01 -0.33739775316E+02 -0.18524268564E+03  0.18834918813E+03  0.00000000000E+00 0.  1.
         13    1    3    3    0    0  0.42033700766E+02  0.39565183295E+01 -0.30111093982E+02  0.51857150116E+02  0.00000000000E+00 0. -1.
         21    1    1    2  502  501 -0.32958619954E+02  0.36560650204E+02  0.14661917682E+03  0.15466135518E+03  0.00000000000E+00 0.  1.
<scales pt_clust_5="13000.00000" pt_clust_6="13000.00000" pt_clust_7="13000.00000" pt_clust_8="13000.00000" pt_clust_9="49.22349"></scales>
<clustering>
<clus scale="   49.223">  1  9  2 -1</clus>
<clus scale="   83.073">  5  6 -1 -1</clus>
<clus scale="   90.828">  7  8 -1 -1</clus>
<clus scale="   97.466">  1  5  2 -1</clus>
<clus scale="   49.223">  1  5  2 -1</clus>
</clustering>
</event>
<event>
 9    2  0.3791909E-005  0.1258368E+03  0.7546771E-02  0.1235790E+00
          4   -1    0    0  502    0  0.00000000000E+00  0.00000000000E+00  0.31728850845E+03  0.31728850845E+03  0.00000000000E+00 0. -1.
         -3   -1    0    0    0  501 -0.00000000000E+00 -0.00000000000E+00 -0.29480899577E+03  0.29480899577E+03  0.00000000000E+00 0.  1.
         23    2    1    2    0    0  0.84828014688E+02  0.21626709310E+02 -0.26239957940E+03  0.29145821887E+03  0.91819646289E+02 0.  0.
         24    2    1    2    0    0 -0.62752419951E+02  0.60847290740E+01  0.24780757848E+03  0.26936011978E+03  0.84684048316E+02 0.  0.
        -11    1    4    4    0    0 -0.63290091593E+02  0.17014618197E+02  0.90850791354E+02  0.11202231570E+03  0.00000000000E+00 0.  1.
         12    1    4    4    0    0  0.53767164159E+00 -0.10929889123E+02  0.15695678712E+03  0.15733780407E+03  0.00000000000E+00 0. -1.
        -13    1    3    3    0    0  0.58697845952E+02  0.46918771848E+02 -0.23261614600E+03  0.24445261228E+03  0.00000000000E+00 0.  1.
         13    1    3    3    0    0  0.26130168736E+02 -0.25292062537E+02 -0.29783433403E+02  0.47005606589E+02  0.00000000000E+00 0. -1.
         21    1    1    2  502  501 -0.22075594736E+02 -0.27711438384E+02  0.37071513603E+02  0.51279165566E+02  0.00000000000E+00 0. -1.
<scales pt_clust_5="13000.00000" pt_clust_6="13000.00000" pt_clust_7="13000.00000" pt_clust_8="13000.00000" pt_clust_9="35.42959"></scales>
<clustering>
<clus scale="   35.430">  1  9  2 -1</clus>
<clus scale="   84.684">  5  6 -1 -1</clus>
<clus scale="   91.820">  7  8 -1 -1</clus>
<clus scale="  120.729">  1  5  2 -1</clus>
<clus scale="   35.430">  1  5  2 -1</clus>
</clustering>
</event>
<event>
 9    2  0.3791909E-005  0.1375175E+03  0.7546771E-02  0.1218495E+00
         -1   -1    0    0    0  501 -0.00000000000E+00  0.00000000000E+00  0.13615593856E+03  0.13615593856E+03  0.00000000000E+00 0.  1.
          2   -1    0    0  502    0  0.00000000000E+00 -0.00000000000E+00 -0.68677394639E+03  0.68677394639E+03  0.00000000000E+00 0. -1.
         23    2    1    2    0    0 -0.10178399786E+03  0.33691040607E+02  0.69151285661E+02  0.15546311145E+03  0.88835861425E+02 0.  0.
         24    2    1    2    0    0  0.10463121722E+03  0.64801995298E+02 -0.41230142942E+03  0.43778895698E+03  0.80744733228E+02 0.  0.
        -11    1    4    4    0    0  0.19343639181E+02 -0.17247417463E+02 -0.45442339880E+02  0.52313058023E+02  0.00000000000E+00 0.  1.
         12    1    4    4    0    0  0.85287578040E+02  0.82049412761E+02 -0.36685908954E+03  0.38547589896E+03  0.00000000000E+00 0. -1.
        -11    1    3    3    0    0 -0.10390401701E+03 -0.39928368325E+00  0.43024967061E+02  0.11246044624E+03  0.00000000000E+00 0.  1.
         11    1    3    3    0    0  0.21200191481E+01  0.34090324290E+02  0.26126318600E+02  0.43002665208E+02  0.00000000000E+00 0. -1.
         21    1    1    2  502  501 -0.28472193578E+01 -0.98493035905E+02 -0.20746786407E+03  0.22967781652E+03  0.00000000000E+00 0.  1.
<scales pt_clust_5="13000.00000" pt_clust_6="13000.00000" pt_clust_7="13000.00000" pt_clust_8="13000.00000" pt_clust_9="98.53418"></scales>
<clustering>
<clus scale="   80.745">  5  6 -1 -1</clus>
<clus scale="   88.836">  7  8 -1 -1</clus>
<clus scale="   98.534">  2  9  1 -1</clus>
<clus scale="  132.435">  2  5  1 -1</clus>
<clus scale="   98.534">  2  5  1 -1</clus>
</clustering>
</event>
<event>
 9    2  0.3791909E-005  0.1120430E+03  0.7546771E-02  0.1260801E+00
         -1   -1    0    0    0  501 -0.00000000000E+00  0.00000000000E+00  0.30641327954E+02  0.30641327954E+02  0.00000000000E+00 0.  1.
          2   -1    0    0  502    0  0.00000000000E+00 -0.00000000000E+00 -0.69649952876E+03  0.69649952876E+03  0.00000000000E+00 0. -1.
         23    2    1    2    0    0  0.58929559571E+02 -0.28096502834E+02 -0.11136263051E+03  0.15839883561E+03  0.91795692632E+02 0.  0.
         24    2    1    2    0    0 -0.63629596882E+02  0.54740987488E+01 -0.45569050017E+03  0.46727130907E+03  0.81301617333E+02 0.  0.
        -11    1    4    4    0    0 -0.37769622903E+02  0.41797561070E+02 -0.20275071780E+03  0.21043154253E+03  0.00000000000E+00 0.  1.
         12    1    4    4    0    0 -0.25859973978E+02 -0.36323462322E+02 -0.25293978237E+03  0.25683976654E+03  0.00000000000E+00 0. -1.
        -13    1    3    3    0    0  0.17155842536E+02 -0.51872704516E+02 -0.91118559911E+02  0.10624355212E+03  0.00000000000E+00 0. -1.
         13    1    3    3    0    0  0.41773717035E+02  0.23776201682E+02 -0.20244070597E+02  0.52155283488E+02  0.00000000000E+00 0.  1.
         21    1    1    2  502  501  0.47000373103E+01  0.22622404085E+02 -0.98805070126E+02  0.10147071203E+03  0.00000000000E+00 0. -1.
<scales pt_clust_5="13000.00000" pt_clust_6="13000.00000" pt_clust_7="13000.00000" pt_clust_8="13000.00000" pt_clust_9="23.10549"></scales>
<clustering>
<clus scale="   23.105">  2  9  1 -1</clus>
<clus scale="   81.302">  5  6 -1 -1</clus>
<clus scale="   91.796">  7  8 -1 -1</clus>
<clus scale="  103.620">  2  5  1 -1</clus>
<clus scale="   23.105">  2  5  1 -1</clus>
</clustering>
</event>
<event>
 9    2  0.3791909E-005  0.9216370E+02  0.7546771E-02  0.1303113E+00
          2   -1    0    0  502    0  0.00000000000E+00  0.00000000000E+00  0.10884686854E+03  0.10884686854E+03  0.00000000000E+00 0. -1.
         -1   -1    0    0    0  501 -0.00000000000E+00 -0.00000000000E+00 -0.44104570676E+03  0.44104570676E+03  0.00000000000E+00 0.  1.
         24    2    1    2    0    0  0.19343071107E+01  0.14934351905E+02 -0.37315744547E+03  0.38232176019E+03  0.81833201027E+02 0.  0.
         23    2    1    2    0    0 -0.50473973215E+02 -0.25726080340E+02  0.48183313719E+02  0.11732385529E+03  0.90740300409E+02 0.  0.
        -13    1    3    3    0    0  0.22936922445E+02  0.41606108007E+02 -0.25481760156E+03  0.25920875892E+03  0.00000000000E+00 0.  1.
         14    1    3    3    0    0 -0.21002615334E+02 -0.26671756102E+02 -0.11833984391E+03  0.12311300127E+03  0.00000000000E+00 0. -1.
        -11    1    4    4    0    0  0.11641412617E+02  0.21725142987E+02  0.26533257031E+02  0.36214887190E+02  0.00000000000E+00 0.  1.
         11    1    4    4    0    0 -0.62115385833E+02 -0.47451223326E+02  0.21650056688E+02  0.81108968104E+02  0.00000000000E+00 0. -1.
         21    1    1    2  502  501  0.48539666105E+02  0.10791728435E+02 -0.72247064653E+01  0.50246959825E+02  0.00000000000E+00 0. -1.
<scales pt_clust_5="13000.00000" pt_clust_6="13000.00000" pt_clust_7="13000.00000" pt_clust_8="13000.00000" pt_clust_9="49.72485"></scales>
<clustering>
<clus scale="   49.725">  1  9  2 -1</clus>
<clus scale="   81.833">  5  6 -1 -1</clus>
<clus scale="   83.409">  2  5  1 -1</clus>
<clus scale="   90.740">  7  8 -1 -1</clus>
<clus scale="   49.725">  1  5  2 -1</clus>
</clustering>
</event>
<event>
 9    2  0.3791909E-005  0.1388603E+03  0.7546771E-02  0.1237691E+00
         -1   -1    0    0    0  501 -0.00000000000E+00  0.00000000000E+00  0.71538663662E+03  0.71538663662E+03  0.00000000000E+00 0.  1.
          2   -1    0    0  502    0  0.00000000000E+00 -0.00000000000E+00 -0.43700599245E+02  0.43700599245E+02  0.00000000000E+00 0. -1.
         24    2    1    2    0    0 -0.19523579766E+02  0.22214841618E+02  0.20524277752E+03  0.22269738587E+03  0.81208734725E+02 0.  0.
         23    2    1    2    0    0  0.13314909893E+02 -0.11461243853E+03  0.38142718003E+03  0.41067749052E+03  0.99277437826E+02 0.  0.
        -13    1    3    3    0    0 -0.51323011109E+01  0.37825161473E+02  0.19575518719E+03  0.19944216372E+03  0.00000000000E+00 0.  1.
         14    1    3    3    0    0 -0.14391278655E+02 -0.15610319855E+02  0.94875903262E+01  0.23255222155E+02  0.00000000000E+00 0. -1.
        -13    1    4    4    0    0  0.49770355734E+02 -0.49984664013E+02  0.24989371339E+03  0.25965828109E+03  0.00000000000E+00 0.  1.
         13    1    4    4    0    0 -0.36455445841E+02 -0.64627774512E+02  0.13153346664E+03  0.15101920943E+03  0.00000000000E+00 0. -1.
         21    1    1    2  502  501  0.62086698732E+01  0.92397596907E+02  0.85016079818E+02  0.12571235947E+03  0.00000000000E+00 0.  1.
<scales pt_clust_5="13000.00000" pt_clust_6="13000.00000" pt_clust_7="13000.00000" pt_clust_8="13000.00000" pt_clust_9="97.08852"></scales>
<clustering>
<clus scale="   81.209">  5  6 -1 -1</clus>
<clus scale="   86.426">  1  5  2 -1</clus>
<clus scale="   97.089">  2  9  1 -1</clus>
<clus scale="   99.277">  7  8 -1 -1</clus>
<clus scale="   97.089">  2  5  1 -1</clus>
</clustering>
</event>
<event>
 9    2  0.3791909E-005  0.1843332E+03  0.7546771E-02  0.1193444E+00
         -1   -1    0    0    0  501 -0.00000000000E+00  0.00000000000E+00  0.37092597813E+02  0.37092597813E+02  0.00000000000E+00 0.  1.
          2   -1    0    0  502    0  0.00000000000E+00 -0.00000000000E+00 -0.15512606895E+04  0.15512606895E+04  0.00000000000E+00 0. -1.
         24    2    1    2    0    0 -0.37768195489E+02  0.30966380685E+02 -0.21559154208E+03  0.23528562288E+03  0.80586959206E+02 0.  0.
         23    2    1    2    0    0 -0.12933784747E+03 -0.10487600995E+02 -0.30051465317E+03  0.34090593865E+03  0.95234099336E+02 0.  0.
        -13    1    3    3    0    0 -0.59643467276E+02  0.34655197576E+02 -0.18542523483E+03  0.19784044991E+03  0.00000000000E+00 0.  1.
         14    1    3    3    0    0  0.21875271787E+02 -0.36888168910E+01 -0.30166307249E+02  0.37445172971E+02  0.00000000000E+00 0. -1.
        -13    1    4    4    0    0 -0.42001472920E+02 -0.30737212039E+02 -0.19796441863E+03  0.20469199050E+03  0.00000000000E+00 0. -1.
         13    1    4    4    0    0 -0.87336374553E+02  0.20249611044E+02 -0.10255023454E+03  0.13621394815E+03  0.00000000000E+00 0.  1.
         21    1    1    2  502  501  0.16710604296E+03 -0.20478779690E+02 -0.99806189646E+03  0.10121617258E+04  0.00000000000E+00 0. -1.
<scales pt_clust_5="13000.00000" pt_clust_6="13000.00000" pt_clust_7="13000.00000" pt_clust_8="13000.00000" pt_clust_9="157.82644"></scales>
<clustering>
<clus scale="   80.587">  5  6 -1 -1</clus>
<clus scale="   94.232">  1  5  2 -1</clus>
<clus scale="   95.234">  7  8 -1 -1</clus>
<clus scale="  157.826">  2  9  1 -1</clus>
<clus scale="  157.826">  2  5  1 -1</clus>
</clustering>
</event>
<event>
 9    2  0.3791909E-005  0.1542882E+03  0.7546771E-02  0.1197455E+00
          2   -1    0    0  502    0  0.00000000000E+00  0.00000000000E+00  0.17498729576E+04  0.17498729576E+04  0.00000000000E+00 0. -1.
         -1   -1    0    0    0  501 -0.00000000000E+00 -0.00000000000E+00 -0.18911407832E+02  0.18911407832E+02  0.00000000000E+00 0.  1.
         23    2    1    2    0    0 -0.11401656049E+03  0.43188439211E+02  0.49561223019E+03  0.51845139811E+03  0.91078823793E+02 0.  0.
         24    2    1    2    0    0  0.13271546939E+03 -0.97669204394E+01  0.96582945273E+03  0.97810584571E+03  0.78458429182E+02 0.  0.
        -13    1    4    4    0    0  0.10518737259E+03 -0.29712088726E+01  0.47766702418E+03  0.48912063688E+03  0.00000000000E+00 0.  1.
         14    1    4    4    0    0  0.27528096797E+02 -0.67957115668E+01  0.48816242854E+03  0.48898520883E+03  0.00000000000E+00 0. -1.
        -11    1    3    3    0    0 -0.52575042059E+02 -0.12701674858E+02  0.94988302337E+02  0.10930802886E+03  0.00000000000E+00 0.  1.
         11    1    3    3    0    0 -0.61441518435E+02  0.55890114069E+02  0.40062392785E+03  0.40914336926E+03  0.00000000000E+00 0. -1.
         21    1    1    2  502  501 -0.18698908895E+02 -0.33421518772E+02  0.26951986686E+03  0.27222712161E+03  0.00000000000E+00 0.  1.
<scales pt_clust_5="13000.00000" pt_clust_6="13000.00000" pt_clust_7="13000.00000" pt_clust_8="13000.00000" pt_clust_9="38.29683"></scales>
<clustering>
<clus scale="   38.297">  1  9  2 -1</clus>
<clus scale="   78.458">  5  6 -1 -1</clus>
<clus scale="   91.079">  7  8 -1 -1</clus>
<clus scale="  147.191">  1  5  2 -1</clus>
<clus scale="   38.297">  1  5  2 -1</clus>
</clustering>
</event>
<event>
 9    2  0.3791909E-005  0.1848822E+03  0.7546771E-02  0.1163730E+00
         -1   -1    0    0    0  501 -0.00000000000E+00  0.00000000000E+00  0.74082751604E+03  0.74082751604E+03  0.00000000000E+00 0.  1.
          2   -1    0    0  502    0  0.00000000000E+00 -0.00000000000E+00 -0.76273499508E+02  0.76273499508E+02  0.00000000000E+00 0. -1.
         23    2    1    2    0    0  0.15119784280E+03  0.11032458882E+02  0.40567188379E+03  0.44201615164E+03  0.88465237193E+02 0.  0.
         24    2    1    2    0    0 -0.17950663155E+03  0.46182990557E+02  0.20089050679E+03  0.28884088525E+03  0.93362529356E+02 0.  0.
        -13    1    4    4    0    0 -0.15646351266E+03  0.40337152671E+02  0.20859035401E+03  0.26385195179E+03  0.00000000000E+00 0.  1.
         14    1    4    4    0    0 -0.23043118884E+02  0.58458378851E+01 -0.76998472107E+01  0.24988933461E+02  0.00000000000E+00 0. -1.
        -13    1    3    3    0    0  0.11581110001E+03 -0.21767831168E+02  0.21330619141E+03  0.24369156870E+03  0.00000000000E+00 0. -1.
         13    1    3    3    0    0  0.35386742785E+02  0.32800290050E+02  0.19236569238E+03  0.19832458294E+03  0.00000000000E+00 0.  1.
         21    1    1    2  502  501  0.28308788752E+02 -0.57215449439E+02  0.57991625943E+02  0.86243978657E+02  0.00000000000E+00 0. -1.
<scales pt_clust_5="13000.00000" pt_clust_6="13000.00000" pt_clust_7="13000.00000" pt_clust_8="13000.00000" pt_clust_9="63.83569"></scales>
<clustering>
<clus scale="   63.836">  2  9  1 -1</clus>
<clus scale="   88.465">  7  8 -1 -1</clus>
<clus scale="   93.363">  5  6 -1 -1</clus>
<clus scale="  182.458">  1  7  2 -1</clus>
<clus scale="   63.836">  2  5  1 -1</clus>
</clustering>
</event>
<event>
 9    2  0.3791909E-005  0.1354387E+03  0.7546771E-02  0.1221695E+00
          2   -1    0    0  502    0  0.00000000000E+00  0.00000000000E+00  0.11373491058E+03  0.11373491058E+03  0.00000000000E+00 0. -1.
         -1   -1    0    0    0  501 -0.00000000000E+00 -0.00000000000E+00 -0.39085169782E+03  0.39085169782E+03  0.00000000000E+00 0.  1.
         23    2    1    2    0    0  0.87742031916E+02  0.47837150962E+02 -0.30723611152E+03  0.33556805283E+03  0.90690863265E+02 0.  0.
         24    2    1    2    0    0 -0.10394920623E+03 -0.27335519648E+02  0.40373835469E+02  0.14094464623E+03  0.81747651963E+02 0.  0.
        -11    1    4    4    0    0 -0.38635840215E+02 -0.63861466874E+01 -0.24779872013E+02  0.46341699102E+02  0.00000000000E+00 0.  1.
         12    1    4    4    0    0 -0.65313366014E+02 -0.20949372961E+02  0.65153707481E+02  0.94602947132E+02  0.00000000000E+00 0. -1.
        -13    1    3    3    0    0  0.47376359800E+02 -0.21918947150E+02 -0.92606205911E+02  0.10630554588E+03  0.00000000000E+00 0. -1.
         13    1    3    3    0    0  0.40365672116E+02  0.69756098112E+02 -0.21462990561E+03  0.22926250695E+03  0.00000000000E+00 0.  1.
         21    1    1    2  502  501  0.16207174313E+02 -0.20501631313E+02 -0.10254511185E+02  0.28073909336E+02  0.00000000000E+00 0.  1.
<scales pt_clust_5="13000.00000" pt_clust_6="13000.00000" pt_clust_7="13000.00000" pt_clust_8="13000.00000" pt_clust_9="26.13407"></scales>
<clustering>
<clus scale="   26.134">  1  9  2 -1</clus>
<clus scale="   81.748">  5  6 -1 -1</clus>
<clus scale="   90.691">  7  8 -1 -1</clus>
<clus scale="  129.621">  1  5  2 -1</clus>
<clus scale="   26.134">  1  5  2 -1</clus>
</clustering>
</event>
<event>
 9    2  0.3791909E-005  0.1575214E+03  0.7546771E-02  0.1197889E+00
         -1   -1    0    0    0  501 -0.00000000000E+00  0.00000000000E+00  0.39006580397E+03  0.39006580397E+03  0.00000000000E+00 0.  1.
          2   -1    0    0  502    0  0.00000000000E+00 -0.00000000000E+00 -0.14709624244E+03  0.14709624244E+03  0.00000000000E+00 0. -1.
         24    2    1    2    0    0 -0.57104745126E+02  0.93031585239E+02  0.13616251356E+03  0.19316283279E+03  0.82799891945E+02 0.  0.
         23    2    1    2    0    0  0.89854411324E+02  0.73584295412E+02  0.11028579254E+02  0.14904561045E+03  0.92760447751E+02 0.  0.
        -13    1    3    3    0    0 -0.64211185775E+02  0.25519618486E+02  0.70642827793E+02  0.98816680905E+02  0.00000000000E+00 0.  1.
         14    1    3    3    0    0  0.71064406486E+01  0.67511966752E+02  0.65519685765E+02  0.94346151889E+02  0.00000000000E+00 0. -1.
        -11    1    4    4    0    0  0.86013999675E+02  0.94260267684E+02  0.96548284962E+01  0.12797117612E+03  0.00000000000E+00 0. -1.
         11    1    4    4    0    0  0.38404116487E+01 -0.20675972272E+02  0.13737507578E+01  0.21074434326E+02  0.00000000000E+00 0.  1.
         21    1    1    2  502  501 -0.32749666198E+02 -0.16661588065E+03  0.95778468720E+02  0.19495360318E+03  0.00000000000E+00 0.  1.
<scales pt_clust_5="13000.00000" pt_clust_6="13000.00000" pt_clust_7="13000.00000" pt_clust_8="13000.00000" pt_clust_9="127.31256"></scales>
<clustering>
<clus scale="   82.800">  5  6 -1 -1</clus>
<clus scale="   92.760">  7  8 -1 -1</clus>
<clus scale="  137.010">  1  5  2 -1</clus>
<clus scale="  127.313">  1  9  2 -1</clus>
<clus scale="  157.521">  2  5  1 -1</clus>
</clustering>
</event>
<event>
 9    2  0.3791909E-005  0.1053630E+03  0.7546771E-02  0.1273877E+00
         -1   -1    0    0    0  501 -0.00000000000E+00  0.00000000000E+00  0.14013809117E+03  0.14013809117E+03  0.00000000000E+00 0.  1.
          2   -1    0    0  502    0  0.00000000000E+00 -0.00000000000E+00 -0.11866546015E+03  0.11866546015E+03  0.00000000000E+00 0. -1.
         23    2    1    2    0    0 -0.33608736798E+02 -0.46152270745E+02  0.72752389638E+02  0.13026373354E+03  0.91739581393E+02 0.  0.
         24    2    1    2    0    0  0.11682258677E+02  0.40717705819E+02 -0.28006881591E+02  0.96106320529E+02  0.81594317782E+02 0.  0.
        -11    1    4    4    0    0 -0.13952244654E+02  0.25674282530E+02  0.22922264698E+02  0.37138445487E+02  0.00000000000E+00 0.  1.
         12    1    4    4    0    0  0.25634503331E+02  0.15043423289E+02 -0.50929146289E+02  0.58967875042E+02  0.00000000000E+00 0. -1.
        -13    1    3    3    0    0 -0.42589911913E+01 -0.68710405831E+02  0.34391072442E+02  0.76954562822E+02  0.00000000000E+00 0.  1.
         13    1    3    3    0    0 -0.29349745607E+02  0.22558135086E+02  0.38361317196E+02  0.53309170719E+02  0.00000000000E+00 0. -1.
         21    1    1    2  502  501  0.21926478121E+02  0.54345649257E+01 -0.23272877031E+02  0.32433497253E+02  0.00000000000E+00 0.  1.
<scales pt_clust_5="13000.00000" pt_clust_6="13000.00000" pt_clust_7="13000.00000" pt_clust_8="13000.00000" pt_clust_9="22.58993"></scales>
<clustering>
<clus scale="   22.590">  2  9  1 -1</clus>
<clus scale="   81.594">  5  6 -1 -1</clus>
<clus scale="   91.740">  7  8 -1 -1</clus>
<clus scale="   96.658">  2  5  1 -1</clus>
<clus scale="   22.590">  2  5  1 -1</clus>
</clustering>
</event>
<event>
 9    2  0.3791909E-005  0.2871520E+03  0.7546771E-02  0.1092272E+00
          2   -1    0    0  502    0  0.00000000000E+00  0.00000000000E+00  0.35299069258E+03  0.35299069258E+03  0.00000000000E+00 0. -1.
         -1   -1    0    0    0  501 -0.00000000000E+00 -0.00000000000E+00 -0.56655825161E+03  0.56655825161E+03  0.00000000000E+00 0.  1.
         23    2    1    2    0    0  0.15985247880E+03  0.22342349049E+03 -0.22559712631E+03  0.36710563476E+03  0.91660310885E+02 0.  0.
         24    2    1    2    0    0 -0.18425485176E+03 -0.19812099872E+03 -0.19450898993E+03  0.34293467593E+03  0.81047296420E+02 0.  0.
        -13    1    4    4    0    0 -0.14795384359E+03 -0.10226712064E+03 -0.11993232251E+03  0.21617739424E+03  0.00000000000E+00 0.  1.
         14    1    4    4    0    0 -0.36301008173E+02 -0.95853878083E+02 -0.74576667419E+02  0.12675728169E+03  0.00000000000E+00 0. -1.
        -11    1    3    3    0    0  0.34253659737E+02  0.13892813595E+02 -0.38188985651E+01  0.37160563252E+02  0.00000000000E+00 0. -1.
         11    1    3    3    0    0  0.12559881906E+03  0.20953067690E+03 -0.22177822775E+03  0.32994507151E+03  0.00000000000E+00 0.  1.
         21    1    1    2  502  501  0.24402372963E+02 -0.25302491770E+02  0.20653855722E+03  0.20950863351E+03  0.00000000000E+00 0. -1.
<scales pt_clust_5="13000.00000" pt_clust_6="13000.00000" pt_clust_7="13000.00000" pt_clust_8="13000.00000" pt_clust_9="35.15241"></scales>
<clustering>
<clus scale="   35.152">  1  9  2 -1</clus>
<clus scale="   81.047">  5  6 -1 -1</clus>
<clus scale="   91.660">  7  8 -1 -1</clus>
<clus scale="  283.942">  1  5  2 -1</clus>
<clus scale="   35.152">  1  5  2 -1</clus>
</clustering>
</event>
<event>
 9    2  0.3791909E-005  0.2232751E+03  0.7546771E-02  0.1132351E+00
          2   -1    0    0  502    0  0.00000000000E+00  0.00000000000E+00  0.36374007062E+03  0.36374007062E+03  0.00000000000E+00 0. -1.
         -1   -1    0    0    0  501 -0.00000000000E+00 -0.00000000000E+00 -0.41385353927E+03  0.41385353927E+03  0.00000000000E+00 0.  1.
         23    2    1    2    0    0 -0.41833080776E+01 -0.20373330213E+03 -0.32434267904E+03  0.39432267538E+03  0.93634611195E+02 0.  0.
         24    2    1    2    0    0 -0.14440682371E+02  0.19635886781E+03  0.15791033265E+03  0.26523993594E+03  0.81554964201E+02 0.  0.
        -11    1    4    4    0    0  0.18049187335E+02  0.77108603718E+02  0.23422605396E+02  0.82584068526E+02  0.00000000000E+00 0.  1.
         12    1    4    4    0    0 -0.32489869706E+02  0.11925026409E+03  0.13448772725E+03  0.18265586742E+03  0.00000000000E+00 0. -1.
        -11    1    3    3    0    0  0.38053378366E+02 -0.54378174098E+02 -0.12657691157E+03  0.14292221649E+03  0.00000000000E+00 0.  1.
         11    1    3    3    0    0 -0.42236686443E+02 -0.14935512803E+03 -0.19776576746E+03  0.25140045889E+03  0.00000000000E+00 0. -1.
         21    1    1    2  502  501  0.18623990448E+02  0.73744343168E+01  0.11631887774E+03  0.11803099856E+03  0.00000000000E+00 0. -1.
<scales pt_clust_5="13000.00000" pt_clust_6="13000.00000" pt_clust_7="13000.00000" pt_clust_8="13000.00000" pt_clust_9="20.03086"></scales>
<clustering>
<clus scale="   20.031">  1  9  2 -1</clus>
<clus scale="   81.555">  5  6 -1 -1</clus>
<clus scale="   93.635">  7  8 -1 -1</clus>
<clus scale="  218.485">  1  5  2 -1</clus>
<clus scale="   20.031">  1  5  2 -1</clus>
</clustering>
</event>
<event>
 9    2  0.3791909E-005  0.2179266E+03  0.7546771E-02  0.1166820E+00
          2   -1    0    0  502    0  0.00000000000E+00  0.00000000000E+00  0.13919947458E+04  0.13919947458E+04  0.00000000000E+00 0. -1.
         -1   -1    0    0    0  501 -0.00000000000E+00 -0.00000000000E+00 -0.10549854807E+03  0.10549854807E+03  0.00000000000E+00 0.  1.
         24    2    1    2    0    0  0.20147887708E+03 -0.38641684423E+02  0.50096535011E+02  0.22682927796E+03  0.82794570099E+02 0.  0.
         23    2    1    2    0    0 -0.20563495760E+02  0.41229605529E+02  0.31426622558E+03  0.33094749034E+03  0.92952907930E+02 0.  0.
        -13    1    3    3    0    0  0.19762940047E+03 -0.41757315213E+02  0.64145308334E+02  0.21193318259E+03  0.00000000000E+00 0.  1.
         14    1    3    3    0    0  0.38494766095E+01  0.31156307904E+01 -0.14048773323E+02  0.14896095370E+02  0.00000000000E+00 0. -1.
        -11    1    4    4    0    0  0.18807827557E+02  0.50093298714E+02  0.10524538164E+03  0.11806635130E+03  0.00000000000E+00 0. -1.
         11    1    4    4    0    0 -0.39371323317E+02 -0.88636931846E+01  0.20902084394E+03  0.21288113904E+03  0.00000000000E+00 0.  1.
         21    1    1    2  502  501 -0.18091538132E+03 -0.25879211066E+01  0.92213343717E+03  0.93971652559E+03  0.00000000000E+00 0. -1.
<scales pt_clust_5="13000.00000" pt_clust_6="13000.00000" pt_clust_7="13000.00000" pt_clust_8="13000.00000" pt_clust_9="201.58633"></scales>
<clustering>
<clus scale="   82.795">  5  6 -1 -1</clus>
<clus scale="   92.953">  7  8 -1 -1</clus>
<clus scale="  103.745">  1  7  2 -1</clus>
<clus scale="  201.586">  1  9  2 -1</clus>
<clus scale="  103.745">  1  5  2 -1</clus>
</clustering>
</event>
<event>
 9    2  0.3791909E-005  0.2432948E+03  0.7546771E-02  0.1118380E+00
         -1   -1    0    0    0  501 -0.00000000000E+00  0.00000000000E+00  0.22230407754E+03  0.22230407754E+03  0.00000000000E+00 0.  1.
          2   -1    0    0  502    0  0.00000000000E+00 -0.00000000000E+00 -0.37886587000E+03  0.37886587000E+03  0.00000000000E+00 0. -1.
         23    2    1    2    0    0 -0.15530199082E+03  0.16568331267E+03  0.42228856075E+02  0.24846678075E+03  0.91557612452E+02 0.  0.
         24    2    1    2    0    0  0.17140662308E+03 -0.14331108989E+03 -0.11260645376E+03  0.26221785880E+03  0.78483712485E+02 0.  0.
        -11    1    4    4    0    0  0.16995409938E+03 -0.12489168562E+03 -0.11960324235E+03  0.24246085171E+03  0.00000000000E+00 0.  1.
         12    1    4    4    0    0  0.14525236982E+01 -0.18419404271E+02  0.69967885813E+01  0.19757007092E+02  0.00000000000E+00 0. -1.
        -13    1    3    3    0    0 -0.14218783814E+03  0.11348748699E+03  0.31420007183E+01  0.18195236516E+03  0.00000000000E+00 0. -1.
         13    1    3    3    0    0 -0.13114152681E+02  0.52195825686E+02  0.39086855356E+02  0.66514415589E+02  0.00000000000E+00 0.  1.
         21    1    1    2  502  501 -0.16104632258E+02 -0.22372222780E+02 -0.86184194775E+02  0.90485307986E+02  0.00000000000E+00 0. -1.
<scales pt_clust_5="13000.00000" pt_clust_6="13000.00000" pt_clust_7="13000.00000" pt_clust_8="13000.00000" pt_clust_9="27.56584"></scales>
<clustering>
<clus scale="   27.566">  2  9  1 -1</clus>
<clus scale="   78.484">  5  6 -1 -1</clus>
<clus scale="   91.558">  7  8 -1 -1</clus>
<clus scale="  238.682">  2  5  1 -1</clus>
<clus scale="   27.566">  2  5  1 -1</clus>
</clustering>
</event>
<event>
 9    2  0.3791909E-005  0.1107688E+03  0.7546771E-02  0.1263953E+00
         -1   -1    0    0    0  501 -0.00000000000E+00  0.00000000000E+00  0.95816066784E+02  0.95816066784E+02  0.00000000000E+00 0.  1.
          2   -1    0    0  502    0  0.00000000000E+00 -0.00000000000E+00 -0.29050789768E+03  0.29050789768E+03  0.00000000000E+00 0. -1.
         23    2    1    2    0    0 -0.61818066347E+02  0.29355810283E+02  0.26704882303E+02  0.11758504611E+03  0.91814244020E+02 0.  0.
         24    2    1    2    0    0  0.44749891751E+02 -0.18883106872E+02 -0.71360748814E+02  0.11737250626E+03  0.79528763466E+02 0.  0.
        -13    1    4    4    0    0  0.41780015522E+01  0.25591876107E+02 -0.44384624462E+02  0.51404228506E+02  0.00000000000E+00 0.  1.
         14    1    4    4    0    0  0.40571890199E+02 -0.44474982979E+02 -0.26976124351E+02  0.65968277758E+02  0.00000000000E+00 0. -1.
        -13    1    3    3    0    0 -0.36452162537E+02  0.62632974706E+02  0.20277250644E+02  0.75251688139E+02  0.00000000000E+00 0.  1.
         13    1    3    3    0    0 -0.25365903811E+02 -0.33277164423E+02  0.64276316591E+01  0.42333357969E+02  0.00000000000E+00 0. -1.
         21    1    1    2  502  501  0.17068174597E+02 -0.10472703411E+02 -0.15003596439E+03  0.15136641209E+03  0.00000000000E+00 0. -1.
<scales pt_clust_5="13000.00000" pt_clust_6="13000.00000" pt_clust_7="13000.00000" pt_clust_8="13000.00000" pt_clust_9="20.02499"></scales>
<clustering>
<clus scale="   20.025">  2  9  1 -1</clus>
<clus scale="   79.529">  5  6 -1 -1</clus>
<clus scale="   91.814">  7  8 -1 -1</clus>
<clus scale="  100.820">  2  5  1 -1</clus>
<clus scale="   20.025">  2  5  1 -1</clus>
</clustering>
</event>
<event>
 9    2  0.3791909E-005  0.1925448E+03  0.7546771E-02  0.1157300E+00
          2   -1    0    0  502    0  0.00000000000E+00  0.00000000000E+00  0.53668165878E+03  0.53668165878E+03  0.00000000000E+00 0. -1.
         -1   -1    0    0    0  501 -0.00000000000E+00 -0.00000000000E+00 -0.29456913186E+03  0.29456913186E+03  0.00000000000E+00 0.  1.
         23    2    1    2    0    0  0.16758755132E+03 -0.15885417530E+01 -0.21215486007E+03  0.28478803744E+03  0.89478661104E+02 0.  0.
         24    2    1    2    0    0 -0.20493414562E+03  0.51617856855E+02  0.41633188541E+03  0.47340932921E+03  0.78241593728E+02 0.  0.
        -11    1    4    4    0    0 -0.17222462897E+03  0.26017884290E+02  0.27008659734E+03  0.32137987366E+03  0.00000000000E+00 0.  1.
         12    1    4    4    0    0 -0.32709516647E+02  0.25599972565E+02  0.14624528807E+03  0.15202945556E+03  0.00000000000E+00 0. -1.
        -11    1    3    3    0    0  0.11648650018E+03 -0.42984027201E+02 -0.14200855013E+03  0.18863499047E+03  0.00000000000E+00 0.  1.
         11    1    3    3    0    0  0.51101051136E+02  0.41395485448E+02 -0.70146309944E+02  0.96153046969E+02  0.00000000000E+00 0. -1.
         21    1    1    2  502  501  0.37346594299E+02 -0.50029315102E+02  0.37935501591E+02  0.73053423987E+02  0.00000000000E+00 0.  1.
<scales pt_clust_5="13000.00000" pt_clust_6="13000.00000" pt_clust_7="13000.00000" pt_clust_8="13000.00000" pt_clust_9="62.43157"></scales>
<clustering>
<clus scale="   62.432">  1  9  2 -1</clus>
<clus scale="   78.242">  5  6 -1 -1</clus>
<clus scale="   89.479">  7  8 -1 -1</clus>
<clus scale="  187.587">  1  5  2 -1</clus>
<clus scale="   62.432">  1  5  2 -1</clus>
</clustering>
</event>
<event>
 9    2  0.9076083E-005  0.1229827E+03  0.7546771E-02  0.1241938E+00
         -1   -1    0    0    0  501 -0.00000000000E+00  0.00000000000E+00  0.86664554271E+02  0.86664554271E+02  0.00000000000E+00 0.  1.
          2   -1    0    0  502    0  0.00000000000E+00 -0.00000000000E+00 -0.11543472106E+04  0.11543472106E+04  0.00000000000E+00 0. -1.
         23    2    1    2    0    0 -0.48160695115E+02 -0.67899530241E+02  0.34807056485E+02  0.12833931742E+03  0.91266918725E+02 0.  0.
         24    2    1    2    0    0  0.51032232245E+02  0.42533088668E+02 -0.10409300384E+04  0.10460294013E+04  0.78922818161E+02 0.  0.
        -11    1    4    4    0    0 -0.18994113597E+02  0.90365508028E+01 -0.11964568555E+03  0.12148055677E+03  0.00000000000E+00 0.  1.
         12    1    4    4    0    0  0.70026345841E+02  0.33496537865E+02 -0.92128435284E+03  0.92454884455E+03  0.00000000000E+00 0. -1.
        -13    1    3    3    0    0 -0.32943446368E+02 -0.88537411341E+02  0.14379947436E+02  0.95555882885E+02  0.00000000000E+00 0.  1.
         13    1    3    3    0    0 -0.15217248748E+02  0.20637881100E+02  0.20427109049E+02  0.32783434534E+02  0.00000000000E+00 0. -1.
         21    1    1    2  502  501 -0.28715371293E+01  0.25366441573E+02 -0.61559674405E+02  0.66643046122E+02  0.00000000000E+00 0. -1.
<scales pt_clust_5="13000.00000" pt_clust_6="13000.00000" pt_clust_7="13000.00000" pt_clust_8="13000.00000" pt_clust_9="25.52846"></scales>
<clustering>
<clus scale="   25.528">  2  9  1 -1</clus>
<clus scale="   78.923">  5  6 -1 -1</clus>
<clus scale="   91.267">  7  8 -1 -1</clus>
<clus scale="  114.122">  2  5  1 -1</clus>
<clus scale="   25.528">  2  5  1 -1</clus>
</clustering>
</event>
<event>
 9    2  0.3791909E-005  0.1346482E+03  0.7546771E-02  0.1220834E+00
          2   -1    0    0  502    0  0.00000000000E+00  0.00000000000E+00  0.37656566204E+03  0.37656566204E+03  0.00000000000E+00 0. -1.
         -1   -1    0    0    0  501 -0.00000000000E+00 -0.00000000000E+00 -0.61567401719E+02  0.61567401719E+02  0.00000000000E+00 0.  1.
         23    2    1    2    0    0 -0.78525846599E+02  0.62578119054E+02  0.90600110879E+02  0.16297463818E+03  0.90939666981E+02 0.  0.
         24    2    1    2    0    0  0.63149443555E+02 -0.76854493541E+02  0.21122741661E+03  0.25038511651E+03  0.90450094746E+02 0.  0.
        -13    1    4    4    0    0  0.56487568830E+02 -0.14303440408E+02  0.48130145997E+02  0.75577409280E+02  0.00000000000E+00 0.  1.
         14    1    4    4    0    0  0.66618747251E+01 -0.62551053132E+02  0.16309727062E+03  0.17480770723E+03  0.00000000000E+00 0. -1.
        -13    1    3    3    0    0 -0.89716559241E+02  0.22765462259E+02  0.73625204923E+02  0.11827086739E+03  0.00000000000E+00 0. -1.
         13    1    3    3    0    0  0.11190712642E+02  0.39812656795E+02  0.16974905956E+02  0.44703770789E+02  0.00000000000E+00 0.  1.
         21    1    1    2  502  501  0.15376403044E+02  0.14276374487E+02  0.13170732824E+02  0.24773309068E+02  0.00000000000E+00 0. -1.
<scales pt_clust_5="13000.00000" pt_clust_6="13000.00000" pt_clust_7="13000.00000" pt_clust_8="13000.00000" pt_clust_9="20.98210"></scales>
<clustering>
<clus scale="   20.982">  2  9  1 -1</clus>
<clus scale="   90.450">  5  6 -1 -1</clus>
<clus scale="   90.940">  7  8 -1 -1</clus>
<clus scale="  134.318">  1  5  2 -1</clus>
<clus scale="  134.318">  1  5  2 -1</clus>
</clustering>
</event>
<event>
 9    2  0.3791909E-005  0.1213687E+03  0.7546771E-02  0.1245592E+00
         -1   -1    0    0    0  501 -0.00000000000E+00  0.00000000000E+00  0.24417974836E+03  0.24417974836E+03  0.00000000000E+00 0.  1.
          2   -1    0    0  502    0  0.00000000000E+00 -0.00000000000E+00 -0.41049495888E+03  0.41049495888E+03  0.00000000000E+00 0. -1.
         23    2    1    2    0    0  0.64132594587E+02 -0.44382304404E+02  0.21148331812E+03  0.24349019864E+03  0.92084224252E+02 0.  0.
         24    2    1    2    0    0 -0.74020228730E+02  0.72581745012E+02 -0.33480839852E+03  0.35882875392E+03  0.76904531426E+02 0.  0.
        -11    1    4    4    0    0  0.23297745078E+01  0.48331409510E+02 -0.10994172131E+03  0.12011883732E+03  0.00000000000E+00 0.  1.
         12    1    4    4    0    0 -0.76350003238E+02  0.24250335502E+02 -0.22486667720E+03  0.23870991660E+03  0.00000000000E+00 0. -1.
        -11    1    3    3    0    0 -0.22235038152E+02 -0.21938425864E+02  0.61179118471E+02  0.68691891719E+02  0.00000000000E+00 0. -1.
         11    1    3    3    0    0  0.86367632740E+02 -0.22443878540E+02  0.15030419965E+03  0.17479830692E+03  0.00000000000E+00 0.  1.
         21    1    1    2  502  501  0.98876341424E+01 -0.28199440608E+02 -0.42990130127E+02  0.52355754678E+02  0.00000000000E+00 0. -1.
<scales pt_clust_5="13000.00000" pt_clust_6="13000.00000" pt_clust_7="13000.00000" pt_clust_8="13000.00000" pt_clust_9="29.88267"></scales>
<clustering>
<clus scale="   29.883">  2  9  1 -1</clus>
<clus scale="   76.905">  5  6 -1 -1</clus>
<clus scale="   92.084">  7  8 -1 -1</clus>
<clus scale="  110.296">  2  5  1 -1</clus>
<clus scale="   29.883">  2  5  1 -1</clus>
</clustering>
</event>
<event>
 9    2  0.3791909E-005  0.9976404E+02  0.7546771E-02  0.1286000E+00
         -1   -1    0    0    0  501 -0.00000000000E+00  0.00000000000E+00  0.22453510797E+03  0.22453510797E+03  0.00000000000E+00 0.  1.
          2   -1    0    0  502    0  0.00000000000E+00 -0.00000000000E+00 -0.13028003359E+03  0.13028003359E+03  0.00000000000E+00 0. -1.
         23    2    1    2    0    0  0.25210726425E+02  0.25445883473E+02  0.17116575533E+03  0.19748611077E+03  0.91760418691E+02 0.  0.
         24    2    1    2    0    0 -0.25475117992E+02 -0.54449665892E+02 -0.36604267305E+02  0.10767123907E+03  0.81482977272E+02 0.  0.
        -11    1    4    4    0    0  0.23307189918E+01 -0.55929760076E+02  0.65008477493E+01  0.56354514767E+02  0.00000000000E+00 0.  1.
         12    1    4    4    0    0 -0.27805836984E+02  0.14800941842E+01 -0.43105115054E+02  0.51316724301E+02  0.00000000000E+00 0. -1.
        -11    1    3    3    0    0 -0.12546108363E+02  0.49558933734E+02  0.11334556563E+03  0.12434110341E+03  0.00000000000E+00 0.  1.
         11    1    3    3    0    0  0.37756834788E+02 -0.24113050261E+02  0.57820189694E+02  0.73145007364E+02  0.00000000000E+00 0. -1.
         21    1    1    2  502  501  0.26439156680E+00  0.29003782419E+02 -0.40306413644E+02  0.49657791718E+02  0.00000000000E+00 0.  1.
<scales pt_clust_5="13000.00000" pt_clust_6="13000.00000" pt_clust_7="13000.00000" pt_clust_8="13000.00000" pt_clust_9="29.00499"></scales>
<clustering>
<clus scale="   29.005">  2  9  1 -1</clus>
<clus scale="   81.483">  5  6 -1 -1</clus>
<clus scale="   90.401">  2  5  1 -1</clus>
<clus scale="   91.760">  7  8 -1 -1</clus>
<clus scale="   29.005">  2  5  1 -1</clus>
</clustering>
</event>
<event>
 9    2  0.3791909E-005  0.4569431E+03  0.7546771E-02  0.1025898E+00
         -1   -1    0    0    0  501 -0.00000000000E+00  0.00000000000E+00  0.12491168269E+04  0.12491168269E+04  0.00000000000E+00 0.  1.
          2   -1    0    0  502    0  0.00000000000E+00 -0.00000000000E+00 -0.17920247756E+03  0.17920247756E+03  0.00000000000E+00 0. -1.
         23    2    1    2    0    0 -0.43492428978E+03 -0.56227608404E+02  0.61636990562E+03  0.76258514017E+03  0.96454930747E+02 0.  0.
         24    2    1    2    0    0  0.45282030850E+03  0.66556473394E+02  0.44482984726E+03  0.64330879632E+03  0.80601603370E+02 0.  0.
        -13    1    4    4    0    0  0.20074825414E+03  0.35647729074E+02  0.25362669319E+03  0.32541837936E+03  0.00000000000E+00 0.  1.
         14    1    4    4    0    0  0.25207205437E+03  0.30908744319E+02  0.19120315407E+03  0.31789041696E+03  0.00000000000E+00 0. -1.
        -13    1    3    3    0    0 -0.11921396438E+03 -0.50802268545E+02  0.22579853634E+03  0.26034173466E+03  0.00000000000E+00 0. -1.
         13    1    3    3    0    0 -0.31571032540E+03 -0.54253398589E+01  0.39057136928E+03  0.50224340551E+03  0.00000000000E+00 0.  1.
         21    1    1    2  502  501 -0.17896018725E+02 -0.10328864990E+02  0.87145965097E+01  0.22425368013E+02  0.00000000000E+00 0. -1.
<scales pt_clust_5="13000.00000" pt_clust_6="13000.00000" pt_clust_7="13000.00000" pt_clust_8="13000.00000" pt_clust_9="20.66284"></scales>
<clustering>
<clus scale="   20.663">  2  9  1 -1</clus>
<clus scale="   80.602">  5  6 -1 -1</clus>
<clus scale="   96.455">  7  8 -1 -1</clus>
<clus scale="  453.861">  2  5  1 -1</clus>
<clus scale="   20.663">  2  5  1 -1</clus>
</clustering>
</event>
<event>
 9    2  0.3791909E-005  0.1230851E+03  0.7546771E-02  0.1242939E+00
          2   -1    0    0  502    0  0.00000000000E+00  0.00000000000E+00  0.37644531926E+03  0.37644531926E+03  0.00000000000E+00 0. -1.
         -1   -1    0    0    0  501 -0.00000000000E+00 -0.00000000000E+00 -0.87065324069E+02  0.87065324069E+02  0.00000000000E+00 0.  1.
         23    2    1    2    0    0 -0.15375266014E+02  0.50608891695E+02 -0.26288275091E+02  0.11173781468E+03  0.94850445960E+02 0.  0.
         24    2    1    2    0    0  0.18726479131E+02 -0.80304969684E+02  0.29211147637E+03  0.31372009922E+03  0.79319712886E+02 0.  0.
        -11    1    4    4    0    0 -0.30091276571E+02 -0.22586710463E+02  0.76746570013E+02  0.85473273156E+02  0.00000000000E+00 0.  1.
         12    1    4    4    0    0  0.48817755702E+02 -0.57718259221E+02  0.21536490636E+03  0.22824682607E+03  0.00000000000E+00 0. -1.
        -13    1    3    3    0    0 -0.35566883475E+02  0.68481331368E+02 -0.33036329020E+02  0.83941020849E+02  0.00000000000E+00 0.  1.
         13    1    3    3    0    0  0.20191617461E+02 -0.17872439673E+02  0.67480539289E+01  0.27796793832E+02  0.00000000000E+00 0. -1.
         21    1    1    2  502  501 -0.33512131172E+01  0.29696077989E+02  0.23556793914E+02  0.38052729426E+02  0.00000000000E+00 0. -1.
<scales pt_clust_5="13000.00000" pt_clust_6="13000.00000" pt_clust_7="13000.00000" pt_clust_8="13000.00000" pt_clust_9="29.88457"></scales>
<clustering>
<clus scale="   29.885">  2  9  1 -1</clus>
<clus scale="   79.320">  5  6 -1 -1</clus>
<clus scale="   94.850">  7  8 -1 -1</clus>
<clus scale="  111.557">  1  5  2 -1</clus>
<clus scale="  111.557">  1  5  2 -1</clus>
</clustering>
</event>
<event>
 9    2  0.3791909E-005  0.2242259E+03  0.7546771E-02  0.1131453E+00
          2   -1    0    0  502    0  0.00000000000E+00  0.00000000000E+00  0.14200007131E+04  0.14200007131E+04  0.00000000000E+00 0. -1.
         -1   -1    0    0    0  501 -0.00000000000E+00 -0.00000000000E+00 -0.85119741682E+02  0.85119741682E+02  0.00000000000E+00 0.  1.
         23    2    1    2    0    0 -0.15968357117E+03 -0.12142955815E+03  0.10677558617E+03  0.24567873293E+03  0.93343631382E+02 0.  0.
         24    2    1    2    0    0  0.18907954479E+03  0.12408362470E+03  0.11657368573E+04  0.11904417174E+04  0.84031195994E+02 0.  0.
        -11    1    4    4    0    0  0.16464164030E+03  0.92070056185E+02  0.77466608849E+03  0.79730252328E+03  0.00000000000E+00 0.  1.
         12    1    4    4    0    0  0.24437904494E+02  0.32013568518E+02  0.39107076882E+03  0.39313919414E+03  0.00000000000E+00 0. -1.
        -13    1    3    3    0    0 -0.16765904385E+03 -0.99832463924E+02  0.81436506121E+02  0.21144261720E+03  0.00000000000E+00 0.  1.
         13    1    3    3    0    0  0.79754726743E+01 -0.21597094222E+02  0.25339080044E+02  0.34236115736E+02  0.00000000000E+00 0. -1.
         21    1    1    2  502  501 -0.29395973616E+02 -0.26540665566E+01  0.62368527973E+02  0.69000004461E+02  0.00000000000E+00 0.  1.
<scales pt_clust_5="13000.00000" pt_clust_6="13000.00000" pt_clust_7="13000.00000" pt_clust_8="13000.00000" pt_clust_9="29.51554"></scales>
<clustering>
<clus scale="   29.516">  1  9  2 -1</clus>
<clus scale="   84.031">  5  6 -1 -1</clus>
<clus scale="   93.344">  7  8 -1 -1</clus>
<clus scale="  220.512">  1  5  2 -1</clus>
<clus scale="   29.516">  1  5  2 -1</clus>
</clustering>
</event>
<event>
 9    2  0.3791909E-005  0.1029288E+03  0.7546771E-02  0.1278288E+00
          2   -1    0    0  502    0  0.00000000000E+00  0.00000000000E+00  0.31151270182E+03  0.31151270182E+03  0.00000000000E+00 0. -1.
         -1   -1    0    0    0  501 -0.00000000000E+00 -0.00000000000E+00 -0.45668758875E+02  0.45668758875E+02  0.00000000000E+00 0.  1.
         24    2    1    2    0    0 -0.30552891581E+01  0.58236559583E+02  0.70127214309E+02  0.12238269434E+03  0.81601875116E+02 0.  0.
         23    2    1    2    0    0  0.20278270960E+02 -0.31423329334E+02  0.14804737500E+03  0.17745813770E+03  0.90414221740E+02 0.  0.
        -11    1    3    3    0    0 -0.14873025997E+02  0.20458243511E+02  0.78022099675E+02  0.82019477367E+02  0.00000000000E+00 0.  1.
         12    1    3    3    0    0  0.11817736839E+02  0.37778316072E+02 -0.78948853658E+01  0.40363216970E+02  0.00000000000E+00 0. -1.
        -11    1    4    4    0    0 -0.11511721609E+02 -0.30631109264E+02  0.77850089087E+01  0.33636155441E+02  0.00000000000E+00 0.  1.
         11    1    4    4    0    0  0.31789992569E+02 -0.79222007008E+00  0.14026236609E+03  0.14382198226E+03  0.00000000000E+00 0. -1.
         21    1    1    2  502  501 -0.17222981802E+02 -0.26813230249E+02  0.47669353639E+02  0.57340628658E+02  0.00000000000E+00 0.  1.
<scales pt_clust_5="13000.00000" pt_clust_6="13000.00000" pt_clust_7="13000.00000" pt_clust_8="13000.00000" pt_clust_9="31.86817"></scales>
<clustering>
<clus scale="   31.868">  1  9  2 -1</clus>
<clus scale="   81.602">  5  6 -1 -1</clus>
<clus scale="   90.414">  7  8 -1 -1</clus>
<clus scale="   95.281">  2  5  1 -1</clus>
<clus scale="   31.868">  1  5  2 -1</clus>
</clustering>
</event>
<event>
 9    2  0.3791909E-005  0.1051989E+03  0.7546771E-02  0.1275777E+00
         -1   -1    0    0    0  501 -0.00000000000E+00  0.00000000000E+00  0.15683534610E+02  0.15683534610E+02  0.00000000000E+00 0.  1.
          2   -1    0    0  502    0  0.00000000000E+00 -0.00000000000E+00 -0.14151543071E+04  0.14151543071E+04  0.00000000000E+00 0. -1.
         23    2    1    2    0    0 -0.22118429984E+02 -0.23663237682E+02 -0.31155909603E+03  0.32639943495E+03  0.91751550681E+02 0.  0.
         24    2    1    2    0    0  0.71289560385E+02  0.66065176596E+02 -0.75788768964E+03  0.76808805911E+03  0.78222167350E+02 0.  0.
        -13    1    4    4    0    0  0.10827383505E+02 -0.17942837692E+02 -0.10881706400E+03  0.11081665523E+03  0.00000000000E+00 0.  1.
         14    1    4    4    0    0  0.60462176880E+02  0.84008014288E+02 -0.64907062563E+03  0.65727140388E+03  0.00000000000E+00 0. -1.
        -13    1    3    3    0    0  0.14102293148E+02 -0.48669605832E+02 -0.12865556693E+03  0.13827458229E+03  0.00000000000E+00 0.  1.
         13    1    3    3    0    0 -0.36220723132E+02  0.25006368150E+02 -0.18290352910E+03  0.18812485266E+03  0.00000000000E+00 0. -1.
         21    1    1    2  502  501 -0.49171130402E+02 -0.42401938914E+02 -0.33002398687E+03  0.33635034770E+03  0.00000000000E+00 0. -1.
<scales pt_clust_5="13000.00000" pt_clust_6="13000.00000" pt_clust_7="13000.00000" pt_clust_8="13000.00000" pt_clust_9="64.92861"></scales>
<clustering>
<clus scale="   64.929">  2  9  1 -1</clus>
<clus scale="   78.222">  5  6 -1 -1</clus>
<clus scale="   91.752">  7  8 -1 -1</clus>
<clus scale="   93.633">  2  5  1 -1</clus>
<clus scale="   64.929">  2  5  1 -1</clus>
</clustering>
</event>
<event>
 9    2  0.3791909E-005  0.2180551E+03  0.7546771E-02  0.1136163E+00
         -1   -1    0    0    0  501 -0.00000000000E+00  0.00000000000E+00  0.50661858963E+02  0.50661858963E+02  0.00000000000E+00 0.  1.
          2   -1    0    0  502    0  0.00000000000E+00 -0.00000000000E+00 -0.23532678861E+04  0.23532678861E+04  0.00000000000E+00 0. -1.
         23    2    1    2    0    0  0.11580059544E+03  0.13175051739E+03 -0.21319104912E+03  0.29107497235E+03  0.92229276092E+02 0.  0.
         24    2    1    2    0    0 -0.17649871555E+03 -0.99486519198E+02 -0.18753572836E+04  0.18880305660E+04  0.81517563021E+02 0.  0.
        -13    1    4    4    0    0 -0.43322415055E+02 -0.56191911355E+02 -0.41995939389E+03  0.42591108821E+03  0.00000000000E+00 0.  1.
         14    1    4    4    0    0 -0.13317630049E+03 -0.43294607843E+02 -0.14553978897E+04  0.14621194778E+04  0.00000000000E+00 0. -1.
        -13    1    3    3    0    0 -0.56313720449E+01  0.31206567044E+02 -0.75001526148E+02  0.81429669668E+02  0.00000000000E+00 0. -1.
         13    1    3    3    0    0  0.12143196748E+03  0.10054395034E+03 -0.13818952297E+03  0.20964530268E+03  0.00000000000E+00 0.  1.
         21    1    1    2  502  501  0.60698120107E+02 -0.32263998190E+02 -0.21405769442E+03  0.22482420667E+03  0.00000000000E+00 0. -1.
<scales pt_clust_5="13000.00000" pt_clust_6="13000.00000" pt_clust_7="13000.00000" pt_clust_8="13000.00000" pt_clust_9="68.74029"></scales>
<clustering>
<clus scale="   68.740">  1  9  2 -1</clus>
<clus scale="   81.518">  5  6 -1 -1</clus>
<clus scale="   92.229">  7  8 -1 -1</clus>
<clus scale="  213.745">  2  5  1 -1</clus>
<clus scale="  213.745">  2  5  1 -1</clus>
</clustering>
</event>
<event>
 9    2  0.3791909E-005  0.1023201E+03  0.7546771E-02  0.1281256E+00
         -1   -1    0    0    0  501 -0.00000000000E+00  0.00000000000E+00  0.80098029619E+02  0.80098029619E+02  0.00000000000E+00 0.  1.
          2   -1    0    0  502    0  0.00000000000E+00 -0.00000000000E+00 -0.48188273915E+03  0.48188273915E+03  0.00000000000E+00 0. -1.
         24    2    1    2    0    0 -0.34687413014E+02 -0.33018728694E+02  0.39606737602E+02  0.10023372967E+03  0.78642570110E+02 0.  0.
         23    2    1    2    0    0  0.46197561564E+02  0.75943333089E+01 -0.28235198262E+03  0.30027742997E+03  0.90840543083E+02 0.  0.
        -11    1    3    3    0    0 -0.43697408693E+02 -0.53868329938E+02  0.29733130349E+02  0.75467340865E+02  0.00000000000E+00 0.  1.
         12    1    3    3    0    0  0.90099956788E+01  0.20849601244E+02  0.98736072528E+01  0.24766388803E+02  0.00000000000E+00 0. -1.
        -13    1    4    4    0    0  0.24316840969E+02  0.37465390925E+02 -0.23956532497E+03  0.24369347386E+03  0.00000000000E+00 0. -1.
         13    1    4    4    0    0  0.21880720594E+02 -0.29871057616E+02 -0.42786657652E+02  0.56583956117E+02  0.00000000000E+00 0.  1.
         21    1    1    2  502  501 -0.11510148549E+02  0.25424395385E+02 -0.15903946451E+03  0.16146960913E+03  0.00000000000E+00 0. -1.
<scales pt_clust_5="13000.00000" pt_clust_6="13000.00000" pt_clust_7="13000.00000" pt_clust_8="13000.00000" pt_clust_9="27.90848"></scales>
<clustering>
<clus scale="   27.908">  2  9  1 -1</clus>
<clus scale="   78.643">  5  6 -1 -1</clus>
<clus scale="   90.841">  7  8 -1 -1</clus>
<clus scale="   91.663">  1  5  2 -1</clus>
<clus scale="   27.908">  2  5  1 -1</clus>
</clustering>
</event>
<event>
 9    2  0.3791909E-005  0.1479033E+03  0.7546771E-02  0.1205536E+00
         -3   -1    0    0    0  501 -0.00000000000E+00  0.00000000000E+00  0.11552758702E+03  0.11552758702E+03  0.00000000000E+00 0.  1.
          4   -1    0    0  502    0  0.00000000000E+00 -0.00000000000E+00 -0.23939579526E+03  0.23939579526E+03  0.00000000000E+00 0. -1.
         23    2    1    2    0    0 -0.83640970088E+02 -0.94426896648E+02  0.12237854256E+01  0.15488178598E+03  0.89858885430E+02 0.  0.
         24    2    1    2    0    0  0.76867549715E+02  0.69533404098E+02 -0.93412380232E+02  0.15918620372E+03  0.76621538681E+02 0.  0.
        -13    1    4    4    0    0  0.18842189000E+02  0.45086667659E+02 -0.29320399831E+01  0.48953371134E+02  0.00000000000E+00 0.  1.
         14    1    4    4    0    0  0.58025360715E+02  0.24446736440E+02 -0.90480340249E+02  0.11023283259E+03  0.00000000000E+00 0. -1.
        -13    1    3    3    0    0 -0.41016229079E+02 -0.96156236469E+02 -0.21231309734E+02  0.10667296458E+03  0.00000000000E+00 0. -1.
         13    1    3    3    0    0 -0.42624741009E+02  0.17293398204E+01  0.22455095160E+02  0.48208821401E+02  0.00000000000E+00 0.  1.
         21    1    1    2  502  501  0.67734203730E+01  0.24893492550E+02 -0.31679613434E+02  0.40855392572E+02  0.00000000000E+00 0.  1.
<scales pt_clust_5="13000.00000" pt_clust_6="13000.00000" pt_clust_7="13000.00000" pt_clust_8="13000.00000" pt_clust_9="25.79855"></scales>
<clustering>
<clus scale="   25.799">  2  9  1 -1</clus>
<clus scale="   76.622">  5  6 -1 -1</clus>
<clus scale="   89.859">  7  8 -1 -1</clus>
<clus scale="  140.256">  2  5  1 -1</clus>
<clus scale="   25.799">  2  5  1 -1</clus>
</clustering>
</event>
<event>
 9    2  0.3791909E-005  0.1015278E+03  0.7546771E-02  0.1282557E+00
          2   -1    0    0  502    0  0.00000000000E+00  0.00000000000E+00  0.75510938828E+02  0.75510938828E+02  0.00000000000E+00 0. -1.
         -1   -1    0    0    0  501 -0.00000000000E+00 -0.00000000000E+00 -0.23369346366E+03  0.23369346366E+03  0.00000000000E+00 0.  1.
         24    2    1    2    0    0 -0.14677095175E+02 -0.35430891814E+02 -0.13965494729E+03  0.16568103094E+03  0.80473191134E+02 0.  0.
         23    2    1    2    0    0  0.10415817296E+02  0.60638275124E+02 -0.31556833095E+02  0.11482960632E+03  0.91676142550E+02 0.  0.
        -13    1    3    3    0    0 -0.57540777863E+01  0.22221990571E+02 -0.75750286644E+02  0.79151956405E+02  0.00000000000E+00 0.  1.
         14    1    3    3    0    0 -0.89230173884E+01 -0.57652882385E+02 -0.63904660649E+02  0.86529074532E+02  0.00000000000E+00 0. -1.
        -11    1    4    4    0    0 -0.27747129168E+02  0.39489555720E+02 -0.48126733458E+02  0.68157983108E+02  0.00000000000E+00 0.  1.
         11    1    4    4    0    0  0.38162946464E+02  0.21148719404E+02  0.16569900364E+02  0.46671623212E+02  0.00000000000E+00 0. -1.
         21    1    1    2  502  501  0.42612778784E+01 -0.25207383310E+02  0.13029255558E+02  0.28693765227E+02  0.00000000000E+00 0. -1.
<scales pt_clust_5="13000.00000" pt_clust_6="13000.00000" pt_clust_7="13000.00000" pt_clust_8="13000.00000" pt_clust_9="25.56503"></scales>
<clustering>
<clus scale="   25.565">  1  9  2 -1</clus>
<clus scale="   80.473">  5  6 -1 -1</clus>
<clus scale="   91.539">  2  5  1 -1</clus>
<clus scale="   91.676">  7  8 -1 -1</clus>
<clus scale="   25.565">  1  5  2 -1</clus>
</clustering>
</event>
<event>
 9    2  0.3791909E-005  0.1189527E+03  0.7546771E-02  0.1250438E+00
          2   -1    0    0  502    0  0.00000000000E+00  0.00000000000E+00  0.11057523282E+03  0.11057523282E+03  0.00000000000E+00 0. -1.
         -1   -1    0    0    0  501 -0.00000000000E+00 -0.00000000000E+00 -0.17725439435E+03  0.17725439435E+03  0.00000000000E+00 0.  1.
         23    2    1    2    0    0  0.64511147550E+02  0.16716784710E+02 -0.81560024212E+02  0.14319048982E+03  0.97006905816E+02 0.  0.
         24    2    1    2    0    0 -0.60870211471E+02 -0.48140251712E+02  0.13260055829E+02  0.11296394660E+03  0.81008380260E+02 0.  0.
        -11    1    4    4    0    0  0.14053814963E+02 -0.28096419584E+02 -0.82445447363E+01  0.32479085985E+02  0.00000000000E+00 0.  1.
         12    1    4    4    0    0 -0.74924026435E+02 -0.20043832128E+02  0.21504600565E+02  0.80484860620E+02  0.00000000000E+00 0. -1.
        -11    1    3    3    0    0  0.79334220678E+02 -0.79425999370E+01 -0.82058966259E+02  0.11441449824E+03  0.00000000000E+00 0.  1.
         11    1    3    3    0    0 -0.14823073128E+02  0.24659384647E+02  0.49894204668E+00  0.28775991578E+02  0.00000000000E+00 0. -1.
         21    1    1    2  502  501 -0.36409360781E+01  0.31423467002E+02  0.16208068447E+01  0.31675190746E+02  0.00000000000E+00 0. -1.
<scales pt_clust_5="13000.00000" pt_clust_6="13000.00000" pt_clust_7="13000.00000" pt_clust_8="13000.00000" pt_clust_9="31.63370"></scales>
<clustering>
<clus scale="   31.634">  1  9  2 -1</clus>
<clus scale="   81.008">  5  6 -1 -1</clus>
<clus scale="   97.007">  7  8 -1 -1</clus>
<clus scale="  106.310">  1  5  2 -1</clus>
<clus scale="   31.634">  1  5  2 -1</clus>
</clustering>
</event>
<event>
 9    2  0.3791909E-005  0.1008900E+03  0.7546771E-02  0.1284634E+00
         -1   -1    0    0    0  501 -0.00000000000E+00  0.00000000000E+00  0.30160441031E+03  0.30160441031E+03  0.00000000000E+00 0.  1.
          2   -1    0    0  502    0  0.00000000000E+00 -0.00000000000E+00 -0.15953669541E+03  0.15953669541E+03  0.00000000000E+00 0. -1.
         23    2    1    2    0    0 -0.19509816955E+02 -0.36137297458E+02  0.21071725160E+03  0.23392801419E+03  0.92919419247E+02 0.  0.
         24    2    1    2    0    0 -0.67491535939E+02  0.53469986179E+02 -0.50586894420E+01  0.11806432444E+03  0.80619151075E+02 0.  0.
        -13    1    4    4    0    0 -0.26796569833E+02  0.57750391048E+01  0.34398579764E+02  0.43984878325E+02  0.00000000000E+00 0.  1.
         14    1    4    4    0    0 -0.40694966106E+02  0.47694947074E+02 -0.39457269206E+02  0.74079446110E+02  0.00000000000E+00 0. -1.
        -11    1    3    3    0    0  0.18010727448E+02 -0.49261633065E+02  0.68586618924E+02  0.86343610597E+02  0.00000000000E+00 0. -1.
         11    1    3    3    0    0 -0.37520544402E+02  0.13124335608E+02  0.14213063268E+03  0.14758440359E+03  0.00000000000E+00 0.  1.
         21    1    1    2  502  501  0.87001352894E+02 -0.17332688721E+02 -0.63590847254E+02  0.10914876709E+03  0.00000000000E+00 0. -1.
<scales pt_clust_5="13000.00000" pt_clust_6="13000.00000" pt_clust_7="13000.00000" pt_clust_8="13000.00000" pt_clust_9="88.71109"></scales>
<clustering>
<clus scale="   80.619">  5  6 -1 -1</clus>
<clus scale="   88.711">  2  9  1 -1</clus>
<clus scale="   89.690">  2  5  1 -1</clus>
<clus scale="   92.919">  7  8 -1 -1</clus>
<clus scale="   88.711">  2  5  1 -1</clus>
</clustering>
</event>
<event>
 9    2  0.3791909E-005  0.3594954E+03  0.7546771E-02  0.1062949E+00
         -1   -1    0    0    0  501 -0.00000000000E+00  0.00000000000E+00  0.94402980375E+03  0.94402980375E+03  0.00000000000E+00 0.  1.
          2   -1    0    0  502    0  0.00000000000E+00 -0.00000000000E+00 -0.10231996198E+04  0.10231996198E+04  0.00000000000E+00 0. -1.
         24    2    1    2    0    0 -0.91753589168E+02 -0.31380428590E+03  0.63629000810E+03  0.71972722498E+03  0.79059806450E+02 0.  0.
         23    2    1    2    0    0 -0.22836151647E+03 -0.20272342894E+03 -0.51739669356E+03  0.60835936261E+03  0.95687014368E+02 0.  0.
        -11    1    3    3    0    0 -0.50971617964E+02 -0.26308213977E+03  0.46800193863E+03  0.53929225163E+03  0.00000000000E+00 0.  1.
         12    1    3    3    0    0 -0.40781971204E+02 -0.50722146133E+02  0.16828806947E+03  0.18043497335E+03  0.00000000000E+00 0. -1.
        -13    1    4    4    0    0  0.72518675531E+01 -0.21694749162E+02 -0.36877026818E+02  0.43395470169E+02  0.00000000000E+00 0. -1.
         13    1    4    4    0    0 -0.23561338402E+03 -0.18102867978E+03 -0.48051966675E+03  0.56496389244E+03  0.00000000000E+00 0.  1.
         21    1    1    2  502  501  0.32011510564E+03  0.51652771484E+03 -0.19806313057E+03  0.63914283595E+03  0.00000000000E+00 0. -1.
<scales pt_clust_5="13000.00000" pt_clust_6="13000.00000" pt_clust_7="13000.00000" pt_clust_8="13000.00000" pt_clust_9="350.69431"></scales>
<clustering>
<clus scale="   79.060">  5  6 -1 -1</clus>
<clus scale="   95.687">  7  8 -1 -1</clus>
<clus scale="  320.003">  2  7  1 -1</clus>
<clus scale="  350.694">  2  9  1 -1</clus>
<clus scale="  320.003">  2  5  1 -1</clus>
</clustering>
</event>
<event>
 9    2  0.3791909E-005  0.9511398E+02  0.7546771E-02  0.1300394E+00
         -3   -1    0    0    0  501 -0.00000000000E+00  0.00000000000E+00  0.91239541063E+02  0.91239541063E+02  0.00000000000E+00 0.  1.
          4   -1    0    0  502    0  0.00000000000E+00 -0.00000000000E+00 -0.36332777351E+03  0.36332777351E+03  0.00000000000E+00 0. -1.
         23    2    1    2    0    0  0.12795844300E+02  0.70202276609E+01  0.45313006614E+02  0.10602750521E+03  0.94739358588E+02 0.  0.
         24    2    1    2    0    0  0.37822632557E+02 -0.58730460267E+01 -0.15325772752E+03  0.17676484434E+03  0.79327390907E+02 0.  0.
        -11    1    4    4    0    0  0.33898157943E+02  0.26939197978E+02 -0.40585052428E+02  0.59346035926E+02  0.00000000000E+00 0.  1.
         12    1    4    4    0    0  0.39244746135E+01 -0.32812244005E+02 -0.11267267509E+03  0.11741880842E+03  0.00000000000E+00 0. -1.
        -13    1    3    3    0    0  0.18597004078E+02  0.43381909319E+02  0.50174678872E+02  0.68886406618E+02  0.00000000000E+00 0.  1.
         13    1    3    3    0    0 -0.58011597780E+01 -0.36361681658E+02 -0.48616722579E+01  0.37141098596E+02  0.00000000000E+00 0. -1.
         21    1    1    2  502  501 -0.50618476856E+02 -0.11471816342E+01 -0.16414351154E+03  0.17177496501E+03  0.00000000000E+00 0. -1.
<scales pt_clust_5="13000.00000" pt_clust_6="13000.00000" pt_clust_7="13000.00000" pt_clust_8="13000.00000" pt_clust_9="50.63147"></scales>
<clustering>
<clus scale="   50.631">  2  9  1 -1</clus>
<clus scale="   79.327">  5  6 -1 -1</clus>
<clus scale="   79.774">  2  5  1 -1</clus>
<clus scale="   94.739">  7  8 -1 -1</clus>
<clus scale="   50.631">  2  5  1 -1</clus>
</clustering>
</event>
<event>
 9    2  0.3791909E-005  0.1837463E+03  0.7546771E-02  0.1189453E+00
          2   -1    0    0  502    0  0.00000000000E+00  0.00000000000E+00  0.34770452533E+03  0.34770452533E+03  0.00000000000E+00 0. -1.
         -1   -1    0    0    0  501 -0.00000000000E+00 -0.00000000000E+00 -0.39798061736E+03  0.39798061736E+03  0.00000000000E+00 0.  1.
         23    2    1    2    0    0 -0.27357749156E+02 -0.28918961896E+02 -0.29695028710E+03  0.31459783560E+03  0.95956095992E+02 0.  0.
         24    2    1    2    0    0 -0.74716283912E+02 -0.12624077448E+03  0.12155732555E+03  0.20715007692E+03  0.81337044130E+02 0.  0.
        -13    1    4    4    0    0 -0.55941242282E+02 -0.13560488665E+03  0.10442370390E+03  0.18006226092E+03  0.00000000000E+00 0.  1.
         14    1    4    4    0    0 -0.18775041630E+02  0.93641121624E+01  0.17133621650E+02  0.27087816000E+02  0.00000000000E+00 0. -1.
        -13    1    3    3    0    0 -0.42361801370E+02 -0.50560850713E+02 -0.26553440712E+03  0.27360453798E+03  0.00000000000E+00 0.  1.
         13    1    3    3    0    0  0.15004052214E+02  0.21641888818E+02 -0.31415879979E+02  0.40993297614E+02  0.00000000000E+00 0. -1.
         21    1    1    2  502  501  0.10207403307E+03  0.15515973638E+03  0.12511686952E+03  0.22393723017E+03  0.00000000000E+00 0. -1.
<scales pt_clust_5="13000.00000" pt_clust_6="13000.00000" pt_clust_7="13000.00000" pt_clust_8="13000.00000" pt_clust_9="164.76344"></scales>
<clustering>
<clus scale="   81.337">  5  6 -1 -1</clus>
<clus scale="   95.956">  7  8 -1 -1</clus>
<clus scale="  103.886">  2  7  1 -1</clus>
<clus scale="  164.763">  2  9  1 -1</clus>
<clus scale="  183.746">  1  5  2 -1</clus>
</clustering>
</event>
<event>
 9    2  0.3791909E-005  0.2074896E+03  0.7546771E-02  0.1144700E+00
          2   -1    0    0  502    0  0.00000000000E+00  0.00000000000E+00  0.19536816131E+04  0.19536816131E+04  0.00000000000E+00 0. -1.
         -1   -1    0    0    0  501 -0.00000000000E+00 -0.00000000000E+00 -0.34852307540E+02  0.34852307540E+02  0.00000000000E+00 0.  1.
         23    2    1    2    0    0  0.58212243014E+02  0.16954766703E+03  0.39878636606E+03  0.44670002380E+03  0.91516495131E+02 0.  0.
         24    2    1    2    0    0 -0.46498682984E+02 -0.20269861015E+03  0.12617886355E+04  0.12811972185E+04  0.78146645056E+02 0.  0.
        -11    1    4    4    0    0 -0.26172438283E+02 -0.19789074630E+03  0.10882164980E+04  0.11063728533E+04  0.00000000000E+00 0.  1.
         12    1    4    4    0    0 -0.20326244701E+02 -0.48078638489E+01  0.17357213741E+03  0.17482436519E+03  0.00000000000E+00 0. -1.
        -13    1    3    3    0    0  0.64381274470E+02  0.10015472457E+03  0.17004036010E+03  0.20758044566E+03  0.00000000000E+00 0.  1.
         13    1    3    3    0    0 -0.61690314562E+01  0.69392942467E+02  0.22874600596E+03  0.23911957815E+03  0.00000000000E+00 0. -1.
         21    1    1    2  502  501 -0.11713560030E+02  0.33150943117E+02  0.25825430408E+03  0.26063667834E+03  0.00000000000E+00 0.  1.
<scales pt_clust_5="13000.00000" pt_clust_6="13000.00000" pt_clust_7="13000.00000" pt_clust_8="13000.00000" pt_clust_9="35.15953"></scales>
<clustering>
<clus scale="   35.160">  1  9  2 -1</clus>
<clus scale="   78.147">  5  6 -1 -1</clus>
<clus scale="   91.516">  7  8 -1 -1</clus>
<clus scale="  201.949">  1  5  2 -1</clus>
<clus scale="   35.160">  1  5  2 -1</clus>
</clustering>
</event>
<event>
 9    2  0.3791909E-005  0.1582012E+03  0.7546771E-02  0.1192212E+00
         -1   -1    0    0    0  501 -0.00000000000E+00  0.00000000000E+00  0.40384349825E+02  0.40384349825E+02  0.00000000000E+00 0.  1.
          2   -1    0    0  502    0  0.00000000000E+00 -0.00000000000E+00 -0.97095695793E+03  0.97095695793E+03  0.00000000000E+00 0. -1.
         24    2    1    2    0    0 -0.25779294827E+02  0.91532781049E+02 -0.15880211110E+03  0.20179722706E+03  0.80381517221E+02 0.  0.
         23    2    1    2    0    0  0.24484518563E+02 -0.14613801413E+03 -0.68861354145E+03  0.71005293947E+03  0.89614488526E+02 0.  0.
        -11    1    3    3    0    0  0.40615656964E+01  0.83246853428E+02 -0.73780835149E+02  0.11131103520E+03  0.00000000000E+00 0.  1.
         12    1    3    3    0    0 -0.29840860524E+02  0.82859276209E+01 -0.85021275948E+02  0.90486191859E+02  0.00000000000E+00 0. -1.
        -11    1    4    4    0    0  0.13317315979E+02 -0.25416529015E+02 -0.34848832725E+02  0.45141909512E+02  0.00000000000E+00 0.  1.
         11    1    4    4    0    0  0.11167202585E+02 -0.12072148512E+03 -0.65376470873E+03  0.66491102996E+03  0.00000000000E+00 0. -1.
         21    1    1    2  502  501  0.12947762642E+01  0.54605233082E+02 -0.83156955554E+02  0.99491141226E+02  0.00000000000E+00 0.  1.
<scales pt_clust_5="13000.00000" pt_clust_6="13000.00000" pt_clust_7="13000.00000" pt_clust_8="13000.00000" pt_clust_9="54.62058"></scales>
<clustering>
<clus scale="   54.621">  1  9  2 -1</clus>
<clus scale="   80.382">  5  6 -1 -1</clus>
<clus scale="   89.614">  7  8 -1 -1</clus>
<clus scale="  153.160">  1  5  2 -1</clus>
<clus scale="  158.201">  2  5  1 -1</clus>
</clustering>
</event>
<event>
 9    2  0.3791909E-005  0.9088243E+02  0.7546771E-02  0.1306566E+00
          2   -1    0    0  502    0  0.00000000000E+00  0.00000000000E+00  0.14345165055E+03  0.14345165055E+03  0.00000000000E+00 0. -1.
         -1   -1    0    0    0  501 -0.00000000000E+00 -0.00000000000E+00 -0.11097024493E+03  0.11097024493E+03  0.00000000000E+00 0.  1.
         23    2    1    2    0    0 -0.22025073012E+02 -0.62099198743E+01 -0.58504866204E+02  0.11034826890E+03  0.90720748086E+02 0.  0.
         24    2    1    2    0    0  0.36189688124E+00  0.34995110981E+01  0.91057588859E+02  0.12224143471E+03  0.81480711362E+02 0.  0.
        -13    1    4    4    0    0 -0.19930727098E+02  0.26145035935E+02  0.85135734101E+02  0.91262752575E+02  0.00000000000E+00 0.  1.
         14    1    4    4    0    0  0.20292623980E+02 -0.22645524836E+02  0.59218547583E+01  0.30978682136E+02  0.00000000000E+00 0. -1.
        -11    1    3    3    0    0 -0.48838945274E+02  0.22811581428E+02 -0.30697777194E+02  0.62031962305E+02  0.00000000000E+00 0. -1.
         11    1    3    3    0    0  0.26813872263E+02 -0.29021501302E+02 -0.27807089010E+02  0.48316306593E+02  0.00000000000E+00 0.  1.
         21    1    1    2  502  501  0.21663176131E+02  0.27104087762E+01 -0.71317028323E-01  0.21832191872E+02  0.00000000000E+00 0.  1.
<scales pt_clust_5="13000.00000" pt_clust_6="13000.00000" pt_clust_7="13000.00000" pt_clust_8="13000.00000" pt_clust_9="21.83208"></scales>
<clustering>
<clus scale="   21.832">  2  9  1 -1</clus>
<clus scale="   81.481">  5  6 -1 -1</clus>
<clus scale="   81.661">  1  5  2 -1</clus>
<clus scale="   90.721">  7  8 -1 -1</clus>
<clus scale="   81.661">  1  5  2 -1</clus>
</clustering>
</event>
<event>
 9    2  0.3791909E-005  0.1124056E+03  0.7546771E-02  0.1258769E+00
         -1   -1    0    0    0  501 -0.00000000000E+00  0.00000000000E+00  0.16042708964E+03  0.16042708964E+03  0.00000000000E+00 0.  1.
          2   -1    0    0  502    0  0.00000000000E+00 -0.00000000000E+00 -0.55384005319E+03  0.55384005319E+03  0.00000000000E+00 0. -1.
         24    2    1    2    0    0 -0.42609957361E+02 -0.61348220550E+02  0.10149640874E+03  0.14989538129E+03  0.81165828487E+02 0.  0.
         23    2    1    2    0    0 -0.41287681019E+02 -0.38738015223E+02 -0.92468964740E+02  0.14127088711E+03  0.90562948698E+02 0.  0.
        -11    1    3    3    0    0 -0.34528251505E+02 -0.81099017957E+02  0.88516562570E+02  0.12491770377E+03  0.00000000000E+00 0.  1.
         12    1    3    3    0    0 -0.80817058559E+01  0.19750797407E+02  0.12979846169E+02  0.24977677521E+02  0.00000000000E+00 0. -1.
        -11    1    4    4    0    0 -0.35793238994E+02  0.41623891932E+01 -0.91134047127E+02  0.97999469321E+02  0.00000000000E+00 0.  1.
         11    1    4    4    0    0 -0.54944420251E+01 -0.42900404416E+02 -0.13349176123E+01  0.43271417786E+02  0.00000000000E+00 0. -1.
         21    1    1    2  502  501  0.83897638380E+02  0.10008623577E+03 -0.40244040755E+03  0.42310087443E+03  0.00000000000E+00 0. -1.
<scales pt_clust_5="13000.00000" pt_clust_6="13000.00000" pt_clust_7="13000.00000" pt_clust_8="13000.00000" pt_clust_9="77.76325"></scales>
<clustering>
<clus scale="   81.166">  5  6 -1 -1</clus>
<clus scale="   90.563">  7  8 -1 -1</clus>
<clus scale="  106.803">  2  7  1 -1</clus>
<clus scale="   77.763">  2  9  1 -1</clus>
<clus scale="  106.803">  2  5  1 -1</clus>
</clustering>
</event>
<event>
 9    2  0.3791909E-005  0.8877230E+02  0.7546771E-02  0.1306947E+00
         -1   -1    0    0    0  501 -0.00000000000E+00  0.00000000000E+00  0.72026192226E+02  0.72026192226E+02  0.00000000000E+00 0.  1.
          2   -1    0    0  502    0  0.00000000000E+00 -0.00000000000E+00 -0.34240095586E+03  0.34240095586E+03  0.00000000000E+00 0. -1.
         23    2    1    2    0    0 -0.24775126022E+02  0.70779377935E+01  0.16348608040E+02  0.88201325656E+02  0.82754412510E+02 0.  0.
         24    2    1    2    0    0  0.48593593170E+02 -0.32681224614E+02 -0.12110979033E+03  0.15696062814E+03  0.80868150298E+02 0.  0.
        -13    1    4    4    0    0  0.69443288734E+02 -0.28187730133E+02 -0.74363876795E+02  0.10557890250E+03  0.00000000000E+00 0.  1.
         14    1    4    4    0    0 -0.20849695565E+02 -0.44934944814E+01 -0.46745913539E+02  0.51381725646E+02  0.00000000000E+00 0. -1.
        -13    1    3    3    0    0 -0.34952519328E+02  0.25511574599E+02 -0.18838238406E+02  0.47195320447E+02  0.00000000000E+00 0.  1.
         13    1    3    3    0    0  0.10177393306E+02 -0.18433636805E+02  0.35186846446E+02  0.41006005209E+02  0.00000000000E+00 0. -1.
         21    1    1    2  502  501 -0.23818467148E+02  0.25603286820E+02 -0.16561358134E+03  0.16926519429E+03  0.00000000000E+00 0. -1.
<scales pt_clust_5="13000.00000" pt_clust_6="13000.00000" pt_clust_7="13000.00000" pt_clust_8="13000.00000" pt_clust_9="34.96924"></scales>
<clustering>
<clus scale="   34.969">  2  9  1 -1</clus>
<clus scale="   80.868">  5  6 -1 -1</clus>
<clus scale="   82.754">  7  8 -1 -1</clus>
<clus scale="   87.017">  2  5  1 -1</clus>
<clus scale="   34.969">  2  5  1 -1</clus>
</clustering>
</event>
<event>
 9    2  0.3791909E-005  0.1702152E+03  0.7546771E-02  0.1180743E+00
         -3   -1    0    0    0  501 -0.00000000000E+00  0.00000000000E+00  0.60530048005E+03  0.60530048005E+03  0.00000000000E+00 0.  1.
          4   -1    0    0  502    0  0.00000000000E+00 -0.00000000000E+00 -0.17058163006E+03  0.17058163006E+03  0.00000000000E+00 0. -1.
         24    2    1    2    0    0  0.82178530472E+01 -0.14835485249E+03  0.47172779738E+03  0.49815933223E+03  0.59656601462E+02 0.  0.
         23    2    1    2    0    0 -0.32665856764E+02  0.13822945362E+03  0.60561590712E+02  0.17662758266E+03  0.85762209873E+02 0.  0.
        -13    1    3    3    0    0  0.24069203136E+02 -0.53440568350E+02  0.24388651886E+03  0.25083033103E+03  0.00000000000E+00 0.  1.
         14    1    3    3    0    0 -0.15851350089E+02 -0.94914284142E+02  0.22784127852E+03  0.24732900120E+03  0.00000000000E+00 0. -1.
        -11    1    4    4    0    0 -0.32836862314E+02  0.59241617844E+02  0.69606858277E+02  0.97123341842E+02  0.00000000000E+00 0.  1.
         11    1    4    4    0    0  0.17100554915E+00  0.78987835776E+02 -0.90452675654E+01  0.79504240823E+02  0.00000000000E+00 0. -1.
         21    1    1    2  502  501  0.24448003717E+02  0.10125398871E+02 -0.97570538111E+02  0.10109519521E+03  0.00000000000E+00 0.  1.
<scales pt_clust_5="13000.00000" pt_clust_6="13000.00000" pt_clust_7="13000.00000" pt_clust_8="13000.00000" pt_clust_9="26.46183"></scales>
<clustering>
<clus scale="   26.462">  2  9  1 -1</clus>
<clus scale="   59.657">  5  6 -1 -1</clus>
<clus scale="   85.762">  7  8 -1 -1</clus>
<clus scale="  158.673">  1  5  2 -1</clus>
<clus scale="   26.462">  2  5  1 -1</clus>
</clustering>
</event>
<event>
 9    2  0.3791909E-005  0.2867107E+03  0.7546771E-02  0.1092079E+00
          2   -1    0    0  502    0  0.00000000000E+00  0.00000000000E+00  0.15829929097E+03  0.15829929097E+03  0.00000000000E+00 0. -1.
         -1   -1    0    0    0  501 -0.00000000000E+00 -0.00000000000E+00 -0.39877747145E+03  0.39877747145E+03  0.00000000000E+00 0.  1.
         24    2    1    2    0    0  0.12300258366E+03  0.49875111097E+02 -0.59603858864E+02  0.16712332748E+03  0.82221799445E+02 0.  0.
         23    2    1    2    0    0  0.47514834880E+02  0.81555980252E+02 -0.89962145359E+02  0.15625417181E+03  0.86099600243E+02 0.  0.
        -11    1    3    3    0    0  0.12643896026E+03  0.45820046601E+02 -0.72779832957E+02  0.15291563500E+03  0.00000000000E+00 0.  1.
         12    1    3    3    0    0 -0.34363766083E+01  0.40550644962E+01  0.13175974093E+02  0.14207692478E+02  0.00000000000E+00 0. -1.
        -13    1    4    4    0    0  0.21959232881E+01  0.50099245113E+02  0.67104691022E+00  0.50151836895E+02  0.00000000000E+00 0. -1.
         13    1    4    4    0    0  0.45318911592E+02  0.31456735138E+02 -0.90633192269E+02  0.10610233491E+03  0.00000000000E+00 0.  1.
         21    1    1    2  502  501 -0.17051741854E+03 -0.13143109135E+03 -0.90912176250E+02  0.23369926313E+03  0.00000000000E+00 0. -1.
<scales pt_clust_5="13000.00000" pt_clust_6="13000.00000" pt_clust_7="13000.00000" pt_clust_8="13000.00000" pt_clust_9="215.29125"></scales>
<clustering>
<clus scale="   82.222">  5  6 -1 -1</clus>
<clus scale="   86.100">  7  8 -1 -1</clus>
<clus scale="  111.087">  5  7 -1 -1</clus>
<clus scale="  215.291">  1  9  2 -1</clus>
<clus scale="  215.291">  1  5  2 -1</clus>
</clustering>
</event>
<event>
 9    2  0.3791909E-005  0.3981455E+03  0.7546771E-02  0.1044618E+00
         -1   -1    0    0    0  501 -0.00000000000E+00  0.00000000000E+00  0.78607688640E+03  0.78607688640E+03  0.00000000000E+00 0.  1.
          2   -1    0    0  502    0  0.00000000000E+00 -0.00000000000E+00 -0.42603545994E+03  0.42603545994E+03  0.00000000000E+00 0. -1.
         23    2    1    2    0    0 -0.31911455035E+03 -0.21645621540E+03  0.59774196447E+03  0.71717455433E+03  0.91413871228E+02 0.  0.
         24    2    1    2    0    0  0.31664848181E+03  0.24300956120E+03 -0.22603630177E+03  0.46583081563E+03  0.81154366531E+02 0.  0.
        -13    1    4    4    0    0  0.17137279146E+03  0.10977430575E+03 -0.72765742876E+02  0.21613395196E+03  0.00000000000E+00 0.  1.
         14    1    4    4    0    0  0.14527569035E+03  0.13323525545E+03 -0.15327055889E+03  0.24969686367E+03  0.00000000000E+00 0. -1.
        -13    1    3    3    0    0 -0.24927102634E+03 -0.12054471111E+03  0.39773799652E+03  0.48462623312E+03  0.00000000000E+00 0.  1.
         13    1    3    3    0    0 -0.69843524011E+02 -0.95911504288E+02  0.20000396795E+03  0.23254832121E+03  0.00000000000E+00 0. -1.
         21    1    1    2  502  501  0.24660685420E+01 -0.26553345794E+02 -0.11664236235E+02  0.29106976378E+02  0.00000000000E+00 0. -1.
<scales pt_clust_5="13000.00000" pt_clust_6="13000.00000" pt_clust_7="13000.00000" pt_clust_8="13000.00000" pt_clust_9="26.66761"></scales>
<clustering>
<clus scale="   26.668">  2  9  1 -1</clus>
<clus scale="   81.154">  5  6 -1 -1</clus>
<clus scale="   91.414">  7  8 -1 -1</clus>
<clus scale="  395.916">  2  5  1 -1</clus>
<clus scale="   26.668">  2  5  1 -1</clus>
</clustering>
</event>
<event>
 9    2  0.3791909E-005  0.1242399E+03  0.7546771E-02  0.1239359E+00
         -1   -1    0    0    0  501 -0.00000000000E+00  0.00000000000E+00  0.15220406459E+03  0.15220406459E+03  0.00000000000E+00 0.  1.
          2   -1    0    0  502    0  0.00000000000E+00 -0.00000000000E+00 -0.71360502712E+03  0.71360502712E+03  0.00000000000E+00 0. -1.
         24    2    1    2    0    0  0.64426991446E+02 -0.57280277110E+02  0.10956185092E+03  0.16097076049E+03  0.80473096012E+02 0.  0.
         23    2    1    2    0    0 -0.86507997962E+02 -0.96315999631E+00 -0.25548811026E+03  0.28472037421E+03  0.91142501715E+02 0.  0.
        -13    1    3    3    0    0  0.38388902566E+02  0.14805336668E+02  0.34542314496E+02  0.53722223751E+02  0.00000000000E+00 0.  1.
         14    1    3    3    0    0  0.26038088881E+02 -0.72085613778E+02  0.75019536425E+02  0.10724853674E+03  0.00000000000E+00 0. -1.
        -11    1    4    4    0    0  0.17786023508E+01 -0.30880097285E+02 -0.46047206483E+02  0.55471515750E+02  0.00000000000E+00 0.  1.
         11    1    4    4    0    0 -0.88286600313E+02  0.29916937289E+02 -0.20944090378E+03  0.22924885846E+03  0.00000000000E+00 0. -1.
         21    1    1    2  502  501  0.22081006516E+02  0.58243437106E+02 -0.41547470319E+03  0.42011795701E+03  0.00000000000E+00 0. -1.
<scales pt_clust_5="13000.00000" pt_clust_6="13000.00000" pt_clust_7="13000.00000" pt_clust_8="13000.00000" pt_clust_9="62.28859"></scales>
<clustering>
<clus scale="   62.289">  2  9  1 -1</clus>
<clus scale="   80.473">  5  6 -1 -1</clus>
<clus scale="   91.143">  7  8 -1 -1</clus>
<clus scale="  116.638">  1  5  2 -1</clus>
<clus scale="   62.289">  2  5  1 -1</clus>
</clustering>
</event>
<event>
 9    2  0.3791909E-005  0.1041965E+03  0.7546771E-02  0.1284139E+00
         -1   -1    0    0    0  501 -0.00000000000E+00  0.00000000000E+00  0.46949617683E+03  0.46949617683E+03  0.00000000000E+00 0.  1.
          2   -1    0    0  502    0  0.00000000000E+00 -0.00000000000E+00 -0.96114034074E+02  0.96114034074E+02  0.00000000000E+00 0. -1.
         23    2    1    2    0    0  0.11650449075E+02 -0.12344085394E+02  0.41100328803E+03  0.42390885046E+03  0.10240557268E+03 0.  0.
         24    2    1    2    0    0 -0.36835175397E+02  0.30216196027E+02 -0.53144927174E+02  0.10713735341E+03  0.79901067339E+02 0.  0.
        -11    1    4    4    0    0 -0.48741446696E+02 -0.10377824817E+02 -0.36066493501E+02  0.61516012773E+02  0.00000000000E+00 0.  1.
         12    1    4    4    0    0  0.11906271299E+02  0.40594020844E+02 -0.17078433673E+02  0.45621340634E+02  0.00000000000E+00 0. -1.
        -11    1    3    3    0    0  0.46308029548E+02 -0.37151203244E+02  0.27700425871E+03  0.28329490791E+03  0.00000000000E+00 0. -1.
         11    1    3    3    0    0 -0.34657580473E+02  0.24807117849E+02  0.13399902932E+03  0.14061394255E+03  0.00000000000E+00 0.  1.
         21    1    1    2  502  501  0.25184726322E+02 -0.17872110632E+02  0.15523781903E+02  0.34564007044E+02  0.00000000000E+00 0. -1.
<scales pt_clust_5="13000.00000" pt_clust_6="13000.00000" pt_clust_7="13000.00000" pt_clust_8="13000.00000" pt_clust_9="30.88175"></scales>
<clustering>
<clus scale="   30.882">  2  9  1 -1</clus>
<clus scale="   79.901">  5  6 -1 -1</clus>
<clus scale="   82.184">  2  5  1 -1</clus>
<clus scale="  102.406">  7  8 -1 -1</clus>
<clus scale="   30.882">  2  5  1 -1</clus>
</clustering>
</event>
<event>
 9    2  0.3791909E-005  0.1629909E+03  0.7546771E-02  0.1186926E+00
         -1   -1    0    0    0  501 -0.00000000000E+00  0.00000000000E+00  0.34876270160E+03  0.34876270160E+03  0.00000000000E+00 0.  1.
          2   -1    0    0  502    0  0.00000000000E+00 -0.00000000000E+00 -0.28309631707E+03  0.28309631707E+03  0.00000000000E+00 0. -1.
         24    2    1    2    0    0  0.69516881829E+02  0.12109302754E+03  0.28979393528E+03  0.33174815008E+03  0.81118382500E+02 0.  0.
         23    2    1    2    0    0 -0.30725890398E+02 -0.79985041027E+02 -0.20530654002E+03  0.24053874408E+03  0.91468163333E+02 0.  0.
        -11    1    3    3    0    0  0.64451387201E+02  0.84612372058E+02  0.26942498989E+03  0.28966024924E+03  0.00000000000E+00 0.  1.
         12    1    3    3    0    0  0.50654946288E+01  0.36480655487E+02  0.20368945395E+02  0.42087900839E+02  0.00000000000E+00 0. -1.
        -11    1    4    4    0    0 -0.58818503806E+02 -0.69772888369E+02 -0.12436882181E+03  0.15425782372E+03  0.00000000000E+00 0.  1.
         11    1    4    4    0    0  0.28092613408E+02 -0.10212152658E+02 -0.80937718207E+02  0.86280920363E+02  0.00000000000E+00 0. -1.
         21    1    1    2  502  501 -0.38790991431E+02 -0.41107986518E+02 -0.18821010737E+02  0.59572124496E+02  0.00000000000E+00 0.  1.
<scales pt_clust_5="13000.00000" pt_clust_6="13000.00000" pt_clust_7="13000.00000" pt_clust_8="13000.00000" pt_clust_9="56.52086"></scales>
<clustering>
<clus scale="   56.521">  2  9  1 -1</clus>
<clus scale="   81.118">  5  6 -1 -1</clus>
<clus scale="   91.468">  7  8 -1 -1</clus>
<clus scale="  157.416">  1  5  2 -1</clus>
<clus scale="   56.521">  2  5  1 -1</clus>
</clustering>
</event>
<event>
 9    2  0.3791909E-005  0.3098252E+03  0.7546771E-02  0.1080820E+00
          2   -1    0    0  502    0  0.00000000000E+00  0.00000000000E+00  0.33840331998E+04  0.33840331998E+04  0.00000000000E+00 0. -1.
         -1   -1    0    0    0  501 -0.00000000000E+00 -0.00000000000E+00 -0.58929259267E+02  0.58929259267E+02  0.00000000000E+00 0.  1.
         23    2    1    2    0    0 -0.95374084472E+02 -0.28244588399E+03  0.44400320787E+03  0.54261920775E+03  0.91787050521E+02 0.  0.
         24    2    1    2    0    0  0.11631242686E+03  0.25993903255E+03  0.27403831969E+04  0.27563071537E+04  0.80200863167E+02 0.  0.
        -11    1    4    4    0    0  0.24995662475E+02  0.71540850253E+02  0.44607933121E+03  0.45247060250E+03  0.00000000000E+00 0.  1.
         12    1    4    4    0    0  0.91316764389E+02  0.18839818230E+03  0.22943038657E+04  0.23038365512E+04  0.00000000000E+00 0. -1.
        -11    1    3    3    0    0 -0.69715452301E+00 -0.14504646740E+03  0.20921563797E+03  0.25457837085E+03  0.00000000000E+00 0. -1.
         11    1    3    3    0    0 -0.94676929949E+02 -0.13739941659E+03  0.23478756990E+03  0.28804083690E+03  0.00000000000E+00 0.  1.
         21    1    1    2  502  501 -0.20938342393E+02  0.22506851437E+02  0.14071753570E+03  0.14403609755E+03  0.00000000000E+00 0. -1.
<scales pt_clust_5="13000.00000" pt_clust_6="13000.00000" pt_clust_7="13000.00000" pt_clust_8="13000.00000" pt_clust_9="30.74041"></scales>
<clustering>
<clus scale="   30.740">  1  9  2 -1</clus>
<clus scale="   80.201">  5  6 -1 -1</clus>
<clus scale="   91.787">  7  8 -1 -1</clus>
<clus scale="  306.592">  1  5  2 -1</clus>
<clus scale="   30.740">  1  5  2 -1</clus>
</clustering>
</event>
<event>
 9    2  0.3791909E-005  0.1821721E+03  0.7546771E-02  0.1167836E+00
          2   -1    0    0  502    0  0.00000000000E+00  0.00000000000E+00  0.50254148965E+03  0.50254148965E+03  0.00000000000E+00 0. -1.
         -1   -1    0    0    0  501 -0.00000000000E+00 -0.00000000000E+00 -0.82339113934E+02  0.82339113934E+02  0.00000000000E+00 0.  1.
         23    2    1    2    0    0 -0.12640291789E+02  0.14545420524E+03  0.11942568834E+03  0.21266214722E+03  0.98214006263E+02 0.  0.
         24    2    1    2    0    0  0.58773114104E+01 -0.16428183968E+03  0.20761167509E+03  0.27692975170E+03  0.81021071972E+02 0.  0.
        -13    1    4    4    0    0  0.11134166107E+02 -0.12290959518E+03  0.91723750321E+02  0.15376600605E+03  0.00000000000E+00 0.  1.
         14    1    4    4    0    0 -0.52568546964E+01 -0.41372244504E+02  0.11588792476E+03  0.12316374565E+03  0.00000000000E+00 0. -1.
        -11    1    3    3    0    0 -0.29122600549E+02  0.15775165329E+02 -0.33935744611E+01  0.33294114368E+02  0.00000000000E+00 0.  1.
         11    1    3    3    0    0  0.16482308760E+02  0.12967903991E+03  0.12281926280E+03  0.17936803285E+03  0.00000000000E+00 0. -1.
         21    1    1    2  502  501  0.67629803788E+01  0.18827634444E+02  0.93165012286E+02  0.95288704665E+02  0.00000000000E+00 0.  1.
<scales pt_clust_5="13000.00000" pt_clust_6="13000.00000" pt_clust_7="13000.00000" pt_clust_8="13000.00000" pt_clust_9="20.00544"></scales>
<clustering>
<clus scale="   20.005">  1  9  2 -1</clus>
<clus scale="   81.021">  5  6 -1 -1</clus>
<clus scale="   98.214">  7  8 -1 -1</clus>
<clus scale="  173.508">  1  5  2 -1</clus>
<clus scale="   20.005">  1  5  2 -1</clus>
</clustering>
</event>
<event>
 9    2  0.3791909E-005  0.1058285E+03  0.7546771E-02  0.1275191E+00
          4   -1    0    0  502    0  0.00000000000E+00  0.00000000000E+00  0.78613552133E+03  0.78613552133E+03  0.00000000000E+00 0. -1.
         -3   -1    0    0    0  501 -0.00000000000E+00 -0.00000000000E+00 -0.36017554192E+02  0.36017554192E+02  0.00000000000E+00 0.  1.
         23    2    1    2    0    0  0.22448089944E+02 -0.41647267374E+02  0.69496530834E+02  0.12699639943E+03  0.95183538750E+02 0.  0.
         24    2    1    2    0    0 -0.52335126008E+02  0.14765074487E+02  0.54818055732E+03  0.55674976280E+03  0.80693259444E+02 0.  0.
        -11    1    4    4    0    0 -0.69266406027E+02 -0.60080022945E+01  0.35782554163E+03  0.36451755697E+03  0.00000000000E+00 0.  1.
         12    1    4    4    0    0  0.16931280019E+02  0.20773076781E+02  0.19035501569E+03  0.19223220583E+03  0.00000000000E+00 0. -1.
        -11    1    3    3    0    0  0.46484268998E+02 -0.90338648575E+01  0.72253933482E+02  0.86388823826E+02  0.00000000000E+00 0. -1.
         11    1    3    3    0    0 -0.24036179053E+02 -0.32613402516E+02 -0.27574026483E+01  0.40607575605E+02  0.00000000000E+00 0.  1.
         21    1    1    2  502  501  0.29887036064E+02  0.26882192887E+02  0.13244087898E+03  0.13840691328E+03  0.00000000000E+00 0.  1.
<scales pt_clust_5="13000.00000" pt_clust_6="13000.00000" pt_clust_7="13000.00000" pt_clust_8="13000.00000" pt_clust_9="40.19810"></scales>
<clustering>
<clus scale="   40.198">  1  9  2 -1</clus>
<clus scale="   80.693">  5  6 -1 -1</clus>
<clus scale="   93.012">  1  5  2 -1</clus>
<clus scale="   95.184">  7  8 -1 -1</clus>
<clus scale="   40.198">  1  5  2 -1</clus>
</clustering>
</event>
<event>
 9    2  0.3791909E-005  0.3309230E+03  0.7546771E-02  0.1070995E+00
          2   -1    0    0  502    0  0.00000000000E+00  0.00000000000E+00  0.18282752916E+04  0.18282752916E+04  0.00000000000E+00 0. -1.
         -1   -1    0    0    0  501 -0.00000000000E+00 -0.00000000000E+00 -0.88156814089E+02  0.88156814089E+02  0.00000000000E+00 0.  1.
         23    2    1    2    0    0  0.29588329012E+03 -0.16115342561E+03  0.40207395699E+03  0.53261516630E+03  0.92185142612E+02 0.  0.
         24    2    1    2    0    0 -0.24251228021E+03  0.13068334625E+03  0.10161245857E+04  0.10560833054E+04  0.83141031921E+02 0.  0.
        -11    1    4    4    0    0 -0.68335692268E+02  0.12645695028E+02  0.37289024733E+03  0.37931097664E+03  0.00000000000E+00 0.  1.
         12    1    4    4    0    0 -0.17417658794E+03  0.11803765123E+03  0.64323433839E+03  0.67677232876E+03  0.00000000000E+00 0. -1.
        -13    1    3    3    0    0  0.20122534426E+03 -0.14127958065E+03  0.23822964093E+03  0.34235204235E+03  0.00000000000E+00 0. -1.
         13    1    3    3    0    0  0.94657945857E+02 -0.19873844955E+02  0.16384431607E+03  0.19026312395E+03  0.00000000000E+00 0.  1.
         21    1    1    2  502  501 -0.53371009913E+02  0.30470079354E+02  0.32191993480E+03  0.32773363401E+03  0.00000000000E+00 0. -1.
<scales pt_clust_5="13000.00000" pt_clust_6="13000.00000" pt_clust_7="13000.00000" pt_clust_8="13000.00000" pt_clust_9="61.45641"></scales>
<clustering>
<clus scale="   61.456">  1  9  2 -1</clus>
<clus scale="   83.141">  5  6 -1 -1</clus>
<clus scale="   92.185">  7  8 -1 -1</clus>
<clus scale="  328.518">  1  5  2 -1</clus>
<clus scale="   61.456">  1  5  2 -1</clus>
</clustering>
</event>
<event>
 9    2  0.3791909E-005  0.1088388E+03  0.7546771E-02  0.1265598E+00
         -1   -1    0    0    0  501 -0.00000000000E+00  0.00000000000E+00  0.16387502405E+03  0.16387502405E+03  0.00000000000E+00 0.  1.
          2   -1    0    0  502    0  0.00000000000E+00 -0.00000000000E+00 -0.17146617822E+03  0.17146617822E+03  0.00000000000E+00 0. -1.
         23    2    1    2    0    0  0.41493988058E+02  0.42438310676E+02  0.10990589910E+03  0.15371939045E+03  0.89596780559E+02 0.  0.
         24    2    1    2    0    0 -0.62653838506E+02 -0.40956229623E+02 -0.75145359663E+02  0.13425513802E+03  0.82308570519E+02 0.  0.
        -11    1    4    4    0    0 -0.31316957864E+02 -0.20160398337E+02  0.12171219673E+02  0.39183314042E+02  0.00000000000E+00 0.  1.
         12    1    4    4    0    0 -0.31336880641E+02 -0.20795831286E+02 -0.87316579336E+02  0.95071823976E+02  0.00000000000E+00 0. -1.
        -13    1    3    3    0    0 -0.34401354326E+01  0.43642279438E+02  0.97825379604E+02  0.10717410126E+03  0.00000000000E+00 0.  1.
         13    1    3    3    0    0  0.44934123490E+02 -0.12039687622E+01  0.12080519493E+02  0.46545289191E+02  0.00000000000E+00 0. -1.
         21    1    1    2  502  501  0.21159850448E+02 -0.14820810533E+01 -0.42351693610E+02  0.47366673800E+02  0.00000000000E+00 0. -1.
<scales pt_clust_5="13000.00000" pt_clust_6="13000.00000" pt_clust_7="13000.00000" pt_clust_8="13000.00000" pt_clust_9="21.21169"></scales>
<clustering>
<clus scale="   21.212">  2  9  1 -1</clus>
<clus scale="   82.309">  5  6 -1 -1</clus>
<clus scale="   89.597">  7  8 -1 -1</clus>
<clus scale="  102.922">  2  5  1 -1</clus>
<clus scale="   21.212">  2  5  1 -1</clus>
</clustering>
</event>
<event>
 9    2  0.3791909E-005  0.9757023E+02  0.7546771E-02  0.1292565E+00
         -1   -1    0    0    0  501 -0.00000000000E+00  0.00000000000E+00  0.70337191632E+02  0.70337191632E+02  0.00000000000E+00 0.  1.
          2   -1    0    0  502    0  0.00000000000E+00 -0.00000000000E+00 -0.26381786151E+03  0.26381786151E+03  0.00000000000E+00 0. -1.
         24    2    1    2    0    0 -0.10732384469E+02 -0.36742356252E+02  0.11363094685E+02  0.88941072075E+02  0.79474584376E+02 0.  0.
         23    2    1    2    0    0  0.18376045017E+02  0.14604151817E+01 -0.11681624321E+03  0.15007153298E+03  0.92388411019E+02 0.  0.
        -13    1    3    3    0    0  0.66352258070E+01 -0.36582766259E+02  0.40526539180E+02  0.54997503458E+02  0.00000000000E+00 0.  1.
         14    1    3    3    0    0 -0.17367610276E+02 -0.15958999290E+00 -0.29163444495E+02  0.33943568617E+02  0.00000000000E+00 0. -1.
        -11    1    4    4    0    0  0.56175488746E+02  0.36829172691E+01 -0.72194812259E+02  0.91549660472E+02  0.00000000000E+00 0.  1.
         11    1    4    4    0    0 -0.37799443729E+02 -0.22225020874E+01 -0.44621430950E+02  0.58521872508E+02  0.00000000000E+00 0. -1.
         21    1    1    2  502  501 -0.76436605478E+01  0.35281941070E+02 -0.88027521349E+02  0.95142448083E+02  0.00000000000E+00 0. -1.
<scales pt_clust_5="13000.00000" pt_clust_6="13000.00000" pt_clust_7="13000.00000" pt_clust_8="13000.00000" pt_clust_9="36.10043"></scales>
<clustering>
<clus scale="   36.100">  2  9  1 -1</clus>
<clus scale="   79.475">  5  6 -1 -1</clus>
<clus scale="   85.443">  1  5  2 -1</clus>
<clus scale="   92.388">  7  8 -1 -1</clus>
<clus scale="   36.100">  2  5  1 -1</clus>
</clustering>
</event>
<event>
 9    2  0.3791909E-005  0.9681725E+02  0.7546771E-02  0.1294246E+00
         -1   -1    0    0    0  501 -0.00000000000E+00  0.00000000000E+00  0.29535757922E+03  0.29535757922E+03  0.00000000000E+00 0.  1.
          2   -1    0    0  502    0  0.00000000000E+00 -0.00000000000E+00 -0.29901174614E+03  0.29901174614E+03  0.00000000000E+00 0. -1.
         24    2    1    2    0    0  0.54911256384E+01  0.31265678295E+02  0.26717116278E+03  0.28047173627E+03  0.79222910378E+02 0.  0.
         23    2    1    2    0    0  0.29844357172E+02 -0.37680105718E+01 -0.10802774128E+03  0.14505513924E+03  0.92011504586E+02 0.  0.
        -11    1    3    3    0    0  0.12269304574E+02  0.51871902362E+02  0.23924129951E+03  0.24510738357E+03  0.00000000000E+00 0.  1.
         12    1    3    3    0    0 -0.67781789353E+01 -0.20606224068E+02  0.27929863267E+02  0.35364352703E+02  0.00000000000E+00 0. -1.
        -13    1    4    4    0    0  0.55027871289E+02 -0.64662338319E+01 -0.29973282432E+02  0.62994257344E+02  0.00000000000E+00 0.  1.
         13    1    4    4    0    0 -0.25183514117E+02  0.26982232601E+01 -0.78054458850E+02  0.82060881901E+02  0.00000000000E+00 0. -1.
         21    1    1    2  502  501 -0.35335482810E+02 -0.27497667723E+02 -0.16279758841E+03  0.16884244984E+03  0.00000000000E+00 0. -1.
<scales pt_clust_5="13000.00000" pt_clust_6="13000.00000" pt_clust_7="13000.00000" pt_clust_8="13000.00000" pt_clust_9="44.77408"></scales>
<clustering>
<clus scale="   44.774">  2  9  1 -1</clus>
<clus scale="   79.223">  5  6 -1 -1</clus>
<clus scale="   84.757">  1  5  2 -1</clus>
<clus scale="   92.012">  7  8 -1 -1</clus>
<clus scale="   44.774">  2  5  1 -1</clus>
</clustering>
</event>
<event>
 9    2  0.3791909E-005  0.1900277E+03  0.7546771E-02  0.1159529E+00
          2   -1    0    0  502    0  0.00000000000E+00  0.00000000000E+00  0.41395786026E+03  0.41395786026E+03  0.00000000000E+00 0. -1.
         -1   -1    0    0    0  501 -0.00000000000E+00 -0.00000000000E+00 -0.34551432855E+03  0.34551432855E+03  0.00000000000E+00 0.  1.
         23    2    1    2    0    0 -0.50552760234E+02  0.15779286171E+03 -0.28065428690E+03  0.33826189056E+03  0.90554453661E+02 0.  0.
         24    2    1    2    0    0  0.41051417796E+02 -0.17616302808E+03  0.24403251956E+03  0.31412876118E+03  0.80039844017E+02 0.  0.
        -11    1    4    4    0    0 -0.21218033538E+02 -0.30229966687E+02  0.66192730711E+02  0.75799297042E+02  0.00000000000E+00 0.  1.
         12    1    4    4    0    0  0.62269451334E+02 -0.14593306139E+03  0.17783978885E+03  0.23832946413E+03  0.00000000000E+00 0. -1.
        -11    1    3    3    0    0 -0.57139940156E+02  0.38004236659E+02 -0.94193336830E+02  0.11654046279E+03  0.00000000000E+00 0.  1.
         11    1    3    3    0    0  0.65871799214E+01  0.11978862505E+03 -0.18646095007E+03  0.22172142777E+03  0.00000000000E+00 0. -1.
         21    1    1    2  502  501  0.95013424381E+01  0.18370166367E+02  0.10506529904E+03  0.10708153707E+03  0.00000000000E+00 0. -1.
<scales pt_clust_5="13000.00000" pt_clust_6="13000.00000" pt_clust_7="13000.00000" pt_clust_8="13000.00000" pt_clust_9="20.68184"></scales>
<clustering>
<clus scale="   20.682">  1  9  2 -1</clus>
<clus scale="   80.040">  5  6 -1 -1</clus>
<clus scale="   90.554">  7  8 -1 -1</clus>
<clus scale="  185.248">  1  5  2 -1</clus>
<clus scale="   20.682">  1  5  2 -1</clus>
</clustering>
</event>
<event>
 9    2  0.3791909E-005  0.1155766E+03  0.7546771E-02  0.1259404E+00
          2   -1    0    0  502    0  0.00000000000E+00  0.00000000000E+00  0.61713900217E+03  0.61713900217E+03  0.00000000000E+00 0. -1.
         -1   -1    0    0    0  501 -0.00000000000E+00 -0.00000000000E+00 -0.98840114244E+02  0.98840114244E+02  0.00000000000E+00 0.  1.
         23    2    1    2    0    0  0.21975582485E+01 -0.53055142094E+02 -0.56319362072E+02  0.12894377492E+03  0.10312588997E+03 0.  0.
         24    2    1    2    0    0  0.16737178695E+02  0.39653415791E+02  0.51157831489E+03  0.51986269863E+03  0.81806641664E+02 0.  0.
        -11    1    4    4    0    0 -0.99103364003E+01  0.30227478164E+02  0.64757965859E+02  0.72149215837E+02  0.00000000000E+00 0.  1.
         12    1    4    4    0    0  0.26647515095E+02  0.94259376271E+01  0.44682034903E+03  0.44771348279E+03  0.00000000000E+00 0. -1.
        -11    1    3    3    0    0 -0.12548425983E+02 -0.21473336304E+02 -0.81974988352E+02  0.85664846244E+02  0.00000000000E+00 0.  1.
         11    1    3    3    0    0  0.14745984232E+02 -0.31581805790E+02  0.25655626280E+02  0.43278928680E+02  0.00000000000E+00 0. -1.
         21    1    1    2  502  501 -0.18934736943E+02  0.13401726303E+02  0.63039935105E+02  0.67172642862E+02  0.00000000000E+00 0.  1.
<scales pt_clust_5="13000.00000" pt_clust_6="13000.00000" pt_clust_7="13000.00000" pt_clust_8="13000.00000" pt_clust_9="23.19764"></scales>
<clustering>
<clus scale="   23.198">  1  9  2 -1</clus>
<clus scale="   81.807">  5  6 -1 -1</clus>
<clus scale="   97.033">  1  5  2 -1</clus>
<clus scale="  103.126">  7  8 -1 -1</clus>
<clus scale="   23.198">  1  5  2 -1</clus>
</clustering>
</event>
<event>
 9    2  0.3791909E-005  0.1662418E+03  0.7546771E-02  0.1200375E+00
         -1   -1    0    0    0  501 -0.00000000000E+00  0.00000000000E+00  0.70333025119E+02  0.70333025119E+02  0.00000000000E+00 0.  1.
          2   -1    0    0  502    0  0.00000000000E+00 -0.00000000000E+00 -0.12886243861E+04  0.12886243861E+04  0.00000000000E+00 0. -1.
         24    2    1    2    0    0  0.46935532859E+02 -0.61332759225E+02 -0.31904561265E+02  0.11494202892E+03  0.78924757735E+02 0.  0.
         23    2    1    2    0    0  0.99313424437E+02  0.32589139788E+02 -0.18521815071E+03  0.23181302263E+03  0.92229636250E+02 0.  0.
        -11    1    3    3    0    0  0.19983335005E+02  0.93574631888E+01  0.14300236925E+02  0.26294344855E+02  0.00000000000E+00 0.  1.
         12    1    3    3    0    0  0.26952197854E+02 -0.70690222414E+02 -0.46204798190E+02  0.88647684064E+02  0.00000000000E+00 0. -1.
        -13    1    4    4    0    0  0.51783530059E+02 -0.28907881295E+02 -0.10166456625E+03  0.11769827364E+03  0.00000000000E+00 0.  1.
         13    1    4    4    0    0  0.47529894378E+02  0.61497021082E+02 -0.83553584460E+02  0.11411474899E+03  0.00000000000E+00 0. -1.
         21    1    1    2  502  501 -0.14624895730E+03  0.28743619438E+02 -0.10011686490E+04  0.10122023596E+04  0.00000000000E+00 0. -1.
<scales pt_clust_5="13000.00000" pt_clust_6="13000.00000" pt_clust_7="13000.00000" pt_clust_8="13000.00000" pt_clust_9="138.31137"></scales>
<clustering>
<clus scale="   78.925">  5  6 -1 -1</clus>
<clus scale="   92.230">  7  8 -1 -1</clus>
<clus scale="  110.425">  1  5  2 -1</clus>
<clus scale="  138.311">  2  9  1 -1</clus>
<clus scale="  138.311">  2  5  1 -1</clus>
</clustering>
</event>
<event>
 9    2  0.3791909E-005  0.9864245E+02  0.7546771E-02  0.1292884E+00
          2   -1    0    0  502    0  0.00000000000E+00  0.00000000000E+00  0.13662800519E+04  0.13662800519E+04  0.00000000000E+00 0. -1.
         -1   -1    0    0    0  501 -0.00000000000E+00 -0.00000000000E+00 -0.24724042458E+02  0.24724042458E+02  0.00000000000E+00 0.  1.
         23    2    1    2    0    0 -0.29566250204E+01  0.16372830979E+02  0.88132783175E+02  0.13255153319E+03  0.97599745152E+02 0.  0.
         24    2    1    2    0    0 -0.94627215246E+01  0.70118409646E+01  0.10708426586E+04  0.10739620554E+04  0.80943114810E+02 0.  0.
        -11    1    4    4    0    0 -0.70031687667E+01 -0.20725938453E+02  0.86435450090E+02  0.89161067343E+02  0.00000000000E+00 0.  1.
         12    1    4    4    0    0 -0.24595527579E+01  0.27737779417E+02  0.98440720852E+03  0.98480098802E+03  0.00000000000E+00 0. -1.
        -13    1    3    3    0    0  0.21963701307E+01 -0.41047523632E+02  0.41364949007E+02  0.58316226253E+02  0.00000000000E+00 0.  1.
         13    1    3    3    0    0 -0.51529951510E+01  0.57420354610E+02  0.46767834168E+02  0.74235306932E+02  0.00000000000E+00 0. -1.
         21    1    1    2  502  501  0.12419346545E+02 -0.23384671943E+02  0.18258056766E+03  0.18449050582E+03  0.00000000000E+00 0. -1.
<scales pt_clust_5="13000.00000" pt_clust_6="13000.00000" pt_clust_7="13000.00000" pt_clust_8="13000.00000" pt_clust_9="26.47797"></scales>
<clustering>
<clus scale="   26.478">  1  9  2 -1</clus>
<clus scale="   80.943">  5  6 -1 -1</clus>
<clus scale="   82.197">  1  5  2 -1</clus>
<clus scale="   97.600">  7  8 -1 -1</clus>
<clus scale="   26.478">  1  5  2 -1</clus>
</clustering>
</event>
<event>
 9    2  0.3791909E-005  0.1022091E+03  0.7546771E-02  0.1281617E+00
          4   -1    0    0  502    0  0.00000000000E+00  0.00000000000E+00  0.45522069526E+03  0.45522069526E+03  0.00000000000E+00 0. -1.
         -3   -1    0    0    0  501 -0.00000000000E+00 -0.00000000000E+00 -0.28680041836E+02  0.28680041836E+02  0.00000000000E+00 0.  1.
         23    2    1    2    0    0 -0.19438901117E+02 -0.48764394438E+02  0.13700770465E+03  0.17346018475E+03  0.92528306575E+02 0.  0.
         24    2    1    2    0    0  0.20924000006E+02  0.23030939717E+02  0.22691481183E+03  0.24272462154E+03  0.80353420056E+02 0.  0.
        -11    1    4    4    0    0  0.47517694556E+02 -0.37443525739E+01  0.14244226947E+03  0.15020569764E+03  0.00000000000E+00 0.  1.
         12    1    4    4    0    0 -0.26593694550E+02  0.26775292291E+02  0.84472542352E+02  0.92518923894E+02  0.00000000000E+00 0. -1.
        -11    1    3    3    0    0  0.35638253180E+02 -0.23831676621E+02  0.37160203373E+02  0.56735479331E+02  0.00000000000E+00 0.  1.
         11    1    3    3    0    0 -0.55077154297E+02 -0.24932717817E+02  0.99847501276E+02  0.11672470542E+03  0.00000000000E+00 0. -1.
         21    1    1    2  502  501 -0.14850988894E+01  0.25733454721E+02  0.62618136950E+02  0.67715930811E+02  0.00000000000E+00 0. -1.
<scales pt_clust_5="13000.00000" pt_clust_6="13000.00000" pt_clust_7="13000.00000" pt_clust_8="13000.00000" pt_clust_9="25.77627"></scales>
<clustering>
<clus scale="   25.776">  1  9  2 -1</clus>
<clus scale="   80.353">  5  6 -1 -1</clus>
<clus scale="   91.334">  1  5  2 -1</clus>
<clus scale="   92.528">  7  8 -1 -1</clus>
<clus scale="   25.776">  1  5  2 -1</clus>
</clustering>
</event>
<event>
 9    2  0.3791909E-005  0.9609263E+02  0.7546771E-02  0.1294581E+00
          4   -1    0    0  502    0  0.00000000000E+00  0.00000000000E+00  0.56031496269E+02  0.56031496269E+02  0.00000000000E+00 0. -1.
         -3   -1    0    0    0  501 -0.00000000000E+00 -0.00000000000E+00 -0.32108046785E+03  0.32108046785E+03  0.00000000000E+00 0.  1.
         23    2    1    2    0    0  0.25494240237E+02  0.35191362901E+02 -0.20615687801E+03  0.22952439609E+03  0.91062625401E+02 0.  0.
         24    2    1    2    0    0 -0.71612937145E+01 -0.88618153910E+01 -0.75943804078E+02  0.11125434863E+03  0.80500017460E+02 0.  0.
        -13    1    4    4    0    0  0.35744257749E+02 -0.14679528161E+01 -0.46610850019E+02  0.58756941606E+02  0.00000000000E+00 0.  1.
         14    1    4    4    0    0 -0.42905551463E+02 -0.73938625749E+01 -0.29332954059E+02  0.52497407022E+02  0.00000000000E+00 0. -1.
        -13    1    3    3    0    0 -0.48349741151E+01 -0.27536731728E+02 -0.88212468365E+02  0.92536955559E+02  0.00000000000E+00 0. -1.
         13    1    3    3    0    0  0.30329214352E+02  0.62728094628E+02 -0.11794440964E+03  0.13698744054E+03  0.00000000000E+00 0.  1.
         21    1    1    2  502  501 -0.18332946522E+02 -0.26329547510E+02  0.17051710508E+02  0.36333219394E+02  0.00000000000E+00 0.  1.
<scales pt_clust_5="13000.00000" pt_clust_6="13000.00000" pt_clust_7="13000.00000" pt_clust_8="13000.00000" pt_clust_9="32.08336"></scales>
<clustering>
<clus scale="   32.083">  1  9  2 -1</clus>
<clus scale="   80.500">  5  6 -1 -1</clus>
<clus scale="   86.149">  1  5  2 -1</clus>
<clus scale="   91.063">  7  8 -1 -1</clus>
<clus scale="   32.083">  1  5  2 -1</clus>
</clustering>
</event>
<event>
 9    2  0.3791909E-005  0.1755464E+03  0.7546771E-02  0.1205571E+00
          2   -1    0    0  502    0  0.00000000000E+00  0.00000000000E+00  0.86273344715E+03  0.86273344715E+03  0.00000000000E+00 0. -1.
         -1   -1    0    0    0  501 -0.00000000000E+00 -0.00000000000E+00 -0.11654146801E+03  0.11654146801E+03  0.00000000000E+00 0.  1.
         24    2    1    2    0    0  0.21866271084E+02  0.13169491898E+02 -0.64176805643E+02  0.10556787629E+03  0.79839493941E+02 0.  0.
         23    2    1    2    0    0 -0.13792455112E+03 -0.88566645538E+02  0.49341670462E+03  0.52785609372E+03  0.91130558929E+02 0.  0.
        -11    1    3    3    0    0  0.34169512265E+02  0.29697884187E+02 -0.83173108934E+01  0.46029311901E+02  0.00000000000E+00 0.  1.
         12    1    3    3    0    0 -0.12303241181E+02 -0.16528392288E+02 -0.55859494750E+02  0.59538564384E+02  0.00000000000E+00 0. -1.
        -11    1    4    4    0    0 -0.81957164753E+02 -0.10941341010E+02  0.14914543128E+03  0.17053166706E+03  0.00000000000E+00 0.  1.
         11    1    4    4    0    0 -0.55967386368E+02 -0.77625304528E+02  0.34427127334E+03  0.35732442666E+03  0.00000000000E+00 0. -1.
         21    1    1    2  502  501  0.11605828004E+03  0.75397153639E+02  0.31695208016E+03  0.34585094515E+03  0.00000000000E+00 0.  1.
<scales pt_clust_5="13000.00000" pt_clust_6="13000.00000" pt_clust_7="13000.00000" pt_clust_8="13000.00000" pt_clust_9="150.03916"></scales>
<clustering>
<clus scale="   79.839">  5  6 -1 -1</clus>
<clus scale="   83.821">  2  5  1 -1</clus>
<clus scale="   91.131">  7  8 -1 -1</clus>
<clus scale="  150.039">  1  9  2 -1</clus>
<clus scale="  150.039">  1  5  2 -1</clus>
</clustering>
</event>
<event>
 9    2  0.3791909E-005  0.1253971E+03  0.7546771E-02  0.1236091E+00
         -1   -1    0    0    0  501 -0.00000000000E+00  0.00000000000E+00  0.57429244195E+02  0.57429244195E+02  0.00000000000E+00 0.  1.
          2   -1    0    0  502    0  0.00000000000E+00 -0.00000000000E+00 -0.93429035293E+03  0.93429035293E+03  0.00000000000E+00 0. -1.
         24    2    1    2    0    0 -0.68181352301E+02 -0.65742282402E+02 -0.38139192185E+02  0.13004315276E+03  0.80534955776E+02 0.  0.
         23    2    1    2    0    0  0.89495043560E+02  0.19618452948E+01 -0.43889890834E+03  0.45623760128E+03  0.86644592545E+02 0.  0.
        -13    1    3    3    0    0 -0.27742894813E+02 -0.24196379202E+02  0.24864795965E+02  0.44422866380E+02  0.00000000000E+00 0.  1.
         14    1    3    3    0    0 -0.40438457488E+02 -0.41545903200E+02 -0.63003988149E+02  0.85620286378E+02  0.00000000000E+00 0. -1.
        -13    1    4    4    0    0  0.29276835904E+02 -0.38463300041E+02 -0.12387106556E+03  0.13296841525E+03  0.00000000000E+00 0.  1.
         13    1    4    4    0    0  0.60218207655E+02  0.40425145336E+02 -0.31502784278E+03  0.32326918602E+03  0.00000000000E+00 0. -1.
         21    1    1    2  502  501 -0.21313691258E+02  0.63780437107E+02 -0.39982300821E+03  0.40543884309E+03  0.00000000000E+00 0.  1.
<scales pt_clust_5="13000.00000" pt_clust_6="13000.00000" pt_clust_7="13000.00000" pt_clust_8="13000.00000" pt_clust_9="67.24744"></scales>
<clustering>
<clus scale="   67.247">  2  9  1 -1</clus>
<clus scale="   80.535">  5  6 -1 -1</clus>
<clus scale="   86.645">  7  8 -1 -1</clus>
<clus scale="  121.256">  1  5  2 -1</clus>
<clus scale="   67.247">  2  5  1 -1</clus>
</clustering>
</event>
<event>
 9    2  0.3791909E-005  0.1522957E+03  0.7546771E-02  0.1201767E+00
          2   -1    0    0  502    0  0.00000000000E+00  0.00000000000E+00  0.14538031026E+04  0.14538031026E+04  0.00000000000E+00 0. -1.
         -1   -1    0    0    0  501 -0.00000000000E+00 -0.00000000000E+00 -0.22940146101E+02  0.22940146101E+02  0.00000000000E+00 0.  1.
         23    2    1    2    0    0  0.97111508767E+02 -0.58520342756E+02  0.35608860731E+03  0.38457137793E+03  0.90778702412E+02 0.  0.
         24    2    1    2    0    0 -0.11316181166E+03  0.89685808776E+02  0.88056433883E+03  0.89482338049E+03  0.66829540883E+02 0.  0.
        -11    1    4    4    0    0 -0.27989007812E+02  0.63521329181E+02  0.34772456002E+03  0.35458526966E+03  0.00000000000E+00 0.  1.
         12    1    4    4    0    0 -0.85172803850E+02  0.26164479595E+02  0.53283977881E+03  0.54023811083E+03  0.00000000000E+00 0. -1.
        -11    1    3    3    0    0  0.24003675552E+01 -0.35630412284E+02  0.39139306938E+02  0.52982765042E+02  0.00000000000E+00 0.  1.
         11    1    3    3    0    0  0.94711141212E+02 -0.22889930471E+02  0.31694930037E+03  0.33158861288E+03  0.00000000000E+00 0. -1.
         21    1    1    2  502  501  0.16050302894E+02 -0.31165466020E+02  0.19421001036E+03  0.19734849029E+03  0.00000000000E+00 0. -1.
<scales pt_clust_5="13000.00000" pt_clust_6="13000.00000" pt_clust_7="13000.00000" pt_clust_8="13000.00000" pt_clust_9="35.05565"></scales>
<clustering>
<clus scale="   35.056">  1  9  2 -1</clus>
<clus scale="   66.830">  5  6 -1 -1</clus>
<clus scale="   90.779">  7  8 -1 -1</clus>
<clus scale="  139.353">  1  5  2 -1</clus>
<clus scale="   35.056">  1  5  2 -1</clus>
</clustering>
</event>
<event>
 9    2  0.3791909E-005  0.1364154E+03  0.7546771E-02  0.1220194E+00
         -1   -1    0    0    0  501 -0.00000000000E+00  0.00000000000E+00  0.12331674731E+03  0.12331674731E+03  0.00000000000E+00 0.  1.
          2   -1    0    0  502    0  0.00000000000E+00 -0.00000000000E+00 -0.21365153362E+03  0.21365153362E+03  0.00000000000E+00 0. -1.
         23    2    1    2    0    0 -0.75299199496E+02  0.57693316519E+02  0.23699043029E+02  0.13414777388E+03  0.91844936608E+02 0.  0.
         24    2    1    2    0    0  0.97448237016E+02 -0.60285435128E+02 -0.81923598009E+02  0.16372618651E+03  0.83452355579E+02 0.  0.
        -11    1    4    4    0    0  0.74023488743E+02 -0.43494528528E+02 -0.10238578945E+02  0.86464324414E+02  0.00000000000E+00 0.  1.
         12    1    4    4    0    0  0.23424748273E+02 -0.16790906600E+02 -0.71685019064E+02  0.77261862094E+02  0.00000000000E+00 0. -1.
        -13    1    3    3    0    0 -0.74162122510E+02  0.79558621045E+02  0.26845451992E+02  0.11202800047E+03  0.00000000000E+00 0.  1.
         13    1    3    3    0    0 -0.11370769858E+01 -0.21865304526E+02 -0.31464089628E+01  0.22119773404E+02  0.00000000000E+00 0. -1.
         21    1    1    2  502  501 -0.22149037520E+02  0.25921186089E+01 -0.32110231338E+02  0.39094320541E+02  0.00000000000E+00 0. -1.
<scales pt_clust_5="13000.00000" pt_clust_6="13000.00000" pt_clust_7="13000.00000" pt_clust_8="13000.00000" pt_clust_9="22.30020"></scales>
<clustering>
<clus scale="   22.300">  2  9  1 -1</clus>
<clus scale="   83.452">  5  6 -1 -1</clus>
<clus scale="   91.845">  7  8 -1 -1</clus>
<clus scale="  130.912">  2  5  1 -1</clus>
<clus scale="   22.300">  2  5  1 -1</clus>
</clustering>
</event>
<event>
 9    2  0.3791909E-005  0.1077000E+03  0.7546771E-02  0.1274248E+00
          2   -1    0    0  502    0  0.00000000000E+00  0.00000000000E+00  0.87620167945E+03  0.87620167945E+03  0.00000000000E+00 0. -1.
         -1   -1    0    0    0  501 -0.00000000000E+00 -0.00000000000E+00 -0.81825611806E+02  0.81825611806E+02  0.00000000000E+00 0.  1.
         23    2    1    2    0    0 -0.27996582503E+02 -0.30651392726E+02 -0.34055486826E+02  0.11245765279E+03  0.98811087331E+02 0.  0.
         24    2    1    2    0    0  0.59633226199E+02  0.39332137410E+02  0.77897643239E+03  0.78622284704E+03  0.78986988122E+02 0.  0.
        -13    1    4    4    0    0  0.15354720740E+02  0.51106681027E+02  0.27233916152E+03  0.27751807003E+03  0.00000000000E+00 0.  1.
         14    1    4    4    0    0  0.44278505459E+02 -0.11774543617E+02  0.50663727086E+03  0.50870477701E+03  0.00000000000E+00 0. -1.
        -13    1    3    3    0    0 -0.59573438959E+02 -0.21962914832E+02  0.22888413316E+01  0.63534266754E+02  0.00000000000E+00 0.  1.
         13    1    3    3    0    0  0.31576856456E+02 -0.86884778945E+01 -0.36344328158E+02  0.48923386034E+02  0.00000000000E+00 0. -1.
         21    1    1    2  502  501 -0.31636643696E+02 -0.86807446838E+01  0.49455122081E+02  0.59346791427E+02  0.00000000000E+00 0.  1.
<scales pt_clust_5="13000.00000" pt_clust_6="13000.00000" pt_clust_7="13000.00000" pt_clust_8="13000.00000" pt_clust_9="32.80598"></scales>
<clustering>
<clus scale="   32.806">  1  9  2 -1</clus>
<clus scale="   78.987">  5  6 -1 -1</clus>
<clus scale="   89.859">  1  5  2 -1</clus>
<clus scale="   98.811">  7  8 -1 -1</clus>
<clus scale="   32.806">  1  5  2 -1</clus>
</clustering>
</event>
<event>
 9    2  0.3791909E-005  0.9739431E+02  0.7546771E-02  0.1290074E+00
         -1   -1    0    0    0  501 -0.00000000000E+00  0.00000000000E+00  0.72888695517E+02  0.72888695517E+02  0.00000000000E+00 0.  1.
          2   -1    0    0  502    0  0.00000000000E+00 -0.00000000000E+00 -0.23256467610E+03  0.23256467610E+03  0.00000000000E+00 0. -1.
         23    2    1    2    0    0  0.59101314008E+01 -0.39973422317E+02 -0.85182738468E+00  0.99147498819E+02  0.90535610493E+02 0.  0.
         24    2    1    2    0    0  0.29397790764E+02  0.23796613993E+02 -0.12690817124E+03  0.15603691220E+03  0.82530752470E+02 0.  0.
        -11    1    4    4    0    0  0.14397679937E+02  0.49279869584E+02 -0.42662775470E+02  0.66752611519E+02  0.00000000000E+00 0.  1.
         12    1    4    4    0    0  0.15000110826E+02 -0.25483255592E+02 -0.84245395767E+02  0.89284300682E+02  0.00000000000E+00 0. -1.
        -11    1    3    3    0    0 -0.30679936806E+02 -0.38791878697E+02  0.23926430808E+02  0.54941263787E+02  0.00000000000E+00 0.  1.
         11    1    3    3    0    0  0.36590068207E+02 -0.11815436196E+01 -0.24778258192E+02  0.44206235033E+02  0.00000000000E+00 0. -1.
         21    1    1    2  502  501 -0.35307922164E+02  0.16176808324E+02 -0.31915981965E+02  0.50268960601E+02  0.00000000000E+00 0.  1.
<scales pt_clust_5="13000.00000" pt_clust_6="13000.00000" pt_clust_7="13000.00000" pt_clust_8="13000.00000" pt_clust_9="38.83733"></scales>
<clustering>
<clus scale="   38.837">  2  9  1 -1</clus>
<clus scale="   82.531">  5  6 -1 -1</clus>
<clus scale="   90.002">  2  5  1 -1</clus>
<clus scale="   90.536">  7  8 -1 -1</clus>
<clus scale="   38.837">  2  5  1 -1</clus>
</clustering>
</event>
<event>
 9    2  0.3791909E-005  0.1101469E+03  0.7546771E-02  0.1266497E+00
         -1   -1    0    0    0  501 -0.00000000000E+00  0.00000000000E+00  0.27677747107E+02  0.27677747107E+02  0.00000000000E+00 0.  1.
          2   -1    0    0  502    0  0.00000000000E+00 -0.00000000000E+00 -0.59662228902E+03  0.59662228902E+03  0.00000000000E+00 0. -1.
         23    2    1    2    0    0  0.65616929202E+02 -0.13760717855E+02 -0.17265848838E+03  0.20794489141E+03  0.94526110148E+02 0.  0.
         24    2    1    2    0    0 -0.44708435667E+02 -0.13992301962E+01 -0.21973177347E+03  0.23792195572E+03  0.79523598240E+02 0.  0.
        -13    1    4    4    0    0 -0.32609341179E+02  0.24405585010E+02 -0.19782613810E+03  0.20197569811E+03  0.00000000000E+00 0.  1.
         14    1    4    4    0    0 -0.12099094488E+02 -0.25804815206E+02 -0.21905635370E+02  0.35946257611E+02  0.00000000000E+00 0. -1.
        -11    1    3    3    0    0  0.33005960346E+02  0.36777592049E+02 -0.45037198202E+02  0.66860555765E+02  0.00000000000E+00 0.  1.
         11    1    3    3    0    0  0.32610968856E+02 -0.50538309903E+02 -0.12762129018E+03  0.14108433564E+03  0.00000000000E+00 0. -1.
         21    1    1    2  502  501 -0.20908493535E+02  0.15159948051E+02 -0.17655428006E+03  0.17843318899E+03  0.00000000000E+00 0. -1.
<scales pt_clust_5="13000.00000" pt_clust_6="13000.00000" pt_clust_7="13000.00000" pt_clust_8="13000.00000" pt_clust_9="25.82613"></scales>
<clustering>
<clus scale="   25.826">  2  9  1 -1</clus>
<clus scale="   79.524">  5  6 -1 -1</clus>
<clus scale="   94.526">  7  8 -1 -1</clus>
<clus scale="   97.576">  2  5  1 -1</clus>
<clus scale="   25.826">  2  5  1 -1</clus>
</clustering>
</event>
<event>
 9    2  0.3791909E-005  0.1082851E+03  0.7546771E-02  0.1270823E+00
          2   -1    0    0  502    0  0.00000000000E+00  0.00000000000E+00  0.82952982364E+03  0.82952982364E+03  0.00000000000E+00 0. -1.
         -1   -1    0    0    0  501 -0.00000000000E+00 -0.00000000000E+00 -0.45813931784E+02  0.45813931784E+02  0.00000000000E+00 0.  1.
         23    2    1    2    0    0 -0.13763211299E+02 -0.82517074127E+01  0.44001062546E+02  0.10577994711E+03  0.94846122988E+02 0.  0.
         24    2    1    2    0    0 -0.53167555749E+02 -0.30149560630E+02  0.61419574690E+03  0.62222262258E+03  0.78668872766E+02 0.  0.
        -11    1    4    4    0    0 -0.36387927431E+02 -0.46812102991E+02  0.23763436192E+03  0.24491946475E+03  0.00000000000E+00 0.  1.
         12    1    4    4    0    0 -0.16779628318E+02  0.16662542361E+02  0.37656138499E+03  0.37730315783E+03  0.00000000000E+00 0. -1.
        -13    1    3    3    0    0 -0.34166840254E+02  0.34378377473E+02  0.17088596565E+02  0.51393248031E+02  0.00000000000E+00 0.  1.
         13    1    3    3    0    0  0.20403628955E+02 -0.42630084886E+02  0.26912465981E+02  0.54386699083E+02  0.00000000000E+00 0. -1.
         21    1    1    2  502  501  0.66930767047E+02  0.38401268043E+02  0.12551908241E+03  0.14734118573E+03  0.00000000000E+00 0.  1.
<scales pt_clust_5="13000.00000" pt_clust_6="13000.00000" pt_clust_7="13000.00000" pt_clust_8="13000.00000" pt_clust_9="77.16466"></scales>
<clustering>
<clus scale="   77.165">  2  9  1 -1</clus>
<clus scale="   78.669">  5  6 -1 -1</clus>
<clus scale="   94.439">  1  5  2 -1</clus>
<clus scale="   94.846">  7  8 -1 -1</clus>
<clus scale="   94.439">  1  5  2 -1</clus>
</clustering>
</event>
<event>
 9    2  0.3791909E-005  0.9104163E+02  0.7546771E-02  0.1306852E+00
         -1   -1    0    0    0  501 -0.00000000000E+00  0.00000000000E+00  0.37092789165E+02  0.37092789165E+02  0.00000000000E+00 0.  1.
          2   -1    0    0  502    0  0.00000000000E+00 -0.00000000000E+00 -0.91590688405E+03  0.91590688405E+03  0.00000000000E+00 0. -1.
         23    2    1    2    0    0 -0.20973750629E+01 -0.74221278659E+00 -0.30881641173E+02  0.96074842435E+02  0.90949160114E+02 0.  0.
         24    2    1    2    0    0 -0.19749870270E+01  0.34921530936E+02 -0.66384510416E+03  0.66964706331E+03  0.80705967503E+02 0.  0.
        -11    1    4    4    0    0 -0.22450961873E+02  0.10408413924E+02 -0.59266787118E+02  0.64225639933E+02  0.00000000000E+00 0.  1.
         12    1    4    4    0    0  0.20475974846E+02  0.24513117013E+02 -0.60457831704E+03  0.60542142338E+03  0.00000000000E+00 0. -1.
        -11    1    3    3    0    0  0.59758847105E+01  0.43845311517E+02 -0.23696830073E+02  0.50196237863E+02  0.00000000000E+00 0. -1.
         11    1    3    3    0    0 -0.80732597734E+01 -0.44587524304E+02 -0.71848110995E+01  0.45878604572E+02  0.00000000000E+00 0.  1.
         21    1    1    2  502  501  0.40723620899E+01 -0.34179318150E+02 -0.18408734955E+03  0.18727776747E+03  0.00000000000E+00 0.  1.
<scales pt_clust_5="13000.00000" pt_clust_6="13000.00000" pt_clust_7="13000.00000" pt_clust_8="13000.00000" pt_clust_9="34.42107"></scales>
<clustering>
<clus scale="   34.421">  2  9  1 -1</clus>
<clus scale="   80.706">  5  6 -1 -1</clus>
<clus scale="   80.810">  2  5  1 -1</clus>
<clus scale="   90.949">  7  8 -1 -1</clus>
<clus scale="   34.421">  2  5  1 -1</clus>
</clustering>
</event>
<event>
 9    2  0.3791909E-005  0.1078744E+03  0.7546771E-02  0.1266573E+00
          2   -1    0    0  502    0  0.00000000000E+00  0.00000000000E+00  0.35081802900E+03  0.35081802900E+03  0.00000000000E+00 0. -1.
         -1   -1    0    0    0  501 -0.00000000000E+00 -0.00000000000E+00 -0.57492396641E+02  0.57492396641E+02  0.00000000000E+00 0.  1.
         23    2    1    2    0    0 -0.50370520389E+02 -0.51764527545E+02  0.29554768960E+02  0.11522399807E+03  0.84772222614E+02 0.  0.
         24    2    1    2    0    0  0.47574248677E+02  0.21360365933E+02  0.22078033268E+03  0.24035675935E+03  0.79421924547E+02 0.  0.
        -11    1    4    4    0    0 -0.20643371219E+01  0.34274751549E+02  0.41394223301E+02  0.53781984011E+02  0.00000000000E+00 0.  1.
         12    1    4    4    0    0  0.49638585799E+02 -0.12914385616E+02  0.17938610937E+03  0.18657477534E+03  0.00000000000E+00 0. -1.
        -13    1    3    3    0    0  0.13639947922E+02 -0.44970548155E+02  0.11904734909E+02  0.48478047547E+02  0.00000000000E+00 0. -1.
         13    1    3    3    0    0 -0.64010468311E+02 -0.67939793897E+01  0.17650034051E+02  0.66745950524E+02  0.00000000000E+00 0.  1.
         21    1    1    2  502  501  0.27962717114E+01  0.30404161612E+02  0.42990530718E+02  0.52729668216E+02  0.00000000000E+00 0.  1.
<scales pt_clust_5="13000.00000" pt_clust_6="13000.00000" pt_clust_7="13000.00000" pt_clust_8="13000.00000" pt_clust_9="30.53248"></scales>
<clustering>
<clus scale="   30.532">  1  9  2 -1</clus>
<clus scale="   79.422">  5  6 -1 -1</clus>
<clus scale="   84.772">  7  8 -1 -1</clus>
<clus scale="  103.723">  1  5  2 -1</clus>
<clus scale="   30.532">  1  5  2 -1</clus>
</clustering>
</event>
<event>
 9    2  0.3791909E-005  0.1161293E+03  0.7546771E-02  0.1251476E+00
          2   -1    0    0  502    0  0.00000000000E+00  0.00000000000E+00  0.23728430417E+03  0.23728430417E+03  0.00000000000E+00 0. -1.
         -1   -1    0    0    0  501 -0.00000000000E+00 -0.00000000000E+00 -0.76032174347E+02  0.76032174347E+02  0.00000000000E+00 0.  1.
         23    2    1    2    0    0 -0.69623287139E+02 -0.17048954367E+02  0.24315216916E+02  0.11534305023E+03  0.87032870259E+02 0.  0.
         24    2    1    2    0    0  0.88136189301E+02  0.36748021627E+01  0.11149816529E+03  0.16378680263E+03  0.81319024942E+02 0.  0.
        -11    1    4    4    0    0  0.14142443803E+02 -0.17337972246E+02 -0.61685734396E+01  0.23209164066E+02  0.00000000000E+00 0.  1.
         12    1    4    4    0    0  0.73993745497E+02  0.21012774409E+02  0.11766673873E+03  0.14057763857E+03  0.00000000000E+00 0. -1.
        -11    1    3    3    0    0 -0.80366166676E+02  0.12392830900E+02  0.15426586046E+02  0.82766433782E+02  0.00000000000E+00 0.  1.
         11    1    3    3    0    0  0.10742879537E+02 -0.29441785266E+02  0.88886308694E+01  0.32576616447E+02  0.00000000000E+00 0. -1.
         21    1    1    2  502  501 -0.18512902162E+02  0.13374152204E+02  0.25438747620E+02  0.34186625661E+02  0.00000000000E+00 0.  1.
<scales pt_clust_5="13000.00000" pt_clust_6="13000.00000" pt_clust_7="13000.00000" pt_clust_8="13000.00000" pt_clust_9="22.83847"></scales>
<clustering>
<clus scale="   22.838">  1  9  2 -1</clus>
<clus scale="   81.319">  5  6 -1 -1</clus>
<clus scale="   87.033">  7  8 -1 -1</clus>
<clus scale="  111.911">  1  5  2 -1</clus>
<clus scale="   22.838">  1  5  2 -1</clus>
</clustering>
</event>
<event>
 9    2  0.3791909E-005  0.1045259E+03  0.7546771E-02  0.1271695E+00
          2   -1    0    0  502    0  0.00000000000E+00  0.00000000000E+00  0.76244023318E+03  0.76244023318E+03  0.00000000000E+00 0. -1.
         -1   -1    0    0    0  501 -0.00000000000E+00 -0.00000000000E+00 -0.50995616234E+02  0.50995616234E+02  0.00000000000E+00 0.  1.
         24    2    1    2    0    0  0.27964373554E+02  0.26906830713E+02  0.16163032121E+02  0.10391379946E+03  0.95030786508E+02 0.  0.
         23    2    1    2    0    0 -0.53556238852E+02 -0.24980898708E+02  0.61252780187E+03  0.62288001986E+03  0.96420407927E+02 0.  0.
        -13    1    3    3    0    0 -0.98371954140E+01  0.51105648092E+02 -0.84487340279E+01  0.52725124819E+02  0.00000000000E+00 0.  1.
         14    1    3    3    0    0  0.37801568968E+02 -0.24198817378E+02  0.24611766149E+02  0.51188674645E+02  0.00000000000E+00 0. -1.
        -11    1    4    4    0    0  0.48775168201E+00  0.33464748308E+02  0.17626560503E+03  0.17941485668E+03  0.00000000000E+00 0.  1.
         11    1    4    4    0    0 -0.54043990534E+02 -0.58445647016E+02  0.43626219684E+03  0.44346516319E+03  0.00000000000E+00 0. -1.
         21    1    1    2  502  501  0.25591865298E+02 -0.19259320050E+01  0.82753782958E+02  0.86642030086E+02  0.00000000000E+00 0. -1.
<scales pt_clust_5="13000.00000" pt_clust_6="13000.00000" pt_clust_7="13000.00000" pt_clust_8="13000.00000" pt_clust_9="25.66423"></scales>
<clustering>
<clus scale="   25.664">  1  9  2 -1</clus>
<clus scale="   95.031">  5  6 -1 -1</clus>
<clus scale="   96.420">  7  8 -1 -1</clus>
<clus scale="  103.245">  2  5  1 -1</clus>
<clus scale="   25.664">  1  5  2 -1</clus>
</clustering>
</event>
<event>
 9    2  0.3791909E-005  0.1008152E+03  0.7546771E-02  0.1283835E+00
         -1   -1    0    0    0  501 -0.00000000000E+00  0.00000000000E+00  0.14004715309E+03  0.14004715309E+03  0.00000000000E+00 0.  1.
          2   -1    0    0  502    0  0.00000000000E+00 -0.00000000000E+00 -0.12466582182E+03  0.12466582182E+03  0.00000000000E+00 0. -1.
         23    2    1    2    0    0  0.50704170518E+02 -0.10155372654E+02  0.72192591795E+02  0.12765717732E+03  0.91708996887E+02 0.  0.
         24    2    1    2    0    0 -0.24181642795E+02 -0.10810614878E+02 -0.21085343858E+02  0.87868825407E+02  0.81084631777E+02 0.  0.
        -13    1    4    4    0    0 -0.18921438296E+02 -0.21237486141E+02  0.26497500565E+02  0.38873759542E+02  0.00000000000E+00 0.  1.
         14    1    4    4    0    0 -0.52602044986E+01  0.10426871262E+02 -0.47582844423E+02  0.48995065864E+02  0.00000000000E+00 0. -1.
        -11    1    3    3    0    0 -0.11000603853E+02  0.17082157594E+02 -0.88988925696E+01  0.22181156015E+02  0.00000000000E+00 0. -1.
         11    1    3    3    0    0  0.61704774371E+02 -0.27237530248E+02  0.81091484365E+02  0.10547602131E+03  0.00000000000E+00 0.  1.
         21    1    1    2  502  501 -0.26522527724E+02  0.20965987532E+02 -0.35725916669E+02  0.49186972176E+02  0.00000000000E+00 0.  1.
<scales pt_clust_5="13000.00000" pt_clust_6="13000.00000" pt_clust_7="13000.00000" pt_clust_8="13000.00000" pt_clust_9="33.80854"></scales>
<clustering>
<clus scale="   33.809">  2  9  1 -1</clus>
<clus scale="   81.085">  5  6 -1 -1</clus>
<clus scale="   91.257">  2  5  1 -1</clus>
<clus scale="   91.709">  7  8 -1 -1</clus>
<clus scale="   33.809">  2  5  1 -1</clus>
</clustering>
</event>
<event>
 9    2  0.3791909E-005  0.1211149E+03  0.7546771E-02  0.1249128E+00
          2   -1    0    0  502    0  0.00000000000E+00  0.00000000000E+00  0.66468763560E+03  0.66468763560E+03  0.00000000000E+00 0. -1.
         -1   -1    0    0    0  501 -0.00000000000E+00 -0.00000000000E+00 -0.42788980615E+02  0.42788980615E+02  0.00000000000E+00 0.  1.
         24    2    1    2    0    0 -0.26881097220E+02 -0.70475698877E+02  0.45772170838E+02  0.11478266574E+03  0.73420373264E+02 0.  0.
         23    2    1    2    0    0  0.38866225400E+01  0.59246492311E+02  0.47248857038E+03  0.48594350263E+03  0.96800753730E+02 0.  0.
        -11    1    3    3    0    0 -0.94624410131E+01 -0.46750440535E+02 -0.12665482797E+02  0.49351351902E+02  0.00000000000E+00 0.  1.
         12    1    3    3    0    0 -0.17418656207E+02 -0.23725258342E+02  0.58437653636E+02  0.65431313833E+02  0.00000000000E+00 0. -1.
        -13    1    4    4    0    0 -0.44233663008E+02  0.41554978573E+02  0.21508837121E+03  0.22348700324E+03  0.00000000000E+00 0.  1.
         13    1    4    4    0    0  0.48120285548E+02  0.17691513738E+02  0.25740019917E+03  0.26245649939E+03  0.00000000000E+00 0. -1.
         21    1    1    2  502  501  0.22994474680E+02  0.11229206566E+02  0.10363791376E+03  0.10675044785E+03  0.00000000000E+00 0. -1.
<scales pt_clust_5="13000.00000" pt_clust_6="13000.00000" pt_clust_7="13000.00000" pt_clust_8="13000.00000" pt_clust_9="25.58986"></scales>
<clustering>
<clus scale="   25.590">  1  9  2 -1</clus>
<clus scale="   73.420">  5  6 -1 -1</clus>
<clus scale="   96.801">  7  8 -1 -1</clus>
<clus scale="  103.387">  2  5  1 -1</clus>
<clus scale="   25.590">  1  5  2 -1</clus>
</clustering>
</event>
<event>
 9    2  0.3791909E-005  0.1022944E+03  0.7546771E-02  0.1280510E+00
          4   -1    0    0  502    0  0.00000000000E+00  0.00000000000E+00  0.13385951661E+03  0.13385951661E+03  0.00000000000E+00 0. -1.
         -3   -1    0    0    0  501 -0.00000000000E+00 -0.00000000000E+00 -0.25818138661E+03  0.25818138661E+03  0.00000000000E+00 0.  1.
         23    2    1    2    0    0 -0.47180699756E+02  0.99135218843E+01 -0.20950483269E+03  0.23341547753E+03  0.90918721312E+02 0.  0.
         24    2    1    2    0    0  0.42734106824E+02  0.11599048531E+02  0.25810558520E+02  0.95319460325E+02  0.80367112507E+02 0.  0.
        -11    1    4    4    0    0  0.13689113538E+02 -0.17489854737E+02 -0.22684011925E+02  0.31746672978E+02  0.00000000000E+00 0.  1.
         12    1    4    4    0    0  0.29044993286E+02  0.29088903268E+02  0.48494570445E+02  0.63572787347E+02  0.00000000000E+00 0. -1.
        -13    1    3    3    0    0 -0.59098490451E+01  0.46444315849E+02 -0.11236424399E+03  0.12172807448E+03  0.00000000000E+00 0.  1.
         13    1    3    3    0    0 -0.41270850711E+02 -0.36530793965E+02 -0.97140588700E+02  0.11168740305E+03  0.00000000000E+00 0. -1.
         21    1    1    2  502  501  0.44465929325E+01 -0.21512570416E+02  0.59372404162E+02  0.63305965363E+02  0.00000000000E+00 0.  1.
<scales pt_clust_5="13000.00000" pt_clust_6="13000.00000" pt_clust_7="13000.00000" pt_clust_8="13000.00000" pt_clust_9="21.96731"></scales>
<clustering>
<clus scale="   21.967">  1  9  2 -1</clus>
<clus scale="   80.367">  5  6 -1 -1</clus>
<clus scale="   90.919">  7  8 -1 -1</clus>
<clus scale="   93.042">  1  5  2 -1</clus>
<clus scale="   21.967">  1  5  2 -1</clus>
</clustering>
</event>
<event>
 9    2  0.3791909E-005  0.1470696E+03  0.7546771E-02  0.1206132E+00
          4   -1    0    0  502    0  0.00000000000E+00  0.00000000000E+00  0.59936777247E+02  0.59936777247E+02  0.00000000000E+00 0. -1.
         -3   -1    0    0    0  501 -0.00000000000E+00 -0.00000000000E+00 -0.59405201262E+03  0.59405201262E+03  0.00000000000E+00 0.  1.
         24    2    1    2    0    0 -0.90953202806E+02  0.65005513708E+02 -0.41347399053E+03  0.43593187587E+03  0.81102759747E+02 0.  0.
         23    2    1    2    0    0  0.11308567965E+03 -0.59832586401E+02 -0.11437776930E+03  0.19448072189E+03  0.91499550489E+02 0.  0.
        -13    1    3    3    0    0 -0.66431872191E+02  0.82472722239E+02 -0.35017290229E+03  0.36583603576E+03  0.00000000000E+00 0.  1.
         14    1    3    3    0    0 -0.24521330615E+02 -0.17467208531E+02 -0.63301088235E+02  0.70095840110E+02  0.00000000000E+00 0. -1.
        -13    1    4    4    0    0 -0.35539927426E+01 -0.33222700783E+02 -0.45445327039E+02  0.56406173965E+02  0.00000000000E+00 0.  1.
         13    1    4    4    0    0  0.11663967240E+03 -0.26609885618E+02 -0.68932442261E+02  0.13807454793E+03  0.00000000000E+00 0. -1.
         21    1    1    2  502  501 -0.22132476847E+02 -0.51729273074E+01 -0.62634755412E+01  0.23576192105E+02  0.00000000000E+00 0. -1.
<scales pt_clust_5="13000.00000" pt_clust_6="13000.00000" pt_clust_7="13000.00000" pt_clust_8="13000.00000" pt_clust_9="22.72896"></scales>
<clustering>
<clus scale="   22.729">  1  9  2 -1</clus>
<clus scale="   81.103">  5  6 -1 -1</clus>
<clus scale="   91.500">  7  8 -1 -1</clus>
<clus scale="  140.837">  2  5  1 -1</clus>
<clus scale="   22.729">  1  5  2 -1</clus>
</clustering>
</event>
<event>
 9    2  0.3791909E-005  0.1430653E+03  0.7546771E-02  0.1211227E+00
         -1   -1    0    0    0  501 -0.00000000000E+00  0.00000000000E+00  0.36049258314E+03  0.36049258314E+03  0.00000000000E+00 0.  1.
          2   -1    0    0  502    0  0.00000000000E+00 -0.00000000000E+00 -0.20540990503E+03  0.20540990503E+03  0.00000000000E+00 0. -1.
         24    2    1    2    0    0  0.99120700098E+02 -0.52924429551E+02  0.29332032089E+03  0.32477993173E+03  0.82578962088E+02 0.  0.
         23    2    1    2    0    0 -0.91091020678E+02  0.28053732456E+02 -0.38413677540E+02  0.13793412994E+03  0.92008845381E+02 0.  0.
        -11    1    3    3    0    0  0.93952850282E+02 -0.11746746290E+02  0.23356150844E+03  0.25202401146E+03  0.00000000000E+00 0.  1.
         12    1    3    3    0    0  0.51678498156E+01 -0.41177683260E+02  0.59758812444E+02  0.72755920276E+02  0.00000000000E+00 0. -1.
        -11    1    4    4    0    0 -0.20200299228E+02  0.27734986427E+01 -0.56892064693E+02  0.60435514465E+02  0.00000000000E+00 0. -1.
         11    1    4    4    0    0 -0.70890721450E+02  0.25280233814E+02  0.18478387153E+02  0.77498615479E+02  0.00000000000E+00 0.  1.
         21    1    1    2  502  501 -0.80296794196E+01  0.24870697095E+02 -0.99823965240E+02  0.10318842649E+03  0.00000000000E+00 0. -1.
<scales pt_clust_5="13000.00000" pt_clust_6="13000.00000" pt_clust_7="13000.00000" pt_clust_8="13000.00000" pt_clust_9="26.13479"></scales>
<clustering>
<clus scale="   26.135">  2  9  1 -1</clus>
<clus scale="   82.579">  5  6 -1 -1</clus>
<clus scale="   92.009">  7  8 -1 -1</clus>
<clus scale="  137.191">  1  5  2 -1</clus>
<clus scale="   26.135">  2  5  1 -1</clus>
</clustering>
</event>
<event>
 9    2  0.3791909E-005  0.1060497E+03  0.7546771E-02  0.1278225E+00
         -1   -1    0    0    0  501 -0.00000000000E+00  0.00000000000E+00  0.19842128455E+03  0.19842128455E+03  0.00000000000E+00 0.  1.
          2   -1    0    0  502    0  0.00000000000E+00 -0.00000000000E+00 -0.79375676398E+02  0.79375676398E+02  0.00000000000E+00 0. -1.
         23    2    1    2    0    0 -0.24937806836E+02  0.33435765511E+02  0.12920486305E+03  0.16882643896E+03  0.10034253949E+03 0.  0.
         24    2    1    2    0    0  0.40847141612E+01 -0.19642146133E+02 -0.20240745416E+01  0.82678002735E+02  0.80181397244E+02 0.  0.
        -13    1    4    4    0    0 -0.23812473628E+02 -0.29896386869E+02  0.22318307847E+02  0.44259854420E+02  0.00000000000E+00 0.  1.
         14    1    4    4    0    0  0.27897187790E+02  0.10254240735E+02 -0.24342382388E+02  0.38418148315E+02  0.00000000000E+00 0. -1.
        -13    1    3    3    0    0  0.12215851681E+02  0.61028177905E+02  0.69704813849E+02  0.93447453708E+02  0.00000000000E+00 0. -1.
         13    1    3    3    0    0 -0.37153658517E+02 -0.27592412394E+02  0.59500049199E+02  0.75378985251E+02  0.00000000000E+00 0.  1.
         21    1    1    2  502  501  0.20853092675E+02 -0.13793619378E+02 -0.81351803507E+01  0.26292519259E+02  0.00000000000E+00 0. -1.
<scales pt_clust_5="13000.00000" pt_clust_6="13000.00000" pt_clust_7="13000.00000" pt_clust_8="13000.00000" pt_clust_9="25.00231"></scales>
<clustering>
<clus scale="   25.002">  2  9  1 -1</clus>
<clus scale="   80.181">  5  6 -1 -1</clus>
<clus scale="   87.218">  2  5  1 -1</clus>
<clus scale="  100.343">  7  8 -1 -1</clus>
<clus scale="   25.002">  2  5  1 -1</clus>
</clustering>
</event>
<event>
 9    2  0.3791909E-005  0.4727003E+03  0.7546771E-02  0.1021424E+00
          2   -1    0    0  502    0  0.00000000000E+00  0.00000000000E+00  0.11011374122E+04  0.11011374122E+04  0.00000000000E+00 0. -1.
         -1   -1    0    0    0  501 -0.00000000000E+00 -0.00000000000E+00 -0.52832387487E+03  0.52832387487E+03  0.00000000000E+00 0.  1.
         24    2    1    2    0    0 -0.52170900375E+02  0.47477296600E+03 -0.33974424547E+03  0.59010238155E+03  0.68289796371E+02 0.  0.
         23    2    1    2    0    0  0.50141335095E+02 -0.36985724818E+03  0.78711582894E+03  0.87581346605E+03  0.90495091680E+02 0.  0.
        -13    1    3    3    0    0 -0.14274172019E+02  0.33448655311E+03 -0.26318260864E+03  0.42585219465E+03  0.00000000000E+00 0.  1.
         14    1    3    3    0    0 -0.37896728356E+02  0.14028641290E+03 -0.76561636830E+02  0.16425018690E+03  0.00000000000E+00 0. -1.
        -11    1    4    4    0    0  0.64025818640E+02 -0.14972246039E+03  0.35956709515E+03  0.39472093498E+03  0.00000000000E+00 0.  1.
         11    1    4    4    0    0 -0.13884483545E+02 -0.22013478778E+03  0.42754873380E+03  0.48109253106E+03  0.00000000000E+00 0. -1.
         21    1    1    2  502  501  0.20295652798E+01 -0.10491571783E+03  0.12544195382E+03  0.16354543944E+03  0.00000000000E+00 0. -1.
<scales pt_clust_5="13000.00000" pt_clust_6="13000.00000" pt_clust_7="13000.00000" pt_clust_8="13000.00000" pt_clust_9="104.93535"></scales>
<clustering>
<clus scale="   68.290">  5  6 -1 -1</clus>
<clus scale="   90.495">  7  8 -1 -1</clus>
<clus scale="  104.935">  1  9  2 -1</clus>
<clus scale="  468.956">  2  5  1 -1</clus>
<clus scale="  104.935">  1  5  2 -1</clus>
</clustering>
</event>
<event>
 9    2  0.3791909E-005  0.2177436E+03  0.7546771E-02  0.1136666E+00
         -1   -1    0    0    0  501 -0.00000000000E+00  0.00000000000E+00  0.15976866709E+04  0.15976866709E+04  0.00000000000E+00 0.  1.
          2   -1    0    0  502    0  0.00000000000E+00 -0.00000000000E+00 -0.11316765813E+03  0.11316765813E+03  0.00000000000E+00 0. -1.
         23    2    1    2    0    0 -0.18758926329E+03 -0.97406014519E+02  0.96411897840E+03  0.99127364741E+03  0.91762607733E+02 0.  0.
         24    2    1    2    0    0  0.17200869452E+03  0.60140695197E+02  0.59919118507E+03  0.63103971037E+03  0.77312001575E+02 0.  0.
        -13    1    4    4    0    0  0.10871797731E+03  0.33316457388E+02  0.48149977665E+03  0.49474399424E+03  0.00000000000E+00 0.  1.
         14    1    4    4    0    0  0.63290717212E+02  0.26824237810E+02  0.11769140842E+03  0.13629571613E+03  0.00000000000E+00 0. -1.
        -13    1    3    3    0    0 -0.17057801411E+03 -0.46606643005E+02  0.73340545325E+03  0.75442202840E+03  0.00000000000E+00 0. -1.
         13    1    3    3    0    0 -0.17011249186E+02 -0.50799371515E+02  0.23071352515E+03  0.23685161902E+03  0.00000000000E+00 0.  1.
         21    1    1    2  502  501  0.15580568768E+02  0.37265319322E+02 -0.78791150736E+02  0.88540971203E+02  0.00000000000E+00 0. -1.
<scales pt_clust_5="13000.00000" pt_clust_6="13000.00000" pt_clust_7="13000.00000" pt_clust_8="13000.00000" pt_clust_9="40.39131"></scales>
<clustering>
<clus scale="   40.391">  2  9  1 -1</clus>
<clus scale="   77.312">  5  6 -1 -1</clus>
<clus scale="   91.763">  7  8 -1 -1</clus>
<clus scale="  212.059">  2  5  1 -1</clus>
<clus scale="   40.391">  2  5  1 -1</clus>
</clustering>
</event>
<event>
 9    2  0.3791909E-005  0.9875376E+02  0.7546771E-02  0.1287939E+00
         -1   -1    0    0    0  501 -0.00000000000E+00  0.00000000000E+00  0.12276117565E+03  0.12276117565E+03  0.00000000000E+00 0.  1.
          2   -1    0    0  502    0  0.00000000000E+00 -0.00000000000E+00 -0.12347693351E+03  0.12347693351E+03  0.00000000000E+00 0. -1.
         24    2    1    2    0    0 -0.22585991121E+02  0.46772746371E+02  0.22188915940E+02  0.98188153535E+02  0.80316553125E+02 0.  0.
         23    2    1    2    0    0  0.36790158575E+02 -0.45062306889E+01  0.95017110050E+00  0.97480495013E+02  0.90153880670E+02 0.  0.
        -11    1    3    3    0    0 -0.26961089644E+01  0.53355528220E+02  0.43059126218E+02  0.68616104128E+02  0.00000000000E+00 0.  1.
         12    1    3    3    0    0 -0.19889882157E+02 -0.65827818485E+01 -0.20870210277E+02  0.29572049406E+02  0.00000000000E+00 0. -1.
        -13    1    4    4    0    0  0.15907324496E+02  0.42288320818E+02 -0.66812213193E+01  0.45672571293E+02  0.00000000000E+00 0.  1.
         13    1    4    4    0    0  0.20882834079E+02 -0.46794551507E+02  0.76313924198E+01  0.51807923720E+02  0.00000000000E+00 0. -1.
         21    1    1    2  502  501 -0.14204167454E+02 -0.42266515682E+02 -0.23854844909E+02  0.50569460612E+02  0.00000000000E+00 0. -1.
<scales pt_clust_5="13000.00000" pt_clust_6="13000.00000" pt_clust_7="13000.00000" pt_clust_8="13000.00000" pt_clust_9="44.58942"></scales>
<clustering>
<clus scale="   44.589">  2  9  1 -1</clus>
<clus scale="   80.317">  5  6 -1 -1</clus>
<clus scale="   89.863">  1  5  2 -1</clus>
<clus scale="   90.154">  7  8 -1 -1</clus>
<clus scale="   44.589">  2  5  1 -1</clus>
</clustering>
</event>
<event>
 9    2  0.3791909E-005  0.1682558E+03  0.7546771E-02  0.1208548E+00
          2   -1    0    0  502    0  0.00000000000E+00  0.00000000000E+00  0.46142861203E+03  0.46142861203E+03  0.00000000000E+00 0. -1.
         -1   -1    0    0    0  501 -0.00000000000E+00 -0.00000000000E+00 -0.26203373394E+03  0.26203373394E+03  0.00000000000E+00 0.  1.
         23    2    1    2    0    0  0.14176302606E+03 -0.20538990308E+01 -0.20018418306E+03  0.26193303105E+03  0.91838072449E+02 0.  0.
         24    2    1    2    0    0 -0.86606767234E+01 -0.44829432103E+02  0.17053789496E+03  0.19250489605E+03  0.76748134069E+02 0.  0.
        -13    1    4    4    0    0  0.33706202784E+01  0.21398771631E+02  0.48923762159E+02  0.53505168088E+02  0.00000000000E+00 0.  1.
         14    1    4    4    0    0 -0.12031297002E+02 -0.66228203734E+02  0.12161413280E+03  0.13899972796E+03  0.00000000000E+00 0. -1.
        -11    1    3    3    0    0  0.45763715632E+02 -0.63076900376E+01 -0.14262403643E+03  0.14991904612E+03  0.00000000000E+00 0.  1.
         11    1    3    3    0    0  0.95999310430E+02  0.42537910068E+01 -0.57560146628E+02  0.11201398493E+03  0.00000000000E+00 0. -1.
         21    1    1    2  502  501 -0.13310234934E+03  0.46883331134E+02  0.22904116619E+03  0.26902441887E+03  0.00000000000E+00 0. -1.
<scales pt_clust_5="13000.00000" pt_clust_6="13000.00000" pt_clust_7="13000.00000" pt_clust_8="13000.00000" pt_clust_9="140.98156"></scales>
<clustering>
<clus scale="   76.748">  5  6 -1 -1</clus>
<clus scale="   89.303">  1  5  2 -1</clus>
<clus scale="   91.838">  7  8 -1 -1</clus>
<clus scale="  140.982">  1  9  2 -1</clus>
<clus scale="   89.303">  1  5  2 -1</clus>
</clustering>
</event>
<event>
 9    2  0.3791909E-005  0.1550351E+03  0.7546771E-02  0.1196107E+00
         -1   -1    0    0    0  501 -0.00000000000E+00  0.00000000000E+00  0.12159512051E+03  0.12159512051E+03  0.00000000000E+00 0.  1.
          2   -1    0    0  502    0  0.00000000000E+00 -0.00000000000E+00 -0.34084877943E+03  0.34084877943E+03  0.00000000000E+00 0. -1.
         24    2    1    2    0    0  0.13018360350E+03 -0.51856252975E+02 -0.40388128762E+02  0.16645873920E+03  0.80252534662E+02 0.  0.
         23    2    1    2    0    0 -0.12379868597E+03 -0.23525810819E+02 -0.14783818948E+03  0.21421769420E+03  0.90296798477E+02 0.  0.
        -13    1    3    3    0    0  0.37546725009E+02 -0.56339642613E+02 -0.26376107277E+02  0.72660931206E+02  0.00000000000E+00 0.  1.
         14    1    3    3    0    0  0.92636878487E+02  0.44833896386E+01 -0.14012021485E+02  0.93797807994E+02  0.00000000000E+00 0. -1.
        -13    1    4    4    0    0 -0.10004729312E+03  0.20796482536E+02 -0.11650699949E+03  0.15497043420E+03  0.00000000000E+00 0. -1.
         13    1    4    4    0    0 -0.23751392848E+02 -0.44322293355E+02 -0.31331189995E+02  0.59247259995E+02  0.00000000000E+00 0.  1.
         21    1    1    2  502  501 -0.63849175238E+01  0.75382063794E+02 -0.31027340673E+02  0.81767466530E+02  0.00000000000E+00 0. -1.
<scales pt_clust_5="13000.00000" pt_clust_6="13000.00000" pt_clust_7="13000.00000" pt_clust_8="13000.00000" pt_clust_9="75.65198"></scales>
<clustering>
<clus scale="   75.652">  1  9  2 -1</clus>
<clus scale="   80.253">  5  6 -1 -1</clus>
<clus scale="   90.297">  7  8 -1 -1</clus>
<clus scale="  149.408">  1  5  2 -1</clus>
<clus scale="  155.035">  2  5  1 -1</clus>
</clustering>
</event>
<event>
 9    2  0.3791909E-005  0.9365673E+02  0.7546771E-02  0.1301391E+00
          2   -1    0    0  502    0  0.00000000000E+00  0.00000000000E+00  0.42876446381E+03  0.42876446381E+03  0.00000000000E+00 0. -1.
         -1   -1    0    0    0  501 -0.00000000000E+00 -0.00000000000E+00 -0.57598408483E+02  0.57598408483E+02  0.00000000000E+00 0.  1.
         23    2    1    2    0    0 -0.46973184828E+01  0.74841114700E+01 -0.24868071389E+01  0.93998014268E+02  0.93548734631E+02 0.  0.
         24    2    1    2    0    0 -0.46809221177E+01  0.14968903363E+02  0.19534103969E+03  0.21240042984E+03  0.81913623457E+02 0.  0.
        -13    1    4    4    0    0 -0.42243381791E+02  0.14718510447E+02  0.88796778917E+02  0.99428395345E+02  0.00000000000E+00 0.  1.
         14    1    4    4    0    0  0.37562459674E+02  0.25039291598E+00  0.10654426078E+03  0.11297203449E+03  0.00000000000E+00 0. -1.
        -11    1    3    3    0    0 -0.42289800783E+02  0.18545312543E+02 -0.20917343216E+02  0.50694093490E+02  0.00000000000E+00 0.  1.
         11    1    3    3    0    0  0.37592482300E+02 -0.11061201073E+02  0.18430536077E+02  0.43303920778E+02  0.00000000000E+00 0. -1.
         21    1    1    2  502  501  0.93782406005E+01 -0.22453014833E+02  0.17831182277E+03  0.17996442819E+03  0.00000000000E+00 0. -1.
<scales pt_clust_5="13000.00000" pt_clust_6="13000.00000" pt_clust_7="13000.00000" pt_clust_8="13000.00000" pt_clust_9="24.33288"></scales>
<clustering>
<clus scale="   24.333">  1  9  2 -1</clus>
<clus scale="   81.914">  5  6 -1 -1</clus>
<clus scale="   82.037">  1  5  2 -1</clus>
<clus scale="   93.549">  7  8 -1 -1</clus>
<clus scale="   24.333">  1  5  2 -1</clus>
</clustering>
</event>
<event>
 9    2  0.3791909E-005  0.9708452E+02  0.7546771E-02  0.1293783E+00
         -1   -1    0    0    0  501 -0.00000000000E+00  0.00000000000E+00  0.16450933522E+03  0.16450933522E+03  0.00000000000E+00 0.  1.
          2   -1    0    0  502    0  0.00000000000E+00 -0.00000000000E+00 -0.14758830165E+03  0.14758830165E+03  0.00000000000E+00 0. -1.
         23    2    1    2    0    0 -0.71988893693E+01 -0.32330885225E+02  0.12007661903E+03  0.15517649588E+03  0.92543180664E+02 0.  0.
         24    2    1    2    0    0 -0.70774591543E+01  0.65774758427E+01 -0.98713584372E+02  0.12714222906E+03  0.79545088184E+02 0.  0.
        -11    1    4    4    0    0 -0.20379654661E+02  0.17626030560E+02 -0.19308428877E-01  0.26944529134E+02  0.00000000000E+00 0.  1.
         12    1    4    4    0    0  0.13302195507E+02 -0.11048554718E+02 -0.98694275943E+02  0.10019769993E+03  0.00000000000E+00 0. -1.
        -11    1    3    3    0    0  0.25149746232E+02 -0.40541790193E+02  0.23873559924E+02  0.53348789593E+02  0.00000000000E+00 0.  1.
         11    1    3    3    0    0 -0.32348635601E+02  0.82109049678E+01  0.96203059110E+02  0.10182770629E+03  0.00000000000E+00 0. -1.
         21    1    1    2  502  501  0.14276348524E+02  0.25753409383E+02 -0.44420010895E+01  0.29778911929E+02  0.00000000000E+00 0.  1.
<scales pt_clust_5="13000.00000" pt_clust_6="13000.00000" pt_clust_7="13000.00000" pt_clust_8="13000.00000" pt_clust_9="29.44575"></scales>
<clustering>
<clus scale="   29.446">  2  9  1 -1</clus>
<clus scale="   79.545">  5  6 -1 -1</clus>
<clus scale="   84.786">  2  5  1 -1</clus>
<clus scale="   92.543">  7  8 -1 -1</clus>
<clus scale="   29.446">  2  5  1 -1</clus>
</clustering>
</event>
<event>
 9    2  0.3791909E-005  0.9780270E+02  0.7546771E-02  0.1290798E+00
          4   -1    0    0  502    0  0.00000000000E+00  0.00000000000E+00  0.22404769928E+03  0.22404769928E+03  0.00000000000E+00 0. -1.
         -3   -1    0    0    0  501 -0.00000000000E+00 -0.00000000000E+00 -0.19370203306E+03  0.19370203306E+03  0.00000000000E+00 0.  1.
         24    2    1    2    0    0  0.31373980117E+02  0.62428406215E+01 -0.16092415596E+03  0.18297215506E+03  0.80987195721E+02 0.  0.
         23    2    1    2    0    0 -0.55207987354E+02 -0.19195298753E+02  0.14854796026E+03  0.18417141601E+03  0.91848966320E+02 0.  0.
        -13    1    3    3    0    0  0.29579257425E+02  0.29145259981E+02 -0.15321175099E+03  0.15873946985E+03  0.00000000000E+00 0.  1.
         14    1    3    3    0    0  0.17947226921E+01 -0.22902419359E+02 -0.77124049710E+01  0.24232685210E+02  0.00000000000E+00 0. -1.
        -11    1    4    4    0    0  0.25077747452E+02 -0.39512299027E+00  0.47809936598E+02  0.53989254273E+02  0.00000000000E+00 0. -1.
         11    1    4    4    0    0 -0.80285734806E+02 -0.18800175762E+02  0.10073802367E+03  0.13018216174E+03  0.00000000000E+00 0.  1.
         21    1    1    2  502  501  0.23834007237E+02  0.12952458131E+02  0.42721861911E+02  0.50606161263E+02  0.00000000000E+00 0.  1.
<scales pt_clust_5="13000.00000" pt_clust_6="13000.00000" pt_clust_7="13000.00000" pt_clust_8="13000.00000" pt_clust_9="27.12611"></scales>
<clustering>
<clus scale="   27.126">  1  9  2 -1</clus>
<clus scale="   80.987">  5  6 -1 -1</clus>
<clus scale="   87.682">  2  5  1 -1</clus>
<clus scale="   91.849">  7  8 -1 -1</clus>
<clus scale="   27.126">  1  5  2 -1</clus>
</clustering>
</event>
<event>
 9    2  0.3791909E-005  0.1064637E+03  0.7546771E-02  0.1267581E+00
          2   -1    0    0  502    0  0.00000000000E+00  0.00000000000E+00  0.23686675286E+03  0.23686675286E+03  0.00000000000E+00 0. -1.
         -1   -1    0    0    0  501 -0.00000000000E+00 -0.00000000000E+00 -0.11020125088E+03  0.11020125088E+03  0.00000000000E+00 0.  1.
         23    2    1    2    0    0 -0.10428921488E+02  0.61324924590E+02 -0.43565060881E+02  0.11263923635E+03  0.83187584752E+02 0.  0.
         24    2    1    2    0    0  0.54949888642E+00 -0.80305449781E+02  0.76150025076E+02  0.13794555166E+03  0.82346109145E+02 0.  0.
        -13    1    4    4    0    0  0.18540931331E+02  0.11263168369E+02  0.13687418742E+02  0.25650936204E+02  0.00000000000E+00 0.  1.
         14    1    4    4    0    0 -0.17991432444E+02 -0.91568618150E+02  0.62462606334E+02  0.11229461546E+03  0.00000000000E+00 0. -1.
        -13    1    3    3    0    0  0.85127078776E+01  0.77351230038E+02 -0.25293602925E+02  0.81825700930E+02  0.00000000000E+00 0.  1.
         13    1    3    3    0    0 -0.18941629366E+02 -0.16026305447E+02 -0.18271457956E+02  0.30813535421E+02  0.00000000000E+00 0. -1.
         21    1    1    2  502  501  0.98794226018E+01  0.18980525191E+02  0.94080537787E+02  0.96483215731E+02  0.00000000000E+00 0. -1.
<scales pt_clust_5="13000.00000" pt_clust_6="13000.00000" pt_clust_7="13000.00000" pt_clust_8="13000.00000" pt_clust_9="21.39774"></scales>
<clustering>
<clus scale="   21.398">  1  9  2 -1</clus>
<clus scale="   82.346">  5  6 -1 -1</clus>
<clus scale="   83.188">  7  8 -1 -1</clus>
<clus scale="  105.808">  1  5  2 -1</clus>
<clus scale="   21.398">  1  5  2 -1</clus>
</clustering>
</event>
<event>
 9    2  0.3791909E-005  0.1505409E+03  0.7546771E-02  0.1201663E+00
         -1   -1    0    0    0  501 -0.00000000000E+00  0.00000000000E+00  0.19310404439E+02  0.19310404439E+02  0.00000000000E+00 0.  1.
          2   -1    0    0  502    0  0.00000000000E+00 -0.00000000000E+00 -0.13768392794E+04  0.13768392794E+04  0.00000000000E+00 0. -1.
         23    2    1    2    0    0 -0.41068276209E+02  0.10182821906E+03 -0.53087895268E+03  0.54975819424E+03  0.91356555482E+02 0.  0.
         24    2    1    2    0    0  0.58588962096E+02 -0.11824872233E+03 -0.65553429810E+03  0.67359923225E+03  0.81211347015E+02 0.  0.
        -11    1    4    4    0    0  0.54059695616E+02 -0.21694918761E+02 -0.23882000091E+03  0.24582130304E+03  0.00000000000E+00 0.  1.
         12    1    4    4    0    0  0.45292664794E+01 -0.96553803574E+02 -0.41671429719E+03  0.42777792921E+03  0.00000000000E+00 0. -1.
        -11    1    3    3    0    0 -0.51499158978E+02  0.31180223926E+02 -0.35269215854E+03  0.35779341587E+03  0.00000000000E+00 0. -1.
         11    1    3    3    0    0  0.10430882769E+02  0.70647995134E+02 -0.17818679413E+03  0.19196477837E+03  0.00000000000E+00 0.  1.
         21    1    1    2  502  501 -0.17520685886E+02  0.16420503274E+02 -0.17111562419E+03  0.17279225736E+03  0.00000000000E+00 0. -1.
<scales pt_clust_5="13000.00000" pt_clust_6="13000.00000" pt_clust_7="13000.00000" pt_clust_8="13000.00000" pt_clust_9="24.01265"></scales>
<clustering>
<clus scale="   24.013">  2  9  1 -1</clus>
<clus scale="   81.211">  5  6 -1 -1</clus>
<clus scale="   91.357">  7  8 -1 -1</clus>
<clus scale="  144.609">  2  5  1 -1</clus>
<clus scale="   24.013">  2  5  1 -1</clus>
</clustering>
</event>
<event>
 9    2  0.3791909E-005  0.9818851E+02  0.7546771E-02  0.1287387E+00
          2   -1    0    0  502    0  0.00000000000E+00  0.00000000000E+00  0.35250431130E+02  0.35250431130E+02  0.00000000000E+00 0. -1.
         -1   -1    0    0    0  501 -0.00000000000E+00 -0.00000000000E+00 -0.64386983891E+03  0.64386983891E+03  0.00000000000E+00 0.  1.
         24    2    1    2    0    0  0.38471393477E+02 -0.20814284864E+02 -0.50662312821E+03  0.51520117875E+03  0.82776675321E+02 0.  0.
         23    2    1    2    0    0 -0.29898824965E+02 -0.65012728185E+01 -0.55846427390E+02  0.10961036751E+03  0.89215485936E+02 0.  0.
        -11    1    3    3    0    0  0.47394296668E+02  0.12390230220E+02 -0.17272122830E+03  0.17953372905E+03  0.00000000000E+00 0.  1.
         12    1    3    3    0    0 -0.89229031918E+01 -0.33204515084E+02 -0.33390189992E+03  0.33566744971E+03  0.00000000000E+00 0. -1.
        -13    1    4    4    0    0  0.26447957469E+02 -0.96468857348E+01  0.27138335336E+01  0.28282887955E+02  0.00000000000E+00 0. -1.
         13    1    4    4    0    0 -0.56346782434E+02  0.31456129163E+01 -0.58560260924E+02  0.81327479555E+02  0.00000000000E+00 0.  1.
         21    1    1    2  502  501 -0.85725685114E+01  0.27315557683E+02 -0.46149852170E+02  0.54308723772E+02  0.00000000000E+00 0. -1.
<scales pt_clust_5="13000.00000" pt_clust_6="13000.00000" pt_clust_7="13000.00000" pt_clust_8="13000.00000" pt_clust_9="28.62916"></scales>
<clustering>
<clus scale="   28.629">  1  9  2 -1</clus>
<clus scale="   82.777">  5  6 -1 -1</clus>
<clus scale="   89.215">  7  8 -1 -1</clus>
<clus scale="   92.377">  2  5  1 -1</clus>
<clus scale="   28.629">  1  5  2 -1</clus>
</clustering>
</event>
<event>
 9    2  0.3791909E-005  0.9495010E+02  0.7546771E-02  0.1297709E+00
          2   -1    0    0  502    0  0.00000000000E+00  0.00000000000E+00  0.86905367799E+02  0.86905367799E+02  0.00000000000E+00 0. -1.
         -1   -1    0    0    0  501 -0.00000000000E+00 -0.00000000000E+00 -0.36213421990E+03  0.36213421990E+03  0.00000000000E+00 0.  1.
         24    2    1    2    0    0  0.60529480209E+02 -0.31597573128E+02 -0.27073522028E+03  0.29013502913E+03  0.78857789923E+02 0.  0.
         23    2    1    2    0    0 -0.25456894233E+02  0.26031713219E+01  0.33571284160E+02  0.99577503588E+02  0.90187682839E+02 0.  0.
        -11    1    3    3    0    0  0.32976787446E+02 -0.56492849614E+02 -0.14587750352E+03  0.15987231343E+03  0.00000000000E+00 0.  1.
         12    1    3    3    0    0  0.27552692762E+02  0.24895276486E+02 -0.12485771675E+03  0.13026271570E+03  0.00000000000E+00 0. -1.
        -13    1    4    4    0    0 -0.16262380948E+02  0.33994162227E+02  0.50290301220E+02  0.62842521404E+02  0.00000000000E+00 0. -1.
         13    1    4    4    0    0 -0.91945132848E+01 -0.31390990906E+02 -0.16719017060E+02  0.36734982184E+02  0.00000000000E+00 0.  1.
         21    1    1    2  502  501 -0.35072585976E+02  0.28994401806E+02 -0.38064915985E+02  0.59327054976E+02  0.00000000000E+00 0. -1.
<scales pt_clust_5="13000.00000" pt_clust_6="13000.00000" pt_clust_7="13000.00000" pt_clust_8="13000.00000" pt_clust_9="45.50562"></scales>
<clustering>
<clus scale="   45.506">  2  9  1 -1</clus>
<clus scale="   78.858">  5  6 -1 -1</clus>
<clus scale="   84.263">  2  5  1 -1</clus>
<clus scale="   90.188">  7  8 -1 -1</clus>
<clus scale="   94.950">  1  5  2 -1</clus>
</clustering>
</event>
<event>
 9    2  0.3791909E-005  0.9578532E+02  0.7546771E-02  0.1296351E+00
          2   -1    0    0  502    0  0.00000000000E+00  0.00000000000E+00  0.37263986651E+03  0.37263986651E+03  0.00000000000E+00 0. -1.
         -1   -1    0    0    0  501 -0.00000000000E+00 -0.00000000000E+00 -0.54483568613E+02  0.54483568613E+02  0.00000000000E+00 0.  1.
         24    2    1    2    0    0  0.81788908113E+01  0.29259272845E+02  0.13662278534E+02  0.86846167592E+02  0.80203489128E+02 0.  0.
         23    2    1    2    0    0  0.12181476055E+02 -0.15435325451E+02  0.11312416021E+03  0.14733150040E+03  0.92319324938E+02 0.  0.
        -11    1    3    3    0    0 -0.32772147050E+02  0.30371550726E+02  0.48608724662E+01  0.44945219956E+02  0.00000000000E+00 0.  1.
         12    1    3    3    0    0  0.40951037861E+02 -0.11122778805E+01  0.88014060675E+01  0.41900947636E+02  0.00000000000E+00 0. -1.
        -11    1    4    4    0    0 -0.38599324319E+02  0.63128300507E+01  0.48905771035E+02  0.62622153442E+02  0.00000000000E+00 0.  1.
         11    1    4    4    0    0  0.50780800374E+02 -0.21748155502E+02  0.64218389174E+02  0.84709346961E+02  0.00000000000E+00 0. -1.
         21    1    1    2  502  501 -0.20360366866E+02 -0.13823947394E+02  0.19136985915E+03  0.19294576713E+03  0.00000000000E+00 0. -1.
<scales pt_clust_5="13000.00000" pt_clust_6="13000.00000" pt_clust_7="13000.00000" pt_clust_8="13000.00000" pt_clust_9="24.60988"></scales>
<clustering>
<clus scale="   24.610">  1  9  2 -1</clus>
<clus scale="   80.203">  5  6 -1 -1</clus>
<clus scale="   84.170">  2  5  1 -1</clus>
<clus scale="   92.319">  7  8 -1 -1</clus>
<clus scale="   24.610">  1  5  2 -1</clus>
</clustering>
</event>
<event>
 9    2  0.3791909E-005  0.1414424E+03  0.7546771E-02  0.1212971E+00
         -1   -1    0    0    0  501 -0.00000000000E+00  0.00000000000E+00  0.26291057567E+03  0.26291057567E+03  0.00000000000E+00 0.  1.
          2   -1    0    0  502    0  0.00000000000E+00 -0.00000000000E+00 -0.23618658075E+03  0.23618658075E+03  0.00000000000E+00 0. -1.
         23    2    1    2    0    0  0.10801413627E+03 -0.26867174216E+02  0.20181224297E+03  0.24602402082E+03  0.86085647585E+02 0.  0.
         24    2    1    2    0    0 -0.12288620770E+03 -0.44367437921E+01 -0.12405879955E+03  0.19138749380E+03  0.78216892654E+02 0.  0.
        -11    1    4    4    0    0 -0.54945927568E+02 -0.40241532070E+02 -0.68537755011E+02  0.96622252725E+02  0.00000000000E+00 0.  1.
         12    1    4    4    0    0 -0.67940280137E+02  0.35804788278E+02 -0.55521044539E+02  0.94765241072E+02  0.00000000000E+00 0. -1.
        -11    1    3    3    0    0  0.60647758891E+02  0.16096957302E+02  0.15364564765E+03  0.16596459783E+03  0.00000000000E+00 0.  1.
         11    1    3    3    0    0  0.47366377376E+02 -0.42964131518E+02  0.48166595325E+02  0.80059422981E+02  0.00000000000E+00 0. -1.
         21    1    1    2  502  501  0.14872071438E+02  0.31303918008E+02 -0.51029448496E+02  0.61685641808E+02  0.00000000000E+00 0. -1.
<scales pt_clust_5="13000.00000" pt_clust_6="13000.00000" pt_clust_7="13000.00000" pt_clust_8="13000.00000" pt_clust_9="34.65709"></scales>
<clustering>
<clus scale="   34.657">  2  9  1 -1</clus>
<clus scale="   78.217">  5  6 -1 -1</clus>
<clus scale="   86.086">  7  8 -1 -1</clus>
<clus scale="  136.796">  2  5  1 -1</clus>
<clus scale="   34.657">  2  5  1 -1</clus>
</clustering>
</event>
<event>
 9    2  0.3791909E-005  0.1019034E+03  0.7546771E-02  0.1280275E+00
         -1   -1    0    0    0  501 -0.00000000000E+00  0.00000000000E+00  0.27020823785E+02  0.27020823785E+02  0.00000000000E+00 0.  1.
          2   -1    0    0  502    0  0.00000000000E+00 -0.00000000000E+00 -0.85674645046E+03  0.85674645046E+03  0.00000000000E+00 0. -1.
         23    2    1    2    0    0 -0.53248604128E+02 -0.41062264192E+02 -0.13326585019E+03  0.17347673432E+03  0.88390424488E+02 0.  0.
         24    2    1    2    0    0  0.25478665223E+01  0.12647161688E+02 -0.37384675824E+03  0.38248397748E+03  0.79788169904E+02 0.  0.
        -11    1    4    4    0    0  0.21933283782E+02 -0.56414318178E+01 -0.29912454697E+02  0.37518657178E+02  0.00000000000E+00 0.  1.
         12    1    4    4    0    0 -0.19385417260E+02  0.18288593505E+02 -0.34393430355E+03  0.34496532030E+03  0.00000000000E+00 0. -1.
        -11    1    3    3    0    0  0.23565454942E+02 -0.21060546264E+02 -0.35024914704E+02  0.47176497598E+02  0.00000000000E+00 0.  1.
         11    1    3    3    0    0 -0.76814059069E+02 -0.20001717928E+02 -0.98240935483E+02  0.12630023672E+03  0.00000000000E+00 0. -1.
         21    1    1    2  502  501  0.50700737605E+02  0.28415102505E+02 -0.32261301825E+03  0.32780656245E+03  0.00000000000E+00 0. -1.
<scales pt_clust_5="13000.00000" pt_clust_6="13000.00000" pt_clust_7="13000.00000" pt_clust_8="13000.00000" pt_clust_9="58.12042"></scales>
<clustering>
<clus scale="   58.120">  2  9  1 -1</clus>
<clus scale="   79.788">  5  6 -1 -1</clus>
<clus scale="   88.390">  7  8 -1 -1</clus>
<clus scale="   94.539">  2  5  1 -1</clus>
<clus scale="   58.120">  2  5  1 -1</clus>
</clustering>
</event>
<event>
 9    2  0.3791909E-005  0.9763162E+02  0.7546771E-02  0.1289979E+00
          2   -1    0    0  502    0  0.00000000000E+00  0.00000000000E+00  0.17416748094E+03  0.17416748094E+03  0.00000000000E+00 0. -1.
         -1   -1    0    0    0  501 -0.00000000000E+00 -0.00000000000E+00 -0.15443988830E+03  0.15443988830E+03  0.00000000000E+00 0.  1.
         24    2    1    2    0    0  0.76892506958E+02 -0.64219098140E+02 -0.38561821286E+02  0.13400684186E+03  0.80213897868E+02 0.  0.
         23    2    1    2    0    0 -0.30483633382E+01  0.25910860739E+02  0.61354033337E+02  0.11135468369E+03  0.89190150525E+02 0.  0.
        -13    1    3    3    0    0  0.40268642061E+02 -0.23024325101E+02 -0.59147612193E+02  0.75167300789E+02  0.00000000000E+00 0.  1.
         14    1    3    3    0    0  0.36623864897E+02 -0.41194773039E+02  0.20585790907E+02  0.58839541067E+02  0.00000000000E+00 0. -1.
        -11    1    4    4    0    0 -0.39023657840E+02  0.62543017457E+01  0.58050110193E+02  0.70226615005E+02  0.00000000000E+00 0. -1.
         11    1    4    4    0    0  0.35975294502E+02  0.19656558993E+02  0.33039231431E+01  0.41128068689E+02  0.00000000000E+00 0.  1.
         21    1    1    2  502  501 -0.73844143620E+02  0.38308237402E+02 -0.30646194039E+01  0.83245843692E+02  0.00000000000E+00 0. -1.
<scales pt_clust_5="13000.00000" pt_clust_6="13000.00000" pt_clust_7="13000.00000" pt_clust_8="13000.00000" pt_clust_9="83.18941"></scales>
<clustering>
<clus scale="   80.214">  5  6 -1 -1</clus>
<clus scale="   83.189">  2  9  1 -1</clus>
<clus scale="   89.190">  7  8 -1 -1</clus>
<clus scale="   89.506">  2  5  1 -1</clus>
<clus scale="   97.632">  1  5  2 -1</clus>
</clustering>
</event>
<event>
 9    2  0.3791909E-005  0.1052058E+03  0.7546771E-02  0.1276154E+00
          2   -1    0    0  502    0  0.00000000000E+00  0.00000000000E+00  0.85352018147E+02  0.85352018147E+02  0.00000000000E+00 0. -1.
         -1   -1    0    0    0  501 -0.00000000000E+00 -0.00000000000E+00 -0.17503234799E+03  0.17503234799E+03  0.00000000000E+00 0.  1.
         23    2    1    2    0    0  0.17125888546E+02  0.23008494815E+02 -0.35059709803E+02  0.10364974232E+03  0.93227672600E+02 0.  0.
         24    2    1    2    0    0 -0.30344324811E+02 -0.60502921000E+02 -0.53252552210E+02  0.11695484678E+03  0.79127873537E+02 0.  0.
        -13    1    4    4    0    0 -0.28617603919E+02 -0.30260878488E+02 -0.70657452587E+02  0.82019288140E+02  0.00000000000E+00 0.  1.
         14    1    4    4    0    0 -0.17267208919E+01 -0.30242042512E+02  0.17404900376E+02  0.34935558640E+02  0.00000000000E+00 0. -1.
        -13    1    3    3    0    0  0.33150331339E+02 -0.87925307354E+01 -0.53499231625E+02  0.63548570787E+02  0.00000000000E+00 0.  1.
         13    1    3    3    0    0 -0.16024442793E+02  0.31801025551E+02  0.18439521822E+02  0.40101171528E+02  0.00000000000E+00 0. -1.
         21    1    1    2  502  501  0.13218436265E+02  0.37494426185E+02 -0.13680678335E+01  0.39779777046E+02  0.00000000000E+00 0.  1.
<scales pt_clust_5="13000.00000" pt_clust_6="13000.00000" pt_clust_7="13000.00000" pt_clust_8="13000.00000" pt_clust_9="39.75625"></scales>
<clustering>
<clus scale="   39.756">  1  9  2 -1</clus>
<clus scale="   79.128">  5  6 -1 -1</clus>
<clus scale="   92.941">  1  5  2 -1</clus>
<clus scale="   93.228">  7  8 -1 -1</clus>
<clus scale="   39.756">  1  5  2 -1</clus>
</clustering>
</event>
<event>
 9    2  0.3791909E-005  0.1753677E+03  0.7546771E-02  0.1173728E+00
          2   -1    0    0  502    0  0.00000000000E+00  0.00000000000E+00  0.69815033799E+03  0.69815033799E+03  0.00000000000E+00 0. -1.
         -1   -1    0    0    0  501 -0.00000000000E+00 -0.00000000000E+00 -0.19482069401E+03  0.19482069401E+03  0.00000000000E+00 0.  1.
         24    2    1    2    0    0 -0.15152036359E+03  0.13877696938E+02 -0.13530088255E+03  0.21862086753E+03  0.79609948147E+02 0.  0.
         23    2    1    2    0    0  0.12474831052E+03  0.20770794996E+02  0.58393408570E+03  0.60428618329E+03  0.90494242732E+02 0.  0.
        -11    1    3    3    0    0 -0.88249033403E+02 -0.19224735172E+02 -0.11119478673E+03  0.14325418994E+03  0.00000000000E+00 0.  1.
         12    1    3    3    0    0 -0.63271330187E+02  0.33102432110E+02 -0.24106095828E+02  0.75366677592E+02  0.00000000000E+00 0. -1.
        -13    1    4    4    0    0  0.91286861122E+02  0.55851441767E+02  0.39855695462E+03  0.41267459412E+03  0.00000000000E+00 0.  1.
         13    1    4    4    0    0  0.33461449397E+02 -0.35080646770E+02  0.18537713108E+03  0.19161158917E+03  0.00000000000E+00 0. -1.
         21    1    1    2  502  501  0.26772053070E+02 -0.34648491935E+02  0.54696440830E+02  0.70063981177E+02  0.00000000000E+00 0. -1.
<scales pt_clust_5="13000.00000" pt_clust_6="13000.00000" pt_clust_7="13000.00000" pt_clust_8="13000.00000" pt_clust_9="43.78654"></scales>
<clustering>
<clus scale="   43.787">  1  9  2 -1</clus>
<clus scale="   79.610">  5  6 -1 -1</clus>
<clus scale="   90.494">  7  8 -1 -1</clus>
<clus scale="  170.007">  2  5  1 -1</clus>
<clus scale="   43.787">  1  5  2 -1</clus>
</clustering>
</event>
<event>
 9    2  0.3791909E-005  0.1269490E+03  0.7546771E-02  0.1233328E+00
          2   -1    0    0  502    0  0.00000000000E+00  0.00000000000E+00  0.58399125078E+03  0.58399125078E+03  0.00000000000E+00 0. -1.
         -1   -1    0    0    0  501 -0.00000000000E+00 -0.00000000000E+00 -0.36797944969E+03  0.36797944969E+03  0.00000000000E+00 0.  1.
         23    2    1    2    0    0  0.14322404875E+02 -0.88479803135E+02 -0.34516580558E+03  0.36769926939E+03  0.89607547250E+02 0.  0.
         24    2    1    2    0    0 -0.38897696083E+02  0.96182942681E+02  0.42369230429E+03  0.44439472944E+03  0.84895922208E+02 0.  0.
        -13    1    4    4    0    0 -0.26831917547E+02 -0.36385429437E+01  0.44434992025E+02  0.52035173780E+02  0.00000000000E+00 0.  1.
         14    1    4    4    0    0 -0.12065778536E+02  0.99821485625E+02  0.37925731227E+03  0.39235955566E+03  0.00000000000E+00 0. -1.
        -11    1    3    3    0    0 -0.19011508534E+02 -0.91325359738E+02 -0.25512304295E+03  0.27164227549E+03  0.00000000000E+00 0.  1.
         11    1    3    3    0    0  0.33333913409E+02  0.28455566035E+01 -0.90042762625E+02  0.96056993898E+02  0.00000000000E+00 0. -1.
         21    1    1    2  502  501  0.24575291208E+02 -0.77031395464E+01  0.13748530237E+03  0.13987670165E+03  0.00000000000E+00 0.  1.
<scales pt_clust_5="13000.00000" pt_clust_6="13000.00000" pt_clust_7="13000.00000" pt_clust_8="13000.00000" pt_clust_9="25.75429"></scales>
<clustering>
<clus scale="   25.754">  1  9  2 -1</clus>
<clus scale="   84.896">  5  6 -1 -1</clus>
<clus scale="   89.608">  7  8 -1 -1</clus>
<clus scale="  123.668">  1  5  2 -1</clus>
<clus scale="   25.754">  1  5  2 -1</clus>
</clustering>
</event>
<event>
 9    2  0.3791909E-005  0.1268851E+03  0.7546771E-02  0.1234242E+00
         -1   -1    0    0    0  501 -0.00000000000E+00  0.00000000000E+00  0.27615972659E+03  0.27615972659E+03  0.00000000000E+00 0.  1.
          2   -1    0    0  502    0  0.00000000000E+00 -0.00000000000E+00 -0.15854755077E+03  0.15854755077E+03  0.00000000000E+00 0. -1.
         23    2    1    2    0    0  0.35499705210E+02  0.82780531004E+02  0.21388486880E+03  0.24893859192E+03  0.90060202432E+02 0.  0.
         24    2    1    2    0    0 -0.62781793845E+02 -0.65239677301E+02 -0.57572243392E+02  0.13527394603E+03  0.82381479300E+02 0.  0.
        -11    1    4    4    0    0 -0.53800344818E+02  0.13987289076E+01 -0.35627569163E+02  0.64542677583E+02  0.00000000000E+00 0.  1.
         12    1    4    4    0    0 -0.89814490272E+01 -0.66638406208E+02 -0.21944674228E+02  0.70731268443E+02  0.00000000000E+00 0. -1.
        -11    1    3    3    0    0  0.46910561123E+02  0.51615341640E+02  0.61524549307E+02  0.93005453630E+02  0.00000000000E+00 0. -1.
         11    1    3    3    0    0 -0.11410855913E+02  0.31165189364E+02  0.15236031950E+03  0.15593313829E+03  0.00000000000E+00 0.  1.
         21    1    1    2  502  501  0.27282088635E+02 -0.17540853703E+02 -0.38700449595E+02  0.50494739408E+02  0.00000000000E+00 0. -1.
<scales pt_clust_5="13000.00000" pt_clust_6="13000.00000" pt_clust_7="13000.00000" pt_clust_8="13000.00000" pt_clust_9="32.43446"></scales>
<clustering>
<clus scale="   32.434">  2  9  1 -1</clus>
<clus scale="   82.381">  5  6 -1 -1</clus>
<clus scale="   90.060">  7  8 -1 -1</clus>
<clus scale="  121.555">  2  5  1 -1</clus>
<clus scale="   32.434">  2  5  1 -1</clus>
</clustering>
</event>
<event>
 9    2  0.3791909E-005  0.1017277E+03  0.7546771E-02  0.1278575E+00
          2   -1    0    0  502    0  0.00000000000E+00  0.00000000000E+00  0.59935780266E+03  0.59935780266E+03  0.00000000000E+00 0. -1.
         -1   -1    0    0    0  501 -0.00000000000E+00 -0.00000000000E+00 -0.29082813529E+02  0.29082813529E+02  0.00000000000E+00 0.  1.
         24    2    1    2    0    0  0.92669008551E+01 -0.36508816957E+02  0.10580769848E+03  0.14240672146E+03  0.87553618395E+02 0.  0.
         23    2    1    2    0    0 -0.81833339330E+01  0.65717928166E+02  0.38999247345E+03  0.40602861557E+03  0.91538485229E+02 0.  0.
        -11    1    3    3    0    0 -0.25154689259E+02 -0.47560722747E+02  0.85277583775E+02  0.10083177592E+03  0.00000000000E+00 0.  1.
         12    1    3    3    0    0  0.34421590114E+02  0.11051905790E+02  0.20530114702E+02  0.41574945547E+02  0.00000000000E+00 0. -1.
        -13    1    4    4    0    0  0.28630274560E+02  0.51536283403E+02  0.32256271802E+03  0.32790606610E+03  0.00000000000E+00 0. -1.
         13    1    4    4    0    0 -0.36813608493E+02  0.14181644763E+02  0.67429755424E+02  0.78122549465E+02  0.00000000000E+00 0.  1.
         21    1    1    2  502  501 -0.10835669221E+01 -0.29209111209E+02  0.74474817203E+02  0.80005279153E+02  0.00000000000E+00 0.  1.
<scales pt_clust_5="13000.00000" pt_clust_6="13000.00000" pt_clust_7="13000.00000" pt_clust_8="13000.00000" pt_clust_9="29.22920"></scales>
<clustering>
<clus scale="   29.229">  1  9  2 -1</clus>
<clus scale="   87.554">  5  6 -1 -1</clus>
<clus scale="   91.538">  7  8 -1 -1</clus>
<clus scale="   98.157">  2  5  1 -1</clus>
<clus scale="   29.229">  1  5  2 -1</clus>
</clustering>
</event>
<event>
 9    2  0.3791909E-005  0.9874504E+02  0.7546771E-02  0.1291081E+00
         -1   -1    0    0    0  501 -0.00000000000E+00  0.00000000000E+00  0.25060481856E+03  0.25060481856E+03  0.00000000000E+00 0.  1.
          2   -1    0    0  502    0  0.00000000000E+00 -0.00000000000E+00 -0.42093445562E+03  0.42093445562E+03  0.00000000000E+00 0. -1.
         23    2    1    2    0    0  0.11163607703E+02 -0.27619819817E+02  0.21263181237E+03  0.23457528803E+03  0.94476439051E+02 0.  0.
         24    2    1    2    0    0  0.56768357443E+02  0.15080432116E+02 -0.34332134508E+03  0.35731898627E+03  0.79732340516E+02 0.  0.
        -11    1    4    4    0    0  0.26644583556E+02 -0.30019942273E+02 -0.20196932123E+03  0.20591924991E+03  0.00000000000E+00 0.  1.
         12    1    4    4    0    0  0.30123773887E+02  0.45100374389E+02 -0.14135202385E+03  0.15139973636E+03  0.00000000000E+00 0. -1.
        -13    1    3    3    0    0  0.30238236441E+02  0.91537198069E+01  0.17740556526E+03  0.18019677054E+03  0.00000000000E+00 0.  1.
         13    1    3    3    0    0 -0.19074628738E+02 -0.36773539624E+02  0.35226247116E+02  0.54378517484E+02  0.00000000000E+00 0. -1.
         21    1    1    2  502  501 -0.67931965146E+02  0.12539387701E+02 -0.39640104363E+02  0.79644999884E+02  0.00000000000E+00 0. -1.
<scales pt_clust_5="13000.00000" pt_clust_6="13000.00000" pt_clust_7="13000.00000" pt_clust_8="13000.00000" pt_clust_9="69.07958"></scales>
<clustering>
<clus scale="   69.080">  2  9  1 -1</clus>
<clus scale="   79.732">  5  6 -1 -1</clus>
<clus scale="   84.747">  2  5  1 -1</clus>
<clus scale="   94.476">  7  8 -1 -1</clus>
<clus scale="   69.080">  2  5  1 -1</clus>
</clustering>
</event>
<event>
 9    2  0.3791909E-005  0.2265867E+03  0.7546771E-02  0.1130186E+00
          2   -1    0    0  502    0  0.00000000000E+00  0.00000000000E+00  0.26645201604E+03  0.26645201604E+03  0.00000000000E+00 0. -1.
         -1   -1    0    0    0  501 -0.00000000000E+00 -0.00000000000E+00 -0.92546271831E+03  0.92546271831E+03  0.00000000000E+00 0.  1.
         24    2    1    2    0    0  0.11562381603E+03  0.12934398656E+03 -0.73370502872E+03  0.75793436318E+03  0.77734780089E+02 0.  0.
         23    2    1    2    0    0 -0.20372774008E+03 -0.54748372269E+02  0.16802458624E+03  0.28553056653E+03  0.93771352218E+02 0.  0.
        -11    1    3    3    0    0  0.80565184038E+02  0.11839008454E+03 -0.66265584817E+03  0.67795260462E+03  0.00000000000E+00 0.  1.
         12    1    3    3    0    0  0.35058631988E+02  0.10953902025E+02 -0.71049180547E+02  0.79981758563E+02  0.00000000000E+00 0. -1.
        -11    1    4    4    0    0 -0.29218473540E+02 -0.37381115462E+02  0.79871072812E+01  0.48113001069E+02  0.00000000000E+00 0.  1.
         11    1    4    4    0    0 -0.17450926654E+03 -0.17367256808E+02  0.16003747895E+03  0.23741756546E+03  0.00000000000E+00 0. -1.
         21    1    1    2  502  501  0.88103924057E+02 -0.74595614295E+02 -0.93330259783E+02  0.14844980464E+03  0.00000000000E+00 0.  1.
<scales pt_clust_5="13000.00000" pt_clust_6="13000.00000" pt_clust_7="13000.00000" pt_clust_8="13000.00000" pt_clust_9="115.44179"></scales>
<clustering>
<clus scale="   77.735">  5  6 -1 -1</clus>
<clus scale="   93.771">  7  8 -1 -1</clus>
<clus scale="  115.442">  2  9  1 -1</clus>
<clus scale="  220.434">  2  5  1 -1</clus>
<clus scale="  226.587">  1  5  2 -1</clus>
</clustering>
</event>
<event>
 9    2  0.3791909E-005  0.1217384E+03  0.7546771E-02  0.1243662E+00
         -3   -1    0    0    0  501 -0.00000000000E+00  0.00000000000E+00  0.46702680172E+03  0.46702680172E+03  0.00000000000E+00 0.  1.
          4   -1    0    0  502    0  0.00000000000E+00 -0.00000000000E+00 -0.14210316145E+03  0.14210316145E+03  0.00000000000E+00 0. -1.
         23    2    1    2    0    0  0.83123045393E+02  0.22196845159E+02  0.41775959012E+03  0.43613443578E+03  0.91038619947E+02 0.  0.
         24    2    1    2    0    0 -0.32057226697E+02  0.48807865389E+01 -0.69229322860E+02  0.11056005018E+03  0.79870756173E+02 0.  0.
        -11    1    4    4    0    0 -0.30301369935E+02  0.22540311217E+01  0.94473958930E+01  0.31819914604E+02  0.00000000000E+00 0.  1.
         12    1    4    4    0    0 -0.17558567619E+01  0.26267554172E+01 -0.78676718753E+02  0.78740135577E+02  0.00000000000E+00 0. -1.
        -11    1    3    3    0    0  0.15171233123E+01  0.35665170978E+02  0.68832371130E+02  0.77538386619E+02  0.00000000000E+00 0. -1.
         11    1    3    3    0    0  0.81605922081E+02 -0.13468325819E+02  0.34892721899E+03  0.35859604916E+03  0.00000000000E+00 0.  1.
         21    1    1    2  502  501 -0.51065818696E+02 -0.27077631698E+02 -0.23606626988E+02  0.62435477216E+02  0.00000000000E+00 0. -1.
<scales pt_clust_5="13000.00000" pt_clust_6="13000.00000" pt_clust_7="13000.00000" pt_clust_8="13000.00000" pt_clust_9="57.80066"></scales>
<clustering>
<clus scale="   57.801">  2  9  1 -1</clus>
<clus scale="   79.871">  5  6 -1 -1</clus>
<clus scale="   91.039">  7  8 -1 -1</clus>
<clus scale="  113.629">  2  5  1 -1</clus>
<clus scale="   57.801">  2  5  1 -1</clus>
</clustering>
</event>
<event>
 9    2  0.3791909E-005  0.1000937E+03  0.7546771E-02  0.1288765E+00
          2   -1    0    0  502    0  0.00000000000E+00  0.00000000000E+00  0.43589437102E+03  0.43589437102E+03  0.00000000000E+00 0. -1.
         -1   -1    0    0    0  501 -0.00000000000E+00 -0.00000000000E+00 -0.65821212590E+02  0.65821212590E+02  0.00000000000E+00 0.  1.
         23    2    1    2    0    0  0.13023670383E+02  0.60057208140E+01  0.33515067248E+02  0.10271091306E+03  0.96023888986E+02 0.  0.
         24    2    1    2    0    0  0.27787105382E+02 -0.60987458205E+02  0.74926397552E+02  0.12856123104E+03  0.80140076064E+02 0.  0.
        -11    1    4    4    0    0  0.25327847867E+02 -0.34814765653E+02  0.88910012298E+02  0.98785414267E+02  0.00000000000E+00 0.  1.
         12    1    4    4    0    0  0.24592575143E+01 -0.26172692551E+02 -0.13983614746E+02  0.29775816769E+02  0.00000000000E+00 0. -1.
        -13    1    3    3    0    0  0.16985446913E+02 -0.38427070971E+02  0.39543875618E+02  0.57696302214E+02  0.00000000000E+00 0. -1.
         13    1    3    3    0    0 -0.39617765304E+01  0.44432791785E+02 -0.60288083704E+01  0.45014610844E+02  0.00000000000E+00 0.  1.
         21    1    1    2  502  501 -0.40810775765E+02  0.54981737391E+02  0.26163169363E+03  0.27044343952E+03  0.00000000000E+00 0. -1.
<scales pt_clust_5="13000.00000" pt_clust_6="13000.00000" pt_clust_7="13000.00000" pt_clust_8="13000.00000" pt_clust_9="68.47270"></scales>
<clustering>
<clus scale="   68.473">  1  9  2 -1</clus>
<clus scale="   80.140">  5  6 -1 -1</clus>
<clus scale="   84.974">  1  5  2 -1</clus>
<clus scale="   96.024">  7  8 -1 -1</clus>
<clus scale="   68.473">  1  5  2 -1</clus>
</clustering>
</event>
<event>
 9    2  0.3791909E-005  0.9537170E+02  0.7546771E-02  0.1297367E+00
          2   -1    0    0  502    0  0.00000000000E+00  0.00000000000E+00  0.51281356726E+03  0.51281356726E+03  0.00000000000E+00 0. -1.
         -1   -1    0    0    0  501 -0.00000000000E+00 -0.00000000000E+00 -0.27626121248E+02  0.27626121248E+02  0.00000000000E+00 0.  1.
         23    2    1    2    0    0 -0.97922810955E+01 -0.80068591107E+01  0.10994448571E+03  0.14433777813E+03  0.92658543564E+02 0.  0.
         24    2    1    2    0    0  0.25647826191E+02  0.30368145685E+02  0.20724029615E+03  0.22587758600E+03  0.80573620058E+02 0.  0.
        -13    1    4    4    0    0 -0.27196036659E+02 -0.77079021183E+00  0.47106577957E+02  0.54398972549E+02  0.00000000000E+00 0.  1.
         14    1    4    4    0    0  0.52843862850E+02  0.31138935897E+02  0.16013371819E+03  0.17147861345E+03  0.00000000000E+00 0. -1.
        -13    1    3    3    0    0 -0.19380201047E+02  0.34396612109E+02  0.19601159451E+02  0.44078618048E+02  0.00000000000E+00 0. -1.
         13    1    3    3    0    0  0.95879199516E+01 -0.42403471220E+02  0.90343326261E+02  0.10025916008E+03  0.00000000000E+00 0.  1.
         21    1    1    2  502  501 -0.15855545095E+02 -0.22361286575E+02  0.16800266415E+03  0.17022432437E+03  0.00000000000E+00 0.  1.
<scales pt_clust_5="13000.00000" pt_clust_6="13000.00000" pt_clust_7="13000.00000" pt_clust_8="13000.00000" pt_clust_9="27.41214"></scales>
<clustering>
<clus scale="   27.412">  1  9  2 -1</clus>
<clus scale="   80.574">  5  6 -1 -1</clus>
<clus scale="   83.680">  1  5  2 -1</clus>
<clus scale="   92.659">  7  8 -1 -1</clus>
<clus scale="   27.412">  1  5  2 -1</clus>
</clustering>
</event>
<event>
 9    2  0.3791909E-005  0.2759364E+03  0.7546771E-02  0.1143020E+00
          2   -1    0    0  502    0  0.00000000000E+00  0.00000000000E+00  0.81210438108E+03  0.81210438108E+03  0.00000000000E+00 0. -1.
         -1   -1    0    0    0  501 -0.00000000000E+00 -0.00000000000E+00 -0.15069373663E+03  0.15069373663E+03  0.00000000000E+00 0.  1.
         24    2    1    2    0    0 -0.31408473262E+02 -0.18700055675E+02 -0.21245798758E+02  0.91877853556E+02  0.81571880782E+02 0.  0.
         23    2    1    2    0    0  0.46550542572E+02 -0.24829958187E+03  0.28363162351E+03  0.39056737777E+03  0.90974410425E+02 0.  0.
        -13    1    3    3    0    0 -0.17304786500E+02  0.25768838704E+02  0.13358894374E+02  0.33792732101E+02  0.00000000000E+00 0.  1.
         14    1    3    3    0    0 -0.14103686762E+02 -0.44468894379E+02 -0.34604693132E+02  0.58085121454E+02  0.00000000000E+00 0. -1.
        -13    1    4    4    0    0  0.25135336308E+01 -0.73751129891E+02  0.14730289802E+03  0.16475342418E+03  0.00000000000E+00 0. -1.
         13    1    4    4    0    0  0.44037008941E+02 -0.17454845198E+03  0.13632872549E+03  0.22581395360E+03  0.00000000000E+00 0.  1.
         21    1    1    2  502  501 -0.15142069310E+02  0.26699963755E+03  0.39902481970E+03  0.48035288638E+03  0.00000000000E+00 0. -1.
<scales pt_clust_5="13000.00000" pt_clust_6="13000.00000" pt_clust_7="13000.00000" pt_clust_8="13000.00000" pt_clust_9="260.50829"></scales>
<clustering>
<clus scale="   81.572">  5  6 -1 -1</clus>
<clus scale="   89.388">  2  5  1 -1</clus>
<clus scale="   90.974">  7  8 -1 -1</clus>
<clus scale="  260.508">  1  9  2 -1</clus>
<clus scale="  260.508">  1  5  2 -1</clus>
</clustering>
</event>
<event>
 9    2  0.3791909E-005  0.1313077E+03  0.7546771E-02  0.1240058E+00
         -1   -1    0    0    0  501 -0.00000000000E+00  0.00000000000E+00  0.67565201040E+02  0.67565201040E+02  0.00000000000E+00 0.  1.
          2   -1    0    0  502    0  0.00000000000E+00 -0.00000000000E+00 -0.59275570410E+03  0.59275570410E+03  0.00000000000E+00 0. -1.
         23    2    1    2    0    0  0.24682487951E+02  0.35379969317E+01 -0.16114106720E+02  0.98731512794E+02  0.94162118442E+02 0.  0.
         24    2    1    2    0    0 -0.21940309649E+01  0.10188322113E+03 -0.27109729710E+03  0.30033584579E+03  0.79516484125E+02 0.  0.
        -13    1    4    4    0    0 -0.22254799027E+02  0.67632740227E+02 -0.23872242194E+03  0.24911414727E+03  0.00000000000E+00 0.  1.
         14    1    4    4    0    0  0.20060768062E+02  0.34250480907E+02 -0.32374875158E+02  0.51221698518E+02  0.00000000000E+00 0. -1.
        -11    1    3    3    0    0  0.47819150628E+02  0.31122543179E+02  0.45216061819E+01  0.57233982765E+02  0.00000000000E+00 0.  1.
         11    1    3    3    0    0 -0.23136662676E+02 -0.27584546248E+02 -0.20635712902E+02  0.41497530029E+02  0.00000000000E+00 0. -1.
         21    1    1    2  502  501 -0.22488456986E+02 -0.10542121807E+03 -0.23797909924E+03  0.26125354656E+03  0.00000000000E+00 0. -1.
<scales pt_clust_5="13000.00000" pt_clust_6="13000.00000" pt_clust_7="13000.00000" pt_clust_8="13000.00000" pt_clust_9="104.49330"></scales>
<clustering>
<clus scale="   79.516">  5  6 -1 -1</clus>
<clus scale="   94.162">  7  8 -1 -1</clus>
<clus scale="   97.408">  1  7  2 -1</clus>
<clus scale="  104.493">  1  9  2 -1</clus>
<clus scale="  131.308">  2  5  1 -1</clus>
</clustering>
</event>
<event>
 9    2  0.3791909E-005  0.9246634E+02  0.7546771E-02  0.1303527E+00
         -1   -1    0    0    0  501 -0.00000000000E+00  0.00000000000E+00  0.13844274748E+02  0.13844274748E+02  0.00000000000E+00 0.  1.
          2   -1    0    0  502    0  0.00000000000E+00 -0.00000000000E+00 -0.10094216028E+04  0.10094216028E+04  0.00000000000E+00 0. -1.
         23    2    1    2    0    0  0.61635291218E+01  0.85014646576E+01 -0.20285274844E+03  0.22274701370E+03  0.91415155039E+02 0.  0.
         24    2    1    2    0    0  0.66371444688E+01 -0.29254638161E+02 -0.65625715595E+03  0.66189019013E+03  0.80779227021E+02 0.  0.
        -11    1    4    4    0    0  0.24018079308E+01  0.27135927238E+02 -0.14699857036E+03  0.14950152814E+03  0.00000000000E+00 0.  1.
         12    1    4    4    0    0  0.42353365380E+01 -0.56390565399E+02 -0.50925858559E+03  0.51238866199E+03  0.00000000000E+00 0. -1.
        -11    1    3    3    0    0 -0.33232805788E+02  0.19608761840E+02 -0.43169268479E+02  0.57900852001E+02  0.00000000000E+00 0. -1.
         11    1    3    3    0    0  0.39396334909E+02 -0.11107297183E+02 -0.15968347996E+03  0.16484616170E+03  0.00000000000E+00 0.  1.
         21    1    1    2  502  501 -0.12800673591E+02  0.20753173504E+02 -0.13646742371E+03  0.13862867376E+03  0.00000000000E+00 0.  1.
<scales pt_clust_5="13000.00000" pt_clust_6="13000.00000" pt_clust_7="13000.00000" pt_clust_8="13000.00000" pt_clust_9="24.38343"></scales>
<clustering>
<clus scale="   24.383">  2  9  1 -1</clus>
<clus scale="   80.779">  5  6 -1 -1</clus>
<clus scale="   81.967">  2  5  1 -1</clus>
<clus scale="   91.415">  7  8 -1 -1</clus>
<clus scale="   24.383">  2  5  1 -1</clus>
</clustering>
</event>
<event>
 9    2  0.3791909E-005  0.9195705E+02  0.7546771E-02  0.1317428E+00
          2   -1    0    0  502    0  0.00000000000E+00  0.00000000000E+00  0.34960356435E+03  0.34960356435E+03  0.00000000000E+00 0. -1.
         -1   -1    0    0    0  501 -0.00000000000E+00 -0.00000000000E+00 -0.48194799157E+02  0.48194799157E+02  0.00000000000E+00 0.  1.
         23    2    1    2    0    0 -0.46412967123E+01  0.14612200675E+02  0.15480397127E+02  0.93827232510E+02  0.91262526930E+02 0.  0.
         24    2    1    2    0    0 -0.24303860641E+02  0.45797877138E-01  0.16037708601E+03  0.17429536810E+03  0.63776060444E+02 0.  0.
        -11    1    4    4    0    0  0.27588056267E+01  0.20056705212E+02  0.15330686272E+02  0.25395125005E+02  0.00000000000E+00 0.  1.
         12    1    4    4    0    0 -0.27062666268E+02 -0.20010907335E+02  0.14504639974E+03  0.14890024310E+03  0.00000000000E+00 0. -1.
        -13    1    3    3    0    0 -0.73213924030E+01 -0.35949896431E+02  0.21996367770E+02  0.42776606167E+02  0.00000000000E+00 0. -1.
         13    1    3    3    0    0  0.26800956907E+01  0.50562097105E+02 -0.65159706432E+01  0.51050626343E+02  0.00000000000E+00 0.  1.
         21    1    1    2  502  501  0.28945157354E+02 -0.14657998552E+02  0.12555128205E+03  0.12967576289E+03  0.00000000000E+00 0. -1.
<scales pt_clust_5="13000.00000" pt_clust_6="13000.00000" pt_clust_7="13000.00000" pt_clust_8="13000.00000" pt_clust_9="32.44502"></scales>
<clustering>
<clus scale="   32.445">  1  9  2 -1</clus>
<clus scale="   63.776">  5  6 -1 -1</clus>
<clus scale="   64.766">  1  5  2 -1</clus>
<clus scale="   91.263">  7  8 -1 -1</clus>
<clus scale="   32.445">  1  5  2 -1</clus>
</clustering>
</event>
<event>
 9    2  0.3791909E-005  0.9351759E+02  0.7546771E-02  0.1304960E+00
          2   -1    0    0  502    0  0.00000000000E+00  0.00000000000E+00  0.39191519796E+03  0.39191519796E+03  0.00000000000E+00 0. -1.
         -1   -1    0    0    0  501 -0.00000000000E+00 -0.00000000000E+00 -0.35155679444E+02  0.35155679444E+02  0.00000000000E+00 0.  1.
         24    2    1    2    0    0  0.23489765261E+02  0.80408184434E+01  0.42757733779E+02  0.89479236586E+02  0.74578054069E+02 0.  0.
         23    2    1    2    0    0  0.54662194342E+01 -0.17418435735E+02  0.22519220164E+03  0.24371123389E+03  0.91380284446E+02 0.  0.
        -11    1    3    3    0    0 -0.23018401643E+02 -0.13899129567E+02  0.18375171527E+02  0.32568075558E+02  0.00000000000E+00 0.  1.
         12    1    3    3    0    0  0.46508166904E+02  0.21939948010E+02  0.24382562252E+02  0.56911161027E+02  0.00000000000E+00 0. -1.
        -13    1    4    4    0    0 -0.41621813732E+02  0.31907727253E+01  0.97316740695E+02  0.10589194695E+03  0.00000000000E+00 0. -1.
         13    1    4    4    0    0  0.47088033166E+02 -0.20609208461E+02  0.12787546094E+03  0.13781928694E+03  0.00000000000E+00 0.  1.
         21    1    1    2  502  501 -0.28955984695E+02  0.93776172920E+01  0.88809583100E+02  0.93880406935E+02  0.00000000000E+00 0. -1.
<scales pt_clust_5="13000.00000" pt_clust_6="13000.00000" pt_clust_7="13000.00000" pt_clust_8="13000.00000" pt_clust_9="30.43664"></scales>
<clustering>
<clus scale="   30.437">  1  9  2 -1</clus>
<clus scale="   74.578">  5  6 -1 -1</clus>
<clus scale="   77.182">  2  5  1 -1</clus>
<clus scale="   91.380">  7  8 -1 -1</clus>
<clus scale="   30.437">  1  5  2 -1</clus>
</clustering>
</event>
<event>
 9    2  0.3791909E-005  0.1362397E+03  0.7546771E-02  0.1221796E+00
         -1   -1    0    0    0  501 -0.00000000000E+00  0.00000000000E+00  0.88889638425E+02  0.88889638425E+02  0.00000000000E+00 0.  1.
          2   -1    0    0  502    0  0.00000000000E+00 -0.00000000000E+00 -0.62666163391E+03  0.62666163391E+03  0.00000000000E+00 0. -1.
         23    2    1    2    0    0 -0.72230099657E+02 -0.76834165392E+02  0.10672813056E+02  0.14105067978E+03  0.93062930637E+02 0.  0.
         24    2    1    2    0    0  0.74173982846E+02  0.16331870153E+02 -0.38067394998E+03  0.39614317782E+03  0.79045881767E+02 0.  0.
        -11    1    4    4    0    0  0.74087531010E+02  0.16548060981E+02 -0.38469592593E+03  0.39211446798E+03  0.00000000000E+00 0.  1.
         12    1    4    4    0    0  0.86451835680E-01 -0.21619082835E+00  0.40219759505E+01  0.40287098357E+01  0.00000000000E+00 0. -1.
        -13    1    3    3    0    0 -0.25065060051E+02  0.19620388869E+02 -0.60106875524E+01  0.32393599053E+02  0.00000000000E+00 0. -1.
         13    1    3    3    0    0 -0.47165039606E+02 -0.96454554261E+02  0.16683500608E+02  0.10865708072E+03  0.00000000000E+00 0.  1.
         21    1    1    2  502  501 -0.19438831884E+01  0.60502295239E+02 -0.16777085856E+03  0.17835741474E+03  0.00000000000E+00 0. -1.
<scales pt_clust_5="13000.00000" pt_clust_6="13000.00000" pt_clust_7="13000.00000" pt_clust_8="13000.00000" pt_clust_9="60.53351"></scales>
<clustering>
<clus scale="   60.534">  2  9  1 -1</clus>
<clus scale="   79.046">  5  6 -1 -1</clus>
<clus scale="   93.063">  7  8 -1 -1</clus>
<clus scale="  127.078">  2  5  1 -1</clus>
<clus scale="   60.534">  2  5  1 -1</clus>
</clustering>
</event>
<event>
 9    2  0.3791909E-005  0.1005629E+03  0.7546771E-02  0.1282307E+00
         -1   -1    0    0    0  501 -0.00000000000E+00  0.00000000000E+00  0.18623964357E+03  0.18623964357E+03  0.00000000000E+00 0.  1.
          2   -1    0    0  502    0  0.00000000000E+00 -0.00000000000E+00 -0.71463980182E+02  0.71463980182E+02  0.00000000000E+00 0. -1.
         24    2    1    2    0    0 -0.86141866517E+01 -0.54554822458E+02  0.94518689495E+02  0.13515164138E+03  0.79257495783E+02 0.  0.
         23    2    1    2    0    0  0.25136290894E+02  0.40331130368E+02  0.21238585754E+02  0.10072867128E+03  0.86236619232E+02 0.  0.
        -11    1    3    3    0    0  0.21615382232E+02 -0.46067673788E+02  0.90054802443E+02  0.10343753071E+03  0.00000000000E+00 0.  1.
         12    1    3    3    0    0 -0.30229568884E+02 -0.84871486694E+01  0.44638870515E+01  0.31714110661E+02  0.00000000000E+00 0. -1.
        -13    1    4    4    0    0 -0.21596691125E+02  0.45795997602E+02  0.17324396730E+02  0.53514719339E+02  0.00000000000E+00 0.  1.
         13    1    4    4    0    0  0.46732982019E+02 -0.54648672342E+01  0.39141890241E+01  0.47213951942E+02  0.00000000000E+00 0. -1.
         21    1    1    2  502  501 -0.16522104243E+02  0.14223692089E+02 -0.98161186042E+00  0.21823311094E+02  0.00000000000E+00 0. -1.
<scales pt_clust_5="13000.00000" pt_clust_6="13000.00000" pt_clust_7="13000.00000" pt_clust_8="13000.00000" pt_clust_9="21.80122"></scales>
<clustering>
<clus scale="   21.801">  2  9  1 -1</clus>
<clus scale="   79.257">  5  6 -1 -1</clus>
<clus scale="   86.237">  7  8 -1 -1</clus>
<clus scale="   94.646">  1  5  2 -1</clus>
<clus scale="   21.801">  2  5  1 -1</clus>
</clustering>
</event>
<event>
 9    2  0.3791909E-005  0.1129924E+03  0.7546771E-02  0.1259193E+00
          2   -1    0    0  502    0  0.00000000000E+00  0.00000000000E+00  0.16753603012E+03  0.16753603012E+03  0.00000000000E+00 0. -1.
         -1   -1    0    0    0  501 -0.00000000000E+00 -0.00000000000E+00 -0.18047868855E+03  0.18047868855E+03  0.00000000000E+00 0.  1.
         23    2    1    2    0    0  0.64646073280E+02 -0.33616151304E+01 -0.12911471434E+03  0.17191448622E+03  0.93239293582E+02 0.  0.
         24    2    1    2    0    0 -0.60050109200E+02 -0.18465362336E+02  0.70780272221E+02  0.12552401415E+03  0.82458753156E+02 0.  0.
        -11    1    4    4    0    0 -0.42465868433E+02 -0.14224000565E+02 -0.73000797277E+01  0.45375801237E+02  0.00000000000E+00 0.  1.
         12    1    4    4    0    0 -0.17584240766E+02 -0.42413617713E+01  0.78080351949E+02  0.80148212915E+02  0.00000000000E+00 0. -1.
        -13    1    3    3    0    0 -0.48396888797E+01 -0.34406848480E+02 -0.24368050036E+02  0.42438846277E+02  0.00000000000E+00 0. -1.
         13    1    3    3    0    0  0.69485762160E+02  0.31045233350E+02 -0.10474666430E+03  0.12947563994E+03  0.00000000000E+00 0.  1.
         21    1    1    2  502  501 -0.45959640808E+01  0.21826977466E+02  0.45391783681E+02  0.50576218293E+02  0.00000000000E+00 0. -1.
<scales pt_clust_5="13000.00000" pt_clust_6="13000.00000" pt_clust_7="13000.00000" pt_clust_8="13000.00000" pt_clust_9="22.30560"></scales>
<clustering>
<clus scale="   22.306">  1  9  2 -1</clus>
<clus scale="   82.459">  5  6 -1 -1</clus>
<clus scale="   93.239">  7  8 -1 -1</clus>
<clus scale="  104.274">  1  5  2 -1</clus>
<clus scale="   22.306">  1  5  2 -1</clus>
</clustering>
</event>
<event>
 9    2  0.3791909E-005  0.1195582E+03  0.7546771E-02  0.1248654E+00
         -1   -1    0    0    0  501 -0.00000000000E+00  0.00000000000E+00  0.21340874956E+03  0.21340874956E+03  0.00000000000E+00 0.  1.
          2   -1    0    0  502    0  0.00000000000E+00 -0.00000000000E+00 -0.17370208537E+03  0.17370208537E+03  0.00000000000E+00 0. -1.
         24    2    1    2    0    0 -0.30086937835E+02 -0.71877279860E+02  0.14954079591E+03  0.18467717100E+03  0.75310295837E+02 0.  0.
         23    2    1    2    0    0  0.61601709186E+02  0.58690022646E+02 -0.50767286884E+02  0.13419894604E+03  0.90513813137E+02 0.  0.
        -13    1    3    3    0    0  0.18996768368E+02 -0.48733871006E+02  0.56708904342E+02  0.77147697460E+02  0.00000000000E+00 0.  1.
         14    1    3    3    0    0 -0.49083706203E+02 -0.23143408854E+02  0.92831891569E+02  0.10752947354E+03  0.00000000000E+00 0. -1.
        -11    1    4    4    0    0  0.28698445709E+02 -0.13154195019E+01  0.20578109417E+02  0.35338218713E+02  0.00000000000E+00 0.  1.
         11    1    4    4    0    0  0.32903263477E+02  0.60005442148E+02 -0.71345396302E+02  0.98860727330E+02  0.00000000000E+00 0. -1.
         21    1    1    2  502  501 -0.31514771351E+02  0.13187257214E+02 -0.59066844841E+02  0.68234717891E+02  0.00000000000E+00 0. -1.
<scales pt_clust_5="13000.00000" pt_clust_6="13000.00000" pt_clust_7="13000.00000" pt_clust_8="13000.00000" pt_clust_9="34.16262"></scales>
<clustering>
<clus scale="   34.163">  2  9  1 -1</clus>
<clus scale="   75.310">  5  6 -1 -1</clus>
<clus scale="   90.514">  7  8 -1 -1</clus>
<clus scale="  108.504">  1  5  2 -1</clus>
<clus scale="   34.163">  2  5  1 -1</clus>
</clustering>
</event>
<event>
 9    2  0.3791909E-005  0.1183097E+03  0.7546771E-02  0.1249106E+00
         -1   -1    0    0    0  501 -0.00000000000E+00  0.00000000000E+00  0.47244441626E+03  0.47244441626E+03  0.00000000000E+00 0.  1.
          2   -1    0    0  502    0  0.00000000000E+00 -0.00000000000E+00 -0.41636535503E+02  0.41636535503E+02  0.00000000000E+00 0. -1.
         24    2    1    2    0    0 -0.39546679703E+02 -0.57840406114E+02  0.23424327295E+03  0.25755574043E+03  0.80966635420E+02 0.  0.
         23    2    1    2    0    0  0.28369540724E+02  0.82255603975E+02  0.19166874770E+03  0.22923052744E+03  0.90768445189E+02 0.  0.
        -13    1    3    3    0    0 -0.20452444746E+02  0.13066717444E+02  0.11485799365E+03  0.11739420900E+03  0.00000000000E+00 0.  1.
         14    1    3    3    0    0 -0.19094234957E+02 -0.70907123558E+02  0.11938527930E+03  0.14016153143E+03  0.00000000000E+00 0. -1.
        -13    1    4    4    0    0  0.30694138684E+02 -0.77691953807E+01  0.78212492079E+02  0.84378222686E+02  0.00000000000E+00 0. -1.
         13    1    4    4    0    0 -0.23245979591E+01  0.90024799356E+02  0.11345625562E+03  0.14485230476E+03  0.00000000000E+00 0.  1.
         21    1    1    2  502  501  0.11177138979E+02 -0.24415197862E+02  0.48958601102E+01  0.27294683889E+02  0.00000000000E+00 0. -1.
<scales pt_clust_5="13000.00000" pt_clust_6="13000.00000" pt_clust_7="13000.00000" pt_clust_8="13000.00000" pt_clust_9="26.85201"></scales>
<clustering>
<clus scale="   26.852">  2  9  1 -1</clus>
<clus scale="   80.967">  5  6 -1 -1</clus>
<clus scale="   90.768">  7  8 -1 -1</clus>
<clus scale="  110.968">  1  5  2 -1</clus>
<clus scale="   26.852">  2  5  1 -1</clus>
</clustering>
</event>
<event>
 9    2  0.3791909E-005  0.1975962E+03  0.7546771E-02  0.1152665E+00
         -1   -1    0    0    0  501 -0.00000000000E+00  0.00000000000E+00  0.69360966147E+02  0.69360966147E+02  0.00000000000E+00 0.  1.
          2   -1    0    0  502    0  0.00000000000E+00 -0.00000000000E+00 -0.64944641018E+03  0.64944641018E+03  0.00000000000E+00 0. -1.
         23    2    1    2    0    0 -0.13028860157E+03  0.95976887059E+02 -0.21980014398E+03  0.28725753611E+03  0.89543878691E+02 0.  0.
         24    2    1    2    0    0  0.15707051181E+03 -0.10382751168E+03 -0.34077525508E+03  0.39749774956E+03  0.80158521492E+02 0.  0.
        -11    1    4    4    0    0  0.97393474575E+02 -0.83526255559E+02 -0.15440644561E+03  0.20075725318E+03  0.00000000000E+00 0.  1.
         12    1    4    4    0    0  0.59677037236E+02 -0.20301256119E+02 -0.18636880947E+03  0.19674049638E+03  0.00000000000E+00 0. -1.
        -11    1    3    3    0    0 -0.75367207449E+02  0.35952347155E+02 -0.45948221751E+02  0.95310158465E+02  0.00000000000E+00 0.  1.
         11    1    3    3    0    0 -0.54921394124E+02  0.60024539903E+02 -0.17385192223E+03  0.19194737765E+03  0.00000000000E+00 0. -1.
         21    1    1    2  502  501 -0.26781910239E+02  0.78506246191E+01 -0.19510044967E+02  0.34052090649E+02  0.00000000000E+00 0.  1.
<scales pt_clust_5="13000.00000" pt_clust_6="13000.00000" pt_clust_7="13000.00000" pt_clust_8="13000.00000" pt_clust_9="27.90883"></scales>
<clustering>
<clus scale="   27.909">  1  9  2 -1</clus>
<clus scale="   80.159">  5  6 -1 -1</clus>
<clus scale="   89.544">  7  8 -1 -1</clus>
<clus scale="  193.524">  2  5  1 -1</clus>
<clus scale="  193.524">  2  5  1 -1</clus>
</clustering>
</event>
<event>
 9    2  0.3791909E-005  0.1214816E+03  0.7546771E-02  0.1243490E+00
          2   -1    0    0  502    0  0.00000000000E+00  0.00000000000E+00  0.63016328579E+02  0.63016328579E+02  0.00000000000E+00 0. -1.
         -1   -1    0    0    0  501 -0.00000000000E+00 -0.00000000000E+00 -0.37782265520E+03  0.37782265520E+03  0.00000000000E+00 0.  1.
         24    2    1    2    0    0 -0.70045881915E+02 -0.24102029364E+02 -0.22095350689E+03  0.24698308568E+03  0.81809895565E+02 0.  0.
         23    2    1    2    0    0  0.90332447199E+02  0.33000592738E+02 -0.10506328466E+03  0.16902841968E+03  0.91012761390E+02 0.  0.
        -11    1    3    3    0    0  0.39042111314E+01 -0.34152828497E+02 -0.52690163015E+02  0.62911937162E+02  0.00000000000E+00 0.  1.
         12    1    3    3    0    0 -0.73950093047E+02  0.10050799133E+02 -0.16826334387E+03  0.18407114852E+03  0.00000000000E+00 0. -1.
        -11    1    4    4    0    0  0.54619947600E+02  0.38003993918E+02 -0.99143160040E+01  0.67275076302E+02  0.00000000000E+00 0. -1.
         11    1    4    4    0    0  0.35712499599E+02 -0.50034011799E+01 -0.95148968659E+02  0.10175334337E+03  0.00000000000E+00 0.  1.
         21    1    1    2  502  501 -0.20286565284E+02 -0.88985633739E+01  0.11210464928E+02  0.24827478427E+02  0.00000000000E+00 0. -1.
<scales pt_clust_5="13000.00000" pt_clust_6="13000.00000" pt_clust_7="13000.00000" pt_clust_8="13000.00000" pt_clust_9="22.15241"></scales>
<clustering>
<clus scale="   22.152">  1  9  2 -1</clus>
<clus scale="   81.810">  5  6 -1 -1</clus>
<clus scale="   91.013">  7  8 -1 -1</clus>
<clus scale="  114.749">  2  5  1 -1</clus>
<clus scale="   22.152">  1  5  2 -1</clus>
</clustering>
</event>
<event>
 9    2  0.3791909E-005  0.1418059E+03  0.7546771E-02  0.1213386E+00
         -1   -1    0    0    0  501 -0.00000000000E+00  0.00000000000E+00  0.21235435733E+03  0.21235435733E+03  0.00000000000E+00 0.  1.
          2   -1    0    0  502    0  0.00000000000E+00 -0.00000000000E+00 -0.95122389941E+03  0.95122389941E+03  0.00000000000E+00 0. -1.
         23    2    1    2    0    0  0.63482182848E+02 -0.87566342695E+02  0.17888713334E+03  0.22809478006E+03  0.91262096756E+02 0.  0.
         24    2    1    2    0    0 -0.45244625807E+02  0.11423314352E+03 -0.68235007164E+03  0.69787035445E+03  0.79530648892E+02 0.  0.
        -13    1    4    4    0    0 -0.25336173874E+02  0.74342295047E+02 -0.22425666651E+03  0.23761260702E+03  0.00000000000E+00 0.  1.
         14    1    4    4    0    0 -0.19908451933E+02  0.39890848475E+02 -0.45809340513E+03  0.46025774743E+03  0.00000000000E+00 0. -1.
        -11    1    3    3    0    0  0.85950482356E+02 -0.69075304118E+02  0.15618646933E+03  0.19118864051E+03  0.00000000000E+00 0. -1.
         11    1    3    3    0    0 -0.22468299508E+02 -0.18491038577E+02  0.22700664008E+02  0.36906139555E+02  0.00000000000E+00 0.  1.
         21    1    1    2  502  501 -0.18237557041E+02 -0.26666800827E+02 -0.23540660378E+03  0.23761312223E+03  0.00000000000E+00 0. -1.
<scales pt_clust_5="13000.00000" pt_clust_6="13000.00000" pt_clust_7="13000.00000" pt_clust_8="13000.00000" pt_clust_9="32.30676"></scales>
<clustering>
<clus scale="   32.307">  2  9  1 -1</clus>
<clus scale="   79.531">  5  6 -1 -1</clus>
<clus scale="   91.262">  7  8 -1 -1</clus>
<clus scale="  134.556">  2  5  1 -1</clus>
<clus scale="   32.307">  2  5  1 -1</clus>
</clustering>
</event>
<event>
 9    2  0.3791909E-005  0.9212715E+02  0.7546771E-02  0.1300344E+00
          2   -1    0    0  502    0  0.00000000000E+00  0.00000000000E+00  0.27152817045E+03  0.27152817045E+03  0.00000000000E+00 0. -1.
         -1   -1    0    0    0  501 -0.00000000000E+00 -0.00000000000E+00 -0.90250714619E+02  0.90250714619E+02  0.00000000000E+00 0.  1.
         24    2    1    2    0    0  0.28322250649E+02 -0.24573583432E+02 -0.50111605330E+02  0.10233243932E+03  0.80961375138E+02 0.  0.
         23    2    1    2    0    0  0.81624564132E+00  0.16940536276E+02  0.17149002533E+03  0.19240011946E+03  0.85564765848E+02 0.  0.
        -11    1    3    3    0    0  0.48321703371E+02 -0.66910049267E+01 -0.56609027481E+02  0.74728432045E+02  0.00000000000E+00 0.  1.
         12    1    3    3    0    0 -0.19999452721E+02 -0.17882578505E+02  0.64974221508E+01  0.27604007277E+02  0.00000000000E+00 0. -1.
        -11    1    4    4    0    0  0.77241018041E+01  0.50886867408E+02  0.87012475404E+02  0.10109552858E+03  0.00000000000E+00 0. -1.
         11    1    4    4    0    0 -0.69078561628E+01 -0.33946331132E+02  0.84477549928E+02  0.91304590881E+02  0.00000000000E+00 0.  1.
         21    1    1    2  502  501 -0.29138496291E+02  0.76330471554E+01  0.59899035829E+02  0.67046326284E+02  0.00000000000E+00 0. -1.
<scales pt_clust_5="13000.00000" pt_clust_6="13000.00000" pt_clust_7="13000.00000" pt_clust_8="13000.00000" pt_clust_9="30.12168"></scales>
<clustering>
<clus scale="   30.122">  1  9  2 -1</clus>
<clus scale="   80.961">  5  6 -1 -1</clus>
<clus scale="   85.565">  7  8 -1 -1</clus>
<clus scale="   87.868">  2  5  1 -1</clus>
<clus scale="   30.122">  1  5  2 -1</clus>
</clustering>
</event>
<event>
 9    2  0.3791909E-005  0.1278519E+03  0.7546771E-02  0.1233278E+00
          4   -1    0    0  502    0  0.00000000000E+00  0.00000000000E+00  0.22125765098E+03  0.22125765098E+03  0.00000000000E+00 0. -1.
         -3   -1    0    0    0  501 -0.00000000000E+00 -0.00000000000E+00 -0.31937542602E+03  0.31937542602E+03  0.00000000000E+00 0.  1.
         23    2    1    2    0    0  0.34410086054E+02 -0.77723524236E+02 -0.21299813150E+03  0.24669269568E+03  0.90906995520E+02 0.  0.
         24    2    1    2    0    0 -0.12980303296E+03  0.81379415147E+02  0.89512502526E+02  0.19516433224E+03  0.81272331670E+02 0.  0.
        -13    1    4    4    0    0 -0.79827502699E+02  0.27122329715E+02  0.71714140496E+01  0.84613711275E+02  0.00000000000E+00 0.  1.
         14    1    4    4    0    0 -0.49975530265E+02  0.54257085432E+02  0.82341088476E+02  0.11055062097E+03  0.00000000000E+00 0. -1.
        -11    1    3    3    0    0 -0.23867819248E+02 -0.36190049731E+01 -0.18039253364E+02  0.30136102180E+02  0.00000000000E+00 0.  1.
         11    1    3    3    0    0  0.58277905302E+02 -0.74104519263E+02 -0.19495887814E+03  0.21655659350E+03  0.00000000000E+00 0. -1.
         21    1    1    2  502  501  0.95392946910E+02 -0.36558909104E+01  0.25367853936E+02  0.98776049080E+02  0.00000000000E+00 0. -1.
<scales pt_clust_5="13000.00000" pt_clust_6="13000.00000" pt_clust_7="13000.00000" pt_clust_8="13000.00000" pt_clust_9="95.46298"></scales>
<clustering>
<clus scale="   81.272">  5  6 -1 -1</clus>
<clus scale="   90.907">  7  8 -1 -1</clus>
<clus scale="   95.463">  1  9  2 -1</clus>
<clus scale="  121.191">  1  5  2 -1</clus>
<clus scale="   95.463">  1  5  2 -1</clus>
</clustering>
</event>
<event>
 9    2  0.3791909E-005  0.8658981E+02  0.7546771E-02  0.1311373E+00
         -1   -1    0    0    0  501 -0.00000000000E+00  0.00000000000E+00  0.44225679070E+02  0.44225679070E+02  0.00000000000E+00 0.  1.
          2   -1    0    0  502    0  0.00000000000E+00 -0.00000000000E+00 -0.31512390032E+03  0.31512390032E+03  0.00000000000E+00 0. -1.
         24    2    1    2    0    0 -0.27469833730E+02 -0.19271969024E+02 -0.29332319804E+02  0.93005850463E+02  0.81631505438E+02 0.  0.
         23    2    1    2    0    0  0.18504345212E+02 -0.56891681476E+01 -0.20211280481E+03  0.21880442742E+03  0.81553750164E+02 0.  0.
        -11    1    3    3    0    0  0.11743241599E+02  0.20421038422E+02  0.91012388748E+01  0.25253813228E+02  0.00000000000E+00 0.  1.
         12    1    3    3    0    0 -0.39213075329E+02 -0.39693007445E+02 -0.38433558679E+02  0.67752037236E+02  0.00000000000E+00 0. -1.
        -11    1    4    4    0    0  0.19966143473E+02  0.36145143721E+02 -0.11415310909E+03  0.12139213572E+03  0.00000000000E+00 0.  1.
         11    1    4    4    0    0 -0.14617982613E+01 -0.41834311868E+02 -0.87959695715E+02  0.97412291699E+02  0.00000000000E+00 0. -1.
         21    1    1    2  502  501  0.89654885180E+01  0.24961137171E+02 -0.39453096636E+02  0.47539301503E+02  0.00000000000E+00 0. -1.
<scales pt_clust_5="13000.00000" pt_clust_6="13000.00000" pt_clust_7="13000.00000" pt_clust_8="13000.00000" pt_clust_9="26.52241"></scales>
<clustering>
<clus scale="   26.522">  2  9  1 -1</clus>
<clus scale="   81.554">  7  8 -1 -1</clus>
<clus scale="   81.632">  5  6 -1 -1</clus>
<clus scale="   86.517">  2  7  1 -1</clus>
<clus scale="   26.522">  2  5  1 -1</clus>
</clustering>
</event>
<event>
 9    2  0.3791909E-005  0.2071173E+03  0.7546771E-02  0.1144776E+00
          4   -1    0    0  502    0  0.00000000000E+00  0.00000000000E+00  0.12818651634E+03  0.12818651634E+03  0.00000000000E+00 0. -1.
         -3   -1    0    0    0  501 -0.00000000000E+00 -0.00000000000E+00 -0.52297419606E+03  0.52297419606E+03  0.00000000000E+00 0.  1.
         24    2    1    2    0    0 -0.17146756527E+03  0.84947406273E+02 -0.23833058298E+03  0.31621291032E+03  0.81067565031E+02 0.  0.
         23    2    1    2    0    0  0.18887822445E+03 -0.10629109331E+01 -0.12032212843E+03  0.24196675269E+03  0.91620856611E+02 0.  0.
        -13    1    3    3    0    0 -0.12570045110E+03  0.96654829724E+02 -0.20092458862E+03  0.25595595291E+03  0.00000000000E+00 0.  1.
         14    1    3    3    0    0 -0.45767114170E+02 -0.11707423451E+02 -0.37405994361E+02  0.60256957419E+02  0.00000000000E+00 0. -1.
        -13    1    4    4    0    0  0.14532892373E+02 -0.29374640031E+02 -0.25281424014E+02  0.41391120278E+02  0.00000000000E+00 0.  1.
         13    1    4    4    0    0  0.17434533208E+03  0.28311729098E+02 -0.95040704417E+02  0.20057563241E+03  0.00000000000E+00 0. -1.
         21    1    1    2  502  501 -0.17410659176E+02 -0.83884495340E+02 -0.36134968307E+02  0.92981049391E+02  0.00000000000E+00 0.  1.
<scales pt_clust_5="13000.00000" pt_clust_6="13000.00000" pt_clust_7="13000.00000" pt_clust_8="13000.00000" pt_clust_9="85.67228"></scales>
<clustering>
<clus scale="   81.068">  5  6 -1 -1</clus>
<clus scale="   85.672">  1  9  2 -1</clus>
<clus scale="   91.621">  7  8 -1 -1</clus>
<clus scale="  202.670">  2  5  1 -1</clus>
<clus scale="   85.672">  1  5  2 -1</clus>
</clustering>
</event>
<event>
 9    2  0.3791909E-005  0.1724992E+03  0.7546771E-02  0.1176523E+00
         -3   -1    0    0    0  501 -0.00000000000E+00  0.00000000000E+00  0.85811580927E+03  0.85811580927E+03  0.00000000000E+00 0.  1.
          4   -1    0    0  502    0  0.00000000000E+00 -0.00000000000E+00 -0.26360371265E+03  0.26360371265E+03  0.00000000000E+00 0. -1.
         24    2    1    2    0    0 -0.12873682315E+03 -0.74273470530E+02  0.81422047429E+03  0.83156767075E+03  0.80374698898E+02 0.  0.
         23    2    1    2    0    0  0.10425397375E+03  0.55385607256E+02 -0.13764748558E+03  0.20245834339E+03  0.90033849141E+02 0.  0.
        -13    1    3    3    0    0 -0.13118697600E+03 -0.74067858222E+02  0.64618556560E+03  0.66351477413E+03  0.00000000000E+00 0.  1.
         14    1    3    3    0    0  0.24501528448E+01 -0.20561230783E+00  0.16803490869E+03  0.16805289662E+03  0.00000000000E+00 0. -1.
        -13    1    4    4    0    0  0.85268549053E+01  0.48262876145E+02 -0.26927391669E+02  0.55920451451E+02  0.00000000000E+00 0.  1.
         13    1    4    4    0    0  0.95727118842E+02  0.71227311106E+01 -0.11072009391E+03  0.14653789194E+03  0.00000000000E+00 0. -1.
         21    1    1    2  502  501  0.24482849404E+02  0.18887863274E+02 -0.82060892101E+02  0.87693507778E+02  0.00000000000E+00 0. -1.
<scales pt_clust_5="13000.00000" pt_clust_6="13000.00000" pt_clust_7="13000.00000" pt_clust_8="13000.00000" pt_clust_9="30.92186"></scales>
<clustering>
<clus scale="   30.922">  2  9  1 -1</clus>
<clus scale="   80.375">  5  6 -1 -1</clus>
<clus scale="   90.034">  7  8 -1 -1</clus>
<clus scale="  167.660">  1  5  2 -1</clus>
<clus scale="   30.922">  2  5  1 -1</clus>
</clustering>
</event>
<event>
 9    2  0.3791909E-005  0.3145725E+03  0.7546771E-02  0.1079152E+00
          2   -1    0    0  502    0  0.00000000000E+00  0.00000000000E+00  0.72090217090E+03  0.72090217090E+03  0.00000000000E+00 0. -1.
         -1   -1    0    0    0  501 -0.00000000000E+00 -0.00000000000E+00 -0.19392890300E+03  0.19392890300E+03  0.00000000000E+00 0.  1.
         23    2    1    2    0    0 -0.23198070081E+03 -0.16928615732E+03  0.47725141704E+02  0.31095073504E+03  0.10926949191E+03 0.  0.
         24    2    1    2    0    0  0.24558133119E+03  0.19617674085E+03  0.37942967851E+03  0.49961239974E+03  0.82765724550E+02 0.  0.
        -11    1    4    4    0    0  0.25087568269E+03  0.18364165013E+03  0.36866409435E+03  0.48226142111E+03  0.00000000000E+00 0.  1.
         12    1    4    4    0    0 -0.52943514997E+01  0.12535090719E+02  0.10765584161E+02  0.17350978631E+02  0.00000000000E+00 0. -1.
        -13    1    3    3    0    0 -0.22007221169E+03 -0.15258137221E+03  0.99653551169E+01  0.26797791291E+03  0.00000000000E+00 0. -1.
         13    1    3    3    0    0 -0.11908489116E+02 -0.16704785114E+02  0.37759786587E+02  0.42972822131E+02  0.00000000000E+00 0.  1.
         21    1    1    2  502  501 -0.13600630378E+02 -0.26890583525E+02  0.99818447692E+02  0.10426793912E+03  0.00000000000E+00 0. -1.
<scales pt_clust_5="13000.00000" pt_clust_6="13000.00000" pt_clust_7="13000.00000" pt_clust_8="13000.00000" pt_clust_9="30.13438"></scales>
<clustering>
<clus scale="   30.134">  1  9  2 -1</clus>
<clus scale="   82.766">  5  6 -1 -1</clus>
<clus scale="  109.269">  7  8 -1 -1</clus>
<clus scale="  306.376">  1  5  2 -1</clus>
<clus scale="   30.134">  1  5  2 -1</clus>
</clustering>
</event>
<event>
 9    2  0.3791909E-005  0.1283778E+03  0.7546771E-02  0.1232269E+00
         -1   -1    0    0    0  501 -0.00000000000E+00  0.00000000000E+00  0.63917191739E+02  0.63917191739E+02  0.00000000000E+00 0.  1.
          2   -1    0    0  502    0  0.00000000000E+00 -0.00000000000E+00 -0.72624653708E+03  0.72624653708E+03  0.00000000000E+00 0. -1.
         23    2    1    2    0    0  0.36099995718E+02  0.90162885832E+02 -0.25443132581E+02  0.13633601222E+03  0.92236649763E+02 0.  0.
         24    2    1    2    0    0 -0.22823604286E+02 -0.49256529003E+02 -0.35558399496E+03  0.36925693395E+03  0.83448087077E+02 0.  0.
        -13    1    4    4    0    0 -0.98759936388E+01 -0.60427062343E+02 -0.13765553827E+03  0.15065859527E+03  0.00000000000E+00 0.  1.
         14    1    4    4    0    0 -0.12947610647E+02  0.11170533340E+02 -0.21792845669E+03  0.21859833867E+03  0.00000000000E+00 0. -1.
        -13    1    3    3    0    0  0.66718107407E+02  0.67254806125E+02 -0.10632778536E+02  0.95328751079E+02  0.00000000000E+00 0.  1.
         13    1    3    3    0    0 -0.30618111688E+02  0.22908079707E+02 -0.14810354045E+02  0.41007261139E+02  0.00000000000E+00 0. -1.
         21    1    1    2  502  501 -0.13276391432E+02 -0.40906356830E+02 -0.28130221781E+03  0.28457078266E+03  0.00000000000E+00 0.  1.
<scales pt_clust_5="13000.00000" pt_clust_6="13000.00000" pt_clust_7="13000.00000" pt_clust_8="13000.00000" pt_clust_9="43.00689"></scales>
<clustering>
<clus scale="   43.007">  2  9  1 -1</clus>
<clus scale="   83.448">  5  6 -1 -1</clus>
<clus scale="   92.237">  7  8 -1 -1</clus>
<clus scale="  122.216">  2  5  1 -1</clus>
<clus scale="   43.007">  2  5  1 -1</clus>
</clustering>
</event>
<event>
 9    2  0.3791909E-005  0.1047856E+03  0.7546771E-02  0.1275782E+00
          2   -1    0    0  502    0  0.00000000000E+00  0.00000000000E+00  0.51802325290E+03  0.51802325290E+03  0.00000000000E+00 0. -1.
         -1   -1    0    0    0  501 -0.00000000000E+00 -0.00000000000E+00 -0.32228669859E+02  0.32228669859E+02  0.00000000000E+00 0.  1.
         23    2    1    2    0    0  0.34407579509E+02 -0.27043972776E+02  0.89701851369E+02  0.13550705258E+03  0.91654138854E+02 0.  0.
         24    2    1    2    0    0 -0.26272964097E+02  0.46553538810E+02  0.36257943487E+03  0.37512244979E+03  0.79971902115E+02 0.  0.
        -13    1    4    4    0    0 -0.45558725225E+02  0.34493016002E+01  0.12993369716E+03  0.13773256980E+03  0.00000000000E+00 0.  1.
         14    1    4    4    0    0  0.19285761128E+02  0.43104237210E+02  0.23264573772E+03  0.23738988000E+03  0.00000000000E+00 0. -1.
        -13    1    3    3    0    0  0.63345149679E+02 -0.66513868966E+01  0.71309337454E+02  0.95613129557E+02  0.00000000000E+00 0.  1.
         13    1    3    3    0    0 -0.28937570170E+02 -0.20392585879E+02  0.18392513915E+02  0.39893923024E+02  0.00000000000E+00 0. -1.
         21    1    1    2  502  501 -0.81346154127E+01 -0.19509566035E+02  0.33513296801E+02  0.39622420386E+02  0.00000000000E+00 0. -1.
<scales pt_clust_5="13000.00000" pt_clust_6="13000.00000" pt_clust_7="13000.00000" pt_clust_8="13000.00000" pt_clust_9="21.13753"></scales>
<clustering>
<clus scale="   21.138">  2  9  1 -1</clus>
<clus scale="   79.972">  5  6 -1 -1</clus>
<clus scale="   91.654">  7  8 -1 -1</clus>
<clus scale="   94.737">  1  5  2 -1</clus>
<clus scale="   94.737">  1  5  2 -1</clus>
</clustering>
</event>
<event>
 9    2  0.3791909E-005  0.1012562E+03  0.7546771E-02  0.1282106E+00
         -1   -1    0    0    0  501 -0.00000000000E+00  0.00000000000E+00  0.69711788817E+02  0.69711788817E+02  0.00000000000E+00 0.  1.
          2   -1    0    0  502    0  0.00000000000E+00 -0.00000000000E+00 -0.57505216853E+03  0.57505216853E+03  0.00000000000E+00 0. -1.
         23    2    1    2    0    0  0.41883230968E+02 -0.79839724043E+01  0.16905663376E+02  0.10158956695E+03  0.90645958587E+02 0.  0.
         24    2    1    2    0    0 -0.29902170053E+02  0.34901902194E+02 -0.49254988202E+03  0.50134159528E+03  0.81398564670E+02 0.  0.
        -13    1    4    4    0    0 -0.35369048187E+02 -0.18164601675E+02 -0.18860218200E+03  0.19274777659E+03  0.00000000000E+00 0.  1.
         14    1    4    4    0    0  0.54668781339E+01  0.53066503869E+02 -0.30394770001E+03  0.30859381869E+03  0.00000000000E+00 0. -1.
        -11    1    3    3    0    0  0.38816920469E+02  0.24338681929E+02 -0.22076221673E+02  0.50857490266E+02  0.00000000000E+00 0. -1.
         11    1    3    3    0    0  0.30663104986E+01 -0.32322654334E+02  0.38981885049E+02  0.50732076689E+02  0.00000000000E+00 0.  1.
         21    1    1    2  502  501 -0.11981060914E+02 -0.26917929789E+02 -0.29696161076E+02  0.41832795118E+02  0.00000000000E+00 0. -1.
<scales pt_clust_5="13000.00000" pt_clust_6="13000.00000" pt_clust_7="13000.00000" pt_clust_8="13000.00000" pt_clust_9="29.46389"></scales>
<clustering>
<clus scale="   29.464">  1  9  2 -1</clus>
<clus scale="   81.399">  5  6 -1 -1</clus>
<clus scale="   90.646">  7  8 -1 -1</clus>
<clus scale="   93.069">  2  5  1 -1</clus>
<clus scale="   93.069">  2  5  1 -1</clus>
</clustering>
</event>
<event>
 9    2  0.3791909E-005  0.1074593E+03  0.7546771E-02  0.1270560E+00
         -1   -1    0    0    0  501 -0.00000000000E+00  0.00000000000E+00  0.26855395095E+02  0.26855395095E+02  0.00000000000E+00 0.  1.
          2   -1    0    0  502    0  0.00000000000E+00 -0.00000000000E+00 -0.69688415311E+03  0.69688415311E+03  0.00000000000E+00 0. -1.
         24    2    1    2    0    0  0.11938694059E+01  0.47380945711E+02 -0.11941089070E+03  0.15160401210E+03  0.80488734167E+02 0.  0.
         23    2    1    2    0    0  0.13393774607E+02 -0.72832288172E+02 -0.35429909937E+03  0.37363710075E+03  0.92697873984E+02 0.  0.
        -11    1    3    3    0    0 -0.37908627547E+02  0.13266713355E+02 -0.65063698075E+02  0.76461457827E+02  0.00000000000E+00 0.  1.
         12    1    3    3    0    0  0.39102496953E+02  0.34114232356E+02 -0.54347192625E+02  0.75142554278E+02  0.00000000000E+00 0. -1.
        -13    1    4    4    0    0 -0.18985047669E+02 -0.73880418124E+02 -0.16752577773E+03  0.18407507822E+03  0.00000000000E+00 0.  1.
         13    1    4    4    0    0  0.32378822275E+02  0.10481299522E+01 -0.18677332164E+03  0.18956202253E+03  0.00000000000E+00 0. -1.
         21    1    1    2  502  501 -0.14587644013E+02  0.25451342461E+02 -0.19631876794E+03  0.19849843535E+03  0.00000000000E+00 0.  1.
<scales pt_clust_5="13000.00000" pt_clust_6="13000.00000" pt_clust_7="13000.00000" pt_clust_8="13000.00000" pt_clust_9="29.33548"></scales>
<clustering>
<clus scale="   29.335">  2  9  1 -1</clus>
<clus scale="   80.489">  5  6 -1 -1</clus>
<clus scale="   92.698">  7  8 -1 -1</clus>
<clus scale="   97.124">  1  5  2 -1</clus>
<clus scale="   29.335">  2  5  1 -1</clus>
</clustering>
</event>
<event>
 9    2  0.3791909E-005  0.1153832E+03  0.7546771E-02  0.1251864E+00
          2   -1    0    0  502    0  0.00000000000E+00  0.00000000000E+00  0.10019634029E+04  0.10019634029E+04  0.00000000000E+00 0. -1.
         -1   -1    0    0    0  501 -0.00000000000E+00 -0.00000000000E+00 -0.32921810096E+02  0.32921810096E+02  0.00000000000E+00 0.  1.
         24    2    1    2    0    0 -0.26910990295E+02 -0.55181301325E+02  0.10440140696E+03  0.15318362891E+03  0.93789087717E+02 0.  0.
         23    2    1    2    0    0  0.56562673925E+02  0.79955441082E+02  0.65230098572E+03  0.66587545904E+03  0.91111702580E+02 0.  0.
        -11    1    3    3    0    0  0.12193480627E+01 -0.72117327930E+02  0.44153445487E+02  0.84569040115E+02  0.00000000000E+00 0.  1.
         12    1    3    3    0    0 -0.28130338357E+02  0.16936026606E+02  0.60247961473E+02  0.68614588790E+02  0.00000000000E+00 0. -1.
        -11    1    4    4    0    0  0.81296296305E+02  0.54900882172E+02  0.45454589645E+03  0.46501093174E+03  0.00000000000E+00 0.  1.
         11    1    4    4    0    0 -0.24733622380E+02  0.25054558910E+02  0.19775508926E+03  0.20086452730E+03  0.00000000000E+00 0. -1.
         21    1    1    2  502  501 -0.29651683630E+02 -0.24774139757E+02  0.21233920012E+03  0.21582612505E+03  0.00000000000E+00 0.  1.
<scales pt_clust_5="13000.00000" pt_clust_6="13000.00000" pt_clust_7="13000.00000" pt_clust_8="13000.00000" pt_clust_9="38.63910"></scales>
<clustering>
<clus scale="   38.639">  1  9  2 -1</clus>
<clus scale="   91.112">  7  8 -1 -1</clus>
<clus scale="   93.789">  5  6 -1 -1</clus>
<clus scale="  113.218">  1  7  2 -1</clus>
<clus scale="   38.639">  1  5  2 -1</clus>
</clustering>
</event>
<event>
 9    2  0.3791909E-005  0.4197826E+03  0.7546771E-02  0.1037337E+00
         -1   -1    0    0    0  501 -0.00000000000E+00  0.00000000000E+00  0.55335205401E+03  0.55335205401E+03  0.00000000000E+00 0.  1.
          2   -1    0    0  502    0  0.00000000000E+00 -0.00000000000E+00 -0.56989750864E+03  0.56989750864E+03  0.00000000000E+00 0. -1.
         24    2    1    2    0    0 -0.43768610134E+03  0.13131129716E+03  0.24062554057E+03  0.52279329419E+03  0.81242831121E+02 0.  0.
         23    2    1    2    0    0  0.32753438200E+03  0.32740221051E+02 -0.19270701826E+03  0.39260558595E+03  0.93018588242E+02 0.  0.
        -13    1    3    3    0    0 -0.18907432067E+03  0.40880755676E+02  0.60266670655E+02  0.20261393464E+03  0.00000000000E+00 0.  1.
         14    1    3    3    0    0 -0.24861178067E+03  0.90430541484E+02  0.18035886992E+03  0.32017935954E+03  0.00000000000E+00 0. -1.
        -11    1    4    4    0    0  0.97816687823E+02 -0.22102708724E+01 -0.10687735428E+03  0.14489913241E+03  0.00000000000E+00 0. -1.
         11    1    4    4    0    0  0.22971769418E+03  0.34950491923E+02 -0.85829663982E+02  0.24770645354E+03  0.00000000000E+00 0.  1.
         21    1    1    2  502  501  0.11015171933E+03 -0.16405151821E+03 -0.64463976938E+02  0.20785068251E+03  0.00000000000E+00 0.  1.
<scales pt_clust_5="13000.00000" pt_clust_6="13000.00000" pt_clust_7="13000.00000" pt_clust_8="13000.00000" pt_clust_9="197.60137"></scales>
<clustering>
<clus scale="   81.243">  5  6 -1 -1</clus>
<clus scale="   93.019">  7  8 -1 -1</clus>
<clus scale="  197.601">  2  9  1 -1</clus>
<clus scale="  417.331">  1  5  2 -1</clus>
<clus scale="  197.601">  2  5  1 -1</clus>
</clustering>
</event>
<event>
 9    2  0.3791909E-005  0.1031675E+03  0.7546771E-02  0.1277194E+00
         -1   -1    0    0    0  501 -0.00000000000E+00  0.00000000000E+00  0.82256877008E+02  0.82256877008E+02  0.00000000000E+00 0.  1.
          2   -1    0    0  502    0  0.00000000000E+00 -0.00000000000E+00 -0.18179802456E+03  0.18179802456E+03  0.00000000000E+00 0. -1.
         23    2    1    2    0    0 -0.45005317469E+02  0.18787631533E+02 -0.58757611727E+01  0.10049758027E+03  0.87674314204E+02 0.  0.
         24    2    1    2    0    0  0.67994517996E+02 -0.87684314516E+00 -0.75035925741E+02  0.12896893474E+03  0.79865966744E+02 0.  0.
        -11    1    4    4    0    0 -0.21633483176E+01 -0.21271619971E+02  0.35415311651E+01  0.21672663314E+02  0.00000000000E+00 0.  1.
         12    1    4    4    0    0  0.70157866313E+02  0.20394776826E+02 -0.78577456906E+02  0.10729627142E+03  0.00000000000E+00 0. -1.
        -13    1    3    3    0    0  0.26306392693E+01  0.45087473729E+02  0.34281027736E+01  0.45294066265E+02  0.00000000000E+00 0. -1.
         13    1    3    3    0    0 -0.47635956738E+02 -0.26299842196E+02 -0.93038639464E+01  0.55203514002E+02  0.00000000000E+00 0.  1.
         21    1    1    2  502  501 -0.22989200527E+02 -0.17910788388E+02 -0.18629460640E+02  0.34588386567E+02  0.00000000000E+00 0. -1.
<scales pt_clust_5="13000.00000" pt_clust_6="13000.00000" pt_clust_7="13000.00000" pt_clust_8="13000.00000" pt_clust_9="29.14275"></scales>
<clustering>
<clus scale="   29.143">  2  9  1 -1</clus>
<clus scale="   79.866">  5  6 -1 -1</clus>
<clus scale="   87.674">  7  8 -1 -1</clus>
<clus scale="   96.619">  2  5  1 -1</clus>
<clus scale="   29.143">  2  5  1 -1</clus>
</clustering>
</event>
<event>
 9    2  0.3791909E-005  0.9581153E+02  0.7546771E-02  0.1298117E+00
         -1   -1    0    0    0  501 -0.00000000000E+00  0.00000000000E+00  0.54574691176E+02  0.54574691176E+02  0.00000000000E+00 0.  1.
          2   -1    0    0  502    0  0.00000000000E+00 -0.00000000000E+00 -0.40787020025E+03  0.40787020025E+03  0.00000000000E+00 0. -1.
         24    2    1    2    0    0 -0.20382015676E+02 -0.86920908219E+01 -0.97463742856E+01  0.83797913950E+02  0.80225429664E+02 0.  0.
         23    2    1    2    0    0 -0.28402603751E+02 -0.18657823272E+02 -0.25175226362E+03  0.27115454774E+03  0.94819640659E+02 0.  0.
        -11    1    3    3    0    0  0.21230677318E+02 -0.17931680003E+02 -0.26116903997E+02  0.38136327583E+02  0.00000000000E+00 0.  1.
         12    1    3    3    0    0 -0.41612692994E+02  0.92395891814E+01  0.16370529712E+02  0.45661586367E+02  0.00000000000E+00 0. -1.
        -13    1    4    4    0    0 -0.15785412792E+02  0.28327604158E+02 -0.18895222914E+03  0.19171483331E+03  0.00000000000E+00 0. -1.
         13    1    4    4    0    0 -0.12617190959E+02 -0.46985427430E+02 -0.62800034483E+02  0.79439714435E+02  0.00000000000E+00 0.  1.
         21    1    1    2  502  501  0.48784619427E+02  0.27349914094E+02 -0.91796871166E+02  0.10749242973E+03  0.00000000000E+00 0.  1.
<scales pt_clust_5="13000.00000" pt_clust_6="13000.00000" pt_clust_7="13000.00000" pt_clust_8="13000.00000" pt_clust_9="55.92814"></scales>
<clustering>
<clus scale="   55.928">  2  9  1 -1</clus>
<clus scale="   80.225">  5  6 -1 -1</clus>
<clus scale="   81.395">  1  5  2 -1</clus>
<clus scale="   94.820">  7  8 -1 -1</clus>
<clus scale="   55.928">  2  5  1 -1</clus>
</clustering>
</event>
<event>
 9    2  0.3791909E-005  0.2051516E+03  0.7546771E-02  0.1146138E+00
         -1   -1    0    0    0  501 -0.00000000000E+00  0.00000000000E+00  0.50126942026E+03  0.50126942026E+03  0.00000000000E+00 0.  1.
          2   -1    0    0  502    0  0.00000000000E+00 -0.00000000000E+00 -0.36513296315E+03  0.36513296315E+03  0.00000000000E+00 0. -1.
         23    2    1    2    0    0 -0.16835988572E+03  0.84638731784E+02  0.42034420710E+03  0.46900512017E+03  0.88135034270E+02 0.  0.
         24    2    1    2    0    0  0.14897306517E+03 -0.72053410679E+02 -0.95384478193E+02  0.20716459756E+03  0.80214111373E+02 0.  0.
        -13    1    4    4    0    0  0.20226741627E+02 -0.38655436511E+02 -0.23663117772E+00  0.43628200090E+02  0.00000000000E+00 0.  1.
         14    1    4    4    0    0  0.12874632354E+03 -0.33397974167E+02 -0.95147847015E+02  0.16353639747E+03  0.00000000000E+00 0. -1.
        -13    1    3    3    0    0 -0.78164596159E+02  0.57180330420E+02  0.11997210918E+03  0.15418366081E+03  0.00000000000E+00 0.  1.
         13    1    3    3    0    0 -0.90195289562E+02  0.27458401364E+02  0.30037209792E+03  0.31482145936E+03  0.00000000000E+00 0. -1.
         21    1    1    2  502  501  0.19386820550E+02 -0.12585321105E+02 -0.18882327180E+03  0.19023266568E+03  0.00000000000E+00 0. -1.
<scales pt_clust_5="13000.00000" pt_clust_6="13000.00000" pt_clust_7="13000.00000" pt_clust_8="13000.00000" pt_clust_9="23.11361"></scales>
<clustering>
<clus scale="   23.114">  2  9  1 -1</clus>
<clus scale="   80.214">  5  6 -1 -1</clus>
<clus scale="   88.135">  7  8 -1 -1</clus>
<clus scale="  201.875">  2  5  1 -1</clus>
<clus scale="   23.114">  2  5  1 -1</clus>
</clustering>
</event>
<event>
 9    2  0.3791909E-005  0.1314361E+03  0.7546771E-02  0.1239081E+00
         -1   -1    0    0    0  501 -0.00000000000E+00  0.00000000000E+00  0.12893405543E+03  0.12893405543E+03  0.00000000000E+00 0.  1.
          2   -1    0    0  502    0  0.00000000000E+00 -0.00000000000E+00 -0.40592978030E+03  0.40592978030E+03  0.00000000000E+00 0. -1.
         24    2    1    2    0    0  0.34996598351E+02  0.46471621125E+02  0.50772493119E+02  0.11132152545E+03  0.80188917593E+02 0.  0.
         23    2    1    2    0    0 -0.95005692226E+00  0.55845048645E+02 -0.33498558134E+02  0.11013761886E+03  0.88817620010E+02 0.  0.
        -11    1    3    3    0    0 -0.31998144766E+01  0.46435692148E+02  0.55945439692E+02  0.72776400985E+02  0.00000000000E+00 0.  1.
         12    1    3    3    0    0  0.38196412827E+02  0.35928976483E-01 -0.51729465727E+01  0.38545124465E+02  0.00000000000E+00 0. -1.
        -11    1    4    4    0    0  0.18920716404E+02  0.52506886998E+02  0.14854056320E+02  0.57754737300E+02  0.00000000000E+00 0.  1.
         11    1    4    4    0    0 -0.19870773326E+02  0.33381616470E+01 -0.48352614454E+02  0.52382881558E+02  0.00000000000E+00 0. -1.
         21    1    1    2  502  501 -0.34046541428E+02 -0.10231666977E+03 -0.29426965986E+03  0.31340469143E+03  0.00000000000E+00 0. -1.
<scales pt_clust_5="13000.00000" pt_clust_6="13000.00000" pt_clust_7="13000.00000" pt_clust_8="13000.00000" pt_clust_9="96.88595"></scales>
<clustering>
<clus scale="   80.189">  5  6 -1 -1</clus>
<clus scale="   88.818">  7  8 -1 -1</clus>
<clus scale="   99.069">  1  5  2 -1</clus>
<clus scale="   96.886">  2  9  1 -1</clus>
<clus scale="   96.886">  2  5  1 -1</clus>
</clustering>
</event>
<event>
 9    2  0.3791909E-005  0.9671590E+02  0.7546771E-02  0.1293542E+00
         -1   -1    0    0    0  501 -0.00000000000E+00  0.00000000000E+00  0.68776134450E+02  0.68776134450E+02  0.00000000000E+00 0.  1.
          2   -1    0    0  502    0  0.00000000000E+00 -0.00000000000E+00 -0.36843321762E+03  0.36843321762E+03  0.00000000000E+00 0. -1.
         23    2    1    2    0    0 -0.16414132313E+02  0.23375189102E+02  0.19576852521E+02  0.97891661651E+02  0.91562552723E+02 0.  0.
         24    2    1    2    0    0  0.31966412796E+02 -0.37283453321E+02 -0.26093453704E+03  0.27739731312E+03  0.80315187024E+02 0.  0.
        -11    1    4    4    0    0  0.29334445423E+02  0.16820835560E+02 -0.55934651385E+02  0.65361574513E+02  0.00000000000E+00 0.  1.
         12    1    4    4    0    0  0.26319673731E+01 -0.54104288882E+02 -0.20499988566E+03  0.21203573861E+03  0.00000000000E+00 0. -1.
        -11    1    3    3    0    0  0.27154182654E+02  0.24241598864E+02  0.36120037231E+02  0.51280228555E+02  0.00000000000E+00 0.  1.
         11    1    3    3    0    0 -0.43568314967E+02 -0.86640976204E+00 -0.16543184710E+02  0.46611433096E+02  0.00000000000E+00 0. -1.
         21    1    1    2  502  501 -0.15552280483E+02  0.13908264219E+02 -0.58299398650E+02  0.61920377298E+02  0.00000000000E+00 0. -1.
<scales pt_clust_5="13000.00000" pt_clust_6="13000.00000" pt_clust_7="13000.00000" pt_clust_8="13000.00000" pt_clust_9="20.86416"></scales>
<clustering>
<clus scale="   20.864">  2  9  1 -1</clus>
<clus scale="   80.315">  5  6 -1 -1</clus>
<clus scale="   86.144">  2  5  1 -1</clus>
<clus scale="   91.563">  7  8 -1 -1</clus>
<clus scale="   20.864">  2  5  1 -1</clus>
</clustering>
</event>
<event>
 9    2  0.3791909E-005  0.1090493E+03  0.7546771E-02  0.1267982E+00
         -1   -1    0    0    0  501 -0.00000000000E+00  0.00000000000E+00  0.59214236155E+03  0.59214236155E+03  0.00000000000E+00 0.  1.
          2   -1    0    0  502    0  0.00000000000E+00 -0.00000000000E+00 -0.35302536006E+02  0.35302536006E+02  0.00000000000E+00 0. -1.
         23    2    1    2    0    0 -0.45494337747E+02  0.49378837186E+02  0.43909236563E+03  0.45411917516E+03  0.94414592942E+02 0.  0.
         24    2    1    2    0    0  0.18053318236E+02 -0.18574666444E+02  0.88474443349E+02  0.12274098176E+03  0.81035059967E+02 0.  0.
        -11    1    4    4    0    0  0.78459129245E+01  0.24436350363E+02  0.70490188305E+02  0.75017066165E+02  0.00000000000E+00 0.  1.
         12    1    4    4    0    0  0.10207405311E+02 -0.43011016807E+02  0.17984255044E+02  0.47723915592E+02  0.00000000000E+00 0. -1.
        -13    1    3    3    0    0 -0.17992866291E+02  0.69801406757E+02  0.37052243190E+03  0.37746900822E+03  0.00000000000E+00 0.  1.
         13    1    3    3    0    0 -0.27501471456E+02 -0.20422569571E+02  0.68569933735E+02  0.76650166944E+02  0.00000000000E+00 0. -1.
         21    1    1    2  502  501  0.27441019511E+02 -0.30804170742E+02  0.29273016556E+02  0.50584740636E+02  0.00000000000E+00 0.  1.
<scales pt_clust_5="13000.00000" pt_clust_6="13000.00000" pt_clust_7="13000.00000" pt_clust_8="13000.00000" pt_clust_9="41.25417"></scales>
<clustering>
<clus scale="   41.254">  2  9  1 -1</clus>
<clus scale="   81.035">  5  6 -1 -1</clus>
<clus scale="   94.415">  7  8 -1 -1</clus>
<clus scale="   97.695">  2  5  1 -1</clus>
<clus scale="   41.254">  2  5  1 -1</clus>
</clustering>
</event>
<event>
 9    2  0.3791909E-005  0.1134412E+03  0.7546771E-02  0.1258469E+00
         -1   -1    0    0    0  501 -0.00000000000E+00  0.00000000000E+00  0.41317033215E+02  0.41317033215E+02  0.00000000000E+00 0.  1.
          2   -1    0    0  502    0  0.00000000000E+00 -0.00000000000E+00 -0.12373535060E+04  0.12373535060E+04  0.00000000000E+00 0. -1.
         23    2    1    2    0    0  0.34581135642E+02 -0.21118092889E+02 -0.44903010039E+02  0.10989717605E+03  0.91756635747E+02 0.  0.
         24    2    1    2    0    0 -0.19692764937E+02  0.66827773276E+02 -0.10635605798E+04  0.10688731715E+04  0.80467345030E+02 0.  0.
        -13    1    4    4    0    0 -0.26758883732E+02  0.12517208606E+02 -0.11503429716E+03  0.11876703201E+03  0.00000000000E+00 0.  1.
         14    1    4    4    0    0  0.70661187947E+01  0.54310564670E+02 -0.94852628263E+03  0.95010613950E+03  0.00000000000E+00 0. -1.
        -13    1    3    3    0    0  0.48609120029E+01 -0.27338835614E+02 -0.66879240769E+02  0.72414592757E+02  0.00000000000E+00 0. -1.
         13    1    3    3    0    0  0.29720223639E+02  0.62207427253E+01  0.21976230730E+02  0.37482583294E+02  0.00000000000E+00 0.  1.
         21    1    1    2  502  501 -0.14888370705E+02 -0.45709680387E+02 -0.87572882938E+02  0.99900191639E+02  0.00000000000E+00 0. -1.
<scales pt_clust_5="13000.00000" pt_clust_6="13000.00000" pt_clust_7="13000.00000" pt_clust_8="13000.00000" pt_clust_9="48.07326"></scales>
<clustering>
<clus scale="   48.073">  1  9  2 -1</clus>
<clus scale="   80.467">  5  6 -1 -1</clus>
<clus scale="   91.757">  7  8 -1 -1</clus>
<clus scale="  104.521">  2  5  1 -1</clus>
<clus scale="  104.521">  2  5  1 -1</clus>
</clustering>
</event>
<event>
 9    2  0.3791909E-005  0.9879647E+02  0.7546771E-02  0.1289727E+00
         -3   -1    0    0    0  501 -0.00000000000E+00  0.00000000000E+00  0.84201269961E+02  0.84201269961E+02  0.00000000000E+00 0.  1.
          4   -1    0    0  502    0  0.00000000000E+00 -0.00000000000E+00 -0.41650382648E+03  0.41650382648E+03  0.00000000000E+00 0. -1.
         23    2    1    2    0    0 -0.50940454905E+01 -0.36116638615E+02  0.42847387788E+02  0.10874286151E+03  0.93052406765E+02 0.  0.
         24    2    1    2    0    0 -0.46292897381E+01  0.50622843319E+01 -0.28376135316E+03  0.29495300465E+03  0.80185487207E+02 0.  0.
        -11    1    4    4    0    0 -0.10495242638E+02  0.21457601002E+02 -0.21571438547E+02  0.32185489274E+02  0.00000000000E+00 0.  1.
         12    1    4    4    0    0  0.58659528997E+01 -0.16395316670E+02 -0.26218991462E+03  0.26276751538E+03  0.00000000000E+00 0. -1.
        -11    1    3    3    0    0  0.43647195274E+02 -0.15717550486E+02  0.26538402342E+02  0.53445353844E+02  0.00000000000E+00 0.  1.
         11    1    3    3    0    0 -0.48741240765E+02 -0.20399088129E+02  0.16308985446E+02  0.55297507666E+02  0.00000000000E+00 0. -1.
         21    1    1    2  502  501  0.97233352286E+01  0.31054354283E+02 -0.91388591143E+02  0.97009230277E+02  0.00000000000E+00 0. -1.
<scales pt_clust_5="13000.00000" pt_clust_6="13000.00000" pt_clust_7="13000.00000" pt_clust_8="13000.00000" pt_clust_9="32.54099"></scales>
<clustering>
<clus scale="   32.541">  2  9  1 -1</clus>
<clus scale="   80.185">  5  6 -1 -1</clus>
<clus scale="   86.785">  2  5  1 -1</clus>
<clus scale="   93.052">  7  8 -1 -1</clus>
<clus scale="   32.541">  2  5  1 -1</clus>
</clustering>
</event>
<event>
 9    2  0.3791909E-005  0.1673394E+03  0.7546771E-02  0.1182398E+00
         -1   -1    0    0    0  501 -0.00000000000E+00  0.00000000000E+00  0.36065482256E+03  0.36065482256E+03  0.00000000000E+00 0.  1.
          2   -1    0    0  502    0  0.00000000000E+00 -0.00000000000E+00 -0.35909901713E+03  0.35909901713E+03  0.00000000000E+00 0. -1.
         24    2    1    2    0    0  0.74507780232E+02 -0.12027203543E+03  0.31619161655E+03  0.35532086865E+03  0.79113902042E+02 0.  0.
         23    2    1    2    0    0 -0.44065065919E+02  0.11383704507E+03 -0.26794511305E+03  0.30832424407E+03  0.91480342198E+02 0.  0.
        -13    1    3    3    0    0  0.75597705858E+02 -0.13087719342E+03  0.28951136290E+03  0.32658947034E+03  0.00000000000E+00 0.  1.
         14    1    3    3    0    0 -0.10899256258E+01  0.10605157987E+02  0.26680253648E+02  0.28731398305E+02  0.00000000000E+00 0. -1.
        -11    1    4    4    0    0 -0.19251447408E+02 -0.12955035661E+02 -0.45730755431E+02  0.51281119026E+02  0.00000000000E+00 0.  1.
         11    1    4    4    0    0 -0.24813618512E+02  0.12679208073E+03 -0.22221435762E+03  0.25704312505E+03  0.00000000000E+00 0. -1.
         21    1    1    2  502  501 -0.30442714312E+02  0.64349903589E+01 -0.46690698067E+02  0.56108726965E+02  0.00000000000E+00 0. -1.
<scales pt_clust_5="13000.00000" pt_clust_6="13000.00000" pt_clust_7="13000.00000" pt_clust_8="13000.00000" pt_clust_9="31.11540"></scales>
<clustering>
<clus scale="   31.115">  2  9  1 -1</clus>
<clus scale="   79.114">  5  6 -1 -1</clus>
<clus scale="   91.480">  7  8 -1 -1</clus>
<clus scale="  160.912">  1  5  2 -1</clus>
<clus scale="   31.115">  2  5  1 -1</clus>
</clustering>
</event>
<event>
 9    2  0.3791909E-005  0.1085104E+03  0.7546771E-02  0.1268505E+00
          2   -1    0    0  502    0  0.00000000000E+00  0.00000000000E+00  0.57719134366E+03  0.57719134366E+03  0.00000000000E+00 0. -1.
         -1   -1    0    0    0  501 -0.00000000000E+00 -0.00000000000E+00 -0.38503133772E+02  0.38503133772E+02  0.00000000000E+00 0.  1.
         23    2    1    2    0    0  0.64473261673E+02 -0.51845430580E+01  0.66246899831E+02  0.12919136893E+03  0.90100372424E+02 0.  0.
         24    2    1    2    0    0 -0.43548686652E+02  0.18383444442E+02  0.34652216179E+03  0.35817664694E+03  0.77320519017E+02 0.  0.
        -11    1    4    4    0    0 -0.50785375155E+02  0.22944850874E+02  0.12944856965E+03  0.14093456884E+03  0.00000000000E+00 0.  1.
         12    1    4    4    0    0  0.72366885029E+01 -0.45614064318E+01  0.21707359214E+03  0.21724207809E+03  0.00000000000E+00 0. -1.
        -11    1    3    3    0    0  0.44487870024E+00  0.33810120894E+02  0.93640933795E+01  0.35085729817E+02  0.00000000000E+00 0. -1.
         11    1    3    3    0    0  0.64028382973E+02 -0.38994663952E+02  0.56882806452E+02  0.94105639112E+02  0.00000000000E+00 0.  1.
         21    1    1    2  502  501 -0.20924575021E+02 -0.13198901384E+02  0.12591914827E+03  0.12832646157E+03  0.00000000000E+00 0. -1.
<scales pt_clust_5="13000.00000" pt_clust_6="13000.00000" pt_clust_7="13000.00000" pt_clust_8="13000.00000" pt_clust_9="24.73962"></scales>
<clustering>
<clus scale="   24.740">  1  9  2 -1</clus>
<clus scale="   77.321">  5  6 -1 -1</clus>
<clus scale="   90.100">  7  8 -1 -1</clus>
<clus scale="   98.157">  1  5  2 -1</clus>
<clus scale="   24.740">  1  5  2 -1</clus>
</clustering>
</event>
<event>
 9    2  0.3791909E-005  0.1107562E+03  0.7546771E-02  0.1268733E+00
          2   -1    0    0  502    0  0.00000000000E+00  0.00000000000E+00  0.90131325301E+03  0.90131325301E+03  0.00000000000E+00 0. -1.
         -1   -1    0    0    0  501 -0.00000000000E+00 -0.00000000000E+00 -0.26980683974E+02  0.26980683974E+02  0.00000000000E+00 0.  1.
         24    2    1    2    0    0  0.24836592978E+02  0.24510678878E+02  0.11423795149E+03  0.14416191509E+03  0.80713805960E+02 0.  0.
         23    2    1    2    0    0 -0.79064680382E+02 -0.18469847050E+02  0.42010515760E+03  0.43979205909E+03  0.10166785557E+03 0.  0.
        -11    1    3    3    0    0  0.10589680878E+01 -0.29000883303E+02  0.31898859032E+02  0.43124353367E+02  0.00000000000E+00 0.  1.
         12    1    3    3    0    0  0.23777624890E+02  0.53511562182E+02  0.82339092455E+02  0.10103756172E+03  0.00000000000E+00 0. -1.
        -11    1    4    4    0    0 -0.91898961915E+02 -0.41757989093E+02  0.29195882469E+03  0.30891601475E+03  0.00000000000E+00 0.  1.
         11    1    4    4    0    0  0.12834281533E+02  0.23288142043E+02  0.12814633291E+03  0.13087604434E+03  0.00000000000E+00 0. -1.
         21    1    1    2  502  501  0.54228087404E+02 -0.60408318283E+01  0.33998945994E+03  0.34433996280E+03  0.00000000000E+00 0. -1.
<scales pt_clust_5="13000.00000" pt_clust_6="13000.00000" pt_clust_7="13000.00000" pt_clust_8="13000.00000" pt_clust_9="54.56351"></scales>
<clustering>
<clus scale="   54.564">  1  9  2 -1</clus>
<clus scale="   80.714">  5  6 -1 -1</clus>
<clus scale="   91.898">  2  5  1 -1</clus>
<clus scale="  101.668">  7  8 -1 -1</clus>
<clus scale="   54.564">  1  5  2 -1</clus>
</clustering>
</event>
<event>
 9    2  0.3791909E-005  0.1426424E+03  0.7546771E-02  0.1214111E+00
          2   -1    0    0  502    0  0.00000000000E+00  0.00000000000E+00  0.29121747212E+03  0.29121747212E+03  0.00000000000E+00 0. -1.
         -1   -1    0    0    0  501 -0.00000000000E+00 -0.00000000000E+00 -0.47480184534E+03  0.47480184534E+03  0.00000000000E+00 0.  1.
         23    2    1    2    0    0 -0.73991049182E+01  0.11169983217E+03 -0.33322739740E+03  0.36564973915E+03  0.10063614709E+03 0.  0.
         24    2    1    2    0    0  0.88140929923E+02 -0.58914110206E+02 -0.76620548449E+02  0.15440051715E+03  0.82031185177E+02 0.  0.
        -11    1    4    4    0    0  0.50991172449E+02  0.92094738321E+01 -0.11443930119E+02  0.53064843471E+02  0.00000000000E+00 0.  1.
         12    1    4    4    0    0  0.37149757474E+02 -0.68123584038E+02 -0.65176618330E+02  0.10133567368E+03  0.00000000000E+00 0. -1.
        -13    1    3    3    0    0  0.38356439618E+02  0.30203429519E+02 -0.62911548763E+02  0.79632446796E+02  0.00000000000E+00 0. -1.
         13    1    3    3    0    0 -0.45755544537E+02  0.81496402654E+02 -0.27031584864E+03  0.28601729236E+03  0.00000000000E+00 0.  1.
         21    1    1    2  502  501 -0.80741825004E+02 -0.52785721967E+02  0.22626357264E+03  0.24596906116E+03  0.00000000000E+00 0. -1.
<scales pt_clust_5="13000.00000" pt_clust_6="13000.00000" pt_clust_7="13000.00000" pt_clust_8="13000.00000" pt_clust_9="96.46541"></scales>
<clustering>
<clus scale="   82.031">  5  6 -1 -1</clus>
<clus scale="   96.465">  1  9  2 -1</clus>
<clus scale="  100.636">  7  8 -1 -1</clus>
<clus scale="  130.186">  1  5  2 -1</clus>
<clus scale="   96.465">  1  5  2 -1</clus>
</clustering>
</event>
<event>
 9    2  0.3791909E-005  0.8721440E+02  0.7546771E-02  0.1311618E+00
         -1   -1    0    0    0  501 -0.00000000000E+00  0.00000000000E+00  0.10869344978E+03  0.10869344978E+03  0.00000000000E+00 0.  1.
          2   -1    0    0  502    0  0.00000000000E+00 -0.00000000000E+00 -0.34825070349E+03  0.34825070349E+03  0.00000000000E+00 0. -1.
         23    2    1    2    0    0  0.11682748415E+02  0.31395625646E+02  0.78258140811E+02  0.11733707826E+03  0.80755689646E+02 0.  0.
         24    2    1    2    0    0 -0.30631281261E+02 -0.14141573735E+02 -0.28858516308E+03  0.30073348972E+03  0.77594948215E+02 0.  0.
        -11    1    4    4    0    0 -0.30340517980E+02  0.11096430147E+02 -0.42638011446E+02  0.53494652193E+02  0.00000000000E+00 0.  1.
         12    1    4    4    0    0 -0.29076328110E+00 -0.25238003881E+02 -0.24594715164E+03  0.24723883753E+03  0.00000000000E+00 0. -1.
        -11    1    3    3    0    0 -0.17451110766E+02  0.37015884768E+02  0.77517756486E+02  0.87656828386E+02  0.00000000000E+00 0.  1.
         11    1    3    3    0    0  0.29133859181E+02 -0.56202591222E+01  0.74038432485E+00  0.29680249869E+02  0.00000000000E+00 0. -1.
         21    1    1    2  502  501  0.18948532846E+02 -0.17254051911E+02 -0.29230231434E+02  0.38873585299E+02  0.00000000000E+00 0. -1.
<scales pt_clust_5="13000.00000" pt_clust_6="13000.00000" pt_clust_7="13000.00000" pt_clust_8="13000.00000" pt_clust_9="25.62712"></scales>
<clustering>
<clus scale="   25.627">  2  9  1 -1</clus>
<clus scale="   77.595">  5  6 -1 -1</clus>
<clus scale="   80.756">  7  8 -1 -1</clus>
<clus scale="   84.296">  2  5  1 -1</clus>
<clus scale="   25.627">  2  5  1 -1</clus>
</clustering>
</event>
<event>
 9    2  0.3791909E-005  0.1287956E+03  0.7546771E-02  0.1240391E+00
         -1   -1    0    0    0  501 -0.00000000000E+00  0.00000000000E+00  0.16324319680E+03  0.16324319680E+03  0.00000000000E+00 0.  1.
          2   -1    0    0  502    0  0.00000000000E+00 -0.00000000000E+00 -0.47921276316E+03  0.47921276316E+03  0.00000000000E+00 0. -1.
         23    2    1    2    0    0  0.31485487550E+02 -0.32860666607E+02  0.77751956532E+02  0.12867222036E+03  0.91869549966E+02 0.  0.
         24    2    1    2    0    0  0.68826926669E+02  0.25550446222E+01  0.19196037647E+00  0.10617014382E+03  0.80798443693E+02 0.  0.
        -11    1    4    4    0    0  0.45508816264E+02 -0.60759832312E+01  0.38891947871E+02  0.60171035716E+02  0.00000000000E+00 0.  1.
         12    1    4    4    0    0  0.23318110406E+02  0.86310278533E+01 -0.38699987494E+02  0.45999108108E+02  0.00000000000E+00 0. -1.
        -11    1    3    3    0    0 -0.12146904055E+01  0.30318198061E+02  0.15170844341E+02  0.33923784052E+02  0.00000000000E+00 0. -1.
         11    1    3    3    0    0  0.32700177955E+02 -0.63178864668E+02  0.62581112191E+02  0.94748436305E+02  0.00000000000E+00 0.  1.
         21    1    1    2  502  501 -0.10031241422E+03  0.30305621985E+02 -0.39391348327E+03  0.40761359579E+03  0.00000000000E+00 0. -1.
<scales pt_clust_5="13000.00000" pt_clust_6="13000.00000" pt_clust_7="13000.00000" pt_clust_8="13000.00000" pt_clust_9="100.29910"></scales>
<clustering>
<clus scale="   80.798">  5  6 -1 -1</clus>
<clus scale="   91.870">  7  8 -1 -1</clus>
<clus scale="  102.524">  1  7  2 -1</clus>
<clus scale="  100.299">  2  9  1 -1</clus>
<clus scale="  100.299">  2  5  1 -1</clus>
</clustering>
</event>
<event>
 9    2  0.3791909E-005  0.1587235E+03  0.7546771E-02  0.1191971E+00
         -1   -1    0    0    0  501 -0.00000000000E+00  0.00000000000E+00  0.90991214026E+02  0.90991214026E+02  0.00000000000E+00 0.  1.
          2   -1    0    0  502    0  0.00000000000E+00 -0.00000000000E+00 -0.44177957998E+03  0.44177957998E+03  0.00000000000E+00 0. -1.
         24    2    1    2    0    0 -0.11289868600E+03 -0.76008260039E+02 -0.50191102607E+02  0.16544303181E+03  0.79554265118E+02 0.  0.
         23    2    1    2    0    0  0.11222771178E+03  0.46618996403E+02 -0.14831422313E+03  0.21223326403E+03  0.90980544412E+02 0.  0.
        -13    1    3    3    0    0 -0.29457707091E+02  0.10127950149E+02 -0.31083816249E+02  0.44006084964E+02  0.00000000000E+00 0.  1.
         14    1    3    3    0    0 -0.83440978913E+02 -0.86136210189E+02 -0.19107286359E+02  0.12143694685E+03  0.00000000000E+00 0. -1.
        -13    1    4    4    0    0  0.92569169904E+02  0.14974425796E+02 -0.48246931565E+02  0.10545639407E+03  0.00000000000E+00 0.  1.
         13    1    4    4    0    0  0.19658541878E+02  0.31644570607E+02 -0.10006729157E+03  0.10677686997E+03  0.00000000000E+00 0. -1.
         21    1    1    2  502  501  0.67097422222E+00  0.29389263637E+02 -0.15228304021E+03  0.15509449816E+03  0.00000000000E+00 0. -1.
<scales pt_clust_5="13000.00000" pt_clust_6="13000.00000" pt_clust_7="13000.00000" pt_clust_8="13000.00000" pt_clust_9="29.39692"></scales>
<clustering>
<clus scale="   29.397">  2  9  1 -1</clus>
<clus scale="   79.554">  5  6 -1 -1</clus>
<clus scale="   90.981">  7  8 -1 -1</clus>
<clus scale="  152.462">  1  5  2 -1</clus>
<clus scale="   29.397">  2  5  1 -1</clus>
</clustering>
</event>
<event>
 9    2  0.3791909E-005  0.1046463E+03  0.7546771E-02  0.1276051E+00
         -1   -1    0    0    0  501 -0.00000000000E+00  0.00000000000E+00  0.17444070420E+03  0.17444070420E+03  0.00000000000E+00 0.  1.
          2   -1    0    0  502    0  0.00000000000E+00 -0.00000000000E+00 -0.35127636566E+03  0.35127636566E+03  0.00000000000E+00 0. -1.
         23    2    1    2    0    0  0.13884710221E+02 -0.48280284187E+02  0.14151263960E+03  0.17550413887E+03  0.90841095184E+02 0.  0.
         24    2    1    2    0    0 -0.22894992477E+01  0.75013908515E+02 -0.19442791972E+03  0.22291251269E+03  0.79091365324E+02 0.  0.
        -13    1    4    4    0    0  0.17010101294E+02  0.85050806682E+02 -0.16378092748E+03  0.18532990980E+03  0.00000000000E+00 0.  1.
         14    1    4    4    0    0 -0.19299600542E+02 -0.10036898167E+02 -0.30646992243E+02  0.37582602883E+02  0.00000000000E+00 0. -1.
        -11    1    3    3    0    0  0.20653922933E+02  0.90214871935E+01  0.10461454820E+03  0.10701483757E+03  0.00000000000E+00 0.  1.
         11    1    3    3    0    0 -0.67692127120E+01 -0.57301771381E+02  0.36898091400E+02  0.68489301304E+02  0.00000000000E+00 0. -1.
         21    1    1    2  502  501 -0.11595210974E+02 -0.26733624327E+02 -0.12392038135E+03  0.12730041831E+03  0.00000000000E+00 0. -1.
<scales pt_clust_5="13000.00000" pt_clust_6="13000.00000" pt_clust_7="13000.00000" pt_clust_8="13000.00000" pt_clust_9="29.13993"></scales>
<clustering>
<clus scale="   29.140">  2  9  1 -1</clus>
<clus scale="   79.091">  5  6 -1 -1</clus>
<clus scale="   90.841">  7  8 -1 -1</clus>
<clus scale="   94.627">  2  5  1 -1</clus>
<clus scale="   29.140">  2  5  1 -1</clus>
</clustering>
</event>
<event>
 9    2  0.3791909E-005  0.1242093E+03  0.7546771E-02  0.1239875E+00
         -1   -1    0    0    0  501 -0.00000000000E+00  0.00000000000E+00  0.90117346474E+02  0.90117346474E+02  0.00000000000E+00 0.  1.
          2   -1    0    0  502    0  0.00000000000E+00 -0.00000000000E+00 -0.25346043869E+03  0.25346043869E+03  0.00000000000E+00 0. -1.
         23    2    1    2    0    0  0.39386496293E+02 -0.88113614925E+02 -0.16216079466E+02  0.13442143072E+03  0.92145833204E+02 0.  0.
         24    2    1    2    0    0 -0.12685023271E+02  0.65617756839E+02 -0.73190782471E+02  0.12739084558E+03  0.80030850745E+02 0.  0.
        -11    1    4    4    0    0  0.33506792124E+02  0.22490579845E+02 -0.21361404422E+02  0.45660058028E+02  0.00000000000E+00 0.  1.
         12    1    4    4    0    0 -0.46191815396E+02  0.43127176994E+02 -0.51829378048E+02  0.81730787552E+02  0.00000000000E+00 0. -1.
        -11    1    3    3    0    0 -0.72907439812E+01 -0.57005165375E+02 -0.43469194606E+02  0.72057717886E+02  0.00000000000E+00 0. -1.
         11    1    3    3    0    0  0.46677240274E+02 -0.31108449550E+02  0.27253115140E+02  0.62363712829E+02  0.00000000000E+00 0.  1.
         21    1    1    2  502  501 -0.26701473022E+02  0.22495858086E+02 -0.73936230282E+02  0.81765508871E+02  0.00000000000E+00 0. -1.
<scales pt_clust_5="13000.00000" pt_clust_6="13000.00000" pt_clust_7="13000.00000" pt_clust_8="13000.00000" pt_clust_9="34.91464"></scales>
<clustering>
<clus scale="   34.915">  2  9  1 -1</clus>
<clus scale="   80.031">  5  6 -1 -1</clus>
<clus scale="   92.146">  7  8 -1 -1</clus>
<clus scale="  115.508">  2  5  1 -1</clus>
<clus scale="   34.915">  2  5  1 -1</clus>
</clustering>
</event>
<event>
 9    2  0.3791909E-005  0.1626643E+03  0.7546771E-02  0.1193168E+00
          2   -1    0    0  502    0  0.00000000000E+00  0.00000000000E+00  0.75009207944E+03  0.75009207944E+03  0.00000000000E+00 0. -1.
         -1   -1    0    0    0  501 -0.00000000000E+00 -0.00000000000E+00 -0.42892619318E+02  0.42892619318E+02  0.00000000000E+00 0.  1.
         23    2    1    2    0    0  0.79988215796E+02 -0.35270909233E+02  0.18471787533E+03  0.23974064020E+03  0.12535042637E+03 0.  0.
         24    2    1    2    0    0 -0.88227273425E+02  0.66799219399E+02  0.47100427135E+03  0.49231926712E+03  0.91033233829E+02 0.  0.
        -11    1    4    4    0    0 -0.93206153029E+02  0.82886520882E+02  0.38562946817E+03  0.40529945600E+03  0.00000000000E+00 0.  1.
         12    1    4    4    0    0  0.49788796044E+01 -0.16087301483E+02  0.85374803174E+02  0.87019811125E+02  0.00000000000E+00 0. -1.
        -13    1    3    3    0    0  0.10914411812E+02 -0.51684588829E+02  0.15321955631E+03  0.16206990327E+03  0.00000000000E+00 0. -1.
         13    1    3    3    0    0  0.69073803985E+02  0.16413679596E+02  0.31498319016E+02  0.77670736933E+02  0.00000000000E+00 0.  1.
         21    1    1    2  502  501  0.82390576283E+01 -0.31528310166E+02  0.51477313446E+02  0.60924791442E+02  0.00000000000E+00 0. -1.
<scales pt_clust_5="13000.00000" pt_clust_6="13000.00000" pt_clust_7="13000.00000" pt_clust_8="13000.00000" pt_clust_9="32.58706"></scales>
<clustering>
<clus scale="   32.587">  2  9  1 -1</clus>
<clus scale="   91.033">  5  6 -1 -1</clus>
<clus scale="  125.350">  7  8 -1 -1</clus>
<clus scale="  137.964">  1  5  2 -1</clus>
<clus scale="  137.964">  1  5  2 -1</clus>
</clustering>
</event>
<event>
 9    2  0.3791909E-005  0.1047308E+03  0.7546771E-02  0.1275394E+00
          4   -1    0    0  502    0  0.00000000000E+00  0.00000000000E+00  0.13194813104E+03  0.13194813104E+03  0.00000000000E+00 0. -1.
         -3   -1    0    0    0  501 -0.00000000000E+00 -0.00000000000E+00 -0.16832560870E+03  0.16832560870E+03  0.00000000000E+00 0.  1.
         24    2    1    2    0    0 -0.22532582939E+02  0.57967849379E+02 -0.94279516335E+02  0.13829498588E+03  0.79805307237E+02 0.  0.
         23    2    1    2    0    0  0.33138183812E+02 -0.56153871947E+01  0.47198356298E+02  0.10750097965E+03  0.90548903855E+02 0.  0.
        -13    1    3    3    0    0  0.19022110834E+02  0.49376364123E+02 -0.74750276244E+02  0.91583130724E+02  0.00000000000E+00 0.  1.
         14    1    3    3    0    0 -0.41554693773E+02  0.85914852568E+01 -0.19529240090E+02  0.46711855155E+02  0.00000000000E+00 0. -1.
        -11    1    4    4    0    0  0.15653695365E+01 -0.44778235711E+02  0.31619334221E+02  0.54839065197E+02  0.00000000000E+00 0. -1.
         11    1    4    4    0    0  0.31572814276E+02  0.39162848516E+02  0.15579022077E+02  0.52661914455E+02  0.00000000000E+00 0.  1.
         21    1    1    2  502  501 -0.10605600873E+02 -0.52352462185E+02  0.10703682373E+02  0.54477774211E+02  0.00000000000E+00 0. -1.
<scales pt_clust_5="13000.00000" pt_clust_6="13000.00000" pt_clust_7="13000.00000" pt_clust_8="13000.00000" pt_clust_9="53.41591"></scales>
<clustering>
<clus scale="   53.416">  1  9  2 -1</clus>
<clus scale="   79.805">  5  6 -1 -1</clus>
<clus scale="   90.549">  7  8 -1 -1</clus>
<clus scale="   95.595">  2  5  1 -1</clus>
<clus scale="   53.416">  1  5  2 -1</clus>
</clustering>
</event>
<event>
 9    2  0.3791909E-005  0.1364932E+03  0.7546771E-02  0.1218842E+00
          2   -1    0    0  502    0  0.00000000000E+00  0.00000000000E+00  0.76868552942E+03  0.76868552942E+03  0.00000000000E+00 0. -1.
         -1   -1    0    0    0  501 -0.00000000000E+00 -0.00000000000E+00 -0.30590664465E+02  0.30590664465E+02  0.00000000000E+00 0.  1.
         23    2    1    2    0    0  0.37265580010E+02  0.10909902625E+03  0.24524348333E+03  0.28356742518E+03  0.83515253245E+02 0.  0.
         24    2    1    2    0    0 -0.15669910716E+02 -0.95508248469E+02  0.42629026816E+03  0.44442438052E+03  0.80139039457E+02 0.  0.
        -13    1    4    4    0    0 -0.37588356736E+02 -0.93634977698E+02  0.30798593003E+03  0.32409215774E+03  0.00000000000E+00 0.  1.
         14    1    4    4    0    0  0.21918446021E+02 -0.18732707715E+01  0.11830433813E+03  0.12033222278E+03  0.00000000000E+00 0. -1.
        -11    1    3    3    0    0 -0.18963343037E+02  0.23235706708E+02  0.10863378799E+03  0.11269785419E+03  0.00000000000E+00 0.  1.
         11    1    3    3    0    0  0.56228923047E+02  0.85863319547E+02  0.13660969534E+03  0.17086957099E+03  0.00000000000E+00 0. -1.
         21    1    1    2  502  501 -0.21595669294E+02 -0.13590777785E+02  0.66561113466E+02  0.71284388185E+02  0.00000000000E+00 0.  1.
<scales pt_clust_5="13000.00000" pt_clust_6="13000.00000" pt_clust_7="13000.00000" pt_clust_8="13000.00000" pt_clust_9="25.51631"></scales>
<clustering>
<clus scale="   25.516">  1  9  2 -1</clus>
<clus scale="   80.139">  5  6 -1 -1</clus>
<clus scale="   83.515">  7  8 -1 -1</clus>
<clus scale="  134.454">  1  5  2 -1</clus>
<clus scale="   25.516">  1  5  2 -1</clus>
</clustering>
</event>
<event>
 9    2  0.3791909E-005  0.2087299E+03  0.7546771E-02  0.1143633E+00
         -1   -1    0    0    0  501 -0.00000000000E+00  0.00000000000E+00  0.24571497266E+03  0.24571497266E+03  0.00000000000E+00 0.  1.
          2   -1    0    0  502    0  0.00000000000E+00 -0.00000000000E+00 -0.50040106100E+03  0.50040106100E+03  0.00000000000E+00 0. -1.
         23    2    1    2    0    0  0.17356478410E+03 -0.76456205081E+02  0.15398779180E+03  0.26060524715E+03  0.90733506722E+02 0.  0.
         24    2    1    2    0    0 -0.14671548630E+03  0.10973018663E+03 -0.24169627575E+03  0.31314616424E+03  0.77956928424E+02 0.  0.
        -13    1    4    4    0    0 -0.19332493284E+02 -0.10955174197E+02 -0.16610318308E+02  0.27742815512E+02  0.00000000000E+00 0.  1.
         14    1    4    4    0    0 -0.12738299302E+03  0.12068536083E+03 -0.22508595744E+03  0.28540334873E+03  0.00000000000E+00 0. -1.
        -11    1    3    3    0    0  0.13398370475E+03 -0.28167869540E+02  0.14157100387E+03  0.19694519834E+03  0.00000000000E+00 0.  1.
         11    1    3    3    0    0  0.39581079351E+02 -0.48288335542E+02  0.12416787937E+02  0.63660048811E+02  0.00000000000E+00 0. -1.
         21    1    1    2  502  501 -0.26849297797E+02 -0.33273981553E+02 -0.16697760440E+03  0.17236462227E+03  0.00000000000E+00 0. -1.
<scales pt_clust_5="13000.00000" pt_clust_6="13000.00000" pt_clust_7="13000.00000" pt_clust_8="13000.00000" pt_clust_9="42.75562"></scales>
<clustering>
<clus scale="   42.756">  2  9  1 -1</clus>
<clus scale="   77.957">  5  6 -1 -1</clus>
<clus scale="   90.734">  7  8 -1 -1</clus>
<clus scale="  203.502">  2  5  1 -1</clus>
<clus scale="   42.756">  2  5  1 -1</clus>
</clustering>
</event>
<event>
 9    2  0.3791909E-005  0.9311388E+02  0.7546771E-02  0.1301793E+00
          2   -1    0    0  502    0  0.00000000000E+00  0.00000000000E+00  0.34252001003E+03  0.34252001003E+03  0.00000000000E+00 0. -1.
         -1   -1    0    0    0  501 -0.00000000000E+00 -0.00000000000E+00 -0.13876797071E+03  0.13876797071E+03  0.00000000000E+00 0.  1.
         24    2    1    2    0    0  0.14308475278E+02  0.22037979809E+02 -0.10569114393E+03  0.13459529697E+03  0.79087742682E+02 0.  0.
         23    2    1    2    0    0  0.40319144043E+02 -0.23913262961E+02  0.21261456931E+03  0.23550152424E+03  0.89769345078E+02 0.  0.
        -11    1    3    3    0    0  0.40180215165E+02  0.18207535262E+01 -0.24696286141E+02  0.47198213772E+02  0.00000000000E+00 0.  1.
         12    1    3    3    0    0 -0.25871739887E+02  0.20217226282E+02 -0.80994857792E+02  0.87397083201E+02  0.00000000000E+00 0. -1.
        -11    1    4    4    0    0  0.40656815411E+02 -0.51568405301E+02  0.18545761049E+03  0.19674044412E+03  0.00000000000E+00 0. -1.
         11    1    4    4    0    0 -0.33767136842E+00  0.27655142339E+02  0.27156958820E+02  0.38761080121E+02  0.00000000000E+00 0.  1.
         21    1    1    2  502  501 -0.54627619320E+02  0.18752831527E+01  0.96828613944E+02  0.11119115953E+03  0.00000000000E+00 0. -1.
<scales pt_clust_5="13000.00000" pt_clust_6="13000.00000" pt_clust_7="13000.00000" pt_clust_8="13000.00000" pt_clust_9="54.65980"></scales>
<clustering>
<clus scale="   54.660">  1  9  2 -1</clus>
<clus scale="   79.088">  5  6 -1 -1</clus>
<clus scale="   82.865">  2  5  1 -1</clus>
<clus scale="   89.769">  7  8 -1 -1</clus>
<clus scale="   54.660">  1  5  2 -1</clus>
</clustering>
</event>
<event>
 9    2  0.3791909E-005  0.1456361E+03  0.7546771E-02  0.1209035E+00
          2   -1    0    0  502    0  0.00000000000E+00  0.00000000000E+00  0.29152181915E+03  0.29152181915E+03  0.00000000000E+00 0. -1.
         -1   -1    0    0    0  501 -0.00000000000E+00 -0.00000000000E+00 -0.17261299837E+03  0.17261299837E+03  0.00000000000E+00 0.  1.
         23    2    1    2    0    0  0.10589291567E+03  0.50466937058E+02 -0.10419378975E+03  0.18213979486E+03  0.92511284303E+02 0.  0.
         24    2    1    2    0    0 -0.72989412911E+02 -0.64693865386E+02  0.11956099745E+03  0.17242353173E+03  0.76956426422E+02 0.  0.
        -11    1    4    4    0    0 -0.53966645293E+00 -0.42898274273E+02  0.19884126246E+02  0.47285638962E+02  0.00000000000E+00 0.  1.
         12    1    4    4    0    0 -0.72449746458E+02 -0.21795591113E+02  0.99676871199E+02  0.12513789277E+03  0.00000000000E+00 0. -1.
        -11    1    3    3    0    0  0.21774693619E+02  0.60386921862E+02 -0.37594767537E+02  0.74391425314E+02  0.00000000000E+00 0.  1.
         11    1    3    3    0    0  0.84118222054E+02 -0.99199848032E+01 -0.66599022215E+02  0.10774836955E+03  0.00000000000E+00 0. -1.
         21    1    1    2  502  501 -0.32903502762E+02  0.14226928328E+02  0.10354161308E+03  0.10957149093E+03  0.00000000000E+00 0. -1.
<scales pt_clust_5="13000.00000" pt_clust_6="13000.00000" pt_clust_7="13000.00000" pt_clust_8="13000.00000" pt_clust_9="35.84754"></scales>
<clustering>
<clus scale="   35.848">  1  9  2 -1</clus>
<clus scale="   76.956">  5  6 -1 -1</clus>
<clus scale="   92.511">  7  8 -1 -1</clus>
<clus scale="  136.286">  1  5  2 -1</clus>
<clus scale="   35.848">  1  5  2 -1</clus>
</clustering>
</event>
<event>
 9    2  0.3791909E-005  0.2048634E+03  0.7546771E-02  0.1173482E+00
         -1   -1    0    0    0  501 -0.00000000000E+00  0.00000000000E+00  0.62215079643E+02  0.62215079643E+02  0.00000000000E+00 0.  1.
          2   -1    0    0  502    0  0.00000000000E+00 -0.00000000000E+00 -0.24980424432E+04  0.24980424432E+04  0.00000000000E+00 0. -1.
         23    2    1    2    0    0 -0.40039252563E+02  0.40894306165E+02 -0.18881740057E+02  0.10888665484E+03  0.90687912496E+02 0.  0.
         24    2    1    2    0    0 -0.81761102069E+02  0.13299258899E+03 -0.68390724953E+03  0.70537717261E+03  0.73864220970E+02 0.  0.
        -13    1    4    4    0    0 -0.80421626460E+02  0.13648687145E+03 -0.57551319069E+03  0.59691853442E+03  0.00000000000E+00 0.  1.
         14    1    4    4    0    0 -0.13394756092E+01 -0.34942824638E+01 -0.10839405884E+03  0.10845863819E+03  0.00000000000E+00 0. -1.
        -13    1    3    3    0    0  0.17214654937E+02 -0.16420936412E+02 -0.14271654271E+02  0.27742956095E+02  0.00000000000E+00 0. -1.
         13    1    3    3    0    0 -0.57253907500E+02  0.57315242576E+02 -0.46100857859E+01  0.81143698748E+02  0.00000000000E+00 0.  1.
         21    1    1    2  502  501  0.12180035463E+03 -0.17388689515E+03 -0.17330383739E+04  0.17459936954E+04  0.00000000000E+00 0. -1.
<scales pt_clust_5="13000.00000" pt_clust_6="13000.00000" pt_clust_7="13000.00000" pt_clust_8="13000.00000" pt_clust_9="191.08402"></scales>
<clustering>
<clus scale="   73.864">  5  6 -1 -1</clus>
<clus scale="   90.688">  7  8 -1 -1</clus>
<clus scale="  107.237">  1  7  2 -1</clus>
<clus scale="  191.084">  2  9  1 -1</clus>
<clus scale="  191.084">  2  5  1 -1</clus>
</clustering>
</event>
<event>
 9    2  0.3791909E-005  0.1238917E+03  0.7546771E-02  0.1237471E+00
          2   -1    0    0  502    0  0.00000000000E+00  0.00000000000E+00  0.55981941469E+03  0.55981941469E+03  0.00000000000E+00 0. -1.
         -1   -1    0    0    0  501 -0.00000000000E+00 -0.00000000000E+00 -0.50107272771E+02  0.50107272771E+02  0.00000000000E+00 0.  1.
         23    2    1    2    0    0 -0.83565172933E+02  0.28140802070E+02  0.64165533776E+02  0.14292895892E+03  0.92392795738E+02 0.  0.
         24    2    1    2    0    0  0.64567949942E+02 -0.86655317874E+01  0.32815230257E+03  0.34649211202E+03  0.90159516444E+02 0.  0.
        -13    1    4    4    0    0  0.40978223246E+02 -0.43036892152E+02  0.25913719089E+03  0.26586363529E+03  0.00000000000E+00 0.  1.
         14    1    4    4    0    0  0.23589726696E+02  0.34371360365E+02  0.69015111680E+02  0.80628476725E+02  0.00000000000E+00 0. -1.
        -13    1    3    3    0    0 -0.31875205482E+02 -0.72181085077E+01 -0.19775722452E+02  0.38199594415E+02  0.00000000000E+00 0.  1.
         13    1    3    3    0    0 -0.51689967451E+02  0.35358910577E+02  0.83941256228E+02  0.10472936450E+03  0.00000000000E+00 0. -1.
         21    1    1    2  502  501  0.18997222990E+02 -0.19475270282E+02  0.11739430557E+03  0.12050561653E+03  0.00000000000E+00 0. -1.
<scales pt_clust_5="13000.00000" pt_clust_6="13000.00000" pt_clust_7="13000.00000" pt_clust_8="13000.00000" pt_clust_9="27.20626"></scales>
<clustering>
<clus scale="   27.206">  1  9  2 -1</clus>
<clus scale="   90.160">  5  6 -1 -1</clus>
<clus scale="   92.393">  7  8 -1 -1</clus>
<clus scale="  122.235">  1  5  2 -1</clus>
<clus scale="   27.206">  1  5  2 -1</clus>
</clustering>
</event>
<event>
 9    2  0.3791909E-005  0.9694120E+02  0.7546771E-02  0.1293361E+00
          2   -1    0    0  502    0  0.00000000000E+00  0.00000000000E+00  0.32572581264E+03  0.32572581264E+03  0.00000000000E+00 0. -1.
         -1   -1    0    0    0  501 -0.00000000000E+00 -0.00000000000E+00 -0.17059600930E+03  0.17059600930E+03  0.00000000000E+00 0.  1.
         24    2    1    2    0    0  0.35300275525E+02  0.13926520337E+01 -0.14564164001E+03  0.16944422291E+03  0.79068378244E+02 0.  0.
         23    2    1    2    0    0 -0.53417745009E+00 -0.57621028050E+01  0.19104904864E+03  0.21169610061E+03  0.91005564960E+02 0.  0.
        -13    1    3    3    0    0  0.14686227596E+02  0.29688420328E+02 -0.12386122711E+03  0.12821345937E+03  0.00000000000E+00 0.  1.
         14    1    3    3    0    0  0.20614047929E+02 -0.28295768294E+02 -0.21780412904E+02  0.41230763534E+02  0.00000000000E+00 0. -1.
        -11    1    4    4    0    0 -0.31632481934E+02 -0.30325495275E+02  0.14217216221E+03  0.14877221947E+03  0.00000000000E+00 0. -1.
         11    1    4    4    0    0  0.31098304484E+02  0.24563392470E+02  0.48876886423E+02  0.62923881140E+02  0.00000000000E+00 0.  1.
         21    1    1    2  502  501 -0.34766098075E+02  0.43694507712E+01  0.10972239472E+03  0.11518149842E+03  0.00000000000E+00 0. -1.
<scales pt_clust_5="13000.00000" pt_clust_6="13000.00000" pt_clust_7="13000.00000" pt_clust_8="13000.00000" pt_clust_9="35.03960"></scales>
<clustering>
<clus scale="   35.040">  1  9  2 -1</clus>
<clus scale="   79.068">  5  6 -1 -1</clus>
<clus scale="   85.834">  2  5  1 -1</clus>
<clus scale="   91.006">  7  8 -1 -1</clus>
<clus scale="   35.040">  1  5  2 -1</clus>
</clustering>
</event>
<event>
 9    2  0.3791909E-005  0.1733930E+03  0.7546771E-02  0.1175842E+00
          2   -1    0    0  502    0  0.00000000000E+00  0.00000000000E+00  0.11515041990E+03  0.11515041990E+03  0.00000000000E+00 0. -1.
         -1   -1    0    0    0  501 -0.00000000000E+00 -0.00000000000E+00 -0.79518193001E+03  0.79518193001E+03  0.00000000000E+00 0.  1.
         23    2    1    2    0    0  0.12323074674E+02 -0.15052839884E+03 -0.67818933522E+03  0.70076925546E+03  0.91247564144E+02 0.  0.
         24    2    1    2    0    0  0.12273618222E+02  0.11814672664E+03  0.42627915311E+02  0.14930399623E+03  0.79782538226E+02 0.  0.
        -13    1    4    4    0    0 -0.16136191263E+02  0.62142405051E+02 -0.12889192351E+02  0.65484245841E+02  0.00000000000E+00 0.  1.
         14    1    4    4    0    0  0.28409809484E+02  0.56004321586E+02  0.55517107662E+02  0.83819750384E+02  0.00000000000E+00 0. -1.
        -11    1    3    3    0    0  0.45202462171E+02 -0.56077725746E+02 -0.20973349576E+03  0.22175687848E+03  0.00000000000E+00 0. -1.
         11    1    3    3    0    0 -0.32879387497E+02 -0.94450673092E+02 -0.46845583946E+03  0.47901237698E+03  0.00000000000E+00 0.  1.
         21    1    1    2  502  501 -0.24596692896E+02  0.32381672201E+02 -0.44470090204E+02  0.60259098223E+02  0.00000000000E+00 0.  1.
<scales pt_clust_5="13000.00000" pt_clust_6="13000.00000" pt_clust_7="13000.00000" pt_clust_8="13000.00000" pt_clust_9="40.66411"></scales>
<clustering>
<clus scale="   40.664">  1  9  2 -1</clus>
<clus scale="   79.783">  5  6 -1 -1</clus>
<clus scale="   91.248">  7  8 -1 -1</clus>
<clus scale="  167.643">  1  5  2 -1</clus>
<clus scale="   40.664">  1  5  2 -1</clus>
</clustering>
</event>
<event>
 9    2  0.3791909E-005  0.1680445E+03  0.7546771E-02  0.1181529E+00
          2   -1    0    0  502    0  0.00000000000E+00  0.00000000000E+00  0.68526080445E+03  0.68526080445E+03  0.00000000000E+00 0. -1.
         -1   -1    0    0    0  501 -0.00000000000E+00 -0.00000000000E+00 -0.11940645831E+03  0.11940645831E+03  0.00000000000E+00 0.  1.
         23    2    1    2    0    0  0.13001068537E+03  0.61156850838E+02 -0.38533377261E+02  0.17458673512E+03  0.91393480082E+02 0.  0.
         24    2    1    2    0    0 -0.10731303142E+03 -0.50137900554E+02  0.56881734183E+03  0.58647029024E+03  0.79776796079E+02 0.  0.
        -11    1    4    4    0    0 -0.24110379128E+02 -0.33633701235E+02  0.77231148941E+02  0.87619556077E+02  0.00000000000E+00 0.  1.
         12    1    4    4    0    0 -0.83202652289E+02 -0.16504199319E+02  0.49158619288E+03  0.49885073417E+03  0.00000000000E+00 0. -1.
        -13    1    3    3    0    0  0.84564922137E+01  0.28287975449E+02  0.20067225897E+02  0.35698954757E+02  0.00000000000E+00 0. -1.
         13    1    3    3    0    0  0.12155419316E+03  0.32868875389E+02 -0.58600603158E+02  0.13888778036E+03  0.00000000000E+00 0.  1.
         21    1    1    2  502  501 -0.22697653953E+02 -0.11018950284E+02  0.35570381581E+02  0.43610237401E+02  0.00000000000E+00 0. -1.
<scales pt_clust_5="13000.00000" pt_clust_6="13000.00000" pt_clust_7="13000.00000" pt_clust_8="13000.00000" pt_clust_9="25.23095"></scales>
<clustering>
<clus scale="   25.231">  1  9  2 -1</clus>
<clus scale="   79.777">  5  6 -1 -1</clus>
<clus scale="   91.393">  7  8 -1 -1</clus>
<clus scale="  162.020">  1  5  2 -1</clus>
<clus scale="   25.231">  1  5  2 -1</clus>
</clustering>
</event>
<event>
 9    2  0.3791909E-005  0.9748276E+02  0.7546771E-02  0.1291042E+00
         -3   -1    0    0    0  501 -0.00000000000E+00  0.00000000000E+00  0.23484969802E+03  0.23484969802E+03  0.00000000000E+00 0.  1.
          4   -1    0    0  502    0  0.00000000000E+00 -0.00000000000E+00 -0.10038387582E+03  0.10038387582E+03  0.00000000000E+00 0. -1.
         23    2    1    2    0    0  0.33213915060E+02  0.23171824533E+01  0.18240281418E+03  0.20641071197E+03  0.90697640020E+02 0.  0.
         24    2    1    2    0    0 -0.50926109789E+02  0.12830704043E+02 -0.40486271990E+02  0.10435464707E+03  0.80577034704E+02 0.  0.
        -11    1    4    4    0    0  0.19952650415E+02  0.92792198758E+01 -0.21784526638E+02  0.30964137012E+02  0.00000000000E+00 0.  1.
         12    1    4    4    0    0 -0.70878760204E+02  0.35514841667E+01 -0.18701745353E+02  0.73390510061E+02  0.00000000000E+00 0. -1.
        -13    1    3    3    0    0  0.55507775857E+02 -0.17514332964E+01  0.17331347139E+03  0.18199379128E+03  0.00000000000E+00 0.  1.
         13    1    3    3    0    0 -0.22293860797E+02  0.40686157497E+01  0.90893427870E+01  0.24416920683E+02  0.00000000000E+00 0. -1.
         21    1    1    2  502  501  0.17712194729E+02 -0.15147886496E+02 -0.74507199882E+01  0.24468214805E+02  0.00000000000E+00 0.  1.
<scales pt_clust_5="13000.00000" pt_clust_6="13000.00000" pt_clust_7="13000.00000" pt_clust_8="13000.00000" pt_clust_9="23.30623"></scales>
<clustering>
<clus scale="   23.306">  2  9  1 -1</clus>
<clus scale="   80.577">  5  6 -1 -1</clus>
<clus scale="   88.145">  2  5  1 -1</clus>
<clus scale="   90.698">  7  8 -1 -1</clus>
<clus scale="   23.306">  2  5  1 -1</clus>
</clustering>
</event>
<event>
 9    2  0.3791909E-005  0.1125422E+03  0.7546771E-02  0.1260764E+00
         -1   -1    0    0    0  501 -0.00000000000E+00  0.00000000000E+00  0.35571827404E+03  0.35571827404E+03  0.00000000000E+00 0.  1.
          2   -1    0    0  502    0  0.00000000000E+00 -0.00000000000E+00 -0.14027514257E+03  0.14027514257E+03  0.00000000000E+00 0. -1.
         23    2    1    2    0    0 -0.33698832649E+02 -0.40923580366E+02  0.20928428714E+03  0.23495730993E+03  0.92707464072E+02 0.  0.
         24    2    1    2    0    0  0.36096873965E+02  0.81135902720E+02  0.10196587888E+03  0.15710454583E+03  0.79992367411E+02 0.  0.
        -11    1    4    4    0    0  0.26216206656E+02 -0.39016242211E+01  0.50990387612E+02  0.57467658660E+02  0.00000000000E+00 0.  1.
         12    1    4    4    0    0  0.98806673095E+01  0.85037526941E+02  0.50975491267E+02  0.99636887169E+02  0.00000000000E+00 0. -1.
        -11    1    3    3    0    0  0.21858409121E+02 -0.23316821242E+02  0.14373652166E+03  0.14724690781E+03  0.00000000000E+00 0.  1.
         11    1    3    3    0    0 -0.55557241770E+02 -0.17606759124E+02  0.65547765479E+02  0.87710402115E+02  0.00000000000E+00 0. -1.
         21    1    1    2  502  501 -0.23980413163E+01 -0.40212322354E+02 -0.95807034555E+02  0.10393156085E+03  0.00000000000E+00 0. -1.
<scales pt_clust_5="13000.00000" pt_clust_6="13000.00000" pt_clust_7="13000.00000" pt_clust_8="13000.00000" pt_clust_9="40.28376"></scales>
<clustering>
<clus scale="   40.284">  2  9  1 -1</clus>
<clus scale="   79.992">  5  6 -1 -1</clus>
<clus scale="   92.707">  7  8 -1 -1</clus>
<clus scale="  102.322">  2  5  1 -1</clus>
<clus scale="   40.284">  2  5  1 -1</clus>
</clustering>
</event>
<event>
 9    2  0.3839666E-005  0.2563520E+03  0.7546771E-02  0.1109859E+00
         -1   -1    0    0    0  501 -0.00000000000E+00  0.00000000000E+00  0.76987413218E+03  0.76987413218E+03  0.00000000000E+00 0.  1.
          2   -1    0    0  502    0  0.00000000000E+00 -0.00000000000E+00 -0.55300979395E+03  0.55300979395E+03  0.00000000000E+00 0. -1.
         23    2    1    2    0    0  0.23985494412E+03  0.38019627401E+01  0.71301526401E+03  0.75777485737E+03  0.91033612526E+02 0.  0.
         24    2    1    2    0    0 -0.23390763801E+03 -0.24248068193E+02 -0.46464665712E+03  0.52708364803E+03  0.81362793207E+02 0.  0.
        -11    1    4    4    0    0 -0.10061846743E+03 -0.32684766006E+02 -0.27902468467E+03  0.29840768182E+03  0.00000000000E+00 0.  1.
         12    1    4    4    0    0 -0.13328917058E+03  0.84366978129E+01 -0.18562197245E+03  0.22867596621E+03  0.00000000000E+00 0. -1.
        -13    1    3    3    0    0  0.10174630293E+03  0.40389738253E+02  0.24289111926E+03  0.26642022620E+03  0.00000000000E+00 0.  1.
         13    1    3    3    0    0  0.13810864119E+03 -0.36587775513E+02  0.47012414475E+03  0.49135463117E+03  0.00000000000E+00 0. -1.
         21    1    1    2  502  501 -0.59473061077E+01  0.20446105453E+02 -0.31504268664E+02  0.38025420736E+02  0.00000000000E+00 0.  1.
<scales pt_clust_5="13000.00000" pt_clust_6="13000.00000" pt_clust_7="13000.00000" pt_clust_8="13000.00000" pt_clust_9="21.29351"></scales>
<clustering>
<clus scale="   21.294">  2  9  1 -1</clus>
<clus scale="   81.363">  5  6 -1 -1</clus>
<clus scale="   91.034">  7  8 -1 -1</clus>
<clus scale="  253.079">  2  5  1 -1</clus>
<clus scale="   21.294">  2  5  1 -1</clus>
</clustering>
</event>
<event>
 9    2  0.3791909E-005  0.1118475E+03  0.7546771E-02  0.1260726E+00
         -1   -1    0    0    0  501 -0.00000000000E+00  0.00000000000E+00  0.57046863809E+03  0.57046863809E+03  0.00000000000E+00 0.  1.
          2   -1    0    0  502    0  0.00000000000E+00 -0.00000000000E+00 -0.25998289705E+02  0.25998289705E+02  0.00000000000E+00 0. -1.
         24    2    1    2    0    0 -0.29353778888E+02 -0.45393653243E+02  0.28104569390E+03  0.30369933523E+03  0.10160893697E+03 0.  0.
         23    2    1    2    0    0  0.41563564181E+01  0.41730251878E+02  0.21361432312E+03  0.23682655468E+03  0.93257968768E+02 0.  0.
        -13    1    3    3    0    0  0.27069818304E+02 -0.41873015211E+02  0.75175439798E+02  0.90207933214E+02  0.00000000000E+00 0.  1.
         14    1    3    3    0    0 -0.56423597192E+02 -0.35206380322E+01  0.20587025410E+03  0.21349140202E+03  0.00000000000E+00 0. -1.
        -11    1    4    4    0    0 -0.38473363907E+02  0.33757033430E+02  0.15930626287E+03  0.16732669371E+03  0.00000000000E+00 0.  1.
         11    1    4    4    0    0  0.42629720325E+02  0.79732184484E+01  0.54308060249E+02  0.69499860974E+02  0.00000000000E+00 0. -1.
         21    1    1    2  502  501  0.25197422470E+02  0.36634013652E+01  0.49810331365E+02  0.55941037882E+02  0.00000000000E+00 0.  1.
<scales pt_clust_5="13000.00000" pt_clust_6="13000.00000" pt_clust_7="13000.00000" pt_clust_8="13000.00000" pt_clust_9="25.46234"></scales>
<clustering>
<clus scale="   25.462">  2  9  1 -1</clus>
<clus scale="   93.258">  7  8 -1 -1</clus>
<clus scale="  101.609">  5  6 -1 -1</clus>
<clus scale="  104.319">  2  7  1 -1</clus>
<clus scale="   25.462">  2  5  1 -1</clus>
</clustering>
</event>
<event>
 9    2  0.3791909E-005  0.9895100E+02  0.7546771E-02  0.1288333E+00
          2   -1    0    0  502    0  0.00000000000E+00  0.00000000000E+00  0.26044580225E+03  0.26044580225E+03  0.00000000000E+00 0. -1.
         -1   -1    0    0    0  501 -0.00000000000E+00 -0.00000000000E+00 -0.19603150470E+03  0.19603150470E+03  0.00000000000E+00 0.  1.
         23    2    1    2    0    0  0.38567419021E+02 -0.49234901574E+01 -0.16875957069E+03  0.19564151255E+03  0.91017153146E+02 0.  0.
         24    2    1    2    0    0 -0.34869983932E+02  0.24748151079E+02  0.14926812019E+03  0.17454058734E+03  0.79718618658E+02 0.  0.
        -11    1    4    4    0    0  0.11641830354E+02 -0.21647923925E+02  0.35789389807E+02  0.43417107769E+02  0.00000000000E+00 0.  1.
         12    1    4    4    0    0 -0.46511814286E+02  0.46396075005E+02  0.11347873039E+03  0.13112347957E+03  0.00000000000E+00 0. -1.
        -11    1    3    3    0    0 -0.95062238440E+01 -0.30395670553E+02 -0.20906672345E+02  0.38096640648E+02  0.00000000000E+00 0. -1.
         11    1    3    3    0    0  0.48073642865E+02  0.25472180396E+02 -0.14785289834E+03  0.15754487190E+03  0.00000000000E+00 0.  1.
         21    1    1    2  502  501 -0.36974350888E+01 -0.19824660922E+02  0.83905748047E+02  0.86295207064E+02  0.00000000000E+00 0. -1.
<scales pt_clust_5="13000.00000" pt_clust_6="13000.00000" pt_clust_7="13000.00000" pt_clust_8="13000.00000" pt_clust_9="20.16651"></scales>
<clustering>
<clus scale="   20.167">  1  9  2 -1</clus>
<clus scale="   79.719">  5  6 -1 -1</clus>
<clus scale="   88.669">  1  5  2 -1</clus>
<clus scale="   91.017">  7  8 -1 -1</clus>
<clus scale="   20.167">  1  5  2 -1</clus>
</clustering>
</event>
<event>
 9    2  0.3791909E-005  0.1145771E+03  0.7546771E-02  0.1259999E+00
          4   -1    0    0  502    0  0.00000000000E+00  0.00000000000E+00  0.94595479682E+02  0.94595479682E+02  0.00000000000E+00 0. -1.
         -3   -1    0    0    0  501 -0.00000000000E+00 -0.00000000000E+00 -0.24258743230E+03  0.24258743230E+03  0.00000000000E+00 0.  1.
         24    2    1    2    0    0 -0.62234597343E+02  0.55323785994E+00 -0.15129746799E+03  0.17974638212E+03  0.74460639847E+02 0.  0.
         23    2    1    2    0    0  0.73793619603E+02  0.29048195303E+02  0.12871014258E+02  0.12424986673E+03  0.94779061135E+02 0.  0.
        -13    1    3    3    0    0 -0.68315217111E+02 -0.21642189842E+02 -0.12972874776E+03  0.14820560471E+03  0.00000000000E+00 0.  1.
         14    1    3    3    0    0  0.60806197679E+01  0.22195427702E+02 -0.21568720226E+02  0.31540777413E+02  0.00000000000E+00 0. -1.
        -13    1    4    4    0    0 -0.88029126500E+01  0.30983258734E+02  0.24962944712E+02  0.40750487133E+02  0.00000000000E+00 0.  1.
         13    1    4    4    0    0  0.82596532253E+02 -0.19350634311E+01 -0.12091930455E+02  0.83499379596E+02  0.00000000000E+00 0. -1.
         21    1    1    2  502  501 -0.11559022260E+02 -0.29601433163E+02 -0.95654988852E+01  0.33186663132E+02  0.00000000000E+00 0.  1.
<scales pt_clust_5="13000.00000" pt_clust_6="13000.00000" pt_clust_7="13000.00000" pt_clust_8="13000.00000" pt_clust_9="31.77823"></scales>
<clustering>
<clus scale="   31.778">  1  9  2 -1</clus>
<clus scale="   74.461">  5  6 -1 -1</clus>
<clus scale="   94.779">  7  8 -1 -1</clus>
<clus scale="   98.434">  2  5  1 -1</clus>
<clus scale="   31.778">  1  5  2 -1</clus>
</clustering>
</event>
<event>
 9    2  0.3791909E-005  0.1032880E+03  0.7546771E-02  0.1279908E+00
          2   -1    0    0  502    0  0.00000000000E+00  0.00000000000E+00  0.28825730863E+03  0.28825730863E+03  0.00000000000E+00 0. -1.
         -1   -1    0    0    0  501 -0.00000000000E+00 -0.00000000000E+00 -0.11215356256E+03  0.11215356256E+03  0.00000000000E+00 0.  1.
         23    2    1    2    0    0 -0.49219506647E+02  0.16349594898E+02 -0.63121317245E+02  0.12359469422E+03  0.92744157016E+02 0.  0.
         24    2    1    2    0    0  0.16418671336E+02 -0.22720128905E+02  0.87209352015E+02  0.12117153368E+03  0.79317668083E+02 0.  0.
        -11    1    4    4    0    0 -0.56522424313E+01 -0.49224705451E+02  0.54101068400E+02  0.73361741209E+02  0.00000000000E+00 0.  1.
         12    1    4    4    0    0  0.22070913767E+02  0.26504576546E+02  0.33108283616E+02  0.47809792474E+02  0.00000000000E+00 0. -1.
        -11    1    3    3    0    0  0.20636423233E+02  0.88907565556E+01  0.77834349225E+01  0.23780020505E+02  0.00000000000E+00 0. -1.
         11    1    3    3    0    0 -0.69855929881E+02  0.74588383422E+01 -0.70904752168E+02  0.99814673715E+02  0.00000000000E+00 0.  1.
         21    1    1    2  502  501  0.32800835311E+02  0.63705340072E+01  0.15201571131E+03  0.15564464329E+03  0.00000000000E+00 0. -1.
<scales pt_clust_5="13000.00000" pt_clust_6="13000.00000" pt_clust_7="13000.00000" pt_clust_8="13000.00000" pt_clust_9="33.41375"></scales>
<clustering>
<clus scale="   33.414">  1  9  2 -1</clus>
<clus scale="   79.318">  5  6 -1 -1</clus>
<clus scale="   91.423">  1  5  2 -1</clus>
<clus scale="   92.744">  7  8 -1 -1</clus>
<clus scale="   33.414">  1  5  2 -1</clus>
</clustering>
</event>
<event>
 9    2  0.3791909E-005  0.1058786E+03  0.7546771E-02  0.1274728E+00
          2   -1    0    0  502    0  0.00000000000E+00  0.00000000000E+00  0.29096585234E+03  0.29096585234E+03  0.00000000000E+00 0. -1.
         -1   -1    0    0    0  501 -0.00000000000E+00 -0.00000000000E+00 -0.15341102731E+03  0.15341102731E+03  0.00000000000E+00 0.  1.
         24    2    1    2    0    0  0.32358292012E+02  0.36046056004E+02 -0.11403323595E+03  0.14811040920E+03  0.81158716079E+02 0.  0.
         23    2    1    2    0    0 -0.86720156288E+01 -0.38920351679E+02  0.10256603740E+03  0.14534640957E+03  0.94951509301E+02 0.  0.
        -13    1    3    3    0    0  0.50805480599E+00  0.33268452942E+02 -0.11113432397E+03  0.11600812922E+03  0.00000000000E+00 0.  1.
         14    1    3    3    0    0  0.31850237206E+02  0.27776030620E+01 -0.28989119777E+01  0.32102279973E+02  0.00000000000E+00 0. -1.
        -11    1    4    4    0    0 -0.40230502641E+02  0.12916358085E+02  0.44189934675E+02  0.61139806800E+02  0.00000000000E+00 0. -1.
         11    1    4    4    0    0  0.31558487012E+02 -0.51836709764E+02  0.58376102722E+02  0.84206602774E+02  0.00000000000E+00 0.  1.
         21    1    1    2  502  501 -0.23686276383E+02  0.28742956751E+01  0.14902202359E+03  0.15092006089E+03  0.00000000000E+00 0. -1.
<scales pt_clust_5="13000.00000" pt_clust_6="13000.00000" pt_clust_7="13000.00000" pt_clust_8="13000.00000" pt_clust_9="23.86003"></scales>
<clustering>
<clus scale="   23.860">  1  9  2 -1</clus>
<clus scale="   81.159">  5  6 -1 -1</clus>
<clus scale="   93.708">  2  5  1 -1</clus>
<clus scale="   94.952">  7  8 -1 -1</clus>
<clus scale="   23.860">  1  5  2 -1</clus>
</clustering>
</event>
<event>
 9    2  0.3791909E-005  0.1245391E+03  0.7546771E-02  0.1243656E+00
         -1   -1    0    0    0  501 -0.00000000000E+00  0.00000000000E+00  0.21237732474E+03  0.21237732474E+03  0.00000000000E+00 0.  1.
          2   -1    0    0  502    0  0.00000000000E+00 -0.00000000000E+00 -0.40520706571E+03  0.40520706571E+03  0.00000000000E+00 0. -1.
         23    2    1    2    0    0  0.75252213522E+02  0.41034514876E+02  0.13841428051E+03  0.19257967547E+03  0.10286734809E+03 0.  0.
         24    2    1    2    0    0 -0.38803451515E+02 -0.21089310594E+02  0.12118143264E+00  0.91044805526E+02  0.79615796532E+02 0.  0.
        -11    1    4    4    0    0  0.53008766499E+01 -0.41547559093E+02 -0.48907668909E+01  0.42168928853E+02  0.00000000000E+00 0.  1.
         12    1    4    4    0    0 -0.44104328165E+02  0.20458248499E+02  0.50119483235E+01  0.48875876673E+02  0.00000000000E+00 0. -1.
        -11    1    3    3    0    0  0.49021425645E+02  0.22894955500E+02  0.14936330592E+03  0.15886055620E+03  0.00000000000E+00 0.  1.
         11    1    3    3    0    0  0.26230787876E+02  0.18139559376E+02 -0.10949025409E+02  0.33719119270E+02  0.00000000000E+00 0. -1.
         21    1    1    2  502  501 -0.36448762006E+02 -0.19945204282E+02 -0.33136520291E+03  0.33395990946E+03  0.00000000000E+00 0. -1.
<scales pt_clust_5="13000.00000" pt_clust_6="13000.00000" pt_clust_7="13000.00000" pt_clust_8="13000.00000" pt_clust_9="41.54905"></scales>
<clustering>
<clus scale="   41.549">  2  9  1 -1</clus>
<clus scale="   79.616">  5  6 -1 -1</clus>
<clus scale="  102.867">  7  8 -1 -1</clus>
<clus scale="  106.146">  2  5  1 -1</clus>
<clus scale="   41.549">  2  5  1 -1</clus>
</clustering>
</event>
<event>
 9    2  0.3791909E-005  0.1582452E+03  0.7546771E-02  0.1192530E+00
         -1   -1    0    0    0  501 -0.00000000000E+00  0.00000000000E+00  0.34159598654E+02  0.34159598654E+02  0.00000000000E+00 0.  1.
          2   -1    0    0  502    0  0.00000000000E+00 -0.00000000000E+00 -0.15285151633E+04  0.15285151633E+04  0.00000000000E+00 0. -1.
         23    2    1    2    0    0 -0.11533062982E+02  0.13163206077E+03 -0.19603588415E+03  0.25334066890E+03  0.91057211017E+02 0.  0.
         24    2    1    2    0    0  0.22192944852E+02 -0.11299634601E+03 -0.12237919020E+04  0.12317756460E+04  0.79648738875E+02 0.  0.
        -13    1    4    4    0    0  0.29074770473E+02 -0.36593204997E+02 -0.21253445222E+03  0.21761272552E+03  0.00000000000E+00 0.  1.
         14    1    4    4    0    0 -0.68818256210E+01 -0.76403141018E+02 -0.10112574498E+04  0.10141629205E+04  0.00000000000E+00 0. -1.
        -11    1    3    3    0    0  0.26897242793E+02  0.25518356281E+02 -0.94563861991E+02  0.10157249712E+03  0.00000000000E+00 0.  1.
         11    1    3    3    0    0 -0.38430305775E+02  0.10611370449E+03 -0.10147202216E+03  0.15176817178E+03  0.00000000000E+00 0. -1.
         21    1    1    2  502  501 -0.10659881870E+02 -0.18635714758E+02 -0.74527778499E+02  0.77558447084E+02  0.00000000000E+00 0.  1.
<scales pt_clust_5="13000.00000" pt_clust_6="13000.00000" pt_clust_7="13000.00000" pt_clust_8="13000.00000" pt_clust_9="21.46912"></scales>
<clustering>
<clus scale="   21.469">  2  9  1 -1</clus>
<clus scale="   79.649">  5  6 -1 -1</clus>
<clus scale="   91.057">  7  8 -1 -1</clus>
<clus scale="  151.967">  2  5  1 -1</clus>
<clus scale="   21.469">  2  5  1 -1</clus>
</clustering>
</event>
<event>
 9    2  0.3791909E-005  0.1991185E+03  0.7546771E-02  0.1151246E+00
          2   -1    0    0  502    0  0.00000000000E+00  0.00000000000E+00  0.52201440350E+03  0.52201440350E+03  0.00000000000E+00 0. -1.
         -1   -1    0    0    0  501 -0.00000000000E+00 -0.00000000000E+00 -0.15808864681E+03  0.15808864681E+03  0.00000000000E+00 0.  1.
         23    2    1    2    0    0 -0.13357254099E+03 -0.11034895312E+03 -0.53179775193E+02  0.20415749406E+03  0.93987651999E+02 0.  0.
         24    2    1    2    0    0  0.15510364366E+03  0.10710574460E+03  0.38287273261E+03  0.43537473756E+03  0.86202389290E+02 0.  0.
        -13    1    4    4    0    0  0.23564411002E+02  0.14006845414E+02  0.10021186949E+02  0.29187281001E+02  0.00000000000E+00 0.  1.
         14    1    4    4    0    0  0.13153923266E+03  0.93098899188E+02  0.37285154566E+03  0.40618745655E+03  0.00000000000E+00 0. -1.
        -13    1    3    3    0    0 -0.10061907575E+03 -0.47649996295E+02 -0.69798984469E+02  0.13140250677E+03  0.00000000000E+00 0.  1.
         13    1    3    3    0    0 -0.32953465238E+02 -0.62698956828E+02  0.16619209276E+02  0.72754987289E+02  0.00000000000E+00 0. -1.
         21    1    1    2  502  501 -0.21531102675E+02  0.32432085205E+01  0.34232799275E+02  0.40570818702E+02  0.00000000000E+00 0.  1.
<scales pt_clust_5="13000.00000" pt_clust_6="13000.00000" pt_clust_7="13000.00000" pt_clust_8="13000.00000" pt_clust_9="21.77399"></scales>
<clustering>
<clus scale="   21.774">  1  9  2 -1</clus>
<clus scale="   86.202">  5  6 -1 -1</clus>
<clus scale="   93.988">  7  8 -1 -1</clus>
<clus scale="  195.564">  1  5  2 -1</clus>
<clus scale="   21.774">  1  5  2 -1</clus>
</clustering>
</event>
<event>
 9    2  0.3791909E-005  0.1090940E+03  0.7546771E-02  0.1265873E+00
         -1   -1    0    0    0  501 -0.00000000000E+00  0.00000000000E+00  0.99362535493E+02  0.99362535493E+02  0.00000000000E+00 0.  1.
          2   -1    0    0  502    0  0.00000000000E+00 -0.00000000000E+00 -0.47997148926E+03  0.47997148926E+03  0.00000000000E+00 0. -1.
         23    2    1    2    0    0 -0.26147582135E+02 -0.53904067809E+02  0.56068456733E+02  0.12185788739E+03  0.90090667109E+02 0.  0.
         24    2    1    2    0    0  0.26622937553E+02  0.76035887382E+02 -0.37006241845E+03  0.38727926731E+03  0.80924658556E+02 0.  0.
        -11    1    4    4    0    0  0.47541354832E+02  0.15988265815E+02 -0.18029404897E+03  0.18714098737E+03  0.00000000000E+00 0.  1.
         12    1    4    4    0    0 -0.20918417279E+02  0.60047621567E+02 -0.18976836949E+03  0.20013827993E+03  0.00000000000E+00 0. -1.
        -11    1    3    3    0    0  0.28094810463E+02 -0.41790884428E+02  0.39076838209E+02  0.63740063388E+02  0.00000000000E+00 0.  1.
         11    1    3    3    0    0 -0.54242392598E+02 -0.12113183381E+02  0.16991618524E+02  0.58117823999E+02  0.00000000000E+00 0. -1.
         21    1    1    2  502  501 -0.47535541841E+00 -0.22131819573E+02 -0.66614992051E+02  0.70196870061E+02  0.00000000000E+00 0. -1.
<scales pt_clust_5="13000.00000" pt_clust_6="13000.00000" pt_clust_7="13000.00000" pt_clust_8="13000.00000" pt_clust_9="22.13692"></scales>
<clustering>
<clus scale="   22.137">  2  9  1 -1</clus>
<clus scale="   80.925">  5  6 -1 -1</clus>
<clus scale="   90.091">  7  8 -1 -1</clus>
<clus scale="  101.656">  2  5  1 -1</clus>
<clus scale="   22.137">  2  5  1 -1</clus>
</clustering>
</event>
<event>
 9    2  0.3791909E-005  0.9904388E+02  0.7546771E-02  0.1288441E+00
         -3   -1    0    0    0  501 -0.00000000000E+00  0.00000000000E+00  0.24639265631E+03  0.24639265631E+03  0.00000000000E+00 0.  1.
          4   -1    0    0  502    0  0.00000000000E+00 -0.00000000000E+00 -0.31120738162E+03  0.31120738162E+03  0.00000000000E+00 0. -1.
         23    2    1    2    0    0 -0.32792653809E+02  0.12324649270E+02  0.22409686103E+03  0.24509775759E+03  0.92877621245E+02 0.  0.
         24    2    1    2    0    0  0.29600839457E+02  0.16868723714E+02 -0.19228278651E+03  0.21150938128E+03  0.81257521770E+02 0.  0.
        -13    1    4    4    0    0 -0.13588761006E+02  0.33624650431E+02 -0.49255765865E+02  0.61167001015E+02  0.00000000000E+00 0.  1.
         14    1    4    4    0    0  0.43189600463E+02 -0.16755926717E+02 -0.14302702065E+03  0.15034238026E+03  0.00000000000E+00 0. -1.
        -11    1    3    3    0    0 -0.23194295842E+02  0.52188642308E+02  0.11165868051E+03  0.12541646893E+03  0.00000000000E+00 0.  1.
         11    1    3    3    0    0 -0.95983579670E+01 -0.39863993037E+02  0.11243818052E+03  0.11968128866E+03  0.00000000000E+00 0. -1.
         21    1    1    2  502  501  0.31918143524E+01 -0.29193372985E+02 -0.96628799826E+02  0.10099289906E+03  0.00000000000E+00 0. -1.
<scales pt_clust_5="13000.00000" pt_clust_6="13000.00000" pt_clust_7="13000.00000" pt_clust_8="13000.00000" pt_clust_9="29.36734"></scales>
<clustering>
<clus scale="   29.367">  2  9  1 -1</clus>
<clus scale="   81.258">  5  6 -1 -1</clus>
<clus scale="   88.240">  2  5  1 -1</clus>
<clus scale="   92.878">  7  8 -1 -1</clus>
<clus scale="   29.367">  2  5  1 -1</clus>
</clustering>
</event>
<event>
 9    2  0.3791909E-005  0.9256022E+02  0.7546771E-02  0.1305068E+00
          2   -1    0    0  502    0  0.00000000000E+00  0.00000000000E+00  0.12201190255E+03  0.12201190255E+03  0.00000000000E+00 0. -1.
         -1   -1    0    0    0  501 -0.00000000000E+00 -0.00000000000E+00 -0.26296033762E+03  0.26296033762E+03  0.00000000000E+00 0.  1.
         23    2    1    2    0    0  0.73055660518E+00  0.15579954229E+01 -0.22906898063E+03  0.24706831282E+03  0.92559128390E+02 0.  0.
         24    2    1    2    0    0  0.41906534873E+01  0.20366417529E+02  0.78004380963E+02  0.11326178909E+03  0.79443041728E+02 0.  0.
        -13    1    4    4    0    0  0.22403619356E+02  0.34109451865E+02  0.10690321722E+02  0.42186014807E+02  0.00000000000E+00 0.  1.
         14    1    4    4    0    0 -0.18212965869E+02 -0.13743034336E+02  0.67314059242E+02  0.71075774284E+02  0.00000000000E+00 0. -1.
        -11    1    3    3    0    0 -0.23837668840E+02  0.32240156770E+02 -0.51860025674E+02  0.65552455539E+02  0.00000000000E+00 0.  1.
         11    1    3    3    0    0  0.24568225445E+02 -0.30682161347E+02 -0.17720895496E+03  0.18151585728E+03  0.00000000000E+00 0. -1.
         21    1    1    2  502  501 -0.49212100924E+01 -0.21924412952E+02  0.10116164599E+02  0.24642138265E+02  0.00000000000E+00 0. -1.
<scales pt_clust_5="13000.00000" pt_clust_6="13000.00000" pt_clust_7="13000.00000" pt_clust_8="13000.00000" pt_clust_9="22.46994"></scales>
<clustering>
<clus scale="   22.470">  1  9  2 -1</clus>
<clus scale="   79.443">  5  6 -1 -1</clus>
<clus scale="   79.444">  1  5  2 -1</clus>
<clus scale="   92.559">  7  8 -1 -1</clus>
<clus scale="   22.470">  1  5  2 -1</clus>
</clustering>
</event>
<event>
 9    2  0.3791909E-005  0.1048799E+03  0.7546771E-02  0.1274764E+00
         -1   -1    0    0    0  501 -0.00000000000E+00  0.00000000000E+00  0.56656866701E+02  0.56656866701E+02  0.00000000000E+00 0.  1.
          2   -1    0    0  502    0  0.00000000000E+00 -0.00000000000E+00 -0.24073623215E+03  0.24073623215E+03  0.00000000000E+00 0. -1.
         23    2    1    2    0    0 -0.28636042931E+02  0.46147883630E+02 -0.71765016352E+02  0.12778019524E+03  0.90707830998E+02 0.  0.
         24    2    1    2    0    0  0.48428940314E+02 -0.25608704679E+02 -0.77269006557E+02  0.12442670337E+03  0.80686660122E+02 0.  0.
        -11    1    4    4    0    0  0.28419960566E+02  0.24860075994E+02 -0.12194192122E+02  0.39678909492E+02  0.00000000000E+00 0.  1.
         12    1    4    4    0    0  0.20008979748E+02 -0.50468780673E+02 -0.65074814435E+02  0.84747793877E+02  0.00000000000E+00 0. -1.
        -13    1    3    3    0    0  0.13120649956E+02  0.37623796085E+02  0.48193196893E+01  0.40136359195E+02  0.00000000000E+00 0.  1.
         13    1    3    3    0    0 -0.41756692886E+02  0.85240875448E+01 -0.76584336041E+02  0.87643836042E+02  0.00000000000E+00 0. -1.
         21    1    1    2  502  501 -0.19792897383E+02 -0.20539178951E+02 -0.35045342536E+02  0.45186200241E+02  0.00000000000E+00 0. -1.
<scales pt_clust_5="13000.00000" pt_clust_6="13000.00000" pt_clust_7="13000.00000" pt_clust_8="13000.00000" pt_clust_9="28.52397"></scales>
<clustering>
<clus scale="   28.524">  2  9  1 -1</clus>
<clus scale="   80.687">  5  6 -1 -1</clus>
<clus scale="   90.708">  7  8 -1 -1</clus>
<clus scale="   96.344">  2  5  1 -1</clus>
<clus scale="   28.524">  2  5  1 -1</clus>
</clustering>
</event>
<event>
 9    2  0.3791909E-005  0.2255826E+03  0.7546771E-02  0.1130673E+00
         -1   -1    0    0    0  501 -0.00000000000E+00  0.00000000000E+00  0.22160969170E+03  0.22160969170E+03  0.00000000000E+00 0.  1.
          2   -1    0    0  502    0  0.00000000000E+00 -0.00000000000E+00 -0.43582239591E+03  0.43582239591E+03  0.00000000000E+00 0. -1.
         23    2    1    2    0    0 -0.17633006461E+03 -0.94462980850E+02  0.88186617253E+02  0.23748533019E+03  0.92773143507E+02 0.  0.
         24    2    1    2    0    0  0.21190923821E+03  0.80487164590E+02 -0.20743921736E+03  0.31758161489E+03  0.80270444832E+02 0.  0.
        -11    1    4    4    0    0  0.38941586162E+02  0.50098519319E+02 -0.70771722092E+02  0.95052329896E+02  0.00000000000E+00 0.  1.
         12    1    4    4    0    0  0.17296765205E+03  0.30388645271E+02 -0.13666749527E+03  0.22252928499E+03  0.00000000000E+00 0. -1.
        -11    1    3    3    0    0 -0.11839658029E+03 -0.10881849074E+03  0.65381037477E+02  0.17359116975E+03  0.00000000000E+00 0.  1.
         11    1    3    3    0    0 -0.57933484320E+02  0.14355509895E+02  0.22805579776E+02  0.63894160443E+02  0.00000000000E+00 0. -1.
         21    1    1    2  502  501 -0.35579173597E+02  0.13975816260E+02 -0.94960104105E+02  0.10236514253E+03  0.00000000000E+00 0. -1.
<scales pt_clust_5="13000.00000" pt_clust_6="13000.00000" pt_clust_7="13000.00000" pt_clust_8="13000.00000" pt_clust_9="38.22566"></scales>
<clustering>
<clus scale="   38.226">  2  9  1 -1</clus>
<clus scale="   80.270">  5  6 -1 -1</clus>
<clus scale="   92.773">  7  8 -1 -1</clus>
<clus scale="  220.735">  2  5  1 -1</clus>
<clus scale="   38.226">  2  5  1 -1</clus>
</clustering>
</event>
<event>
 9    2  0.3791909E-005  0.1087601E+03  0.7546771E-02  0.1266957E+00
          4   -1    0    0  502    0  0.00000000000E+00  0.00000000000E+00  0.82802262373E+02  0.82802262373E+02  0.00000000000E+00 0. -1.
         -3   -1    0    0    0  501 -0.00000000000E+00 -0.00000000000E+00 -0.34888066081E+03  0.34888066081E+03  0.00000000000E+00 0.  1.
         23    2    1    2    0    0 -0.38919316245E+02  0.53247338455E+02 -0.27960979290E+03  0.30129735210E+03  0.90821065089E+02 0.  0.
         24    2    1    2    0    0  0.22704570521E+02 -0.31124655245E+02 -0.15161793938E+02  0.90691363040E+02  0.80689538652E+02 0.  0.
        -13    1    4    4    0    0 -0.12883514622E+01  0.21801757220E+02 -0.23389819292E+02  0.32000939265E+02  0.00000000000E+00 0.  1.
         14    1    4    4    0    0  0.23992921983E+02 -0.52926412464E+02  0.82280253536E+01  0.58690423774E+02  0.00000000000E+00 0. -1.
        -13    1    3    3    0    0 -0.60228850509E+02  0.62290774860E+02 -0.19137263017E+03  0.21007412655E+03  0.00000000000E+00 0. -1.
         13    1    3    3    0    0  0.21309534264E+02 -0.90434364053E+01 -0.88237162730E+02  0.91223225547E+02  0.00000000000E+00 0.  1.
         21    1    1    2  502  501  0.16214745724E+02 -0.22122683211E+02  0.28693188406E+02  0.39694208044E+02  0.00000000000E+00 0. -1.
<scales pt_clust_5="13000.00000" pt_clust_6="13000.00000" pt_clust_7="13000.00000" pt_clust_8="13000.00000" pt_clust_9="27.42865"></scales>
<clustering>
<clus scale="   27.429">  1  9  2 -1</clus>
<clus scale="   80.690">  5  6 -1 -1</clus>
<clus scale="   90.821">  7  8 -1 -1</clus>
<clus scale="  100.454">  1  5  2 -1</clus>
<clus scale="   27.429">  1  5  2 -1</clus>
</clustering>
</event>
<event>
 9    2  0.3791909E-005  0.1012562E+03  0.7546771E-02  0.1282762E+00
         -1   -1    0    0    0  501 -0.00000000000E+00  0.00000000000E+00  0.15642086557E+03  0.15642086557E+03  0.00000000000E+00 0.  1.
          2   -1    0    0  502    0  0.00000000000E+00 -0.00000000000E+00 -0.13816525620E+03  0.13816525620E+03  0.00000000000E+00 0. -1.
         23    2    1    2    0    0  0.32957463179E+02  0.24045253977E+02  0.83901120845E+02  0.13096622197E+03  0.91915094518E+02 0.  0.
         24    2    1    2    0    0 -0.61833205227E+02  0.11213040078E+02 -0.55480349139E+02  0.11692636381E+03  0.81514586891E+02 0.  0.
        -11    1    4    4    0    0 -0.29266856565E+02 -0.12305652456E+02  0.15528163508E+02  0.35342634840E+02  0.00000000000E+00 0.  1.
         12    1    4    4    0    0 -0.32566348662E+02  0.23518692534E+02 -0.71008512647E+02  0.81583728966E+02  0.00000000000E+00 0. -1.
        -13    1    3    3    0    0 -0.21631018136E+02  0.33082274706E+02  0.57202186040E+02  0.69530050576E+02  0.00000000000E+00 0. -1.
         13    1    3    3    0    0  0.54588481315E+02 -0.90370207293E+01  0.26698934805E+02  0.61436171395E+02  0.00000000000E+00 0.  1.
         21    1    1    2  502  501  0.28875742048E+02 -0.35258294055E+02 -0.10165162330E+02  0.46693535995E+02  0.00000000000E+00 0.  1.
<scales pt_clust_5="13000.00000" pt_clust_6="13000.00000" pt_clust_7="13000.00000" pt_clust_8="13000.00000" pt_clust_9="45.57363"></scales>
<clustering>
<clus scale="   45.574">  2  9  1 -1</clus>
<clus scale="   81.515">  5  6 -1 -1</clus>
<clus scale="   91.915">  7  8 -1 -1</clus>
<clus scale="   91.919">  2  5  1 -1</clus>
<clus scale="   45.574">  2  5  1 -1</clus>
</clustering>
</event>
<event>
 9    2  0.3791909E-005  0.2237232E+03  0.7546771E-02  0.1132031E+00
          2   -1    0    0  502    0  0.00000000000E+00  0.00000000000E+00  0.77945380038E+03  0.77945380038E+03  0.00000000000E+00 0. -1.
         -1   -1    0    0    0  501 -0.00000000000E+00 -0.00000000000E+00 -0.77307772860E+02  0.77307772860E+02  0.00000000000E+00 0.  1.
         23    2    1    2    0    0 -0.26148411129E+02 -0.19668299916E+03  0.21767362881E+03  0.30889542864E+03  0.93094766748E+02 0.  0.
         24    2    1    2    0    0  0.34630539688E+01  0.21296820242E+03  0.42668829485E+03  0.48368798683E+03  0.80769546636E+02 0.  0.
        -13    1    4    4    0    0  0.32144982318E+02  0.10558658148E+03  0.15624850607E+03  0.19129929881E+03  0.00000000000E+00 0.  1.
         14    1    4    4    0    0 -0.28681928350E+02  0.10738162094E+03  0.27043978878E+03  0.29238868802E+03  0.00000000000E+00 0. -1.
        -13    1    3    3    0    0 -0.50325589608E+02 -0.18556799142E+03  0.18582034950E+03  0.26738987770E+03  0.00000000000E+00 0.  1.
         13    1    3    3    0    0  0.24177178478E+02 -0.11115007735E+02  0.31853279315E+02  0.41505550945E+02  0.00000000000E+00 0. -1.
         21    1    1    2  502  501  0.22685357161E+02 -0.16285203259E+02  0.57784103865E+02  0.64178157766E+02  0.00000000000E+00 0. -1.
<scales pt_clust_5="13000.00000" pt_clust_6="13000.00000" pt_clust_7="13000.00000" pt_clust_8="13000.00000" pt_clust_9="27.92550"></scales>
<clustering>
<clus scale="   27.925">  1  9  2 -1</clus>
<clus scale="   80.770">  5  6 -1 -1</clus>
<clus scale="   93.095">  7  8 -1 -1</clus>
<clus scale="  218.882">  1  5  2 -1</clus>
<clus scale="   27.925">  1  5  2 -1</clus>
</clustering>
</event>
<event>
 9    2  0.3791909E-005  0.1136247E+03  0.7546771E-02  0.1256299E+00
         -1   -1    0    0    0  501 -0.00000000000E+00  0.00000000000E+00  0.63401208200E+03  0.63401208200E+03  0.00000000000E+00 0.  1.
          2   -1    0    0  502    0  0.00000000000E+00 -0.00000000000E+00 -0.39718502697E+03  0.39718502697E+03  0.00000000000E+00 0. -1.
         23    2    1    2    0    0 -0.41198883986E+02  0.56825688167E+02  0.58672118467E+03  0.59760174277E+03  0.89216520583E+02 0.  0.
         24    2    1    2    0    0  0.12537640334E+03 -0.54431172688E+01 -0.25918374745E+03  0.29960134844E+03  0.82679398931E+02 0.  0.
        -13    1    4    4    0    0  0.46852729268E+02  0.27474825506E+02 -0.15955479786E+03  0.16854607025E+03  0.00000000000E+00 0.  1.
         14    1    4    4    0    0  0.78523674069E+02 -0.32917942775E+02 -0.99628949585E+02  0.13105527819E+03  0.00000000000E+00 0. -1.
        -13    1    3    3    0    0 -0.46387419837E+02 -0.89401832637E+01  0.26670053354E+03  0.27085216297E+03  0.00000000000E+00 0. -1.
         13    1    3    3    0    0  0.51885358514E+01  0.65765871431E+02  0.32002065114E+03  0.32674957981E+03  0.00000000000E+00 0.  1.
         21    1    1    2  502  501 -0.84177519351E+02 -0.51382570898E+02 -0.90710382190E+02  0.13399401775E+03  0.00000000000E+00 0.  1.
<scales pt_clust_5="13000.00000" pt_clust_6="13000.00000" pt_clust_7="13000.00000" pt_clust_8="13000.00000" pt_clust_9="98.62060"></scales>
<clustering>
<clus scale="   82.679">  5  6 -1 -1</clus>
<clus scale="   89.217">  7  8 -1 -1</clus>
<clus scale="   98.621">  2  9  1 -1</clus>
<clus scale="  108.567">  2  5  1 -1</clus>
<clus scale="   98.621">  2  5  1 -1</clus>
</clustering>
</event>
<event>
 9    2  0.3791909E-005  0.1000361E+03  0.7546771E-02  0.1284521E+00
         -1   -1    0    0    0  501 -0.00000000000E+00  0.00000000000E+00  0.24618740365E+02  0.24618740365E+02  0.00000000000E+00 0.  1.
          2   -1    0    0  502    0  0.00000000000E+00 -0.00000000000E+00 -0.65872227841E+03  0.65872227841E+03  0.00000000000E+00 0. -1.
         23    2    1    2    0    0 -0.30089570911E+02  0.21022712524E+02 -0.12974254117E+03  0.16204732327E+03  0.89882541519E+02 0.  0.
         24    2    1    2    0    0  0.46748520604E+02 -0.43991297979E+02 -0.39550866042E+03  0.40880410632E+03  0.81074277070E+02 0.  0.
        -11    1    4    4    0    0  0.26838649061E+02 -0.30546969915E+02 -0.60260972976E+02  0.72696735266E+02  0.00000000000E+00 0.  1.
         12    1    4    4    0    0  0.19909871543E+02 -0.13444328065E+02 -0.33524768744E+03  0.33610737105E+03  0.00000000000E+00 0. -1.
        -11    1    3    3    0    0  0.32256032376E+02  0.95698825127E+01 -0.42433887203E+02  0.54154123195E+02  0.00000000000E+00 0. -1.
         11    1    3    3    0    0 -0.62345603287E+02  0.11452830011E+02 -0.87308653966E+02  0.10789320007E+03  0.00000000000E+00 0.  1.
         21    1    1    2  502  501 -0.16658949693E+02  0.22968585456E+02 -0.10885233646E+03  0.11248958919E+03  0.00000000000E+00 0.  1.
<scales pt_clust_5="13000.00000" pt_clust_6="13000.00000" pt_clust_7="13000.00000" pt_clust_8="13000.00000" pt_clust_9="28.37387"></scales>
<clustering>
<clus scale="   28.374">  2  9  1 -1</clus>
<clus scale="   81.074">  5  6 -1 -1</clus>
<clus scale="   89.883">  7  8 -1 -1</clus>
<clus scale="   92.203">  2  5  1 -1</clus>
<clus scale="   28.374">  2  5  1 -1</clus>
</clustering>
</event>
<event>
 9    2  0.3791909E-005  0.1543537E+03  0.7546771E-02  0.1196709E+00
         -1   -1    0    0    0  501 -0.00000000000E+00  0.00000000000E+00  0.13182535348E+03  0.13182535348E+03  0.00000000000E+00 0.  1.
          2   -1    0    0  502    0  0.00000000000E+00 -0.00000000000E+00 -0.68528833982E+03  0.68528833982E+03  0.00000000000E+00 0. -1.
         23    2    1    2    0    0 -0.90655983161E+02 -0.84558804379E+02  0.66976066757E+02  0.16938306304E+03  0.94000690661E+02 0.  0.
         24    2    1    2    0    0  0.57984571964E+02  0.91218500490E+02 -0.57537160206E+03  0.59166952250E+03  0.85658145994E+02 0.  0.
        -13    1    4    4    0    0  0.70099011125E+01  0.77548144403E+02 -0.24403354527E+03  0.25615468887E+03  0.00000000000E+00 0.  1.
         14    1    4    4    0    0  0.50974670852E+02  0.13670356087E+02 -0.33133805679E+03  0.33551483363E+03  0.00000000000E+00 0. -1.
        -13    1    3    3    0    0 -0.35262566678E+02 -0.65704865497E+02 -0.71881175628E+01  0.74914931708E+02  0.00000000000E+00 0. -1.
         13    1    3    3    0    0 -0.55393416484E+02 -0.18853938882E+02  0.74164184320E+02  0.94468131330E+02  0.00000000000E+00 0.  1.
         21    1    1    2  502  501  0.32671411197E+02 -0.66596961107E+01 -0.45067451030E+02  0.56061107769E+02  0.00000000000E+00 0. -1.
<scales pt_clust_5="13000.00000" pt_clust_6="13000.00000" pt_clust_7="13000.00000" pt_clust_8="13000.00000" pt_clust_9="33.34326"></scales>
<clustering>
<clus scale="   33.343">  2  9  1 -1</clus>
<clus scale="   85.658">  5  6 -1 -1</clus>
<clus scale="   94.001">  7  8 -1 -1</clus>
<clus scale="  149.420">  2  5  1 -1</clus>
<clus scale="   33.343">  2  5  1 -1</clus>
</clustering>
</event>
<event>
 9    2  0.3791909E-005  0.1132067E+03  0.7546771E-02  0.1263645E+00
         -1   -1    0    0    0  501 -0.00000000000E+00  0.00000000000E+00  0.28585106166E+03  0.28585106166E+03  0.00000000000E+00 0.  1.
          2   -1    0    0  502    0  0.00000000000E+00 -0.00000000000E+00 -0.14603433275E+03  0.14603433275E+03  0.00000000000E+00 0. -1.
         23    2    1    2    0    0 -0.47545465860E+02 -0.16154354093E+02  0.12072051855E+03  0.16333920466E+03  0.97901571478E+02 0.  0.
         24    2    1    2    0    0  0.64268083316E+02 -0.31136785647E+02  0.11806299618E+03  0.15759339561E+03  0.76137515840E+02 0.  0.
        -13    1    4    4    0    0  0.81895004470E+01 -0.45688013975E+02  0.50466191458E+02  0.68566019418E+02  0.00000000000E+00 0.  1.
         14    1    4    4    0    0  0.56078582869E+02  0.14551228327E+02  0.67596804727E+02  0.89027376193E+02  0.00000000000E+00 0. -1.
        -13    1    3    3    0    0 -0.48394655213E+02  0.26728689699E+02  0.29790179627E+02  0.62800639395E+02  0.00000000000E+00 0. -1.
         13    1    3    3    0    0  0.84918935317E+00 -0.42883043792E+02  0.90930338926E+02  0.10053856526E+03  0.00000000000E+00 0.  1.
         21    1    1    2  502  501 -0.16722617456E+02  0.47291139740E+02 -0.98966785823E+02  0.11095279415E+03  0.00000000000E+00 0. -1.
<scales pt_clust_5="13000.00000" pt_clust_6="13000.00000" pt_clust_7="13000.00000" pt_clust_8="13000.00000" pt_clust_9="50.16072"></scales>
<clustering>
<clus scale="   50.161">  2  9  1 -1</clus>
<clus scale="   76.138">  5  6 -1 -1</clus>
<clus scale="   95.016">  2  5  1 -1</clus>
<clus scale="   97.902">  7  8 -1 -1</clus>
<clus scale="   50.161">  2  5  1 -1</clus>
</clustering>
</event>
<event>
 9    2  0.3791909E-005  0.1395153E+03  0.7546771E-02  0.1214871E+00
          2   -1    0    0  502    0  0.00000000000E+00  0.00000000000E+00  0.22947857188E+02  0.22947857188E+02  0.00000000000E+00 0. -1.
         -1   -1    0    0    0  501 -0.00000000000E+00 -0.00000000000E+00 -0.10392725795E+04  0.10392725795E+04  0.00000000000E+00 0.  1.
         24    2    1    2    0    0 -0.33183223031E+02 -0.96659840677E+02 -0.49662606987E+03  0.51344396469E+03  0.80888815719E+02 0.  0.
         23    2    1    2    0    0  0.46239790131E+02  0.11206511193E+03 -0.49588727573E+03  0.51755503725E+03  0.85219239921E+02 0.  0.
        -11    1    3    3    0    0  0.54880221248E+01 -0.85450972235E+02 -0.26947406300E+03  0.28275122930E+03  0.00000000000E+00 0.  1.
         12    1    3    3    0    0 -0.38671245156E+02 -0.11208868442E+02 -0.22715200687E+03  0.23069273538E+03  0.00000000000E+00 0. -1.
        -13    1    4    4    0    0  0.89648701043E+00  0.74051814753E+02 -0.38306956499E+03  0.39016248741E+03  0.00000000000E+00 0.  1.
         13    1    4    4    0    0  0.45343303120E+02  0.38013297174E+02 -0.11281771074E+03  0.12739254984E+03  0.00000000000E+00 0. -1.
         21    1    1    2  502  501 -0.13056567100E+02 -0.15405271250E+02 -0.23811376706E+02  0.31221434742E+02  0.00000000000E+00 0.  1.
<scales pt_clust_5="13000.00000" pt_clust_6="13000.00000" pt_clust_7="13000.00000" pt_clust_8="13000.00000" pt_clust_9="20.19397"></scales>
<clustering>
<clus scale="   20.194">  1  9  2 -1</clus>
<clus scale="   80.889">  5  6 -1 -1</clus>
<clus scale="   85.219">  7  8 -1 -1</clus>
<clus scale="  136.913">  2  5  1 -1</clus>
<clus scale="   20.194">  1  5  2 -1</clus>
</clustering>
</event>
<event>
 9    2  0.3791909E-005  0.1445452E+03  0.7546771E-02  0.1209790E+00
         -1   -1    0    0    0  501 -0.00000000000E+00  0.00000000000E+00  0.27409513931E+03  0.27409513931E+03  0.00000000000E+00 0.  1.
          2   -1    0    0  502    0  0.00000000000E+00 -0.00000000000E+00 -0.24203371117E+03  0.24203371117E+03  0.00000000000E+00 0. -1.
         24    2    1    2    0    0 -0.78796727843E+02 -0.68439422627E+02  0.18020440108E+03  0.22355012262E+03  0.81290542306E+02 0.  0.
         23    2    1    2    0    0  0.84427812015E+02  0.11816441980E+03 -0.45618229342E+02  0.17849276246E+03  0.93208142641E+02 0.  0.
        -13    1    3    3    0    0 -0.49422622525E+02 -0.70470892045E+01  0.28998252419E+02  0.57733488781E+02  0.00000000000E+00 0.  1.
         14    1    3    3    0    0 -0.29374105318E+02 -0.61392333422E+02  0.15120614866E+03  0.16581663384E+03  0.00000000000E+00 0. -1.
        -11    1    4    4    0    0 -0.19505024100E+02  0.89954956029E+01 -0.19727993949E+01  0.21569813252E+02  0.00000000000E+00 0.  1.
         11    1    4    4    0    0  0.10393283612E+03  0.10916892420E+03 -0.43645429947E+02  0.15692294921E+03  0.00000000000E+00 0. -1.
         21    1    1    2  502  501 -0.56310841724E+01 -0.49724997174E+02 -0.10252474359E+03  0.11408596540E+03  0.00000000000E+00 0.  1.
<scales pt_clust_5="13000.00000" pt_clust_6="13000.00000" pt_clust_7="13000.00000" pt_clust_8="13000.00000" pt_clust_9="50.04283"></scales>
<clustering>
<clus scale="   50.043">  2  9  1 -1</clus>
<clus scale="   81.291">  5  6 -1 -1</clus>
<clus scale="   93.208">  7  8 -1 -1</clus>
<clus scale="  137.163">  1  5  2 -1</clus>
<clus scale="   50.043">  2  5  1 -1</clus>
</clustering>
</event>
<event>
 9    2  0.3791909E-005  0.1591440E+03  0.7546771E-02  0.1191581E+00
          2   -1    0    0  502    0  0.00000000000E+00  0.00000000000E+00  0.56631413676E+03  0.56631413676E+03  0.00000000000E+00 0. -1.
         -1   -1    0    0    0  501 -0.00000000000E+00 -0.00000000000E+00 -0.12030230636E+03  0.12030230636E+03  0.00000000000E+00 0.  1.
         23    2    1    2    0    0 -0.12666879353E+03  0.20511414005E+02 -0.32584360191E+02  0.16128102780E+03  0.92109326567E+02 0.  0.
         24    2    1    2    0    0  0.14199843624E+03  0.24601272034E+02  0.32396528581E+03  0.36353038109E+03  0.80200081581E+02 0.  0.
        -11    1    4    4    0    0  0.71935555919E+02  0.52572785883E+02  0.18777872681E+03  0.20784482737E+03  0.00000000000E+00 0.  1.
         12    1    4    4    0    0  0.70062880323E+02 -0.27971513849E+02  0.13618655900E+03  0.15568555372E+03  0.00000000000E+00 0. -1.
        -13    1    3    3    0    0 -0.84292903898E+02  0.33082066422E+02 -0.60591025484E+02  0.10895406893E+03  0.00000000000E+00 0.  1.
         13    1    3    3    0    0 -0.42375889631E+02 -0.12570652417E+02  0.28006665293E+02  0.52326958874E+02  0.00000000000E+00 0. -1.
         21    1    1    2  502  501 -0.15329642713E+02 -0.45112686038E+02  0.15463090479E+03  0.16180503423E+03  0.00000000000E+00 0. -1.
<scales pt_clust_5="13000.00000" pt_clust_6="13000.00000" pt_clust_7="13000.00000" pt_clust_8="13000.00000" pt_clust_9="47.64612"></scales>
<clustering>
<clus scale="   47.646">  1  9  2 -1</clus>
<clus scale="   80.200">  5  6 -1 -1</clus>
<clus scale="   92.109">  7  8 -1 -1</clus>
<clus scale="  152.561">  1  5  2 -1</clus>
<clus scale="   47.646">  1  5  2 -1</clus>
</clustering>
</event>
<event>
 9    2  0.3791909E-005  0.1047611E+03  0.7546771E-02  0.1276034E+00
         -3   -1    0    0    0  501 -0.00000000000E+00  0.00000000000E+00  0.93914059016E+02  0.93914059016E+02  0.00000000000E+00 0.  1.
          4   -1    0    0  502    0  0.00000000000E+00 -0.00000000000E+00 -0.31064185687E+03  0.31064185687E+03  0.00000000000E+00 0. -1.
         24    2    1    2    0    0  0.43825712321E+01 -0.52332885523E+02  0.24184478469E+02  0.98186127663E+02  0.79357978987E+02 0.  0.
         23    2    1    2    0    0  0.35288846595E+02  0.46065958681E+02 -0.65909711348E+02  0.12681758547E+03  0.91494451701E+02 0.  0.
        -13    1    3    3    0    0  0.40635827326E+02 -0.18083677851E+02  0.17794738593E+02  0.47905559058E+02  0.00000000000E+00 0.  1.
         14    1    3    3    0    0 -0.36253256094E+02 -0.34249207672E+02  0.63897398752E+01  0.50280568605E+02  0.00000000000E+00 0. -1.
        -11    1    4    4    0    0  0.61823271285E+02  0.52422324724E+02 -0.49709016736E+02  0.95085242529E+02  0.00000000000E+00 0. -1.
         11    1    4    4    0    0 -0.26534424689E+02 -0.63563660435E+01 -0.16200694612E+02  0.31732342945E+02  0.00000000000E+00 0.  1.
         21    1    1    2  502  501 -0.39671417828E+02  0.62669268420E+01 -0.17500256498E+03  0.17955220275E+03  0.00000000000E+00 0. -1.
<scales pt_clust_5="13000.00000" pt_clust_6="13000.00000" pt_clust_7="13000.00000" pt_clust_8="13000.00000" pt_clust_9="40.16336"></scales>
<clustering>
<clus scale="   40.163">  2  9  1 -1</clus>
<clus scale="   79.358">  5  6 -1 -1</clus>
<clus scale="   91.494">  7  8 -1 -1</clus>
<clus scale="   94.347">  1  5  2 -1</clus>
<clus scale="   40.163">  2  5  1 -1</clus>
</clustering>
</event>
<event>
 9    2  0.3791909E-005  0.9054209E+02  0.7546771E-02  0.1306776E+00
         -1   -1    0    0    0  501 -0.00000000000E+00  0.00000000000E+00  0.71945839896E+02  0.71945839896E+02  0.00000000000E+00 0.  1.
          2   -1    0    0  502    0  0.00000000000E+00 -0.00000000000E+00 -0.15622775303E+03  0.15622775303E+03  0.00000000000E+00 0. -1.
         24    2    1    2    0    0  0.11701497633E+02 -0.20990357966E+02  0.95142358326E+01  0.84226856496E+02  0.80163099350E+02 0.  0.
         23    2    1    2    0    0  0.24195168927E+00  0.45272578440E+01 -0.78708098558E+02  0.11862226383E+03  0.88632511490E+02 0.  0.
        -13    1    3    3    0    0 -0.25954265936E+02 -0.25458469879E+02 -0.14721668278E+02  0.39223527707E+02  0.00000000000E+00 0.  1.
         14    1    3    3    0    0  0.37655763569E+02  0.44681119131E+01  0.24235904111E+02  0.45003328789E+02  0.00000000000E+00 0. -1.
        -13    1    4    4    0    0 -0.15787723154E+02 -0.24160175909E+02  0.44539164117E+01  0.29202802498E+02  0.00000000000E+00 0.  1.
         13    1    4    4    0    0  0.16029674843E+02  0.28687433753E+02 -0.83162014970E+02  0.89419461331E+02  0.00000000000E+00 0. -1.
         21    1    1    2  502  501 -0.11943449322E+02  0.16463100122E+02 -0.15088050406E+02  0.25324472598E+02  0.00000000000E+00 0. -1.
<scales pt_clust_5="13000.00000" pt_clust_6="13000.00000" pt_clust_7="13000.00000" pt_clust_8="13000.00000" pt_clust_9="20.33912"></scales>
<clustering>
<clus scale="   20.339">  2  9  1 -1</clus>
<clus scale="   80.163">  5  6 -1 -1</clus>
<clus scale="   82.270">  1  5  2 -1</clus>
<clus scale="   88.633">  7  8 -1 -1</clus>
<clus scale="   20.339">  2  5  1 -1</clus>
</clustering>
</event>
<event>
 9    2  0.3791909E-005  0.1342026E+03  0.7546771E-02  0.1223736E+00
         -1   -1    0    0    0  501 -0.00000000000E+00  0.00000000000E+00  0.23697971656E+02  0.23697971656E+02  0.00000000000E+00 0.  1.
          2   -1    0    0  502    0  0.00000000000E+00 -0.00000000000E+00 -0.89513784640E+03  0.89513784640E+03  0.00000000000E+00 0. -1.
         23    2    1    2    0    0  0.36519232384E+02  0.10277679380E+03 -0.36608201887E+03  0.39252413069E+03  0.90346139704E+02 0.  0.
         24    2    1    2    0    0 -0.13949661984E+02 -0.87901615096E+02 -0.42004788650E+03  0.43682175875E+03  0.80322692650E+02 0.  0.
        -11    1    4    4    0    0 -0.23200739401E+02  0.66987962975E+01 -0.67692003641E+02  0.71870407941E+02  0.00000000000E+00 0.  1.
         12    1    4    4    0    0  0.92510774173E+01 -0.94600411394E+02 -0.35235588286E+03  0.36495135081E+03  0.00000000000E+00 0. -1.
        -13    1    3    3    0    0  0.61097193277E+02  0.77892131754E+02 -0.31809514938E+03  0.33314347551E+03  0.00000000000E+00 0. -1.
         13    1    3    3    0    0 -0.24577960893E+02  0.24884662042E+02 -0.47986869492E+02  0.59380655185E+02  0.00000000000E+00 0.  1.
         21    1    1    2  502  501 -0.22569570401E+02 -0.14875178700E+02 -0.85309969371E+02  0.89489928615E+02  0.00000000000E+00 0.  1.
<scales pt_clust_5="13000.00000" pt_clust_6="13000.00000" pt_clust_7="13000.00000" pt_clust_8="13000.00000" pt_clust_9="27.03066"></scales>
<clustering>
<clus scale="   27.031">  2  9  1 -1</clus>
<clus scale="   80.323">  5  6 -1 -1</clus>
<clus scale="   90.346">  7  8 -1 -1</clus>
<clus scale="  127.670">  2  5  1 -1</clus>
<clus scale="   27.031">  2  5  1 -1</clus>
</clustering>
</event>
<event>
 9    2  0.3791909E-005  0.1480957E+03  0.7546771E-02  0.1205797E+00
         -1   -1    0    0    0  501 -0.00000000000E+00  0.00000000000E+00  0.16302357207E+03  0.16302357207E+03  0.00000000000E+00 0.  1.
          2   -1    0    0  502    0  0.00000000000E+00 -0.00000000000E+00 -0.32994828899E+03  0.32994828899E+03  0.00000000000E+00 0. -1.
         23    2    1    2    0    0  0.11492632579E+03  0.34075072700E+02  0.97054208227E+02  0.18016117397E+03  0.93109389068E+02 0.  0.
         24    2    1    2    0    0 -0.76544978923E+02 -0.46787246734E+02 -0.23433208958E+03  0.26267425309E+03  0.77704921158E+02 0.  0.
        -11    1    4    4    0    0 -0.24614712038E+02  0.94139984048E+01 -0.14880568161E+02  0.30264479568E+02  0.00000000000E+00 0.  1.
         12    1    4    4    0    0 -0.51930266884E+02 -0.56201245139E+02 -0.21945152142E+03  0.23240977352E+03  0.00000000000E+00 0. -1.
        -13    1    3    3    0    0  0.81542229770E+01 -0.27387758300E+02  0.19074892600E+02  0.34357418191E+02  0.00000000000E+00 0. -1.
         13    1    3    3    0    0  0.10677210281E+03  0.61462831000E+02  0.77979315627E+02  0.14580375578E+03  0.00000000000E+00 0.  1.
         21    1    1    2  502  501 -0.38381346864E+02  0.12712174034E+02 -0.29646835564E+02  0.50136434004E+02  0.00000000000E+00 0. -1.
<scales pt_clust_5="13000.00000" pt_clust_6="13000.00000" pt_clust_7="13000.00000" pt_clust_8="13000.00000" pt_clust_9="40.43176"></scales>
<clustering>
<clus scale="   40.432">  2  9  1 -1</clus>
<clus scale="   77.705">  5  6 -1 -1</clus>
<clus scale="   93.109">  7  8 -1 -1</clus>
<clus scale="  138.928">  2  5  1 -1</clus>
<clus scale="   40.432">  2  5  1 -1</clus>
</clustering>
</event>
<event>
 9    2  0.3791909E-005  0.9313831E+02  0.7546771E-02  0.1300134E+00
          2   -1    0    0  502    0  0.00000000000E+00  0.00000000000E+00  0.35855210311E+03  0.35855210311E+03  0.00000000000E+00 0. -1.
         -1   -1    0    0    0  501 -0.00000000000E+00 -0.00000000000E+00 -0.34664922961E+02  0.34664922961E+02  0.00000000000E+00 0.  1.
         23    2    1    2    0    0 -0.19270391384E+02  0.58820320878E+00  0.69179991061E+02  0.11486465696E+03  0.89645548070E+02 0.  0.
         24    2    1    2    0    0  0.39197365891E+02  0.74250639216E+01  0.20758133701E+03  0.22656296192E+03  0.81542621810E+02 0.  0.
        -11    1    4    4    0    0 -0.43726943968E+01  0.33233472343E+02  0.43943475499E+02  0.55268555067E+02  0.00000000000E+00 0.  1.
         12    1    4    4    0    0  0.43570060288E+02 -0.25808408422E+02  0.16363786152E+03  0.17129440686E+03  0.00000000000E+00 0. -1.
        -11    1    3    3    0    0  0.26229635780E+02 -0.12149949126E+02 -0.24977538145E+01  0.29014717490E+02  0.00000000000E+00 0. -1.
         11    1    3    3    0    0 -0.45500027165E+02  0.12738152335E+02  0.71677744876E+02  0.85849939472E+02  0.00000000000E+00 0.  1.
         21    1    1    2  502  501 -0.19926974506E+02 -0.80132671304E+01  0.47125852074E+02  0.51789407187E+02  0.00000000000E+00 0. -1.
<scales pt_clust_5="13000.00000" pt_clust_6="13000.00000" pt_clust_7="13000.00000" pt_clust_8="13000.00000" pt_clust_9="21.47782"></scales>
<clustering>
<clus scale="   21.478">  1  9  2 -1</clus>
<clus scale="   81.543">  5  6 -1 -1</clus>
<clus scale="   85.368">  1  5  2 -1</clus>
<clus scale="   89.646">  7  8 -1 -1</clus>
<clus scale="   21.478">  1  5  2 -1</clus>
</clustering>
</event>
<event>
 9    2  0.3791909E-005  0.9645857E+02  0.7546771E-02  0.1293470E+00
         -1   -1    0    0    0  501 -0.00000000000E+00  0.00000000000E+00  0.13451991787E+03  0.13451991787E+03  0.00000000000E+00 0.  1.
          2   -1    0    0  502    0  0.00000000000E+00 -0.00000000000E+00 -0.58958666744E+03  0.58958666744E+03  0.00000000000E+00 0. -1.
         23    2    1    2    0    0  0.28162243153E+02 -0.74309794101E+01  0.10806067982E+03  0.14501912832E+03  0.92223129758E+02 0.  0.
         24    2    1    2    0    0  0.23175089841E+01  0.29728361756E+02 -0.47832063639E+03  0.48625222289E+03  0.82228016718E+02 0.  0.
        -13    1    4    4    0    0  0.14969283496E+02 -0.20770152138E+02 -0.68317493484E+02  0.72957238052E+02  0.00000000000E+00 0.  1.
         14    1    4    4    0    0 -0.12651774512E+02  0.50498513894E+02 -0.41000314290E+03  0.41329498484E+03  0.00000000000E+00 0. -1.
        -11    1    3    3    0    0 -0.88352474889E+01 -0.43551142654E+02  0.42161517267E+02  0.61256486701E+02  0.00000000000E+00 0.  1.
         11    1    3    3    0    0  0.36997490642E+02  0.36120163244E+02  0.65899162552E+02  0.83762641623E+02  0.00000000000E+00 0. -1.
         21    1    1    2  502  501 -0.30479752138E+02 -0.22297382346E+02 -0.84806793005E+02  0.92835234096E+02  0.00000000000E+00 0.  1.
<scales pt_clust_5="13000.00000" pt_clust_6="13000.00000" pt_clust_7="13000.00000" pt_clust_8="13000.00000" pt_clust_9="37.76491"></scales>
<clustering>
<clus scale="   37.765">  2  9  1 -1</clus>
<clus scale="   82.228">  5  6 -1 -1</clus>
<clus scale="   86.952">  2  5  1 -1</clus>
<clus scale="   92.223">  7  8 -1 -1</clus>
<clus scale="   37.765">  2  5  1 -1</clus>
</clustering>
</event>
<event>
 9    2  0.3791909E-005  0.2069492E+03  0.7546771E-02  0.1144886E+00
          2   -1    0    0  502    0  0.00000000000E+00  0.00000000000E+00  0.54797097710E+03  0.54797097710E+03  0.00000000000E+00 0. -1.
         -1   -1    0    0    0  501 -0.00000000000E+00 -0.00000000000E+00 -0.91458681095E+02  0.91458681095E+02  0.00000000000E+00 0.  1.
         23    2    1    2    0    0 -0.76381098531E+02 -0.16141295131E+03  0.19200691245E+03  0.27741434121E+03  0.90575102646E+02 0.  0.
         24    2    1    2    0    0  0.10727370497E+03  0.16268521134E+03  0.20023891361E+03  0.29069806144E+03  0.80222282651E+02 0.  0.
        -11    1    4    4    0    0  0.69451998806E+01  0.43423558153E+02  0.10599742882E+02  0.45234895304E+02  0.00000000000E+00 0.  1.
         12    1    4    4    0    0  0.10032850509E+03  0.11926165319E+03  0.18963917073E+03  0.24546316614E+03  0.00000000000E+00 0. -1.
        -13    1    3    3    0    0 -0.26386586817E+02 -0.10438660541E+03  0.16477701505E+03  0.19683566760E+03  0.00000000000E+00 0. -1.
         13    1    3    3    0    0 -0.49994511714E+02 -0.57026345905E+02  0.27229897402E+02  0.80578673614E+02  0.00000000000E+00 0.  1.
         21    1    1    2  502  501 -0.30892606442E+02 -0.12722600330E+01  0.64266469947E+02  0.71317255541E+02  0.00000000000E+00 0.  1.
<scales pt_clust_5="13000.00000" pt_clust_6="13000.00000" pt_clust_7="13000.00000" pt_clust_8="13000.00000" pt_clust_9="30.91879"></scales>
<clustering>
<clus scale="   30.919">  1  9  2 -1</clus>
<clus scale="   80.222">  5  6 -1 -1</clus>
<clus scale="   90.575">  7  8 -1 -1</clus>
<clus scale="  202.632">  1  5  2 -1</clus>
<clus scale="   30.919">  1  5  2 -1</clus>
</clustering>
</event>
<event>
 9    2  0.3791909E-005  0.9389424E+02  0.7546771E-02  0.1304119E+00
         -1   -1    0    0    0  501 -0.00000000000E+00  0.00000000000E+00  0.22569949325E+02  0.22569949325E+02  0.00000000000E+00 0.  1.
          2   -1    0    0  502    0  0.00000000000E+00 -0.00000000000E+00 -0.61659203817E+03  0.61659203817E+03  0.00000000000E+00 0. -1.
         23    2    1    2    0    0  0.47993648852E+01 -0.30028797692E+01 -0.12440851837E+03  0.15550200056E+03  0.93120038362E+02 0.  0.
         24    2    1    2    0    0  0.44206994449E+01  0.33665163744E+02 -0.34055048628E+03  0.35068455707E+03  0.76499274711E+02 0.  0.
        -11    1    4    4    0    0  0.51703773591E+01  0.27019517174E+02 -0.32577465008E+02  0.42638929826E+02  0.00000000000E+00 0.  1.
         12    1    4    4    0    0 -0.74967791419E+00  0.66456465695E+01 -0.30797302127E+03  0.30804562725E+03  0.00000000000E+00 0. -1.
        -11    1    3    3    0    0  0.39590359709E+02  0.26486762598E+02 -0.60985900487E+02  0.77383623803E+02  0.00000000000E+00 0.  1.
         11    1    3    3    0    0 -0.34790994823E+02 -0.29489642367E+02 -0.63422617880E+02  0.78118376752E+02  0.00000000000E+00 0. -1.
         21    1    1    2  502  501 -0.92200643301E+01 -0.30662283975E+02 -0.12906308420E+03  0.13297542986E+03  0.00000000000E+00 0.  1.
<scales pt_clust_5="13000.00000" pt_clust_6="13000.00000" pt_clust_7="13000.00000" pt_clust_8="13000.00000" pt_clust_9="32.01851"></scales>
<clustering>
<clus scale="   32.019">  2  9  1 -1</clus>
<clus scale="   76.499">  5  6 -1 -1</clus>
<clus scale="   77.440">  2  5  1 -1</clus>
<clus scale="   93.120">  7  8 -1 -1</clus>
<clus scale="   32.019">  2  5  1 -1</clus>
</clustering>
</event>
<event>
 9    2  0.3791909E-005  0.1524813E+03  0.7546771E-02  0.1199839E+00
         -1   -1    0    0    0  501 -0.00000000000E+00  0.00000000000E+00  0.60211871941E+02  0.60211871941E+02  0.00000000000E+00 0.  1.
          2   -1    0    0  502    0  0.00000000000E+00 -0.00000000000E+00 -0.14335258883E+04  0.14335258883E+04  0.00000000000E+00 0. -1.
         23    2    1    2    0    0  0.19759463853E+02  0.13815782273E+03 -0.88575349061E+02  0.18862084006E+03  0.90852674428E+02 0.  0.
         24    2    1    2    0    0 -0.73382389967E+02 -0.45078046516E+02 -0.50916515791E+03  0.52213956967E+03  0.77224133202E+02 0.  0.
        -13    1    4    4    0    0 -0.11454200171E+02 -0.33727354899E+02 -0.70582034619E+02  0.79060462818E+02  0.00000000000E+00 0.  1.
         14    1    4    4    0    0 -0.61928189795E+02 -0.11350691617E+02 -0.43858312329E+03  0.44307910685E+03  0.00000000000E+00 0. -1.
        -11    1    3    3    0    0  0.95067520793E+01  0.81148196203E+02 -0.10046012257E+03  0.12948993903E+03  0.00000000000E+00 0. -1.
         11    1    3    3    0    0  0.10252711774E+02  0.57009626532E+02  0.11884773511E+02  0.59130901037E+02  0.00000000000E+00 0.  1.
         21    1    1    2  502  501  0.53622926113E+02 -0.93079776219E+02 -0.77557350938E+03  0.78297735051E+03  0.00000000000E+00 0. -1.
<scales pt_clust_5="13000.00000" pt_clust_6="13000.00000" pt_clust_7="13000.00000" pt_clust_8="13000.00000" pt_clust_9="107.42096"></scales>
<clustering>
<clus scale="   77.224">  5  6 -1 -1</clus>
<clus scale="   90.853">  7  8 -1 -1</clus>
<clus scale="  107.421">  2  9  1 -1</clus>
<clus scale="  144.775">  2  5  1 -1</clus>
<clus scale="  107.421">  2  5  1 -1</clus>
</clustering>
</event>
<event>
 9    2  0.3791909E-005  0.9536832E+02  0.7546771E-02  0.1295585E+00
          2   -1    0    0  502    0  0.00000000000E+00  0.00000000000E+00  0.12112468150E+04  0.12112468150E+04  0.00000000000E+00 0. -1.
         -1   -1    0    0    0  501 -0.00000000000E+00 -0.00000000000E+00 -0.23019997537E+02  0.23019997537E+02  0.00000000000E+00 0.  1.
         23    2    1    2    0    0 -0.29894949230E+02 -0.32170916545E+02  0.13469996779E+03  0.16836918344E+03  0.90969361590E+02 0.  0.
         24    2    1    2    0    0  0.14428965733E+01 -0.33217738889E+02  0.48829887058E+03  0.49618905104E+03  0.81622835273E+02 0.  0.
        -11    1    4    4    0    0  0.26423444486E+02 -0.47629500839E+02  0.23377448643E+03  0.24003599371E+03  0.00000000000E+00 0.  1.
         12    1    4    4    0    0 -0.24980547912E+02  0.14411761949E+02  0.25452438415E+03  0.25615305733E+03  0.00000000000E+00 0. -1.
        -13    1    3    3    0    0  0.14416687325E+02  0.24798762171E+02  0.42629645337E+02  0.51381963180E+02  0.00000000000E+00 0. -1.
         13    1    3    3    0    0 -0.44311636555E+02 -0.56969678716E+02  0.92070322454E+02  0.11698722026E+03  0.00000000000E+00 0.  1.
         21    1    1    2  502  501  0.28452052656E+02  0.65388655435E+02  0.56522797909E+03  0.56970857805E+03  0.00000000000E+00 0. -1.
<scales pt_clust_5="13000.00000" pt_clust_6="13000.00000" pt_clust_7="13000.00000" pt_clust_8="13000.00000" pt_clust_9="71.31056"></scales>
<clustering>
<clus scale="   71.311">  1  9  2 -1</clus>
<clus scale="   81.623">  5  6 -1 -1</clus>
<clus scale="   86.498">  1  5  2 -1</clus>
<clus scale="   90.969">  7  8 -1 -1</clus>
<clus scale="   71.311">  1  5  2 -1</clus>
</clustering>
</event>
<event>
 9    2  0.3791909E-005  0.1321055E+03  0.7546771E-02  0.1227127E+00
          2   -1    0    0  502    0  0.00000000000E+00  0.00000000000E+00  0.13741440116E+04  0.13741440116E+04  0.00000000000E+00 0. -1.
         -1   -1    0    0    0  501 -0.00000000000E+00 -0.00000000000E+00 -0.19894403581E+02  0.19894403581E+02  0.00000000000E+00 0.  1.
         23    2    1    2    0    0 -0.38574214987E+02  0.93304092421E+02  0.29567082565E+03  0.32568827787E+03  0.91967350073E+02 0.  0.
         24    2    1    2    0    0  0.40944492922E+02 -0.65462095919E+02  0.93369458956E+03  0.94037804425E+03  0.81015690100E+02 0.  0.
        -11    1    4    4    0    0  0.27251587032E+02 -0.15475973002E+02  0.94021902403E+02  0.99107380490E+02  0.00000000000E+00 0.  1.
         12    1    4    4    0    0  0.13692905890E+02 -0.49986122917E+02  0.83967268715E+03  0.84127066376E+03  0.00000000000E+00 0. -1.
        -13    1    3    3    0    0 -0.62429434897E+02  0.49185764776E+02  0.22801480358E+03  0.24146930333E+03  0.00000000000E+00 0.  1.
         13    1    3    3    0    0  0.23855219910E+02  0.44118327646E+02  0.67656022070E+02  0.84218974546E+02  0.00000000000E+00 0. -1.
         21    1    1    2  502  501 -0.23702779347E+01 -0.27841996502E+02  0.12488419286E+03  0.12797209310E+03  0.00000000000E+00 0. -1.
<scales pt_clust_5="13000.00000" pt_clust_6="13000.00000" pt_clust_7="13000.00000" pt_clust_8="13000.00000" pt_clust_9="27.94271"></scales>
<clustering>
<clus scale="   27.943">  1  9  2 -1</clus>
<clus scale="   81.016">  5  6 -1 -1</clus>
<clus scale="   91.967">  7  8 -1 -1</clus>
<clus scale="  124.729">  1  5  2 -1</clus>
<clus scale="   27.943">  1  5  2 -1</clus>
</clustering>
</event>
<event>
 9    2  0.4265133E-005  0.1092969E+03  0.7546771E-02  0.1265865E+00
         -1   -1    0    0    0  501 -0.00000000000E+00  0.00000000000E+00  0.18610439527E+03  0.18610439527E+03  0.00000000000E+00 0.  1.
          2   -1    0    0  502    0  0.00000000000E+00 -0.00000000000E+00 -0.54276221792E+03  0.54276221792E+03  0.00000000000E+00 0. -1.
         24    2    1    2    0    0 -0.20332665557E+02 -0.57553305600E+02  0.15479069235E+03  0.18521402737E+03  0.81352794789E+02 0.  0.
         23    2    1    2    0    0  0.46490801143E+02  0.14259011861E+02 -0.46003531502E+03  0.47152796410E+03  0.91331351957E+02 0.  0.
        -13    1    3    3    0    0 -0.31197755296E+02 -0.74462169284E+02  0.13286383123E+03  0.15546932893E+03  0.00000000000E+00 0.  1.
         14    1    3    3    0    0  0.10865089739E+02  0.16908863684E+02  0.21926861125E+02  0.29744698434E+02  0.00000000000E+00 0. -1.
        -13    1    4    4    0    0 -0.13923550715E+02  0.35824818590E+02 -0.20318409595E+03  0.20678747481E+03  0.00000000000E+00 0.  1.
         13    1    4    4    0    0  0.60414351857E+02 -0.21565806729E+02 -0.25685121907E+03  0.26474048929E+03  0.00000000000E+00 0. -1.
         21    1    1    2  502  501 -0.26158135585E+02  0.43294293739E+02 -0.51413199980E+02  0.72124621731E+02  0.00000000000E+00 0. -1.
<scales pt_clust_5="13000.00000" pt_clust_6="13000.00000" pt_clust_7="13000.00000" pt_clust_8="13000.00000" pt_clust_9="50.58304"></scales>
<clustering>
<clus scale="   50.583">  2  9  1 -1</clus>
<clus scale="   81.353">  5  6 -1 -1</clus>
<clus scale="   91.331">  7  8 -1 -1</clus>
<clus scale="  101.107">  1  5  2 -1</clus>
<clus scale="   50.583">  2  5  1 -1</clus>
</clustering>
</event>
<event>
 9    2  0.3791909E-005  0.1247958E+03  0.7546771E-02  0.1238429E+00
         -1   -1    0    0    0  501 -0.00000000000E+00  0.00000000000E+00  0.14535889106E+02  0.14535889106E+02  0.00000000000E+00 0.  1.
          2   -1    0    0  502    0  0.00000000000E+00 -0.00000000000E+00 -0.20498258588E+04  0.20498258588E+04  0.00000000000E+00 0. -1.
         23    2    1    2    0    0 -0.78012051406E+02 -0.71763737922E+02 -0.61306070611E+03  0.62880240321E+03  0.91176305388E+02 0.  0.
         24    2    1    2    0    0  0.84816465592E+02 -0.18936698453E+01 -0.10089029261E+04  0.10156660546E+04  0.80591571766E+02 0.  0.
        -11    1    4    4    0    0  0.62990250483E+02 -0.19417980332E+02 -0.34902325767E+03  0.35519299544E+03  0.00000000000E+00 0.  1.
         12    1    4    4    0    0  0.21826215109E+02  0.17524310486E+02 -0.65987966840E+03  0.66047305917E+03  0.00000000000E+00 0. -1.
        -13    1    3    3    0    0 -0.35382292322E+02 -0.86978623338E+02 -0.44114543287E+03  0.45102824798E+03  0.00000000000E+00 0. -1.
         13    1    3    3    0    0 -0.42629759084E+02  0.15214885416E+02 -0.17191527324E+03  0.17777415523E+03  0.00000000000E+00 0.  1.
         21    1    1    2  502  501 -0.68044141859E+01  0.73657407767E+02 -0.41332633748E+03  0.41989329005E+03  0.00000000000E+00 0.  1.
<scales pt_clust_5="13000.00000" pt_clust_6="13000.00000" pt_clust_7="13000.00000" pt_clust_8="13000.00000" pt_clust_9="73.97103"></scales>
<clustering>
<clus scale="   73.971">  1  9  2 -1</clus>
<clus scale="   80.592">  5  6 -1 -1</clus>
<clus scale="   91.176">  7  8 -1 -1</clus>
<clus scale="  117.285">  2  5  1 -1</clus>
<clus scale="  117.285">  2  5  1 -1</clus>
</clustering>
</event>
<event>
 9    2  0.3791909E-005  0.5168429E+03  0.7546771E-02  0.1054447E+00
          2   -1    0    0  502    0  0.00000000000E+00  0.00000000000E+00  0.62037396146E+03  0.62037396146E+03  0.00000000000E+00 0. -1.
         -1   -1    0    0    0  501 -0.00000000000E+00 -0.00000000000E+00 -0.75176414229E+03  0.75176414229E+03  0.00000000000E+00 0.  1.
         24    2    1    2    0    0  0.10204127482E+03 -0.43233712206E+02 -0.23745487328E+03  0.27399001523E+03  0.80025845595E+02 0.  0.
         23    2    1    2    0    0  0.31127626248E+03 -0.30978962386E+03 -0.18076784011E+03  0.48355085116E+03  0.91004895513E+02 0.  0.
        -11    1    3    3    0    0  0.50251431545E+02  0.10302947115E+02 -0.47336254956E+02  0.69800273100E+02  0.00000000000E+00 0.  1.
         12    1    3    3    0    0  0.51789843277E+02 -0.53536659321E+02 -0.19011861832E+03  0.20418974213E+03  0.00000000000E+00 0. -1.
        -13    1    4    4    0    0  0.26167817798E+03 -0.25061615573E+03 -0.10960046627E+03  0.37854483030E+03  0.00000000000E+00 0.  1.
         13    1    4    4    0    0  0.49598084491E+02 -0.59173468131E+02 -0.71167373842E+02  0.10500602085E+03  0.00000000000E+00 0. -1.
         21    1    1    2  502  501 -0.41331753730E+03  0.35302333606E+03  0.28683253255E+03  0.61459723736E+03  0.00000000000E+00 0. -1.
<scales pt_clust_5="13000.00000" pt_clust_6="13000.00000" pt_clust_7="13000.00000" pt_clust_8="13000.00000" pt_clust_9="508.76781"></scales>
<clustering>
<clus scale="   80.026">  5  6 -1 -1</clus>
<clus scale="   91.005">  7  8 -1 -1</clus>
<clus scale="  136.696">  2  5  1 -1</clus>
<clus scale="  508.768">  1  9  2 -1</clus>
<clus scale="  508.768">  1  5  2 -1</clus>
</clustering>
</event>
<event>
 9    2  0.3791909E-005  0.2168385E+03  0.7546771E-02  0.1137176E+00
          2   -1    0    0  502    0  0.00000000000E+00  0.00000000000E+00  0.87444109901E+03  0.87444109901E+03  0.00000000000E+00 0. -1.
         -1   -1    0    0    0  501 -0.00000000000E+00 -0.00000000000E+00 -0.12557486834E+03  0.12557486834E+03  0.00000000000E+00 0.  1.
         23    2    1    2    0    0  0.16221384526E+03  0.16290884262E+03  0.58318348713E+02  0.25386775184E+03  0.90527250227E+02 0.  0.
         24    2    1    2    0    0 -0.12710562904E+03 -0.43345315562E+02  0.33365469180E+03  0.36812602961E+03  0.78464405973E+02 0.  0.
        -13    1    4    4    0    0 -0.14884961954E+02  0.13820290083E+02  0.10626349110E+03  0.10818730079E+03  0.00000000000E+00 0.  1.
         14    1    4    4    0    0 -0.11222066708E+03 -0.57165605645E+02  0.22739120070E+03  0.25993872883E+03  0.00000000000E+00 0. -1.
        -13    1    3    3    0    0  0.12370100253E+03  0.10267466168E+03 -0.13181234475E+01  0.16076617066E+03  0.00000000000E+00 0. -1.
         13    1    3    3    0    0  0.38512842731E+02  0.60234180934E+02  0.59636472160E+02  0.93101581188E+02  0.00000000000E+00 0.  1.
         21    1    1    2  502  501 -0.35108216224E+02 -0.11956352705E+03  0.35689319016E+03  0.37802218589E+03  0.00000000000E+00 0. -1.
<scales pt_clust_5="13000.00000" pt_clust_6="13000.00000" pt_clust_7="13000.00000" pt_clust_8="13000.00000" pt_clust_9="124.61149"></scales>
<clustering>
<clus scale="   78.464">  5  6 -1 -1</clus>
<clus scale="   90.527">  7  8 -1 -1</clus>
<clus scale="  124.611">  1  9  2 -1</clus>
<clus scale="  212.086">  1  5  2 -1</clus>
<clus scale="  124.611">  1  5  2 -1</clus>
</clustering>
</event>
<event>
 9    2  0.6500625E-005  0.9655561E+02  0.7546771E-02  0.1293373E+00
         -1   -1    0    0    0  501 -0.00000000000E+00  0.00000000000E+00  0.26571941404E+03  0.26571941404E+03  0.00000000000E+00 0.  1.
          2   -1    0    0  502    0  0.00000000000E+00 -0.00000000000E+00 -0.31229084477E+03  0.31229084477E+03  0.00000000000E+00 0. -1.
         24    2    1    2    0    0  0.99314352712E+01 -0.29391780496E+02  0.24440863896E+03  0.25932950553E+03  0.80954922459E+02 0.  0.
         23    2    1    2    0    0 -0.20683307570E+01  0.49010937844E+02 -0.26858767746E+03  0.28788856309E+03  0.91291479637E+02 0.  0.
        -11    1    3    3    0    0 -0.26011135440E+02 -0.41320380741E+02  0.13775589221E+03  0.14615279289E+03  0.00000000000E+00 0.  1.
         12    1    3    3    0    0  0.35942570712E+02  0.11928600245E+02  0.10665274675E+03  0.11317671263E+03  0.00000000000E+00 0. -1.
        -11    1    4    4    0    0 -0.17281832045E+02 -0.22256460740E+02 -0.10664700040E+03  0.11030681963E+03  0.00000000000E+00 0.  1.
         11    1    4    4    0    0  0.15213501288E+02  0.71267398583E+02 -0.16194067706E+03  0.17758174345E+03  0.00000000000E+00 0. -1.
         21    1    1    2  502  501 -0.78631045142E+01 -0.19619157348E+02 -0.22392392233E+02  0.30792190204E+02  0.00000000000E+00 0.  1.
<scales pt_clust_5="13000.00000" pt_clust_6="13000.00000" pt_clust_7="13000.00000" pt_clust_8="13000.00000" pt_clust_9="21.13622"></scales>
<clustering>
<clus scale="   21.136">  2  9  1 -1</clus>
<clus scale="   80.955">  5  6 -1 -1</clus>
<clus scale="   86.848">  1  5  2 -1</clus>
<clus scale="   91.291">  7  8 -1 -1</clus>
<clus scale="   21.136">  2  5  1 -1</clus>
</clustering>
</event>
<event>
 9    2  0.3791909E-005  0.8472296E+02  0.7546771E-02  0.1316234E+00
         -1   -1    0    0    0  501 -0.00000000000E+00  0.00000000000E+00  0.67566527460E+02  0.67566527460E+02  0.00000000000E+00 0.  1.
          2   -1    0    0  502    0  0.00000000000E+00 -0.00000000000E+00 -0.30605905305E+03  0.30605905305E+03  0.00000000000E+00 0. -1.
         23    2    1    2    0    0 -0.16366007016E+02 -0.33985452347E+02  0.74239814968E+01  0.88948775395E+02  0.80211669887E+02 0.  0.
         24    2    1    2    0    0 -0.95312494382E+01 -0.18093787773E+02 -0.16909743891E+03  0.18832285149E+03  0.80332575434E+02 0.  0.
        -13    1    4    4    0    0  0.29114627676E+02 -0.16663558691E+02 -0.12613080663E+03  0.13051557805E+03  0.00000000000E+00 0.  1.
         14    1    4    4    0    0 -0.38645877114E+02 -0.14302290824E+01 -0.42966632285E+02  0.57807273444E+02  0.00000000000E+00 0. -1.
        -13    1    3    3    0    0  0.29923621389E+02 -0.82029595501E+01  0.16577377811E+02  0.35178418349E+02  0.00000000000E+00 0.  1.
         13    1    3    3    0    0 -0.46289628405E+02 -0.25782492797E+02 -0.91533963147E+01  0.53770357046E+02  0.00000000000E+00 0. -1.
         21    1    1    2  502  501  0.25897256454E+02  0.52079240120E+02 -0.76819068176E+02  0.96353953623E+02  0.00000000000E+00 0. -1.
<scales pt_clust_5="13000.00000" pt_clust_6="13000.00000" pt_clust_7="13000.00000" pt_clust_8="13000.00000" pt_clust_9="58.16283"></scales>
<clustering>
<clus scale="   58.163">  2  9  1 -1</clus>
<clus scale="   80.212">  7  8 -1 -1</clus>
<clus scale="   80.333">  5  6 -1 -1</clus>
<clus scale="   84.608">  1  7  2 -1</clus>
<clus scale="   58.163">  2  5  1 -1</clus>
</clustering>
</event>
<event>
 9    2  0.3791909E-005  0.9639617E+02  0.7546771E-02  0.1291880E+00
         -1   -1    0    0    0  501 -0.00000000000E+00  0.00000000000E+00  0.35047150490E+02  0.35047150490E+02  0.00000000000E+00 0.  1.
          2   -1    0    0  502    0  0.00000000000E+00 -0.00000000000E+00 -0.49130460729E+03  0.49130460729E+03  0.00000000000E+00 0. -1.
         23    2    1    2    0    0 -0.40702151256E+02 -0.85413624226E+01 -0.63538380186E+02  0.11725544239E+03  0.89342559985E+02 0.  0.
         24    2    1    2    0    0  0.13568420931E+02  0.12493014609E+02 -0.33148818607E+03  0.34200625030E+03  0.82119914039E+02 0.  0.
        -11    1    4    4    0    0  0.44630319777E+02  0.43076449283E+01 -0.25707469618E+03  0.26095559137E+03  0.00000000000E+00 0.  1.
         12    1    4    4    0    0 -0.31061898846E+02  0.81853696808E+01 -0.74413489885E+02  0.81050658934E+02  0.00000000000E+00 0. -1.
        -13    1    3    3    0    0 -0.42242225161E+02 -0.44585241554E+02 -0.31592781637E+02  0.69067743575E+02  0.00000000000E+00 0.  1.
         13    1    3    3    0    0  0.15400739050E+01  0.36043879132E+02 -0.31945598549E+02  0.48187698816E+02  0.00000000000E+00 0. -1.
         21    1    1    2  502  501  0.27133730325E+02 -0.39516521865E+01 -0.61230890544E+02  0.67090065086E+02  0.00000000000E+00 0.  1.
<scales pt_clust_5="13000.00000" pt_clust_6="13000.00000" pt_clust_7="13000.00000" pt_clust_8="13000.00000" pt_clust_9="27.41997"></scales>
<clustering>
<clus scale="   27.420">  2  9  1 -1</clus>
<clus scale="   82.120">  5  6 -1 -1</clus>
<clus scale="   89.343">  7  8 -1 -1</clus>
<clus scale="   89.743">  2  5  1 -1</clus>
<clus scale="   27.420">  2  5  1 -1</clus>
</clustering>
</event>
<event>
 9    2  0.3791909E-005  0.1304998E+03  0.7546771E-02  0.1229943E+00
          2   -1    0    0  502    0  0.00000000000E+00  0.00000000000E+00  0.27568102029E+02  0.27568102029E+02  0.00000000000E+00 0. -1.
         -1   -1    0    0    0  501 -0.00000000000E+00 -0.00000000000E+00 -0.76008048812E+03  0.76008048812E+03  0.00000000000E+00 0.  1.
         23    2    1    2    0    0  0.30468557891E+02  0.84037711044E+02 -0.43036395179E+03  0.44907090409E+03  0.91983020189E+02 0.  0.
         24    2    1    2    0    0 -0.10983445943E+02 -0.99041514394E+02 -0.24071239981E+03  0.27240238828E+03  0.79565972995E+02 0.  0.
        -11    1    4    4    0    0  0.12708782646E+02 -0.89411138105E+02 -0.22484847721E+03  0.24230704174E+03  0.00000000000E+00 0.  1.
         12    1    4    4    0    0 -0.23692228589E+02 -0.96303762891E+01 -0.15863922605E+02  0.30095346540E+02  0.00000000000E+00 0. -1.
        -13    1    3    3    0    0  0.45568157132E+02  0.17287758470E+02 -0.27523737491E+03  0.27951911578E+03  0.00000000000E+00 0. -1.
         13    1    3    3    0    0 -0.15099599241E+02  0.66749952574E+02 -0.15512657688E+03  0.16955178831E+03  0.00000000000E+00 0.  1.
         21    1    1    2  502  501 -0.19485111948E+02  0.15003803350E+02 -0.61436034492E+02  0.66175297783E+02  0.00000000000E+00 0.  1.
<scales pt_clust_5="13000.00000" pt_clust_6="13000.00000" pt_clust_7="13000.00000" pt_clust_8="13000.00000" pt_clust_9="24.59235"></scales>
<clustering>
<clus scale="   24.592">  1  9  2 -1</clus>
<clus scale="   79.566">  5  6 -1 -1</clus>
<clus scale="   91.983">  7  8 -1 -1</clus>
<clus scale="  122.066">  1  5  2 -1</clus>
<clus scale="   24.592">  1  5  2 -1</clus>
</clustering>
</event>
<event>
 9    2  0.3791909E-005  0.1149381E+03  0.7546771E-02  0.1256406E+00
          2   -1    0    0  502    0  0.00000000000E+00  0.00000000000E+00  0.27822225844E+03  0.27822225844E+03  0.00000000000E+00 0. -1.
         -1   -1    0    0    0  501 -0.00000000000E+00 -0.00000000000E+00 -0.10144208927E+03  0.10144208927E+03  0.00000000000E+00 0.  1.
         24    2    1    2    0    0 -0.14529252697E+02 -0.73309618067E+02 -0.48367039675E+02  0.11793094577E+03  0.77349454804E+02 0.  0.
         23    2    1    2    0    0 -0.28777669635E+01  0.50136867608E+02  0.16379334885E+03  0.19387858020E+03  0.90767040806E+02 0.  0.
        -11    1    3    3    0    0 -0.10116998001E+02 -0.89086665716E+02 -0.33209488331E+02  0.95612016882E+02  0.00000000000E+00 0.  1.
         12    1    3    3    0    0 -0.44122546959E+01  0.15777047649E+02 -0.15157551344E+02  0.22318928890E+02  0.00000000000E+00 0. -1.
        -11    1    4    4    0    0  0.41166444745E+02  0.25870393022E+02  0.51421426127E+02  0.70768046978E+02  0.00000000000E+00 0. -1.
         11    1    4    4    0    0 -0.44044211709E+02  0.24266474586E+02  0.11237192272E+03  0.12311053322E+03  0.00000000000E+00 0.  1.
         21    1    1    2  502  501  0.17407019660E+02  0.23172750459E+02  0.61353859986E+02  0.67854821734E+02  0.00000000000E+00 0. -1.
<scales pt_clust_5="13000.00000" pt_clust_6="13000.00000" pt_clust_7="13000.00000" pt_clust_8="13000.00000" pt_clust_9="28.98242"></scales>
<clustering>
<clus scale="   28.982">  1  9  2 -1</clus>
<clus scale="   77.349">  5  6 -1 -1</clus>
<clus scale="   90.767">  7  8 -1 -1</clus>
<clus scale="  104.666">  2  5  1 -1</clus>
<clus scale="   28.982">  1  5  2 -1</clus>
</clustering>
</event>
<event>
 9    2  0.3791909E-005  0.1583119E+03  0.7546771E-02  0.1196463E+00
          2   -1    0    0  502    0  0.00000000000E+00  0.00000000000E+00  0.62321256318E+03  0.62321256318E+03  0.00000000000E+00 0. -1.
         -1   -1    0    0    0  501 -0.00000000000E+00 -0.00000000000E+00 -0.44442347782E+03  0.44442347782E+03  0.00000000000E+00 0.  1.
         23    2    1    2    0    0 -0.10176268732E+03  0.28900178374E+02 -0.37968687521E+03  0.40441144385E+03  0.90529707095E+02 0.  0.
         24    2    1    2    0    0  0.78191343662E+02  0.11421965267E+03  0.11560428060E+03  0.19720504907E+03  0.79783873086E+02 0.  0.
        -11    1    4    4    0    0 -0.12678889293E+02  0.22747339060E+02  0.33626889231E+01  0.26258395701E+02  0.00000000000E+00 0.  1.
         12    1    4    4    0    0  0.90870232955E+02  0.91472313606E+02  0.11224159168E+03  0.17094665337E+03  0.00000000000E+00 0. -1.
        -13    1    3    3    0    0 -0.38401582621E+01  0.37347187694E+02 -0.14904183397E+03  0.15369784487E+03  0.00000000000E+00 0. -1.
         13    1    3    3    0    0 -0.97922529061E+02 -0.84470093203E+01 -0.23064504124E+03  0.25071359898E+03  0.00000000000E+00 0.  1.
         21    1    1    2  502  501  0.23571343661E+02 -0.14311983104E+03  0.44287167996E+03  0.46601954808E+03  0.00000000000E+00 0. -1.
<scales pt_clust_5="13000.00000" pt_clust_6="13000.00000" pt_clust_7="13000.00000" pt_clust_8="13000.00000" pt_clust_9="136.73762"></scales>
<clustering>
<clus scale="   79.784">  5  6 -1 -1</clus>
<clus scale="   90.530">  7  8 -1 -1</clus>
<clus scale="  139.235">  2  7  1 -1</clus>
<clus scale="  136.738">  1  9  2 -1</clus>
<clus scale="  136.738">  1  5  2 -1</clus>
</clustering>
</event>
<event>
 9    2  0.3791909E-005  0.1011424E+03  0.7546771E-02  0.1289282E+00
          4   -1    0    0  502    0  0.00000000000E+00  0.00000000000E+00  0.21042970069E+03  0.21042970069E+03  0.00000000000E+00 0. -1.
         -3   -1    0    0    0  501 -0.00000000000E+00 -0.00000000000E+00 -0.10768632475E+03  0.10768632475E+03  0.00000000000E+00 0.  1.
         23    2    1    2    0    0  0.18785220734E+02 -0.97219653267E+01 -0.64448110496E+02  0.12061554312E+03  0.99735395766E+02 0.  0.
         24    2    1    2    0    0  0.18977870156E+01 -0.30047651170E+01  0.11610938617E+03  0.14093956433E+03  0.79811910306E+02 0.  0.
        -11    1    4    4    0    0 -0.51638046121E+01 -0.40211842561E+02  0.73443004297E+02  0.83889999645E+02  0.00000000000E+00 0.  1.
         12    1    4    4    0    0  0.70615916277E+01  0.37207077444E+02  0.42666381876E+02  0.57049564684E+02  0.00000000000E+00 0. -1.
        -11    1    3    3    0    0  0.75347190363E+01 -0.53154948407E+02 -0.50307384413E+02  0.73573456203E+02  0.00000000000E+00 0.  1.
         11    1    3    3    0    0  0.11250501698E+02  0.43432983080E+02 -0.14140726083E+02  0.47042086921E+02  0.00000000000E+00 0. -1.
         21    1    1    2  502  501 -0.20683007750E+02  0.12726730444E+02  0.51082100260E+02  0.56560917994E+02  0.00000000000E+00 0. -1.
<scales pt_clust_5="13000.00000" pt_clust_6="13000.00000" pt_clust_7="13000.00000" pt_clust_8="13000.00000" pt_clust_9="24.28490"></scales>
<clustering>
<clus scale="   24.285">  1  9  2 -1</clus>
<clus scale="   79.812">  5  6 -1 -1</clus>
<clus scale="   81.563">  1  5  2 -1</clus>
<clus scale="   99.735">  7  8 -1 -1</clus>
<clus scale="   24.285">  1  5  2 -1</clus>
</clustering>
</event>
<event>
 9    2  0.3791909E-005  0.1584138E+03  0.7546771E-02  0.1191128E+00
         -1   -1    0    0    0  501 -0.00000000000E+00  0.00000000000E+00  0.63623398975E+03  0.63623398975E+03  0.00000000000E+00 0.  1.
          2   -1    0    0  502    0  0.00000000000E+00 -0.00000000000E+00 -0.16924779697E+03  0.16924779697E+03  0.00000000000E+00 0. -1.
         24    2    1    2    0    0  0.80672062361E+02  0.12235048972E+03  0.55603479878E+03  0.58111952988E+03  0.83949905108E+02 0.  0.
         23    2    1    2    0    0 -0.46783630721E+02 -0.39798425059E+02 -0.14819388423E+02  0.10828794477E+03  0.87943402081E+02 0.  0.
        -11    1    3    3    0    0  0.64447499332E+02  0.71037239426E+02  0.46963469243E+03  0.47932923329E+03  0.00000000000E+00 0.  1.
         12    1    3    3    0    0  0.16224563030E+02  0.51313250290E+02  0.86400106350E+02  0.10179029658E+03  0.00000000000E+00 0. -1.
        -13    1    4    4    0    0 -0.38059239772E+02  0.21057888973E+02  0.47862475852E+01  0.43758982918E+02  0.00000000000E+00 0.  1.
         13    1    4    4    0    0 -0.87243909489E+01 -0.60856314032E+02 -0.19605636008E+02  0.64528961856E+02  0.00000000000E+00 0. -1.
         21    1    1    2  502  501 -0.33888431640E+02 -0.82552064657E+02 -0.74229217582E+02  0.11607431206E+03  0.00000000000E+00 0. -1.
<scales pt_clust_5="13000.00000" pt_clust_6="13000.00000" pt_clust_7="13000.00000" pt_clust_8="13000.00000" pt_clust_9="89.23715"></scales>
<clustering>
<clus scale="   83.950">  5  6 -1 -1</clus>
<clus scale="   87.943">  7  8 -1 -1</clus>
<clus scale="   89.237">  2  9  1 -1</clus>
<clus scale="  156.232">  1  5  2 -1</clus>
<clus scale="   89.237">  2  5  1 -1</clus>
</clustering>
</event>
<event>
 9    2  0.3791909E-005  0.9626939E+02  0.7546771E-02  0.1295713E+00
          2   -1    0    0  502    0  0.00000000000E+00  0.00000000000E+00  0.52147875187E+03  0.52147875187E+03  0.00000000000E+00 0. -1.
         -1   -1    0    0    0  501 -0.00000000000E+00 -0.00000000000E+00 -0.24258030217E+02  0.24258030217E+02  0.00000000000E+00 0.  1.
         23    2    1    2    0    0 -0.38023956223E+02  0.27249261286E+00  0.14136541484E+03  0.17355145191E+03  0.93220332812E+02 0.  0.
         24    2    1    2    0    0  0.18269373576E+02 -0.84615771655E+01  0.31890026280E+03  0.32948896125E+03  0.80375553937E+02 0.  0.
        -11    1    4    4    0    0  0.36565624202E+02 -0.16477736397E+02  0.77492869676E+02  0.87256550016E+02  0.00000000000E+00 0.  1.
         12    1    4    4    0    0 -0.18296250626E+02  0.80161592319E+01  0.24140739313E+03  0.24223241124E+03  0.00000000000E+00 0. -1.
        -11    1    3    3    0    0 -0.47449043709E+02 -0.35777229339E+02  0.62032659168E+02  0.85903857257E+02  0.00000000000E+00 0. -1.
         11    1    3    3    0    0  0.94250874855E+01  0.36049721952E+02  0.79332755668E+02  0.87647594655E+02  0.00000000000E+00 0.  1.
         21    1    1    2  502  501  0.19754582647E+02  0.81890845527E+01  0.36955044016E+02  0.42696368928E+02  0.00000000000E+00 0.  1.
<scales pt_clust_5="13000.00000" pt_clust_6="13000.00000" pt_clust_7="13000.00000" pt_clust_8="13000.00000" pt_clust_9="21.38468"></scales>
<clustering>
<clus scale="   21.385">  2  9  1 -1</clus>
<clus scale="   80.376">  5  6 -1 -1</clus>
<clus scale="   83.893">  1  5  2 -1</clus>
<clus scale="   93.220">  7  8 -1 -1</clus>
<clus scale="   83.893">  1  5  2 -1</clus>
</clustering>
</event>
<event>
 9    2  0.3791909E-005  0.9230535E+02  0.7546771E-02  0.1304205E+00
         -1   -1    0    0    0  501 -0.00000000000E+00  0.00000000000E+00  0.96238165208E+02  0.96238165208E+02  0.00000000000E+00 0.  1.
          2   -1    0    0  502    0  0.00000000000E+00 -0.00000000000E+00 -0.29716550395E+03  0.29716550395E+03  0.00000000000E+00 0. -1.
         23    2    1    2    0    0  0.10953966125E+02 -0.12972590552E+01  0.51855974913E+02  0.10628999774E+03  0.92124096905E+02 0.  0.
         24    2    1    2    0    0  0.14732461671E+02  0.30109426515E+00 -0.89119472248E+02  0.12144340281E+03  0.81173170858E+02 0.  0.
        -13    1    4    4    0    0  0.12559810760E+02 -0.39920477402E+02 -0.39660588008E+02  0.57657225076E+02  0.00000000000E+00 0.  1.
         14    1    4    4    0    0  0.21726509107E+01  0.40221571667E+02 -0.49458884240E+02  0.63786177732E+02  0.00000000000E+00 0. -1.
        -13    1    3    3    0    0  0.98598203167E+01 -0.45641760952E+02  0.36779022207E+02  0.59439741537E+02  0.00000000000E+00 0.  1.
         13    1    3    3    0    0  0.10941458081E+01  0.44344501896E+02  0.15076952706E+02  0.46850256204E+02  0.00000000000E+00 0. -1.
         21    1    1    2  502  501 -0.25686427795E+02  0.99616479008E+00 -0.16366384140E+03  0.16567026861E+03  0.00000000000E+00 0. -1.
<scales pt_clust_5="13000.00000" pt_clust_6="13000.00000" pt_clust_7="13000.00000" pt_clust_8="13000.00000" pt_clust_9="25.70574"></scales>
<clustering>
<clus scale="   25.706">  2  9  1 -1</clus>
<clus scale="   81.173">  5  6 -1 -1</clus>
<clus scale="   81.379">  2  5  1 -1</clus>
<clus scale="   92.124">  7  8 -1 -1</clus>
<clus scale="   25.706">  2  5  1 -1</clus>
</clustering>
</event>
<event>
 9    2  0.3791909E-005  0.1739983E+03  0.7546771E-02  0.1175020E+00
          2   -1    0    0  502    0  0.00000000000E+00  0.00000000000E+00  0.21601024596E+03  0.21601024596E+03  0.00000000000E+00 0. -1.
         -1   -1    0    0    0  501 -0.00000000000E+00 -0.00000000000E+00 -0.21879347681E+03  0.21879347681E+03  0.00000000000E+00 0.  1.
         24    2    1    2    0    0 -0.11368593256E+03  0.25672772779E+02  0.41991401525E+01  0.14178703915E+03  0.80637145093E+02 0.  0.
         23    2    1    2    0    0  0.18824748924E+03 -0.10458421093E+02 -0.34678484264E+02  0.21203534675E+03  0.90608472127E+02 0.  0.
        -13    1    3    3    0    0 -0.86071192579E+02  0.54369941234E+02  0.70104946981E+00  0.10180781980E+03  0.00000000000E+00 0.  1.
         14    1    3    3    0    0 -0.27614739981E+02 -0.28697168455E+02  0.34980906827E+01  0.39979219351E+02  0.00000000000E+00 0. -1.
        -13    1    4    4    0    0  0.10135104984E+03 -0.46147830411E+02 -0.39004457849E+02  0.11799578504E+03  0.00000000000E+00 0.  1.
         13    1    4    4    0    0  0.86896439401E+02  0.35689409318E+02  0.43259735855E+01  0.94039561705E+02  0.00000000000E+00 0. -1.
         21    1    1    2  502  501 -0.74561556683E+02 -0.15214351686E+02  0.27696113265E+02  0.80981336876E+02  0.00000000000E+00 0. -1.
<scales pt_clust_5="13000.00000" pt_clust_6="13000.00000" pt_clust_7="13000.00000" pt_clust_8="13000.00000" pt_clust_9="76.09798"></scales>
<clustering>
<clus scale="   76.098">  1  9  2 -1</clus>
<clus scale="   80.637">  5  6 -1 -1</clus>
<clus scale="   90.608">  7  8 -1 -1</clus>
<clus scale="  169.020">  2  5  1 -1</clus>
<clus scale="   76.098">  1  5  2 -1</clus>
</clustering>
</event>
<event>
 9    2  0.3791909E-005  0.1423970E+03  0.7546771E-02  0.1211507E+00
         -1   -1    0    0    0  501 -0.00000000000E+00  0.00000000000E+00  0.20999984818E+03  0.20999984818E+03  0.00000000000E+00 0.  1.
          2   -1    0    0  502    0  0.00000000000E+00 -0.00000000000E+00 -0.15948552014E+03  0.15948552014E+03  0.00000000000E+00 0. -1.
         24    2    1    2    0    0  0.47105262039E+02  0.66545313119E+02  0.81992670185E+01  0.12802065499E+03  0.98360946085E+02 0.  0.
         23    2    1    2    0    0 -0.12132794826E+03 -0.56376031715E+02  0.34151590056E+02  0.16610515062E+03  0.92335594319E+02 0.  0.
        -11    1    3    3    0    0  0.35769114788E+00  0.65776204896E+02  0.34605767323E+02  0.74324936633E+02  0.00000000000E+00 0.  1.
         12    1    3    3    0    0  0.46747570891E+02  0.76910822346E+00 -0.26406500305E+02  0.53695718358E+02  0.00000000000E+00 0. -1.
        -13    1    4    4    0    0 -0.31403554880E+02  0.22769680269E+02  0.24597941928E+02  0.45931474456E+02  0.00000000000E+00 0.  1.
         13    1    4    4    0    0 -0.89924393381E+02 -0.79145711984E+02  0.95536481287E+01  0.12017367616E+03  0.00000000000E+00 0. -1.
         21    1    1    2  502  501  0.74222686222E+02 -0.10169281404E+02  0.81634709665E+01  0.75359562714E+02  0.00000000000E+00 0. -1.
<scales pt_clust_5="13000.00000" pt_clust_6="13000.00000" pt_clust_7="13000.00000" pt_clust_8="13000.00000" pt_clust_9="74.91610"></scales>
<clustering>
<clus scale="   74.916">  2  9  1 -1</clus>
<clus scale="   92.336">  7  8 -1 -1</clus>
<clus scale="   98.361">  5  6 -1 -1</clus>
<clus scale="  138.304">  2  7  1 -1</clus>
<clus scale="   74.916">  2  5  1 -1</clus>
</clustering>
</event>
<event>
 9    2  0.3791909E-005  0.9787216E+02  0.7546771E-02  0.1290648E+00
         -3   -1    0    0    0  501 -0.00000000000E+00  0.00000000000E+00  0.44518889042E+02  0.44518889042E+02  0.00000000000E+00 0.  1.
          4   -1    0    0  502    0  0.00000000000E+00 -0.00000000000E+00 -0.40164141547E+03  0.40164141547E+03  0.00000000000E+00 0. -1.
         24    2    1    2    0    0 -0.28451729966E+02  0.32037658856E+02 -0.21638365447E+02  0.91489666200E+02  0.77885991290E+02 0.  0.
         23    2    1    2    0    0  0.28309380897E+02 -0.11505181699E+02 -0.28478507288E+03  0.29997145718E+03  0.89143407711E+02 0.  0.
        -13    1    3    3    0    0 -0.38694627132E+02  0.17547318937E+02  0.19454069813E+02  0.46729470391E+02  0.00000000000E+00 0.  1.
         14    1    3    3    0    0  0.10242897166E+02  0.14490339919E+02 -0.41092435260E+02  0.44760195809E+02  0.00000000000E+00 0. -1.
        -13    1    4    4    0    0  0.50618392280E+02 -0.33591736032E+02 -0.21563334616E+03  0.22402760174E+03  0.00000000000E+00 0. -1.
         13    1    4    4    0    0 -0.22309011383E+02  0.22086554333E+02 -0.69151726718E+02  0.75943855441E+02  0.00000000000E+00 0.  1.
         21    1    1    2  502  501  0.14234906907E+00 -0.20532477157E+02 -0.50699088099E+02  0.54699181123E+02  0.00000000000E+00 0.  1.
<scales pt_clust_5="13000.00000" pt_clust_6="13000.00000" pt_clust_7="13000.00000" pt_clust_8="13000.00000" pt_clust_9="20.53297"></scales>
<clustering>
<clus scale="   20.533">  2  9  1 -1</clus>
<clus scale="   77.886">  5  6 -1 -1</clus>
<clus scale="   87.742">  1  5  2 -1</clus>
<clus scale="   89.143">  7  8 -1 -1</clus>
<clus scale="   20.533">  2  5  1 -1</clus>
</clustering>
</event>
<event>
 9    2  0.3791909E-005  0.1050675E+03  0.7546771E-02  0.1275835E+00
         -1   -1    0    0    0  501 -0.00000000000E+00  0.00000000000E+00  0.43210982384E+02  0.43210982384E+02  0.00000000000E+00 0.  1.
          2   -1    0    0  502    0  0.00000000000E+00 -0.00000000000E+00 -0.43431348756E+03  0.43431348756E+03  0.00000000000E+00 0. -1.
         24    2    1    2    0    0 -0.10446999737E+02 -0.48702506768E+02 -0.66014313317E+02  0.11363729206E+03  0.77938890254E+02 0.  0.
         23    2    1    2    0    0 -0.34830902929E+02  0.62534579883E+02 -0.24043683622E+03  0.26689611269E+03  0.91103772033E+02 0.  0.
        -11    1    3    3    0    0 -0.16441943058E+02 -0.12654667226E+02  0.14436301300E+02  0.25276172363E+02  0.00000000000E+00 0.  1.
         12    1    3    3    0    0  0.59949433205E+01 -0.36047839542E+02 -0.80450614617E+02  0.88361119692E+02  0.00000000000E+00 0. -1.
        -13    1    4    4    0    0  0.24888257740E+02  0.36987599181E+02 -0.14304515198E+03  0.14983131639E+03  0.00000000000E+00 0.  1.
         13    1    4    4    0    0 -0.59719160669E+02  0.25546980702E+02 -0.97391684246E+02  0.11706479631E+03  0.00000000000E+00 0. -1.
         21    1    1    2  502  501  0.45277902666E+02 -0.13832073115E+02 -0.84651355636E+02  0.96991065194E+02  0.00000000000E+00 0.  1.
<scales pt_clust_5="13000.00000" pt_clust_6="13000.00000" pt_clust_7="13000.00000" pt_clust_8="13000.00000" pt_clust_9="47.34358"></scales>
<clustering>
<clus scale="   47.344">  2  9  1 -1</clus>
<clus scale="   77.939">  5  6 -1 -1</clus>
<clus scale="   91.104">  7  8 -1 -1</clus>
<clus scale="   93.882">  1  5  2 -1</clus>
<clus scale="   47.344">  2  5  1 -1</clus>
</clustering>
</event>
<event>
 9    2  0.3791909E-005  0.2346810E+03  0.7546771E-02  0.1124139E+00
          2   -1    0    0  502    0  0.00000000000E+00  0.00000000000E+00  0.17539817720E+04  0.17539817720E+04  0.00000000000E+00 0. -1.
         -1   -1    0    0    0  501 -0.00000000000E+00 -0.00000000000E+00 -0.49942808939E+02  0.49942808939E+02  0.00000000000E+00 0.  1.
         23    2    1    2    0    0 -0.20093479086E+03 -0.67196948025E+02  0.43595992027E+03  0.49353499529E+03  0.92873674915E+02 0.  0.
         24    2    1    2    0    0  0.18371049404E+03  0.13613208831E+03  0.77185897489E+03  0.80910814199E+03  0.81290941896E+02 0.  0.
        -11    1    4    4    0    0  0.39139453843E+02  0.67472985709E+01  0.65607149658E+02  0.76692378836E+02  0.00000000000E+00 0.  1.
         12    1    4    4    0    0  0.14457104019E+03  0.12938478974E+03  0.70625182523E+03  0.73241576316E+03  0.00000000000E+00 0. -1.
        -11    1    3    3    0    0 -0.10599751412E+03 -0.10996617363E+02  0.30047681146E+03  0.31881454299E+03  0.00000000000E+00 0.  1.
         11    1    3    3    0    0 -0.94937276733E+02 -0.56200330662E+02  0.13548310881E+03  0.17472045230E+03  0.00000000000E+00 0. -1.
         21    1    1    2  502  501  0.17224296821E+02 -0.68935140286E+02  0.49622006789E+03  0.50128144364E+03  0.00000000000E+00 0. -1.
<scales pt_clust_5="13000.00000" pt_clust_6="13000.00000" pt_clust_7="13000.00000" pt_clust_8="13000.00000" pt_clust_9="71.05442"></scales>
<clustering>
<clus scale="   71.054">  1  9  2 -1</clus>
<clus scale="   81.291">  5  6 -1 -1</clus>
<clus scale="   92.874">  7  8 -1 -1</clus>
<clus scale="  230.343">  1  5  2 -1</clus>
<clus scale="   71.054">  1  5  2 -1</clus>
</clustering>
</event>
<event>
 9    2  0.3791909E-005  0.1203100E+03  0.7546771E-02  0.1244193E+00
         -1   -1    0    0    0  501 -0.00000000000E+00  0.00000000000E+00  0.22318223039E+03  0.22318223039E+03  0.00000000000E+00 0.  1.
          2   -1    0    0  502    0  0.00000000000E+00 -0.00000000000E+00 -0.14092545332E+03  0.14092545332E+03  0.00000000000E+00 0. -1.
         24    2    1    2    0    0  0.48740468720E+02 -0.92570641753E+02  0.14777850518E+03  0.19787692619E+03  0.79823770401E+02 0.  0.
         23    2    1    2    0    0 -0.28790601288E+02  0.75916813349E+02 -0.73751463521E+02  0.13897134161E+03  0.85331671408E+02 0.  0.
        -13    1    3    3    0    0  0.26107309627E+02 -0.95089767325E+02  0.14439650995E+03  0.17485424660E+03  0.00000000000E+00 0.  1.
         14    1    3    3    0    0  0.22633159093E+02  0.25191255725E+01  0.33819952279E+01  0.23022679599E+02  0.00000000000E+00 0. -1.
        -13    1    4    4    0    0  0.22268210865E+02  0.41991929427E+02 -0.65002793673E+01  0.47973419557E+02  0.00000000000E+00 0.  1.
         13    1    4    4    0    0 -0.51058812153E+02  0.33924883923E+02 -0.67251184154E+02  0.90997922052E+02  0.00000000000E+00 0. -1.
         21    1    1    2  502  501 -0.19949867432E+02  0.16653828404E+02  0.82297354092E+01  0.27259415914E+02  0.00000000000E+00 0.  1.
<scales pt_clust_5="13000.00000" pt_clust_6="13000.00000" pt_clust_7="13000.00000" pt_clust_8="13000.00000" pt_clust_9="25.98744"></scales>
<clustering>
<clus scale="   25.987">  1  9  2 -1</clus>
<clus scale="   79.824">  5  6 -1 -1</clus>
<clus scale="   85.332">  7  8 -1 -1</clus>
<clus scale="  116.468">  1  5  2 -1</clus>
<clus scale="  120.310">  2  5  1 -1</clus>
</clustering>
</event>
<event>
 9    2  0.3791909E-005  0.1227672E+03  0.7546771E-02  0.1241452E+00
          2   -1    0    0  502    0  0.00000000000E+00  0.00000000000E+00  0.63967719889E+03  0.63967719889E+03  0.00000000000E+00 0. -1.
         -1   -1    0    0    0  501 -0.00000000000E+00 -0.00000000000E+00 -0.35134318035E+02  0.35134318035E+02  0.00000000000E+00 0.  1.
         23    2    1    2    0    0  0.66195686466E+02  0.51442022384E+02  0.13212939585E+03  0.18133219784E+03  0.91624440811E+02 0.  0.
         24    2    1    2    0    0 -0.43600524131E+02 -0.66106663706E+02  0.40818545360E+03  0.42383139676E+03  0.82137638474E+02 0.  0.
        -13    1    4    4    0    0  0.12509119915E+02 -0.41737868226E+02  0.92177425629E+02  0.10195688069E+03  0.00000000000E+00 0.  1.
         14    1    4    4    0    0 -0.56109644045E+02 -0.24368795480E+02  0.31600802797E+03  0.32187451606E+03  0.00000000000E+00 0. -1.
        -11    1    3    3    0    0  0.42414764516E+02 -0.19612619731E+02  0.33631387912E+02  0.57573755779E+02  0.00000000000E+00 0.  1.
         11    1    3    3    0    0  0.23780921950E+02  0.71054642115E+02  0.98498007936E+02  0.12375844206E+03  0.00000000000E+00 0. -1.
         21    1    1    2  502  501 -0.22595162335E+02  0.14664641322E+02  0.64228031405E+02  0.69647922325E+02  0.00000000000E+00 0. -1.
<scales pt_clust_5="13000.00000" pt_clust_6="13000.00000" pt_clust_7="13000.00000" pt_clust_8="13000.00000" pt_clust_9="26.93683"></scales>
<clustering>
<clus scale="   26.937">  1  9  2 -1</clus>
<clus scale="   82.138">  5  6 -1 -1</clus>
<clus scale="   91.624">  7  8 -1 -1</clus>
<clus scale="  115.859">  1  5  2 -1</clus>
<clus scale="   26.937">  1  5  2 -1</clus>
</clustering>
</event>
<event>
 9    2  0.3791909E-005  0.2567418E+03  0.7546771E-02  0.1109935E+00
         -1   -1    0    0    0  501 -0.00000000000E+00  0.00000000000E+00  0.76728323863E+03  0.76728323863E+03  0.00000000000E+00 0.  1.
          2   -1    0    0  502    0  0.00000000000E+00 -0.00000000000E+00 -0.21698605483E+03  0.21698605483E+03  0.00000000000E+00 0. -1.
         24    2    1    2    0    0 -0.93714426479E+02  0.22462778898E+03  0.62967891902E+03  0.67997826601E+03  0.81454673791E+02 0.  0.
         23    2    1    2    0    0  0.63539092686E+02 -0.20121501257E+03 -0.18994099594E+02  0.23283911771E+03  0.96584581259E+02 0.  0.
        -13    1    3    3    0    0 -0.27212796023E+02  0.15065416612E+03  0.32039114470E+03  0.35508829837E+03  0.00000000000E+00 0.  1.
         14    1    3    3    0    0 -0.66501630456E+02  0.73973622854E+02  0.30928777432E+03  0.32488996765E+03  0.00000000000E+00 0. -1.
        -11    1    4    4    0    0  0.37088936140E+02 -0.23391587576E+02  0.21070750289E+02  0.48649070608E+02  0.00000000000E+00 0.  1.
         11    1    4    4    0    0  0.26450156547E+02 -0.17782342499E+03 -0.40064849883E+02  0.18419004711E+03  0.00000000000E+00 0. -1.
         21    1    1    2  502  501  0.30175333793E+02 -0.23412776409E+02 -0.60387635627E+02  0.71451909738E+02  0.00000000000E+00 0.  1.
<scales pt_clust_5="13000.00000" pt_clust_6="13000.00000" pt_clust_7="13000.00000" pt_clust_8="13000.00000" pt_clust_9="38.19305"></scales>
<clustering>
<clus scale="   38.193">  2  9  1 -1</clus>
<clus scale="   81.455">  5  6 -1 -1</clus>
<clus scale="   96.585">  7  8 -1 -1</clus>
<clus scale="  251.441">  1  5  2 -1</clus>
<clus scale="   38.193">  2  5  1 -1</clus>
</clustering>
</event>
<event>
 9    2  0.3791909E-005  0.1878563E+03  0.7546771E-02  0.1161543E+00
         -1   -1    0    0    0  501 -0.00000000000E+00  0.00000000000E+00  0.41730456091E+02  0.41730456091E+02  0.00000000000E+00 0.  1.
          2   -1    0    0  502    0  0.00000000000E+00 -0.00000000000E+00 -0.11273031287E+04  0.11273031287E+04  0.00000000000E+00 0. -1.
         23    2    1    2    0    0 -0.15472308571E+03  0.50535167892E+02 -0.28350622410E+03  0.33941521078E+03  0.91290031023E+02 0.  0.
         24    2    1    2    0    0  0.16590726627E+03 -0.29280215797E+02 -0.67922945061E+03  0.70445533259E+03  0.80759624798E+02 0.  0.
        -13    1    4    4    0    0  0.11078070688E+03 -0.33390091417E+01 -0.55657681928E+03  0.56750442268E+03  0.00000000000E+00 0.  1.
         14    1    4    4    0    0  0.55126559393E+02 -0.25941206655E+02 -0.12265263132E+03  0.13695090991E+03  0.00000000000E+00 0. -1.
        -11    1    3    3    0    0 -0.99303945233E+02  0.40824844070E+02 -0.25426951784E+03  0.27600892945E+03  0.00000000000E+00 0. -1.
         11    1    3    3    0    0 -0.55419140477E+02  0.97103238227E+01 -0.29236706254E+02  0.63406281334E+02  0.00000000000E+00 0.  1.
         21    1    1    2  502  501 -0.11184180563E+02 -0.21254952096E+02 -0.12283699789E+03  0.12516304141E+03  0.00000000000E+00 0.  1.
<scales pt_clust_5="13000.00000" pt_clust_6="13000.00000" pt_clust_7="13000.00000" pt_clust_8="13000.00000" pt_clust_9="24.01789"></scales>
<clustering>
<clus scale="   24.018">  2  9  1 -1</clus>
<clus scale="   80.760">  5  6 -1 -1</clus>
<clus scale="   91.290">  7  8 -1 -1</clus>
<clus scale="  182.971">  2  5  1 -1</clus>
<clus scale="   24.018">  2  5  1 -1</clus>
</clustering>
</event>
