<event>
10    4  0.2857708E-005  0.1567412E+03  0.7546771E-02  0.1194198E+00
          2   -1    0    0  502    0 -0.00000000000E+00  0.00000000000E+00  0.13371794790E+04  0.13371794790E+04  0.00000000000E+00 0. -1.
         21   -1    0    0  503  502  0.00000000000E+00 -0.00000000000E+00 -0.50264439878E+02  0.50264439878E+02  0.00000000000E+00 0. -1.
         23    2    1    2    0    0 -0.39597355325E+02  0.14482398717E+03  0.71251800570E+03  0.73374736100E+03  0.90340154545E+02 0.  0.
         24    2    1    2    0    0 -0.51507014620E+02 -0.74287193569E+02  0.83921043718E+02  0.14674753456E+03  0.79501809015E+02 0.  0.
        -11    1    4    4    0    0 -0.42318709118E+02 -0.30550604110E+02  0.87530438883E+02  0.10191069759E+03  0.00000000000E+00 0.  1.
         12    1    4    4    0    0 -0.91883055019E+01 -0.43736589459E+02 -0.36093951648E+01  0.44836836964E+02  0.00000000000E+00 0. -1.
        -13    1    3    3    0    0  0.22312839490E+02  0.12767001566E+02  0.62750402354E+02  0.67812035294E+02  0.00000000000E+00 0. -1.
         13    1    3    3    0    0 -0.61910194816E+02  0.13205698560E+03  0.64976760334E+03  0.66593532571E+03  0.00000000000E+00 0.  1.
         21    1    1    2  503  501  0.10664350981E+02 -0.22326818516E+02  0.41776825119E+02  0.48554282241E+02  0.00000000000E+00 0. -1.
          1    1    1    2  501    0  0.80440018964E+02 -0.48209975081E+02  0.44869916462E+03  0.45839474111E+03  0.00000000000E+00 0. -1.
<scales pt_clust_5="13000.00000" pt_clust_6="13000.00000" pt_clust_7="13000.00000" pt_clust_8="13000.00000" pt_clust_9="24.74298" pt_clust_10="95.92404"></scales>
<clustering>
<clus scale="   24.743">  2  9  1 -1</clus>
<clus scale="   79.502">  5  6 -1 -1</clus>
<clus scale="   90.340">  7  8 -1 -1</clus>
<clus scale="   95.924">  2 10  1 -1</clus>
<clus scale="  150.755">  2  5  1 -1</clus>
<clus scale="   24.743">  2  5  1 -1</clus>
</clustering>
</event>
<event>
10    4  0.2857708E-005  0.1654027E+03  0.7546771E-02  0.1207320E+00
         21   -1    0    0  501  502  0.00000000000E+00  0.00000000000E+00  0.12127710817E+03  0.12127710817E+03  0.00000000000E+00 0. -1.
          2   -1    0    0  503    0 -0.00000000000E+00 -0.00000000000E+00 -0.10427828229E+04  0.10427828229E+04  0.00000000000E+00 0. -1.
         24    2    1    2    0    0 -0.10841574224E+02  0.52776624885E+02 -0.22911340287E+03  0.24835419434E+03  0.79271322714E+02 0.  0.
         23    2    1    2    0    0 -0.61882404653E+02 -0.11114302965E+03 -0.11526092351E+03  0.19346511394E+03  0.89227040602E+02 0.  0.
        -13    1    3    3    0    0 -0.25522871603E+02  0.63310049324E+02 -0.21454842956E+03  0.22514574823E+03  0.00000000000E+00 0.  1.
         14    1    3    3    0    0  0.14681297379E+02 -0.10533424439E+02 -0.14564973310E+02  0.23208446107E+02  0.00000000000E+00 0. -1.
        -13    1    4    4    0    0  0.27059078367E+01 -0.33795773939E+02 -0.79690836811E+02  0.86603150896E+02  0.00000000000E+00 0. -1.
         13    1    4    4    0    0 -0.64588312490E+02 -0.77347255713E+02 -0.35570086704E+02  0.10686196304E+03  0.00000000000E+00 0.  1.
         21    1    1    2  503  502  0.11395228738E+03  0.62718540281E+02 -0.63659731402E+03  0.64974985903E+03  0.00000000000E+00 0. -1.
          1    1    1    2  501    0 -0.41228308505E+02 -0.43521355137E+01  0.59465925705E+02  0.72490763727E+02  0.00000000000E+00 0. -1.
<scales pt_clust_5="13000.00000" pt_clust_6="13000.00000" pt_clust_7="13000.00000" pt_clust_8="13000.00000" pt_clust_9="139.27166" pt_clust_10="41.45738"></scales>
<clustering>
<clus scale="   41.457">  1 10  2 -1</clus>
<clus scale="   79.271">  5  6 -1 -1</clus>
<clus scale="   89.227">  7  8 -1 -1</clus>
<clus scale="   96.512">  2  5  1 -1</clus>
<clus scale="  139.272">  2  9  1 -1</clus>
<clus scale="   41.457">  1  5  2 -1</clus>
</clustering>
</event>
<event>
10    4  0.2857708E-005  0.1427124E+03  0.7546771E-02  0.1211491E+00
          2   -1    0    0  503    0 -0.00000000000E+00  0.00000000000E+00  0.64990818774E+03  0.64990818774E+03  0.00000000000E+00 0. -1.
         21   -1    0    0  501  502  0.00000000000E+00 -0.00000000000E+00 -0.10013060155E+03  0.10013060155E+03  0.00000000000E+00 0.  1.
         23    2    1    2    0    0 -0.84641570495E+02 -0.72601009749E+02  0.51658789609E+03  0.53619292382E+03  0.90579771981E+02 0.  0.
         24    2    1    2    0    0  0.10557923596E+03  0.32453406112E+02  0.13780890494E+02  0.13826355501E+03  0.82016456072E+02 0.  0.
        -13    1    4    4    0    0  0.94240722181E+02  0.51237315910E+02 -0.77173303587E+01  0.10754595970E+03  0.00000000000E+00 0.  1.
         14    1    4    4    0    0  0.11338513782E+02 -0.18783909798E+02  0.21498220853E+02  0.30717595315E+02  0.00000000000E+00 0. -1.
        -13    1    3    3    0    0 -0.85068660940E+02 -0.34954421472E+02  0.45344402300E+03  0.46267696144E+03  0.00000000000E+00 0. -1.
         13    1    3    3    0    0  0.42709044516E+00 -0.37646588277E+02  0.63143873092E+02  0.73515962377E+02  0.00000000000E+00 0.  1.
         21    1    1    2  503  502 -0.30324360330E+02  0.13353034731E+02  0.30564218117E+02  0.45078174265E+02  0.00000000000E+00 0. -1.
          1    1    1    2  501    0  0.93866948617E+01  0.26794568906E+02 -0.11155418505E+02  0.30504136200E+02  0.00000000000E+00 0. -1.
<scales pt_clust_5="13000.00000" pt_clust_6="13000.00000" pt_clust_7="13000.00000" pt_clust_8="13000.00000" pt_clust_9="33.43662" pt_clust_10="28.39118"></scales>
<clustering>
<clus scale="   28.391">  2 10  1 -1</clus>
<clus scale="   33.437">  2  9  1 -1</clus>
<clus scale="   82.016">  5  6 -1 -1</clus>
<clus scale="   90.580">  7  8 -1 -1</clus>
<clus scale="  137.437">  2  5  1 -1</clus>
<clus scale="   28.391">  2  5  1 -1</clus>
</clustering>
</event>
<event>
10    4  0.2857708E-005  0.1888316E+03  0.7546771E-02  0.1183623E+00
         21   -1    0    0  501  502  0.00000000000E+00  0.00000000000E+00  0.39628010737E+03  0.39628010737E+03  0.00000000000E+00 0. -1.
          4   -1    0    0  503    0 -0.00000000000E+00 -0.00000000000E+00 -0.23841522184E+03  0.23841522184E+03  0.00000000000E+00 0. -1.
         24    2    1    2    0    0 -0.12915122094E+02  0.73185452212E+02 -0.34433185510E+02  0.11427005818E+03  0.79681184339E+02 0.  0.
         23    2    1    2    0    0 -0.18436155158E+03 -0.71316952939E+02  0.15880023755E+03  0.26919240892E+03  0.90397721750E+02 0.  0.
        -13    1    3    3    0    0 -0.20687814926E+02  0.24258007431E+02 -0.52596240587E+02  0.61504480608E+02  0.00000000000E+00 0.  1.
         14    1    3    3    0    0  0.77726928316E+01  0.48927444781E+02  0.18163055077E+02  0.52765577571E+02  0.00000000000E+00 0. -1.
        -13    1    4    4    0    0 -0.37356455239E+02 -0.71552838203E+01 -0.68106528993E+01  0.38640494659E+02  0.00000000000E+00 0.  1.
         13    1    4    4    0    0 -0.14700509634E+03 -0.64161669119E+02  0.16561089045E+03  0.23055191426E+03  0.00000000000E+00 0. -1.
         21    1    1    2  503  502  0.83824707415E+02 -0.75782613120E+02  0.66996115898E+01  0.11320101952E+03  0.00000000000E+00 0. -1.
          3    1    1    2  501    0  0.11345196626E+03  0.73914113847E+02  0.26798221889E+02  0.13803184259E+03  0.00000000000E+00 0. -1.
<scales pt_clust_5="13000.00000" pt_clust_6="13000.00000" pt_clust_7="13000.00000" pt_clust_8="13000.00000" pt_clust_9="95.12283" pt_clust_10="165.78799"></scales>
<clustering>
<clus scale="   79.681">  5  6 -1 -1</clus>
<clus scale="   90.398">  7  8 -1 -1</clus>
<clus scale="  108.959">  2  5  1 -1</clus>
<clus scale="   95.123">  2  9  1 -1</clus>
<clus scale="  165.788">  1 10  2 -1</clus>
<clus scale="  165.788">  1  5  2 -1</clus>
</clustering>
</event>
<event>
10    4  0.2857708E-005  0.9931855E+02  0.7546771E-02  0.1285180E+00
          2   -1    0    0  503    0 -0.00000000000E+00  0.00000000000E+00  0.53532251531E+03  0.53532251531E+03  0.00000000000E+00 0. -1.
         21   -1    0    0  501  502  0.00000000000E+00 -0.00000000000E+00 -0.70288389925E+02  0.70288389925E+02  0.00000000000E+00 0. -1.
         23    2    1    2    0    0  0.34004965310E+02 -0.79345339555E+01  0.13623877909E+03  0.16710825157E+03  0.90248924191E+02 0.  0.
         24    2    1    2    0    0  0.24529265964E+02  0.81898282905E+02  0.17360365875E+03  0.20924424221E+03  0.79598422935E+02 0.  0.
        -11    1    4    4    0    0 -0.17594022408E+02  0.69464910830E+02  0.12192487017E+03  0.14142346845E+03  0.00000000000E+00 0.  1.
         12    1    4    4    0    0  0.42123288372E+02  0.12433372075E+02  0.51678788575E+02  0.67820773757E+02  0.00000000000E+00 0. -1.
        -13    1    3    3    0    0  0.18222315758E+02 -0.25361948940E+02  0.25120900903E+01  0.31330366136E+02  0.00000000000E+00 0.  1.
         13    1    3    3    0    0  0.15782649552E+02  0.17427414985E+02  0.13372668900E+03  0.13577788543E+03  0.00000000000E+00 0. -1.
         21    1    1    2  503  502 -0.28033831164E+02  0.14571047142E+02  0.12786613279E+03  0.13171165104E+03  0.00000000000E+00 0. -1.
          1    1    1    2  501    0 -0.30500400109E+02 -0.88534796091E+02  0.27325554743E+02  0.97546760416E+02  0.00000000000E+00 0. -1.
<scales pt_clust_5="13000.00000" pt_clust_6="13000.00000" pt_clust_7="13000.00000" pt_clust_8="13000.00000" pt_clust_9="31.59448" pt_clust_10="93.05052"></scales>
<clustering>
<clus scale="   31.594">  1  9  2 -1</clus>
<clus scale="   79.598">  5  6 -1 -1</clus>
<clus scale="   90.249">  7  8 -1 -1</clus>
<clus scale="   93.051">  2 10  1 -1</clus>
<clus scale="   93.051">  2  5  1 -1</clus>
<clus scale="   93.051">  2  5  1 -1</clus>
</clustering>
</event>
<event>
10    4  0.2857708E-005  0.1181000E+03  0.7546771E-02  0.1249407E+00
          4   -1    0    0  503    0 -0.00000000000E+00  0.00000000000E+00  0.48569847485E+03  0.48569847485E+03  0.00000000000E+00 0. -1.
         21   -1    0    0  501  502  0.00000000000E+00 -0.00000000000E+00 -0.45102139901E+03  0.45102139901E+03  0.00000000000E+00 0.  1.
         24    2    1    2    0    0 -0.55282826325E+02  0.44803516472E+01 -0.52036041790E+02  0.11139695720E+03  0.81395749218E+02 0.  0.
         23    2    1    2    0    0  0.58380598621E+02 -0.66840440024E+00 -0.31306118365E+03  0.33119826783E+03  0.90973880011E+02 0.  0.
        -11    1    3    3    0    0 -0.25376483635E+02 -0.21193770089E+02 -0.62421140969E+02  0.70636680642E+02  0.00000000000E+00 0.  1.
         12    1    3    3    0    0 -0.29906342690E+02  0.25674121736E+02  0.10385099180E+02  0.40760276557E+02  0.00000000000E+00 0. -1.
        -11    1    4    4    0    0  0.97920823372E+01  0.34399342685E+02 -0.20065824986E+03  0.20382083527E+03  0.00000000000E+00 0.  1.
         11    1    4    4    0    0  0.48588516284E+02 -0.35067747085E+02 -0.11240293379E+03  0.12737743256E+03  0.00000000000E+00 0. -1.
         21    1    1    2  503  502 -0.60866024457E+02  0.10876279706E+02  0.42494645906E+03  0.42942107477E+03  0.00000000000E+00 0. -1.
          3    1    1    2  501    0  0.57768252160E+02 -0.14688226953E+02 -0.25172157774E+02  0.64703574056E+02  0.00000000000E+00 0. -1.
<scales pt_clust_5="13000.00000" pt_clust_6="13000.00000" pt_clust_7="13000.00000" pt_clust_8="13000.00000" pt_clust_9="61.50260" pt_clust_10="59.60633"></scales>
<clustering>
<clus scale="   59.606">  2 10  1 -1</clus>
<clus scale="   61.503">  1  9  2 -1</clus>
<clus scale="   81.396">  5  6 -1 -1</clus>
<clus scale="   90.974">  7  8 -1 -1</clus>
<clus scale="  110.890">  1  5  2 -1</clus>
<clus scale="   59.606">  2  5  1 -1</clus>
</clustering>
</event>
<event>
10    4  0.2857708E-005  0.1298427E+03  0.7546771E-02  0.1232084E+00
         -1   -1    0    0    0  501 -0.00000000000E+00  0.00000000000E+00  0.64910131347E+03  0.64910131347E+03  0.00000000000E+00 0.  1.
         21   -1    0    0  503  502  0.00000000000E+00 -0.00000000000E+00 -0.12045902194E+03  0.12045902194E+03  0.00000000000E+00 0. -1.
         23    2    1    2    0    0  0.42331279749E+02  0.46857038055E+02  0.24033800227E+03  0.26570546958E+03  0.94071897881E+02 0.  0.
         24    2    1    2    0    0 -0.84875842129E+02 -0.15655270378E+03  0.15399167836E+02  0.19493706256E+03  0.77786029282E+02 0.  0.
        -13    1    4    4    0    0 -0.23455844652E+02 -0.49077128716E+01  0.20071709265E+02  0.31259171563E+02  0.00000000000E+00 0.  1.
         14    1    4    4    0    0 -0.61419997477E+02 -0.15164499091E+03 -0.46725414290E+01  0.16367789100E+03  0.00000000000E+00 0. -1.
        -11    1    3    3    0    0  0.16691818166E+02 -0.20201345697E+02  0.13938897251E+03  0.14183087400E+03  0.00000000000E+00 0.  1.
         11    1    3    3    0    0  0.25639461583E+02  0.67058383751E+02  0.10094902975E+03  0.12387459558E+03  0.00000000000E+00 0. -1.
         21    1    1    2  503  501 -0.21099667876E+02  0.39055956039E+02  0.12912491629E+03  0.13654232931E+03  0.00000000000E+00 0. -1.
         -2    1    1    2    0  502  0.63644230257E+02  0.70639709690E+02  0.14378020514E+03  0.17237547395E+03  0.00000000000E+00 0.  1.
<scales pt_clust_5="13000.00000" pt_clust_6="13000.00000" pt_clust_7="13000.00000" pt_clust_8="13000.00000" pt_clust_9="44.39103" pt_clust_10="100.46131"></scales>
<clustering>
<clus scale="   44.391">  1  9  2 -1</clus>
<clus scale="   77.786">  5  6 -1 -1</clus>
<clus scale="   94.072">  7  8 -1 -1</clus>
<clus scale="  100.461">  2 10  1 -1</clus>
<clus scale="  118.576">  2  5  1 -1</clus>
<clus scale="  100.461">  2  5  1 -1</clus>
</clustering>
</event>
<event>
10    4  0.2857708E-005  0.1711923E+03  0.7546771E-02  0.1190881E+00
         21   -1    0    0  503  502  0.00000000000E+00  0.00000000000E+00  0.51553196626E+02  0.51553196626E+02  0.00000000000E+00 0. -1.
          2   -1    0    0  502    0 -0.00000000000E+00 -0.00000000000E+00 -0.13271760349E+04  0.13271760349E+04  0.00000000000E+00 0. -1.
         24    2    1    2    0    0 -0.61835737093E+02  0.60831315107E+02 -0.29369893885E+03  0.31711793276E+03  0.82344455310E+02 0.  0.
         23    2    1    2    0    0  0.13620765470E+03  0.91580806497E+02 -0.33638992666E+03  0.38482144205E+03  0.89385626263E+02 0.  0.
        -11    1    3    3    0    0 -0.33768308727E+02 -0.45912684926E+01 -0.35193836591E+02  0.48989637217E+02  0.00000000000E+00 0.  1.
         12    1    3    3    0    0 -0.28067428366E+02  0.65422583599E+02 -0.25850510226E+03  0.26812829555E+03  0.00000000000E+00 0. -1.
        -13    1    4    4    0    0  0.50721561359E+02 -0.12453798150E+02 -0.91893520804E+02  0.10569859526E+03  0.00000000000E+00 0.  1.
         13    1    4    4    0    0  0.85486093339E+02  0.10403460465E+03 -0.24449640586E+03  0.27912284678E+03  0.00000000000E+00 0. -1.
         21    1    1    2  503  501 -0.35509173026E+02 -0.24109191765E+00 -0.53009985433E+02  0.63804530011E+02  0.00000000000E+00 0.  1.
          1    1    1    2  501    0 -0.38862744579E+02 -0.15217102969E+03 -0.59252398731E+03  0.61298532668E+03  0.00000000000E+00 0. -1.
<scales pt_clust_5="13000.00000" pt_clust_6="13000.00000" pt_clust_7="13000.00000" pt_clust_8="13000.00000" pt_clust_9="35.50999" pt_clust_10="146.00360"></scales>
<clustering>
<clus scale="   35.510">  1  9  2 -1</clus>
<clus scale="   82.344">  5  6 -1 -1</clus>
<clus scale="   89.386">  7  8 -1 -1</clus>
<clus scale="  124.469">  2  5  1 -1</clus>
<clus scale="  146.004">  1 10  2 -1</clus>
<clus scale="   35.510">  1  5  2 -1</clus>
</clustering>
</event>
<event>
10    4  0.2857708E-005  0.2128703E+03  0.7546771E-02  0.1166920E+00
          2   -1    0    0  503    0 -0.00000000000E+00  0.00000000000E+00  0.11466486593E+04  0.11466486593E+04  0.00000000000E+00 0. -1.
         21   -1    0    0  501  502  0.00000000000E+00 -0.00000000000E+00 -0.20896915914E+03  0.20896915914E+03  0.00000000000E+00 0. -1.
         24    2    1    2    0    0  0.70565761143E+02 -0.28952987763E+02  0.41543284580E+03  0.43002169885E+03  0.80724283610E+02 0.  0.
         23    2    1    2    0    0  0.21817883437E+02 -0.92243174670E+02 -0.58953388556E+02  0.14484503706E+03  0.92302542912E+02 0.  0.
        -11    1    3    3    0    0 -0.10962366064E+01  0.20358966678E+02  0.43345527645E+02  0.47901190233E+02  0.00000000000E+00 0.  1.
         12    1    3    3    0    0  0.71661997749E+02 -0.49311954442E+02  0.37208731816E+03  0.38212050862E+03  0.00000000000E+00 0. -1.
        -13    1    4    4    0    0 -0.70630860299E+00 -0.99258455119E+02 -0.23078900395E+02  0.10190866218E+03  0.00000000000E+00 0.  1.
         13    1    4    4    0    0  0.22524192040E+02  0.70152804495E+01 -0.35874488161E+02  0.42936374878E+02  0.00000000000E+00 0. -1.
         21    1    1    2  503  502 -0.76881818059E+02 -0.12063581956E+03  0.50777855427E+03  0.52754419254E+03  0.00000000000E+00 0.  1.
          1    1    1    2  501    0 -0.15501826521E+02  0.24183198199E+03  0.73421488629E+02  0.25320688997E+03  0.00000000000E+00 0. -1.
<scales pt_clust_5="13000.00000" pt_clust_6="13000.00000" pt_clust_7="13000.00000" pt_clust_8="13000.00000" pt_clust_9="212.87027" pt_clust_10="13000.00000"></scales>
<clustering>
<clus scale="   80.724">  5  6 -1 -1</clus>
<clus scale="   92.303">  7  8 -1 -1</clus>
<clus scale="  111.059">  1  5  2 -1</clus>
<clus scale="  134.256">  1  7  2 -1</clus>
<clus scale="  212.870">  1  9  2 -1</clus>
<clus scale="  212.870">  2  5  1 -1</clus>
</clustering>
</event>
<event>
10    4  0.2857708E-005  0.9533671E+02  0.7546771E-02  0.1295931E+00
          2   -1    0    0  503    0 -0.00000000000E+00  0.00000000000E+00  0.53136844573E+03  0.53136844573E+03  0.00000000000E+00 0. -1.
         21   -1    0    0  501  502  0.00000000000E+00 -0.00000000000E+00 -0.12655047822E+03  0.12655047822E+03  0.00000000000E+00 0.  1.
         23    2    1    2    0    0  0.42345406118E+02 -0.60162466996E+02  0.39288765564E+03  0.41016241410E+03  0.91977389232E+02 0.  0.
         24    2    1    2    0    0 -0.83825200291E+01 -0.27562080041E+00 -0.65051778069E+02  0.10523355951E+03  0.82292318039E+02 0.  0.
        -13    1    4    4    0    0 -0.37997931886E+01  0.33735789160E+02 -0.62117853363E+02  0.70789615093E+02  0.00000000000E+00 0.  1.
         14    1    4    4    0    0 -0.45827268405E+01 -0.34011409960E+02 -0.29339247053E+01  0.34443944416E+02  0.00000000000E+00 0. -1.
        -11    1    3    3    0    0  0.27889785644E+01  0.22707461168E+02  0.12220673890E+03  0.12432978013E+03  0.00000000000E+00 0.  1.
         11    1    3    3    0    0  0.39556427554E+02 -0.82869928164E+02  0.27068091674E+03  0.28583263397E+03  0.00000000000E+00 0. -1.
         21    1    1    2  503  502 -0.14801362029E+02  0.69734160429E+02  0.92055608705E+02  0.11643096041E+03  0.00000000000E+00 0. -1.
          1    1    1    2  501    0 -0.19161524060E+02 -0.92960726329E+01 -0.15073518761E+02  0.26091989930E+02  0.00000000000E+00 0. -1.
<scales pt_clust_5="13000.00000" pt_clust_6="13000.00000" pt_clust_7="13000.00000" pt_clust_8="13000.00000" pt_clust_9="70.73936" pt_clust_10="21.29744"></scales>
<clustering>
<clus scale="   21.297">  2 10  1 -1</clus>
<clus scale="   70.739">  1  9  2 -1</clus>
<clus scale="   82.292">  5  6 -1 -1</clus>
<clus scale="   86.031">  2  5  1 -1</clus>
<clus scale="   91.977">  7  8 -1 -1</clus>
<clus scale="   21.297">  2  5  1 -1</clus>
</clustering>
</event>
<event>
10    4  0.2857708E-005  0.9752965E+02  0.7546771E-02  0.1287930E+00
         21   -1    0    0  501  502  0.00000000000E+00  0.00000000000E+00  0.45690055579E+02  0.45690055579E+02  0.00000000000E+00 0. -1.
          2   -1    0    0  503    0 -0.00000000000E+00 -0.00000000000E+00 -0.63453187545E+03  0.63453187545E+03  0.00000000000E+00 0. -1.
         24    2    1    2    0    0  0.31804217675E+02 -0.33361040371E+02 -0.15588095653E+03  0.18134224261E+03  0.80384507639E+02 0.  0.
         23    2    1    2    0    0 -0.58618702995E+02 -0.81231157090E+01 -0.13819930709E+03  0.17282614260E+03  0.85250746255E+02 0.  0.
        -11    1    3    3    0    0 -0.26759477656E+02 -0.10452569460E+02 -0.62176562409E+02  0.68492705931E+02  0.00000000000E+00 0.  1.
         12    1    3    3    0    0  0.58563695331E+02 -0.22908470911E+02 -0.93704394121E+02  0.11284953668E+03  0.00000000000E+00 0. -1.
        -11    1    4    4    0    0 -0.27948118332E+02  0.24390056635E+01  0.27532563172E+01  0.28189120016E+02  0.00000000000E+00 0. -1.
         11    1    4    4    0    0 -0.30670584663E+02 -0.10562121373E+02 -0.14095256341E+03  0.14463702259E+03  0.00000000000E+00 0.  1.
         21    1    1    2  503  502  0.14363466620E+02 -0.47158807412E+02 -0.90948710342E+02  0.10345013389E+03  0.00000000000E+00 0. -1.
          1    1    1    2  501    0  0.12451018700E+02  0.88642963492E+02 -0.20381284591E+03  0.22260341192E+03  0.00000000000E+00 0. -1.
<scales pt_clust_5="13000.00000" pt_clust_6="13000.00000" pt_clust_7="13000.00000" pt_clust_8="13000.00000" pt_clust_9="49.29769" pt_clust_10="72.24790"></scales>
<clustering>
<clus scale="   49.298">  2  9  1 -1</clus>
<clus scale="   72.248">  1 10  2 -1</clus>
<clus scale="   80.385">  5  6 -1 -1</clus>
<clus scale="   85.251">  7  8 -1 -1</clus>
<clus scale="   93.306">  2  5  1 -1</clus>
<clus scale="   72.248">  1  5  2 -1</clus>
</clustering>
</event>
<event>
10    4  0.2857708E-005  0.1261706E+03  0.7546771E-02  0.1235963E+00
          2   -1    0    0  503    0 -0.00000000000E+00  0.00000000000E+00  0.41795002149E+03  0.41795002149E+03  0.00000000000E+00 0. -1.
         21   -1    0    0  501  502  0.00000000000E+00 -0.00000000000E+00 -0.12222233516E+03  0.12222233516E+03  0.00000000000E+00 0. -1.
         24    2    1    2    0    0 -0.45155881925E+02  0.53811041220E+02  0.15328388214E+03  0.18501610630E+03  0.76159892571E+02 0.  0.
         23    2    1    2    0    0  0.22192377039E+02 -0.12011424733E+03  0.15600403396E+03  0.21617594589E+03  0.86457197263E+02 0.  0.
        -11    1    3    3    0    0  0.14111683881E+02  0.15742323693E+02  0.63573240432E+01  0.22076592722E+02  0.00000000000E+00 0.  1.
         12    1    3    3    0    0 -0.59267565805E+02  0.38068717527E+02  0.14692655809E+03  0.16293951358E+03  0.00000000000E+00 0. -1.
        -11    1    4    4    0    0 -0.18975642159E+02 -0.18549457349E+02  0.75971515000E+02  0.80472532299E+02  0.00000000000E+00 0.  1.
         11    1    4    4    0    0  0.41168019198E+02 -0.10156478998E+03  0.80032518961E+02  0.13570341359E+03  0.00000000000E+00 0. -1.
         21    1    1    2  503  502 -0.13585785065E+02  0.39899449277E+02  0.47224293878E+02  0.63298290188E+02  0.00000000000E+00 0.  1.
          1    1    1    2  501    0  0.36549289951E+02  0.26403756834E+02 -0.60784523645E+02  0.75682014281E+02  0.00000000000E+00 0. -1.
<scales pt_clust_5="13000.00000" pt_clust_6="13000.00000" pt_clust_7="13000.00000" pt_clust_8="13000.00000" pt_clust_9="42.14902" pt_clust_10="45.35014"></scales>
<clustering>
<clus scale="   42.149">  1  9  2 -1</clus>
<clus scale="   45.350">  2 10  1 -1</clus>
<clus scale="   76.160">  5  6 -1 -1</clus>
<clus scale="   86.457">  7  8 -1 -1</clus>
<clus scale="  119.350">  1  5  2 -1</clus>
<clus scale="   45.350">  2  5  1 -1</clus>
</clustering>
</event>
<event>
10    4  0.2857708E-005  0.1976524E+03  0.7546771E-02  0.1179295E+00
          4   -1    0    0  502    0 -0.00000000000E+00  0.00000000000E+00  0.30457769719E+03  0.30457769719E+03  0.00000000000E+00 0. -1.
         21   -1    0    0  503  502  0.00000000000E+00 -0.00000000000E+00 -0.29572915138E+03  0.29572915138E+03  0.00000000000E+00 0. -1.
         24    2    1    2    0    0 -0.12634876166E+02  0.67130677789E+02 -0.13625318632E+02  0.10557709042E+03  0.79339175170E+02 0.  0.
         23    2    1    2    0    0  0.13346025025E+03 -0.12930146945E+03 -0.16052604196E+03  0.26216235421E+03  0.91814930278E+02 0.  0.
        -11    1    3    3    0    0 -0.27190256485E+01  0.80565204598E+02 -0.26103387337E+02  0.84732119783E+02  0.00000000000E+00 0.  1.
         12    1    3    3    0    0 -0.99158505175E+01 -0.13434526809E+02  0.12478068706E+02  0.20844970633E+02  0.00000000000E+00 0. -1.
        -11    1    4    4    0    0  0.11506282968E+03 -0.76591317521E+02 -0.15239910194E+03  0.20574540327E+03  0.00000000000E+00 0. -1.
         11    1    4    4    0    0  0.18397420568E+02 -0.52710151928E+02 -0.81269400169E+01  0.56416950945E+02  0.00000000000E+00 0.  1.
         21    1    1    2  503  501 -0.67958420330E+02  0.11981627919E+02  0.71635582705E+02  0.99466391363E+02  0.00000000000E+00 0.  1.
          3    1    1    2  501    0 -0.52866953752E+02  0.50189163741E+02  0.11136432370E+03  0.13310101258E+03  0.00000000000E+00 0. -1.
<scales pt_clust_5="13000.00000" pt_clust_6="13000.00000" pt_clust_7="13000.00000" pt_clust_8="13000.00000" pt_clust_9="44.95274" pt_clust_10="181.02812"></scales>
<clustering>
<clus scale="   44.953">  9 10 -1 -1</clus>
<clus scale="   79.339">  5  6 -1 -1</clus>
<clus scale="   91.815">  7  8 -1 -1</clus>
<clus scale="  104.694">  1  5  2 -1</clus>
<clus scale="  181.028">  2  9  1 -1</clus>
<clus scale="  181.028">  2  5  1 -1</clus>
</clustering>
</event>
<event>
10    4  0.2857708E-005  0.1155508E+03  0.7546771E-02  0.1255042E+00
          2   -1    0    0  503    0 -0.00000000000E+00  0.00000000000E+00  0.21125516660E+03  0.21125516660E+03  0.00000000000E+00 0. -1.
         21   -1    0    0  501  502  0.00000000000E+00 -0.00000000000E+00 -0.43328354413E+03  0.43328354413E+03  0.00000000000E+00 0. -1.
         23    2    1    2    0    0 -0.32904863393E+02 -0.56655889913E+02 -0.35519485983E+02  0.11829755170E+03  0.91869782612E+02 0.  0.
         24    2    1    2    0    0  0.95177938785E+02 -0.27731152970E+02 -0.20617552078E+03  0.24212384545E+03  0.79295361084E+02 0.  0.
        -13    1    4    4    0    0  0.47300121015E+02  0.90654494104E+01 -0.32114813258E+02  0.57886484188E+02  0.00000000000E+00 0.  1.
         14    1    4    4    0    0  0.47877817770E+02 -0.36796602381E+02 -0.17406070752E+03  0.18423736126E+03  0.00000000000E+00 0. -1.
        -13    1    3    3    0    0 -0.42917174821E+01 -0.61151626794E+02 -0.55835330825E+02  0.82918782352E+02  0.00000000000E+00 0.  1.
         13    1    3    3    0    0 -0.28613145911E+02  0.44957368803E+01  0.20315844842E+02  0.35378769349E+02  0.00000000000E+00 0. -1.
         21    1    1    2  503  502 -0.41537512405E+02  0.23678703373E+02  0.13989738173E+03  0.14784222450E+03  0.00000000000E+00 0.  1.
          1    1    1    2  501    0 -0.20735562987E+02  0.60708339511E+02 -0.12023075249E+03  0.13627508908E+03  0.00000000000E+00 0. -1.
<scales pt_clust_5="13000.00000" pt_clust_6="13000.00000" pt_clust_7="13000.00000" pt_clust_8="13000.00000" pt_clust_9="47.81261" pt_clust_10="68.52157"></scales>
<clustering>
<clus scale="   47.813">  1  9  2 -1</clus>
<clus scale="   68.522">  2 10  1 -1</clus>
<clus scale="   79.295">  5  6 -1 -1</clus>
<clus scale="   91.870">  7  8 -1 -1</clus>
<clus scale="  105.829">  2  5  1 -1</clus>
<clus scale="   68.522">  2  5  1 -1</clus>
</clustering>
</event>
<event>
10    4  0.2857708E-005  0.1476469E+03  0.7546771E-02  0.1205620E+00
          2   -1    0    0  503    0 -0.00000000000E+00  0.00000000000E+00  0.68699886315E+03  0.68699886315E+03  0.00000000000E+00 0. -1.
         21   -1    0    0  501  502  0.00000000000E+00 -0.00000000000E+00 -0.22814900110E+03  0.22814900110E+03  0.00000000000E+00 0.  1.
         23    2    1    2    0    0  0.79215986098E+02  0.59352150926E+02  0.90543032322E+01  0.13472376332E+03  0.90943178546E+02 0.  0.
         24    2    1    2    0    0 -0.15783559414E+03 -0.39896629004E+02 -0.10294975241E+03  0.20827600662E+03  0.79223908192E+02 0.  0.
        -11    1    4    4    0    0 -0.67803893746E+02 -0.11079565337E+02 -0.89444670068E+02  0.11278507782E+03  0.00000000000E+00 0.  1.
         12    1    4    4    0    0 -0.90031700397E+02 -0.28817063667E+02 -0.13505082342E+02  0.95490928803E+02  0.00000000000E+00 0. -1.
        -13    1    3    3    0    0  0.48551027375E+02  0.45636094240E+02  0.48868150114E+02  0.82631419280E+02  0.00000000000E+00 0.  1.
         13    1    3    3    0    0  0.30664958723E+02  0.13716056686E+02 -0.39813846882E+02  0.52092344044E+02  0.00000000000E+00 0. -1.
         21    1    1    2  503  502 -0.37435039740E+01  0.34219622418E+02  0.55738429818E+02  0.65511593928E+02  0.00000000000E+00 0.  1.
          1    1    1    2  501    0  0.82363112018E+02 -0.53675144340E+02  0.49700688142E+03  0.50663650038E+03  0.00000000000E+00 0. -1.
<scales pt_clust_5="13000.00000" pt_clust_6="13000.00000" pt_clust_7="13000.00000" pt_clust_8="13000.00000" pt_clust_9="34.42378" pt_clust_10="83.59567"></scales>
<clustering>
<clus scale="   34.424">  1  9  2 -1</clus>
<clus scale="   79.224">  5  6 -1 -1</clus>
<clus scale="   83.596">  2 10  1 -1</clus>
<clus scale="   90.943">  7  8 -1 -1</clus>
<clus scale="  140.732">  2  5  1 -1</clus>
<clus scale="   83.596">  2  5  1 -1</clus>
</clustering>
</event>
<event>
10    4  0.2857708E-005  0.3692986E+03  0.7546771E-02  0.1054961E+00
         21   -1    0    0  501  502  0.00000000000E+00  0.00000000000E+00  0.45135032547E+03  0.45135032547E+03  0.00000000000E+00 0.  1.
          2   -1    0    0  503    0 -0.00000000000E+00 -0.00000000000E+00 -0.33340892409E+03  0.33340892409E+03  0.00000000000E+00 0. -1.
         24    2    1    2    0    0  0.58955978877E+02  0.26404885609E+03  0.14177633838E+03  0.31571022615E+03  0.79842413068E+02 0.  0.
         23    2    1    2    0    0 -0.32468278163E+01  0.18036078357E+02  0.19232868377E+02  0.93827640197E+02  0.89988226039E+02 0.  0.
        -13    1    3    3    0    0  0.48964933792E+02  0.24315544624E+03  0.15144227529E+03  0.29061469082E+03  0.00000000000E+00 0.  1.
         14    1    3    3    0    0  0.99910450849E+01  0.20893409850E+02 -0.96659369099E+01  0.25095535328E+02  0.00000000000E+00 0. -1.
        -11    1    4    4    0    0  0.17920297487E+02  0.25275038863E+02 -0.27875477644E+02  0.41677414812E+02  0.00000000000E+00 0.  1.
         11    1    4    4    0    0 -0.21167125303E+02 -0.72389605065E+01  0.47108346021E+02  0.52150225385E+02  0.00000000000E+00 0. -1.
         21    1    1    2  503  502 -0.22049715513E+02 -0.14448870742E+02 -0.96672385800E+02  0.10020234526E+03  0.00000000000E+00 0.  1.
          1    1    1    2  501    0 -0.33659435548E+02 -0.26763606370E+03  0.53604580422E+02  0.27501903795E+03  0.00000000000E+00 0. -1.
<scales pt_clust_5="13000.00000" pt_clust_6="13000.00000" pt_clust_7="13000.00000" pt_clust_8="13000.00000" pt_clust_9="26.36209" pt_clust_10="277.95620"></scales>
<clustering>
<clus scale="   26.362">  2  9  1 -1</clus>
<clus scale="   79.842">  5  6 -1 -1</clus>
<clus scale="   89.988">  7  8 -1 -1</clus>
<clus scale="   91.476">  5  7 -1 -1</clus>
<clus scale="  277.956">  1 10  2 -1</clus>
<clus scale="  277.956">  1  5  2 -1</clus>
</clustering>
</event>
<event>
10    4  0.2857708E-005  0.2008420E+03  0.7546771E-02  0.1149888E+00
          2   -1    0    0  503    0 -0.00000000000E+00  0.00000000000E+00  0.44549875212E+03  0.44549875212E+03  0.00000000000E+00 0. -1.
         21   -1    0    0  501  502  0.00000000000E+00 -0.00000000000E+00 -0.24266282139E+03  0.24266282139E+03  0.00000000000E+00 0. -1.
         24    2    1    2    0    0 -0.16409571864E+03  0.19942021010E+02  0.26100201051E+03  0.31956561121E+03  0.81700925946E+02 0.  0.
         23    2    1    2    0    0  0.14707362295E+03  0.55365210069E+02 -0.13731364871E+03  0.22767063246E+03  0.91010558214E+02 0.  0.
        -11    1    3    3    0    0 -0.75712386789E+02  0.49523413582E+02  0.14266344378E+03  0.16893132391E+03  0.00000000000E+00 0.  1.
         12    1    3    3    0    0 -0.88383331847E+02 -0.29581392572E+02  0.11833856672E+03  0.15063428729E+03  0.00000000000E+00 0. -1.
        -11    1    4    4    0    0  0.42764301312E+02  0.18241593392E+02  0.56637438208E+01  0.46836088546E+02  0.00000000000E+00 0.  1.
         11    1    4    4    0    0  0.10430932164E+03  0.37123616677E+02 -0.14297739253E+03  0.18083454391E+03  0.00000000000E+00 0. -1.
         21    1    1    2  503  502 -0.32320187128E+02 -0.11483290836E+02  0.34818446921E+02  0.48875195246E+02  0.00000000000E+00 0. -1.
          1    1    1    2  501    0  0.49342282810E+02 -0.63823940243E+02  0.44329122017E+02  0.92050134600E+02  0.00000000000E+00 0. -1.
<scales pt_clust_5="13000.00000" pt_clust_6="13000.00000" pt_clust_7="13000.00000" pt_clust_8="13000.00000" pt_clust_9="34.29957" pt_clust_10="79.06043"></scales>
<clustering>
<clus scale="   34.300">  1  9  2 -1</clus>
<clus scale="   79.060">  2 10  1 -1</clus>
<clus scale="   81.701">  5  6 -1 -1</clus>
<clus scale="   91.011">  7  8 -1 -1</clus>
<clus scale="  196.798">  1  5  2 -1</clus>
<clus scale="   79.060">  2  5  1 -1</clus>
</clustering>
</event>
<event>
10    4  0.2857708E-005  0.9977667E+02  0.7546771E-02  0.1290279E+00
         -1   -1    0    0    0  501 -0.00000000000E+00  0.00000000000E+00  0.12061467651E+03  0.12061467651E+03  0.00000000000E+00 0.  1.
         21   -1    0    0  503  502  0.00000000000E+00 -0.00000000000E+00 -0.20146148430E+03  0.20146148430E+03  0.00000000000E+00 0. -1.
         23    2    1    2    0    0  0.87369941236E+01 -0.26464256422E+02  0.36006290320E+02  0.10347191526E+03  0.92915512005E+02 0.  0.
         24    2    1    2    0    0  0.18153996614E+01  0.54063068590E+02 -0.12453981934E+03  0.15513700941E+03  0.75041415409E+02 0.  0.
        -13    1    4    4    0    0  0.19656892944E+02  0.64364328246E+02 -0.71275792574E+02  0.98027541017E+02  0.00000000000E+00 0.  1.
         14    1    4    4    0    0 -0.17841493282E+02 -0.10301259656E+02 -0.53264026762E+02  0.57109468392E+02  0.00000000000E+00 0. -1.
        -13    1    3    3    0    0  0.13996205596E+02 -0.54500781125E+02 -0.15743807289E+01  0.56291274537E+02  0.00000000000E+00 0. -1.
         13    1    3    3    0    0 -0.52592114725E+01  0.28036524703E+02  0.37580671048E+02  0.47180640725E+02  0.00000000000E+00 0.  1.
         21    1    1    2  503  501 -0.30187601729E+02 -0.47613979991E+01 -0.46652216297E+01  0.30914826571E+02  0.00000000000E+00 0.  1.
         -2    1    1    2    0  502  0.19635207944E+02 -0.22837414169E+02  0.12351942856E+02  0.32552409577E+02  0.00000000000E+00 0.  1.
<scales pt_clust_5="13000.00000" pt_clust_6="13000.00000" pt_clust_7="13000.00000" pt_clust_8="13000.00000" pt_clust_9="29.18580" pt_clust_10="30.11793"></scales>
<clustering>
<clus scale="   30.118">  2 10  1 -1</clus>
<clus scale="   29.186">  1  9  2 -1</clus>
<clus scale="   75.041">  5  6 -1 -1</clus>
<clus scale="   83.386">  2  5  1 -1</clus>
<clus scale="   92.916">  7  8 -1 -1</clus>
<clus scale="   30.118">  2  5  1 -1</clus>
</clustering>
</event>
<event>
10    4  0.2857708E-005  0.1527486E+03  0.7546771E-02  0.1198789E+00
         21   -1    0    0  501  502  0.00000000000E+00  0.00000000000E+00  0.11412346099E+03  0.11412346099E+03  0.00000000000E+00 0. -1.
          2   -1    0    0  503    0 -0.00000000000E+00 -0.00000000000E+00 -0.50640601674E+03  0.50640601674E+03  0.00000000000E+00 0. -1.
         23    2    1    2    0    0  0.88811637365E+00 -0.12764286970E+03 -0.14281415176E+03  0.21214704401E+03  0.91197562479E+02 0.  0.
         24    2    1    2    0    0  0.14565594794E+01  0.10730431711E+03  0.11284670077E+02  0.13542080757E+03  0.81823672054E+02 0.  0.
        -11    1    4    4    0    0 -0.11876752797E+02  0.72268532168E+02 -0.30455552136E+02  0.79317959219E+02  0.00000000000E+00 0.  1.
         12    1    4    4    0    0  0.13333312276E+02  0.35035784939E+02  0.41740222213E+02  0.56102848350E+02  0.00000000000E+00 0. -1.
        -11    1    3    3    0    0  0.32317013394E+02 -0.69599105711E+02 -0.11975026757E+03  0.14222711223E+03  0.00000000000E+00 0. -1.
         11    1    3    3    0    0 -0.31428897020E+02 -0.58043763987E+02 -0.23063884193E+02  0.69919931777E+02  0.00000000000E+00 0.  1.
         21    1    1    2  503  502  0.34642791799E+02 -0.60659904173E+01 -0.10687042906E+03  0.11250870131E+03  0.00000000000E+00 0.  1.
          1    1    1    2  501    0 -0.36987467652E+02  0.26404543008E+02 -0.15388264501E+03  0.16045292484E+03  0.00000000000E+00 0. -1.
<scales pt_clust_5="13000.00000" pt_clust_6="13000.00000" pt_clust_7="13000.00000" pt_clust_8="13000.00000" pt_clust_9="35.16986" pt_clust_10="33.42504"></scales>
<clustering>
<clus scale="   35.170">  2  9  1 -1</clus>
<clus scale="   33.425">  1 10  2 -1</clus>
<clus scale="   81.824">  5  6 -1 -1</clus>
<clus scale="   91.198">  7  8 -1 -1</clus>
<clus scale="  147.344">  1  5  2 -1</clus>
<clus scale="   33.425">  1  5  2 -1</clus>
</clustering>
</event>
<event>
10    4  0.2857708E-005  0.1117500E+03  0.7546771E-02  0.1261061E+00
          2   -1    0    0  503    0 -0.00000000000E+00  0.00000000000E+00  0.12362598381E+04  0.12362598381E+04  0.00000000000E+00 0. -1.
         21   -1    0    0  501  502  0.00000000000E+00 -0.00000000000E+00 -0.45240677469E+02  0.45240677469E+02  0.00000000000E+00 0. -1.
         24    2    1    2    0    0  0.28068184520E+02 -0.61991960151E+02  0.70760906369E+03  0.71600027353E+03  0.85527648024E+02 0.  0.
         23    2    1    2    0    0  0.24866766674E+02  0.48686636786E+02  0.31335630548E+03  0.33194465993E+03  0.94901730159E+02 0.  0.
        -13    1    3    3    0    0 -0.14250387799E+02 -0.25723013156E+02  0.69544624819E+02  0.75506303045E+02  0.00000000000E+00 0.  1.
         14    1    3    3    0    0  0.42318572319E+02 -0.36268946995E+02  0.63806443887E+03  0.64049397048E+03  0.00000000000E+00 0. -1.
        -11    1    4    4    0    0  0.55915739666E+02  0.45007909531E+02  0.15896790686E+03  0.17442212381E+03  0.00000000000E+00 0. -1.
         11    1    4    4    0    0 -0.31048972992E+02  0.36787272543E+01  0.15438839862E+03  0.15752253612E+03  0.00000000000E+00 0.  1.
         21    1    1    2  503  502  0.19171207116E+02 -0.44590249460E+02  0.11764483950E+03  0.12726403180E+03  0.00000000000E+00 0. -1.
          1    1    1    2  501    0 -0.72106158310E+02  0.57895572826E+02  0.52408951950E+02  0.10629155029E+03  0.00000000000E+00 0. -1.
<scales pt_clust_5="13000.00000" pt_clust_6="13000.00000" pt_clust_7="13000.00000" pt_clust_8="13000.00000" pt_clust_9="48.53685" pt_clust_10="65.68475"></scales>
<clustering>
<clus scale="   48.537">  2  9  1 -1</clus>
<clus scale="   65.685">  2 10  1 -1</clus>
<clus scale="   85.528">  5  6 -1 -1</clus>
<clus scale="   94.902">  7  8 -1 -1</clus>
<clus scale="  103.907">  1  5  2 -1</clus>
<clus scale="   48.537">  2  5  1 -1</clus>
</clustering>
</event>
<event>
10    4  0.2857708E-005  0.1088116E+03  0.7546771E-02  0.1265190E+00
         21   -1    0    0  503  502  0.00000000000E+00  0.00000000000E+00  0.33126717981E+03  0.33126717981E+03  0.00000000000E+00 0.  1.
         -1   -1    0    0    0  501 -0.00000000000E+00 -0.00000000000E+00 -0.29512729202E+03  0.29512729202E+03  0.00000000000E+00 0.  1.
         24    2    1    2    0    0 -0.25127481979E+02 -0.60900213448E+02 -0.29456669385E+02  0.10836826246E+03  0.80844038676E+02 0.  0.
         23    2    1    2    0    0  0.99478387213E+02  0.98910587042E+02  0.22828556863E+03  0.28176225901E+03  0.87157420825E+02 0.  0.
        -13    1    3    3    0    0 -0.17490430020E+02 -0.74152279553E+02 -0.11525392067E+01  0.76195826997E+02  0.00000000000E+00 0.  1.
         14    1    3    3    0    0 -0.76370519594E+01  0.13252066104E+02 -0.28304130179E+02  0.32172435466E+02  0.00000000000E+00 0. -1.
        -13    1    4    4    0    0  0.65895536103E+02  0.10674226964E+03  0.14567285926E+03  0.19224129559E+03  0.00000000000E+00 0.  1.
         13    1    4    4    0    0  0.33582851110E+02 -0.78316825996E+01  0.82612709375E+02  0.89520963418E+02  0.00000000000E+00 0. -1.
         21    1    1    2  503  501 -0.14078881512E+02  0.39904173520E+02 -0.12297891464E+03  0.13005526293E+03  0.00000000000E+00 0.  1.
         -2    1    1    2    0  502 -0.60272023722E+02 -0.77914547113E+02 -0.39710096826E+02  0.10620868743E+03  0.00000000000E+00 0.  1.
<scales pt_clust_5="13000.00000" pt_clust_6="13000.00000" pt_clust_7="13000.00000" pt_clust_8="13000.00000" pt_clust_9="42.31499" pt_clust_10="89.90180"></scales>
<clustering>
<clus scale="   42.315">  2  9  1 -1</clus>
<clus scale="   80.844">  5  6 -1 -1</clus>
<clus scale="   87.157">  7  8 -1 -1</clus>
<clus scale="   89.902">  1 10  2 -1</clus>
<clus scale="  103.823">  2  5  1 -1</clus>
<clus scale="   89.902">  1  5  2 -1</clus>
</clustering>
</event>
<event>
10    4  0.2857708E-005  0.1044013E+03  0.7546771E-02  0.1273640E+00
         21   -1    0    0  503  502  0.00000000000E+00  0.00000000000E+00  0.42523732963E+03  0.42523732963E+03  0.00000000000E+00 0.  1.
         -1   -1    0    0    0  501 -0.00000000000E+00 -0.00000000000E+00 -0.98043395562E+02  0.98043395562E+02  0.00000000000E+00 0.  1.
         23    2    1    2    0    0 -0.37489678895E+02 -0.20885979477E+02  0.52816860510E+02  0.11077285889E+03  0.87403119792E+02 0.  0.
         24    2    1    2    0    0  0.31270287164E+02  0.70047672803E+02  0.26201291968E+03  0.28502016605E+03  0.81860965401E+02 0.  0.
        -11    1    4    4    0    0  0.43253267700E+02  0.81670179087E+02  0.19255568014E+03  0.21358500246E+03  0.00000000000E+00 0.  1.
         12    1    4    4    0    0 -0.11982980536E+02 -0.11622506284E+02  0.69457239531E+02  0.71435163597E+02  0.00000000000E+00 0. -1.
        -13    1    3    3    0    0  0.24405402863E+02 -0.13711049009E+02  0.37164183650E+02  0.46527337128E+02  0.00000000000E+00 0. -1.
         13    1    3    3    0    0 -0.61895081758E+02 -0.71749304677E+01  0.15652676860E+02  0.64245521758E+02  0.00000000000E+00 0.  1.
         21    1    1    2  503  501  0.26178904325E+02 -0.39846125358E+02 -0.45296396298E+02  0.65763304778E+02  0.00000000000E+00 0.  1.
         -2    1    1    2    0  502 -0.19959512594E+02 -0.93155679675E+01  0.57660550175E+02  0.61724395469E+02  0.00000000000E+00 0.  1.
<scales pt_clust_5="13000.00000" pt_clust_6="13000.00000" pt_clust_7="13000.00000" pt_clust_8="13000.00000" pt_clust_9="47.59155" pt_clust_10="22.02639"></scales>
<clustering>
<clus scale="   22.026">  1 10  2 -1</clus>
<clus scale="   47.592">  2  9  1 -1</clus>
<clus scale="   81.861">  5  6 -1 -1</clus>
<clus scale="   87.403">  7  8 -1 -1</clus>
<clus scale="   99.807">  1  5  2 -1</clus>
<clus scale="   22.026">  1  5  2 -1</clus>
</clustering>
</event>
<event>
10    4  0.2857708E-005  0.3884066E+03  0.7546771E-02  0.1047870E+00
         21   -1    0    0  501  502  0.00000000000E+00  0.00000000000E+00  0.13568056807E+03  0.13568056807E+03  0.00000000000E+00 0. -1.
          2   -1    0    0  503    0 -0.00000000000E+00 -0.00000000000E+00 -0.10965450895E+04  0.10965450895E+04  0.00000000000E+00 0. -1.
         24    2    1    2    0    0  0.26268909987E+02  0.21778385646E+03 -0.26105051549E+03  0.34990881523E+03  0.78542622659E+02 0.  0.
         23    2    1    2    0    0  0.98633607529E+02  0.90369099955E+02 -0.12815546247E+03  0.20694129534E+03  0.92226430038E+02 0.  0.
        -11    1    3    3    0    0  0.16378700116E+02  0.31439624013E+02 -0.95014714154E+01  0.36701358757E+02  0.00000000000E+00 0.  1.
         12    1    3    3    0    0  0.98902098713E+01  0.18634423244E+03 -0.25154904408E+03  0.31320745648E+03  0.00000000000E+00 0. -1.
        -13    1    4    4    0    0  0.80764411274E+01  0.24182084865E+02 -0.81611917212E+02  0.85501503850E+02  0.00000000000E+00 0.  1.
         13    1    4    4    0    0  0.90557166401E+02  0.66187015090E+02 -0.46543545258E+02  0.12143979149E+03  0.00000000000E+00 0. -1.
         21    1    1    2  503  502 -0.24148482499E+02 -0.16015787964E+02 -0.14902478505E+03  0.15181581351E+03  0.00000000000E+00 0.  1.
          1    1    1    2  501    0 -0.10075403502E+03 -0.29213716845E+03 -0.42263375839E+03  0.52355973345E+03  0.00000000000E+00 0. -1.
<scales pt_clust_5="13000.00000" pt_clust_6="13000.00000" pt_clust_7="13000.00000" pt_clust_8="13000.00000" pt_clust_9="28.97680" pt_clust_10="320.65235"></scales>
<clustering>
<clus scale="   28.977">  2  9  1 -1</clus>
<clus scale="   78.543">  5  6 -1 -1</clus>
<clus scale="   92.226">  7  8 -1 -1</clus>
<clus scale="  135.993">  5  7 -1 -1</clus>
<clus scale="  320.652">  1 10  2 -1</clus>
<clus scale="  320.652">  1  5  2 -1</clus>
</clustering>
</event>
<event>
10    4  0.2857708E-005  0.1288404E+03  0.7546771E-02  0.1234200E+00
         21   -1    0    0  501  502  0.00000000000E+00  0.00000000000E+00  0.15147482008E+03  0.15147482008E+03  0.00000000000E+00 0.  1.
          2   -1    0    0  503    0 -0.00000000000E+00 -0.00000000000E+00 -0.42337667295E+03  0.42337667295E+03  0.00000000000E+00 0. -1.
         24    2    1    2    0    0 -0.12507034909E+03 -0.23626701461E+02 -0.21325644241E+03  0.25923043932E+03  0.74305431794E+02 0.  0.
         23    2    1    2    0    0  0.87350117697E+02 -0.49598425048E+02  0.64300334306E+02  0.15113795260E+03  0.92833727143E+02 0.  0.
        -13    1    3    3    0    0 -0.15686308655E+02 -0.27980090769E+02 -0.22119398927E+02  0.38964260131E+02  0.00000000000E+00 0.  1.
         14    1    3    3    0    0 -0.10938404044E+03  0.43533893078E+01 -0.19113704348E+03  0.22026617919E+03  0.00000000000E+00 0. -1.
        -11    1    4    4    0    0  0.59591445122E+02  0.23578064302E+01 -0.53968544759E+01  0.59881763678E+02  0.00000000000E+00 0. -1.
         11    1    4    4    0    0  0.27758672575E+02 -0.51956231478E+02  0.69697188782E+02  0.91256188922E+02  0.00000000000E+00 0.  1.
         21    1    1    2  503  502  0.50911985585E+02  0.27108498317E+02 -0.87667869188E+02  0.10494072729E+03  0.00000000000E+00 0. -1.
          1    1    1    2  501    0 -0.13191754187E+02  0.46116628192E+02 -0.35277875574E+02  0.59542373813E+02  0.00000000000E+00 0. -1.
<scales pt_clust_5="13000.00000" pt_clust_6="13000.00000" pt_clust_7="13000.00000" pt_clust_8="13000.00000" pt_clust_9="58.37340" pt_clust_10="47.96632"></scales>
<clustering>
<clus scale="   47.966">  1 10  2 -1</clus>
<clus scale="   58.373">  2  9  1 -1</clus>
<clus scale="   74.305">  5  6 -1 -1</clus>
<clus scale="   92.834">  7  8 -1 -1</clus>
<clus scale="  116.203">  2  5  1 -1</clus>
<clus scale="   47.966">  1  5  2 -1</clus>
</clustering>
</event>
<event>
10    4  0.2857708E-005  0.2647255E+03  0.7546771E-02  0.1133485E+00
         21   -1    0    0  501  502  0.00000000000E+00  0.00000000000E+00  0.33910016071E+03  0.33910016071E+03  0.00000000000E+00 0. -1.
          2   -1    0    0  503    0 -0.00000000000E+00 -0.00000000000E+00 -0.39546924140E+03  0.39546924140E+03  0.00000000000E+00 0. -1.
         24    2    1    2    0    0 -0.84774991244E+01  0.97161735085E+02  0.40010669242E+02  0.13247684708E+03  0.80230858171E+02 0.  0.
         23    2    1    2    0    0 -0.20451387112E+03  0.53954744178E+01 -0.10429589437E+03  0.24866159643E+03  0.95393507811E+02 0.  0.
        -13    1    3    3    0    0 -0.24740029494E+02  0.95120725246E+02  0.10662459349E+02  0.98862072960E+02  0.00000000000E+00 0.  1.
         14    1    3    3    0    0  0.16262530370E+02  0.20410098392E+01  0.29348209893E+02  0.33614774120E+02  0.00000000000E+00 0. -1.
        -13    1    4    4    0    0 -0.23274706161E+02  0.34999336970E+02 -0.21661678887E+02  0.47285239424E+02  0.00000000000E+00 0.  1.
         13    1    4    4    0    0 -0.18123916495E+03 -0.29603862552E+02 -0.82634215487E+02  0.20137635700E+03  0.00000000000E+00 0. -1.
         21    1    1    2  503  502 -0.45858466363E+02  0.60454098436E+01 -0.48595139874E+02  0.67089742411E+02  0.00000000000E+00 0.  1.
          1    1    1    2  501    0  0.25884983660E+03 -0.10860261935E+03  0.56511284316E+02  0.28634121620E+03  0.00000000000E+00 0. -1.
<scales pt_clust_5="13000.00000" pt_clust_6="13000.00000" pt_clust_7="13000.00000" pt_clust_8="13000.00000" pt_clust_9="46.25523" pt_clust_10="246.94067"></scales>
<clustering>
<clus scale="   46.255">  2  9  1 -1</clus>
<clus scale="   80.231">  5  6 -1 -1</clus>
<clus scale="   95.394">  7  8 -1 -1</clus>
<clus scale="  127.502">  2  5  1 -1</clus>
<clus scale="  246.941">  1 10  2 -1</clus>
<clus scale="  246.941">  1  5  2 -1</clus>
</clustering>
</event>
<event>
10    4  0.2857708E-005  0.1544653E+03  0.7546771E-02  0.1196718E+00
          2   -1    0    0  502    0 -0.00000000000E+00  0.00000000000E+00  0.80459231739E+03  0.80459231739E+03  0.00000000000E+00 0. -1.
         21   -1    0    0  503  502  0.00000000000E+00 -0.00000000000E+00 -0.92103509087E+02  0.92103509087E+02  0.00000000000E+00 0. -1.
         24    2    1    2    0    0 -0.62255346592E+02  0.97795183600E+02  0.38764765378E+03  0.41250309055E+03  0.80302366815E+02 0.  0.
         23    2    1    2    0    0  0.62211273929E+02 -0.17555003538E+03  0.72748608832E+02  0.21924384659E+03  0.89930232167E+02 0.  0.
        -11    1    3    3    0    0 -0.54235956819E+02  0.36543376950E+02  0.28742885014E+03  0.29477500115E+03  0.00000000000E+00 0.  1.
         12    1    3    3    0    0 -0.80193897733E+01  0.61251806650E+02  0.10021880365E+03  0.11772808940E+03  0.00000000000E+00 0. -1.
        -13    1    4    4    0    0  0.76324251862E+02 -0.14417020520E+03  0.32571486734E+02  0.16634705059E+03  0.00000000000E+00 0. -1.
         13    1    4    4    0    0 -0.14112977933E+02 -0.31379830175E+02  0.40177122097E+02  0.52896796008E+02  0.00000000000E+00 0.  1.
         21    1    1    2  503  501 -0.49506336818E+01  0.43321765905E+02  0.10298226850E+03  0.11183305325E+03  0.00000000000E+00 0. -1.
          1    1    1    2  501    0  0.49947063444E+01  0.34433085873E+02  0.14911027719E+03  0.15311583608E+03  0.00000000000E+00 0. -1.
<scales pt_clust_5="13000.00000" pt_clust_6="13000.00000" pt_clust_7="13000.00000" pt_clust_8="13000.00000" pt_clust_9="21.90708" pt_clust_10="81.53079"></scales>
<clustering>
<clus scale="   21.907">  9 10 -1 -1</clus>
<clus scale="   80.302">  5  6 -1 -1</clus>
<clus scale="   81.531">  2  9  1 -1</clus>
<clus scale="   89.930">  7  8 -1 -1</clus>
<clus scale="  149.066">  1  5  2 -1</clus>
<clus scale="   81.531">  2  5  1 -1</clus>
</clustering>
</event>
<event>
10    4  0.2857708E-005  0.2809274E+03  0.7546771E-02  0.1135379E+00
          2   -1    0    0  503    0 -0.00000000000E+00  0.00000000000E+00  0.19622120272E+04  0.19622120272E+04  0.00000000000E+00 0. -1.
         21   -1    0    0  501  502  0.00000000000E+00 -0.00000000000E+00 -0.13645268569E+03  0.13645268569E+03  0.00000000000E+00 0. -1.
         23    2    1    2    0    0  0.61142458055E+01  0.47432161126E+02  0.87987558234E+02  0.13472757985E+03  0.90125004615E+02 0.  0.
         24    2    1    2    0    0 -0.23940713258E+03 -0.22444421609E+03  0.13114692283E+04  0.13541527987E+04  0.78021049083E+02 0.  0.
        -11    1    4    4    0    0 -0.16328831335E+02 -0.23008882093E+02  0.50403941484E+02  0.57763281634E+02  0.00000000000E+00 0.  1.
         12    1    4    4    0    0 -0.22307830125E+03 -0.20143533399E+03  0.12610652868E+04  0.12963895170E+04  0.00000000000E+00 0. -1.
        -11    1    3    3    0    0 -0.95644633683E+01  0.65643435368E+02  0.88608649449E+02  0.11068889883E+03  0.00000000000E+00 0. -1.
         11    1    3    3    0    0  0.15678709174E+02 -0.18211274242E+02 -0.62109121575E+00  0.24038681020E+02  0.00000000000E+00 0.  1.
         21    1    1    2  503  502  0.54564244547E+02 -0.13992248322E+02  0.32407444674E+03  0.32893355989E+03  0.00000000000E+00 0. -1.
          1    1    1    2  501    0  0.17872864223E+03  0.19100430328E+03  0.10222810828E+03  0.28085077452E+03  0.00000000000E+00 0. -1.
<scales pt_clust_5="13000.00000" pt_clust_6="13000.00000" pt_clust_7="13000.00000" pt_clust_8="13000.00000" pt_clust_9="56.32974" pt_clust_10="269.87573"></scales>
<clustering>
<clus scale="   56.330">  1  9  2 -1</clus>
<clus scale="   78.021">  5  6 -1 -1</clus>
<clus scale="   90.125">  7  8 -1 -1</clus>
<clus scale="  101.880">  1  7  2 -1</clus>
<clus scale="  269.876">  2 10  1 -1</clus>
<clus scale="  269.876">  2  5  1 -1</clus>
</clustering>
</event>
<event>
10    4  0.2857708E-005  0.1035023E+03  0.7546771E-02  0.1277371E+00
         21   -1    0    0  501  502  0.00000000000E+00  0.00000000000E+00  0.18376089083E+03  0.18376089083E+03  0.00000000000E+00 0.  1.
          2   -1    0    0  503    0 -0.00000000000E+00 -0.00000000000E+00 -0.23900675439E+03  0.23900675439E+03  0.00000000000E+00 0. -1.
         24    2    1    2    0    0 -0.69832070363E+01  0.23002597720E+02 -0.12741813301E+03  0.15033815822E+03  0.76080855106E+02 0.  0.
         23    2    1    2    0    0  0.50946054274E+02 -0.62913213261E+02  0.10856973582E+03  0.16046310895E+03  0.86066537925E+02 0.  0.
        -13    1    3    3    0    0  0.21233585492E+02  0.71666538480E+01 -0.40197251597E+01  0.22768053728E+02  0.00000000000E+00 0.  1.
         14    1    3    3    0    0 -0.28216792528E+02  0.15835943872E+02 -0.12339840785E+03  0.12757010449E+03  0.00000000000E+00 0. -1.
        -11    1    4    4    0    0  0.37862007148E+02 -0.46562966751E+02  0.11430773373E+02  0.61092585784E+02  0.00000000000E+00 0. -1.
         11    1    4    4    0    0  0.13084047126E+02 -0.16350246510E+02  0.97138962443E+02  0.99370523167E+02  0.00000000000E+00 0.  1.
         21    1    1    2  503  502 -0.33794497268E+02  0.22560093007E+02 -0.65207686557E+02  0.76831427347E+02  0.00000000000E+00 0. -1.
          1    1    1    2  501    0 -0.10168349970E+02  0.17350522534E+02  0.28810220192E+02  0.35134950702E+02  0.00000000000E+00 0. -1.
<scales pt_clust_5="13000.00000" pt_clust_6="13000.00000" pt_clust_7="13000.00000" pt_clust_8="13000.00000" pt_clust_9="41.32686" pt_clust_10="20.11059"></scales>
<clustering>
<clus scale="   20.111">  1 10  2 -1</clus>
<clus scale="   41.327">  2  9  1 -1</clus>
<clus scale="   76.081">  5  6 -1 -1</clus>
<clus scale="   86.067">  7  8 -1 -1</clus>
<clus scale="   95.360">  2  5  1 -1</clus>
<clus scale="   20.111">  1  5  2 -1</clus>
</clustering>
</event>
<event>
10    4  0.2857708E-005  0.2288236E+03  0.7546771E-02  0.1151424E+00
          2   -1    0    0  503    0 -0.00000000000E+00  0.00000000000E+00  0.83361113153E+03  0.83361113153E+03  0.00000000000E+00 0. -1.
         21   -1    0    0  501  502  0.00000000000E+00 -0.00000000000E+00 -0.12559249578E+03  0.12559249578E+03  0.00000000000E+00 0. -1.
         23    2    1    2    0    0  0.84586486565E+02  0.81520180038E+02  0.10682664124E+03  0.16892832383E+03  0.57657903611E+02 0.  0.
         24    2    1    2    0    0 -0.10865481528E+03 -0.23821408541E+03  0.24699305539E+03  0.36889824882E+03  0.80799314355E+02 0.  0.
        -11    1    4    4    0    0  0.11561161727E+02 -0.39807549450E+02  0.46351328822E+02  0.62183174068E+02  0.00000000000E+00 0.  1.
         12    1    4    4    0    0 -0.12021597701E+03 -0.19840653596E+03  0.20064172656E+03  0.30671507475E+03  0.00000000000E+00 0. -1.
        -11    1    3    3    0    0  0.15660937082E+02  0.46065871023E+02  0.63933363662E+02  0.80341797419E+02  0.00000000000E+00 0. -1.
         11    1    3    3    0    0  0.68925549483E+02  0.35454309015E+02  0.42893277580E+02  0.88586526406E+02  0.00000000000E+00 0.  1.
         21    1    1    2  503  502  0.91844386269E+00 -0.21849083528E+02  0.13940317226E+03  0.14110800979E+03  0.00000000000E+00 0.  1.
          1    1    1    2  501    0  0.23149884855E+02  0.17854298890E+03  0.21479576685E+03  0.28026904487E+03  0.00000000000E+00 0. -1.
<scales pt_clust_5="13000.00000" pt_clust_6="13000.00000" pt_clust_7="13000.00000" pt_clust_8="13000.00000" pt_clust_9="21.86838" pt_clust_10="214.08340"></scales>
<clustering>
<clus scale="   21.868">  1  9  2 -1</clus>
<clus scale="   57.658">  7  8 -1 -1</clus>
<clus scale="   80.799">  5  6 -1 -1</clus>
<clus scale="  128.321">  1  7  2 -1</clus>
<clus scale="  214.083">  2 10  1 -1</clus>
<clus scale="  214.083">  2  5  1 -1</clus>
</clustering>
</event>
<event>
10    4  0.2857708E-005  0.1920450E+03  0.7546771E-02  0.1157451E+00
         21   -1    0    0  503  502  0.00000000000E+00  0.00000000000E+00  0.27454039657E+03  0.27454039657E+03  0.00000000000E+00 0.  1.
         -3   -1    0    0    0  501 -0.00000000000E+00 -0.00000000000E+00 -0.82477939500E+03  0.82477939500E+03  0.00000000000E+00 0.  1.
         24    2    1    2    0    0  0.16933898823E+03 -0.88835730796E+02 -0.70770537495E+03  0.73775835651E+03  0.82903648019E+02 0.  0.
         23    2    1    2    0    0 -0.83815763715E+02  0.67458347410E+02  0.73097322865E+02  0.15869129659E+03  0.90906535080E+02 0.  0.
        -13    1    3    3    0    0  0.43750761366E+02 -0.55681140785E+02 -0.35265341109E+03  0.35969285080E+03  0.00000000000E+00 0.  1.
         14    1    3    3    0    0  0.12558822686E+03 -0.33154590011E+02 -0.35505196386E+03  0.37806550571E+03  0.00000000000E+00 0. -1.
        -13    1    4    4    0    0 -0.25808348376E+02  0.77489521061E+02  0.47651905937E+02  0.94558980851E+02  0.00000000000E+00 0.  1.
         13    1    4    4    0    0 -0.58007415339E+02 -0.10031173651E+02  0.25445416928E+02  0.64132315736E+02  0.00000000000E+00 0. -1.
         21    1    1    2  503  501 -0.14197460930E+01  0.28998876107E+02 -0.41892930638E+02  0.50970267136E+02  0.00000000000E+00 0.  1.
         -4    1    1    2    0  502 -0.84103478418E+02 -0.76214927221E+01  0.12626198430E+03  0.15189987134E+03  0.00000000000E+00 0.  1.
<scales pt_clust_5="13000.00000" pt_clust_6="13000.00000" pt_clust_7="13000.00000" pt_clust_8="13000.00000" pt_clust_9="29.03361" pt_clust_10="84.42964"></scales>
<clustering>
<clus scale="   29.034">  2  9  1 -1</clus>
<clus scale="   82.904">  5  6 -1 -1</clus>
<clus scale="   84.430">  1 10  2 -1</clus>
<clus scale="   90.907">  7  8 -1 -1</clus>
<clus scale="  188.389">  2  5  1 -1</clus>
<clus scale="   84.430">  1  5  2 -1</clus>
</clustering>
</event>
<event>
10    4  0.2857708E-005  0.1586426E+03  0.7546771E-02  0.1191925E+00
         21   -1    0    0  501  502  0.00000000000E+00  0.00000000000E+00  0.57882394207E+03  0.57882394207E+03  0.00000000000E+00 0.  1.
          2   -1    0    0  503    0 -0.00000000000E+00 -0.00000000000E+00 -0.31478958284E+03  0.31478958284E+03  0.00000000000E+00 0. -1.
         24    2    1    2    0    0  0.17097606048E+03 -0.11411110113E+02 -0.24800732093E+03  0.31214440664E+03  0.81015261956E+02 0.  0.
         23    2    1    2    0    0 -0.10609615782E+03 -0.14618982292E+02  0.44126511545E+03  0.46319959888E+03  0.91481456832E+02 0.  0.
        -13    1    3    3    0    0  0.21750800775E+02  0.56023150237E+01 -0.95468121353E+02  0.98074693284E+02  0.00000000000E+00 0.  1.
         14    1    3    3    0    0  0.14922525970E+03 -0.17013425137E+02 -0.15253919958E+03  0.21406971335E+03  0.00000000000E+00 0. -1.
        -13    1    4    4    0    0 -0.11047532909E+03  0.14479262962E+02  0.35062108634E+03  0.36789889043E+03  0.00000000000E+00 0.  1.
         13    1    4    4    0    0  0.43791712743E+01 -0.29098245255E+02  0.90644029116E+02  0.95300708456E+02  0.00000000000E+00 0. -1.
         21    1    1    2  503  502 -0.41478176853E+02  0.23728871580E+02  0.45616129849E+01  0.48003195879E+02  0.00000000000E+00 0.  1.
          1    1    1    2  501    0 -0.23401725806E+02  0.23012208252E+01  0.66214951726E+02  0.70266323513E+02  0.00000000000E+00 0. -1.
<scales pt_clust_5="13000.00000" pt_clust_6="13000.00000" pt_clust_7="13000.00000" pt_clust_8="13000.00000" pt_clust_9="48.89290" pt_clust_10="23.51460"></scales>
<clustering>
<clus scale="   23.515">  1 10  2 -1</clus>
<clus scale="   48.893">  2  9  1 -1</clus>
<clus scale="   81.015">  5  6 -1 -1</clus>
<clus scale="   91.481">  7  8 -1 -1</clus>
<clus scale="  152.847">  2  5  1 -1</clus>
<clus scale="   23.515">  1  5  2 -1</clus>
</clustering>
</event>
<event>
10    4  0.2857708E-005  0.1325617E+03  0.7546771E-02  0.1226068E+00
         21   -1    0    0  503  502  0.00000000000E+00  0.00000000000E+00  0.51775610726E+02  0.51775610726E+02  0.00000000000E+00 0. -1.
         -1   -1    0    0    0  501 -0.00000000000E+00 -0.00000000000E+00 -0.70921606386E+03  0.70921606386E+03  0.00000000000E+00 0.  1.
         23    2    1    2    0    0  0.30319178752E+02  0.85693257663E+02 -0.22637382502E+03  0.26048930291E+03  0.91361815134E+02 0.  0.
         24    2    1    2    0    0  0.30297700658E+02 -0.10920146232E+03 -0.20653830390E+03  0.24939849064E+03  0.81845134955E+02 0.  0.
        -11    1    4    4    0    0  0.49592111031E+02 -0.65587014031E+02 -0.17158557317E+03  0.19026992092E+03  0.00000000000E+00 0.  1.
         12    1    4    4    0    0 -0.19294410373E+02 -0.43614448294E+02 -0.34952730728E+02  0.59128569719E+02  0.00000000000E+00 0. -1.
        -11    1    3    3    0    0  0.15871561199E+02  0.49129546271E+02 -0.21268161334E+03  0.21885860144E+03  0.00000000000E+00 0.  1.
         11    1    3    3    0    0  0.14447617553E+02  0.36563711391E+02 -0.13692211680E+02  0.41630701464E+02  0.00000000000E+00 0. -1.
         21    1    1    2  503  501 -0.33388458587E+02 -0.13496192090E+01 -0.20805668568E+03  0.21072302934E+03  0.00000000000E+00 0. -1.
         -2    1    1    2    0  502 -0.27228420823E+02  0.24857823871E+02 -0.16471638534E+02  0.40380851701E+02  0.00000000000E+00 0.  1.
<scales pt_clust_5="13000.00000" pt_clust_6="13000.00000" pt_clust_7="13000.00000" pt_clust_8="13000.00000" pt_clust_9="33.41572" pt_clust_10="38.24266"></scales>
<clustering>
<clus scale="   33.416">  2  9  1 -1</clus>
<clus scale="   38.243">  1 10  2 -1</clus>
<clus scale="   81.845">  5  6 -1 -1</clus>
<clus scale="   91.362">  7  8 -1 -1</clus>
<clus scale="  126.191">  1  5  2 -1</clus>
<clus scale="   38.243">  1  5  2 -1</clus>
</clustering>
</event>
<event>
10    4  0.2857708E-005  0.1052732E+03  0.7546771E-02  0.1273896E+00
         21   -1    0    0  501  502  0.00000000000E+00  0.00000000000E+00  0.56877116476E+02  0.56877116476E+02  0.00000000000E+00 0. -1.
          2   -1    0    0  503    0 -0.00000000000E+00 -0.00000000000E+00 -0.78322892621E+03  0.78322892621E+03  0.00000000000E+00 0. -1.
         24    2    1    2    0    0 -0.31926448689E+02  0.67402669830E+02 -0.20541571474E+03  0.23369314679E+03  0.82791623795E+02 0.  0.
         23    2    1    2    0    0 -0.10126437751E+02  0.10563187311E+02 -0.26186685602E+02  0.97225813190E+02  0.92482379835E+02 0.  0.
        -11    1    3    3    0    0  0.19260728195E+02  0.36577494975E+02 -0.13579089068E+03  0.14194384376E+03  0.00000000000E+00 0.  1.
         12    1    3    3    0    0 -0.51187176884E+02  0.30825174855E+02 -0.69624824056E+02  0.91749303033E+02  0.00000000000E+00 0. -1.
        -11    1    4    4    0    0 -0.40396355831E+02  0.35304153209E+02 -0.21711142885E+02  0.57875923523E+02  0.00000000000E+00 0. -1.
         11    1    4    4    0    0  0.30269918080E+02 -0.24740965899E+02 -0.44755427169E+01  0.39349889667E+02  0.00000000000E+00 0.  1.
         21    1    1    2  503  502  0.14879052309E+02  0.16262463215E+02 -0.78007510596E+02  0.81061862900E+02  0.00000000000E+00 0.  1.
          1    1    1    2  501    0  0.27173834132E+02 -0.94228320356E+02 -0.41674189879E+03  0.42812521980E+03  0.00000000000E+00 0. -1.
<scales pt_clust_5="13000.00000" pt_clust_6="13000.00000" pt_clust_7="13000.00000" pt_clust_8="13000.00000" pt_clust_9="22.04209" pt_clust_10="91.85922"></scales>
<clustering>
<clus scale="   22.042">  2  9  1 -1</clus>
<clus scale="   82.792">  5  6 -1 -1</clus>
<clus scale="   91.859">  1 10  2 -1</clus>
<clus scale="   92.482">  7  8 -1 -1</clus>
<clus scale="   96.871">  2  5  1 -1</clus>
<clus scale="   91.859">  1  5  2 -1</clus>
</clustering>
</event>
<event>
10    4  0.2857708E-005  0.9410737E+02  0.7546771E-02  0.1297034E+00
         21   -1    0    0  501  502  0.00000000000E+00  0.00000000000E+00  0.44463771274E+02  0.44463771274E+02  0.00000000000E+00 0.  1.
          2   -1    0    0  503    0 -0.00000000000E+00 -0.00000000000E+00 -0.42068512468E+03  0.42068512468E+03  0.00000000000E+00 0. -1.
         24    2    1    2    0    0 -0.16864081875E+02  0.30746952211E+02 -0.16795001548E+03  0.19016723992E+03  0.82015846694E+02 0.  0.
         23    2    1    2    0    0  0.11484103970E+02 -0.40063316299E+02 -0.87504722709E+02  0.13151719873E+03  0.88897374029E+02 0.  0.
        -13    1    3    3    0    0  0.18958272788E+02  0.41434174095E+02 -0.56319582182E+02  0.72443786671E+02  0.00000000000E+00 0.  1.
         14    1    3    3    0    0 -0.35822354663E+02 -0.10687221884E+02 -0.11163043330E+03  0.11772345325E+03  0.00000000000E+00 0. -1.
        -13    1    4    4    0    0 -0.15492148324E+02  0.22072474242E+02 -0.42003569996E+02  0.49914934351E+02  0.00000000000E+00 0.  1.
         13    1    4    4    0    0  0.26976252294E+02 -0.62135790541E+02 -0.45501152713E+02  0.81602264382E+02  0.00000000000E+00 0. -1.
         21    1    1    2  503  502  0.25345784418E+01 -0.22930666782E+02 -0.10491106425E+03  0.10741774048E+03  0.00000000000E+00 0. -1.
          1    1    1    2  501    0  0.28453994626E+01  0.32247030869E+02 -0.15855550968E+02  0.36046716834E+02  0.00000000000E+00 0. -1.
<scales pt_clust_5="13000.00000" pt_clust_6="13000.00000" pt_clust_7="13000.00000" pt_clust_8="13000.00000" pt_clust_9="23.07032" pt_clust_10="30.50832"></scales>
<clustering>
<clus scale="   23.070">  2  9  1 -1</clus>
<clus scale="   30.508">  1 10  2 -1</clus>
<clus scale="   82.016">  5  6 -1 -1</clus>
<clus scale="   87.636">  2  5  1 -1</clus>
<clus scale="   88.897">  7  8 -1 -1</clus>
<clus scale="   30.508">  1  5  2 -1</clus>
</clustering>
</event>
<event>
10    4  0.2857708E-005  0.1631647E+03  0.7546771E-02  0.1187056E+00
         21   -1    0    0  501  502  0.00000000000E+00  0.00000000000E+00  0.10232174889E+04  0.10232174889E+04  0.00000000000E+00 0.  1.
          4   -1    0    0  503    0 -0.00000000000E+00 -0.00000000000E+00 -0.41744007599E+02  0.41744007599E+02  0.00000000000E+00 0. -1.
         24    2    1    2    0    0  0.10817237090E+03  0.58443039761E+02  0.17487424327E+03  0.22782940050E+03  0.78793299539E+02 0.  0.
         23    2    1    2    0    0 -0.11731559831E+03 -0.47557132967E+02  0.66692580861E+03  0.68495700690E+03  0.91386194878E+02 0.  0.
        -11    1    3    3    0    0  0.17170857933E+02  0.48113774107E+02  0.87087509847E+02  0.10096538017E+03  0.00000000000E+00 0.  1.
         12    1    3    3    0    0  0.91001512963E+02  0.10329265654E+02  0.87786733425E+02  0.12686402034E+03  0.00000000000E+00 0. -1.
        -11    1    4    4    0    0 -0.46358652839E+02  0.26567294288E+02  0.21780403754E+03  0.22426222283E+03  0.00000000000E+00 0.  1.
         11    1    4    4    0    0 -0.70956945469E+02 -0.74124427255E+02  0.44912177106E+03  0.46069478407E+03  0.00000000000E+00 0. -1.
         21    1    1    2  503  502  0.32245634027E+02 -0.54985974224E+01  0.52718358811E+02  0.62042250468E+02  0.00000000000E+00 0.  1.
          3    1    1    2  501    0 -0.23102406614E+02 -0.53873093712E+01  0.86955070574E+02  0.90132838589E+02  0.00000000000E+00 0. -1.
<scales pt_clust_5="13000.00000" pt_clust_6="13000.00000" pt_clust_7="13000.00000" pt_clust_8="13000.00000" pt_clust_9="31.37367" pt_clust_10="23.72223"></scales>
<clustering>
<clus scale="   23.722">  1 10  2 -1</clus>
<clus scale="   31.374">  2  9  1 -1</clus>
<clus scale="   78.793">  5  6 -1 -1</clus>
<clus scale="   91.386">  7  8 -1 -1</clus>
<clus scale="  156.460">  2  5  1 -1</clus>
<clus scale="   23.722">  1  5  2 -1</clus>
</clustering>
</event>
<event>
10    4  0.2857708E-005  0.4990020E+03  0.7546771E-02  0.1014247E+00
          2   -1    0    0  503    0 -0.00000000000E+00  0.00000000000E+00  0.14417637218E+04  0.14417637218E+04  0.00000000000E+00 0. -1.
         21   -1    0    0  501  502  0.00000000000E+00 -0.00000000000E+00 -0.36325717686E+03  0.36325717686E+03  0.00000000000E+00 0. -1.
         24    2    1    2    0    0  0.50421391016E+03 -0.95166479938E+02  0.71519709968E+03  0.88388808628E+03  0.80392360111E+02 0.  0.
         23    2    1    2    0    0 -0.43444172122E+03  0.72557408485E+02 -0.89465306115E+02  0.46000952914E+03  0.97982341485E+02 0.  0.
        -13    1    3    3    0    0  0.15201108029E+03  0.80811759532E+01  0.21859415858E+03  0.26637582492E+03  0.00000000000E+00 0.  1.
         14    1    3    3    0    0  0.35220282988E+03 -0.10324765589E+03  0.49660294110E+03  0.61751226136E+03  0.00000000000E+00 0. -1.
        -11    1    4    4    0    0 -0.13678865121E+03  0.47161265054E+01  0.14195158341E+02  0.13760406778E+03  0.00000000000E+00 0.  1.
         11    1    4    4    0    0 -0.29765307001E+03  0.67841281979E+02 -0.10366046446E+03  0.32240546136E+03  0.00000000000E+00 0. -1.
         21    1    1    2  503  502 -0.11799017249E+02  0.26720016220E+02  0.15616443040E+03  0.15887260745E+03  0.00000000000E+00 0. -1.
          1    1    1    2  501    0 -0.57973171698E+02 -0.41109447669E+01  0.29661032097E+03  0.30225067578E+03  0.00000000000E+00 0. -1.
<scales pt_clust_5="13000.00000" pt_clust_6="13000.00000" pt_clust_7="13000.00000" pt_clust_8="13000.00000" pt_clust_9="29.20918" pt_clust_10="60.76118"></scales>
<clustering>
<clus scale="   29.209">  1  9  2 -1</clus>
<clus scale="   60.761">  2 10  1 -1</clus>
<clus scale="   80.392">  5  6 -1 -1</clus>
<clus scale="   97.982">  7  8 -1 -1</clus>
<clus scale="  495.848">  1  5  2 -1</clus>
<clus scale="   60.761">  2  5  1 -1</clus>
</clustering>
</event>
<event>
10    4  0.2857708E-005  0.9467106E+02  0.7546771E-02  0.1299017E+00
         -1   -1    0    0    0  501 -0.00000000000E+00  0.00000000000E+00  0.89073181291E+02  0.89073181291E+02  0.00000000000E+00 0.  1.
         21   -1    0    0  503  502  0.00000000000E+00 -0.00000000000E+00 -0.20308602037E+03  0.20308602037E+03  0.00000000000E+00 0. -1.
         23    2    1    2    0    0 -0.81033026184E+01 -0.84918904856E+01  0.19934545981E+01  0.92062617483E+02  0.91289517247E+02 0.  0.
         24    2    1    2    0    0  0.33142097523E+02  0.18506774780E+02 -0.83750219482E+02  0.12129271509E+03  0.79100721429E+02 0.  0.
        -13    1    4    4    0    0 -0.18801542529E+02  0.24911843661E+02 -0.14301275418E+02  0.34331100108E+02  0.00000000000E+00 0.  1.
         14    1    4    4    0    0  0.51943640052E+02 -0.64050688807E+01 -0.69448944065E+02  0.86961614986E+02  0.00000000000E+00 0. -1.
        -11    1    3    3    0    0 -0.42471437270E+02  0.17317779876E+02  0.13042630259E+02  0.47684784656E+02  0.00000000000E+00 0.  1.
         11    1    3    3    0    0  0.34368134652E+02 -0.25809670362E+02 -0.11049175661E+02  0.44377832827E+02  0.00000000000E+00 0. -1.
         21    1    1    2  503  501 -0.20935069334E+02  0.14457383516E+02  0.11950737073E+02  0.28108952003E+02  0.00000000000E+00 0.  1.
         -2    1    1    2    0  502 -0.41037255709E+01 -0.24472267810E+02 -0.44206811272E+02  0.50694917084E+02  0.00000000000E+00 0.  1.
<scales pt_clust_5="13000.00000" pt_clust_6="13000.00000" pt_clust_7="13000.00000" pt_clust_8="13000.00000" pt_clust_9="24.92267" pt_clust_10="24.81396"></scales>
<clustering>
<clus scale="   24.814">  2 10  1 -1</clus>
<clus scale="   24.923">  1  9  2 -1</clus>
<clus scale="   79.101">  5  6 -1 -1</clus>
<clus scale="   82.980">  2  5  1 -1</clus>
<clus scale="   91.290">  7  8 -1 -1</clus>
<clus scale="   24.814">  2  5  1 -1</clus>
</clustering>
</event>
<event>
10    4  0.2857708E-005  0.1219527E+03  0.7546771E-02  0.1253828E+00
          2   -1    0    0  503    0 -0.00000000000E+00  0.00000000000E+00  0.83551002095E+03  0.83551002095E+03  0.00000000000E+00 0. -1.
         21   -1    0    0  501  502  0.00000000000E+00 -0.00000000000E+00 -0.48827267082E+02  0.48827267082E+02  0.00000000000E+00 0. -1.
         23    2    1    2    0    0 -0.11655950164E+01 -0.14689188963E+02  0.20125712014E+03  0.22092108046E+03  0.89914206342E+02 0.  0.
         24    2    1    2    0    0 -0.32920204225E+02 -0.85040670604E+02  0.18390076048E+03  0.22089087276E+03  0.81594316348E+02 0.  0.
        -11    1    4    4    0    0  0.13427063160E+02 -0.17492832949E+02  0.29341404623E+01  0.22246222375E+02  0.00000000000E+00 0.  1.
         12    1    4    4    0    0 -0.46347267384E+02 -0.67547837654E+02  0.18096662002E+03  0.19864465038E+03  0.00000000000E+00 0. -1.
        -13    1    3    3    0    0 -0.22948317049E+02  0.18315483832E+02  0.16394042218E+03  0.16654892442E+03  0.00000000000E+00 0.  1.
         13    1    3    3    0    0  0.21782722033E+02 -0.33004672795E+02  0.37316697962E+02  0.54372156038E+02  0.00000000000E+00 0. -1.
         21    1    1    2  503  502  0.44210931226E+02  0.61289187063E+01  0.30292797673E+03  0.30619851269E+03  0.00000000000E+00 0. -1.
          1    1    1    2  501    0 -0.10125131985E+02  0.93600940860E+02  0.98596896518E+02  0.13632682212E+03  0.00000000000E+00 0. -1.
<scales pt_clust_5="13000.00000" pt_clust_6="13000.00000" pt_clust_7="13000.00000" pt_clust_8="13000.00000" pt_clust_9="44.63373" pt_clust_10="90.63565"></scales>
<clustering>
<clus scale="   44.634">  1  9  2 -1</clus>
<clus scale="   81.594">  5  6 -1 -1</clus>
<clus scale="   89.914">  7  8 -1 -1</clus>
<clus scale="   92.217">  1  7  2 -1</clus>
<clus scale="   90.636">  2 10  1 -1</clus>
<clus scale="   90.636">  2  5  1 -1</clus>
</clustering>
</event>
<event>
10    4  0.2857708E-005  0.1696848E+03  0.7546771E-02  0.1194284E+00
         21   -1    0    0  503  502  0.00000000000E+00  0.00000000000E+00  0.21141240530E+03  0.21141240530E+03  0.00000000000E+00 0.  1.
         -3   -1    0    0    0  501 -0.00000000000E+00 -0.00000000000E+00 -0.28508428748E+03  0.28508428748E+03  0.00000000000E+00 0.  1.
         23    2    1    2    0    0  0.49364162102E+02  0.57281368375E+02  0.37160200392E+02  0.12645126400E+03  0.94292449384E+02 0.  0.
         24    2    1    2    0    0  0.12848757964E+03  0.44242367118E+01 -0.40432617385E+02  0.15735839434E+03  0.81229524982E+02 0.  0.
        -13    1    4    4    0    0  0.13750196710E+03  0.14815871064E+02 -0.37514876867E+02  0.14329573259E+03  0.00000000000E+00 0.  1.
         14    1    4    4    0    0 -0.90143874614E+01 -0.10391634352E+02 -0.29177405186E+01  0.14062661752E+02  0.00000000000E+00 0. -1.
        -13    1    3    3    0    0  0.36763115258E+02  0.22659270377E+02 -0.28090263704E+02  0.51517298963E+02  0.00000000000E+00 0. -1.
         13    1    3    3    0    0  0.12601046844E+02  0.34622097998E+02  0.65250464096E+02  0.74933965036E+02  0.00000000000E+00 0.  1.
         21    1    1    2  503  501 -0.60603896255E+01 -0.24071739075E+02 -0.94048114660E+01  0.26544819141E+02  0.00000000000E+00 0. -1.
         -4    1    1    2    0  502 -0.17179135211E+03 -0.37633866012E+02 -0.60994653722E+02  0.18614221530E+03  0.00000000000E+00 0.  1.
<scales pt_clust_5="13000.00000" pt_clust_6="13000.00000" pt_clust_7="13000.00000" pt_clust_8="13000.00000" pt_clust_9="24.82291" pt_clust_10="148.97896"></scales>
<clustering>
<clus scale="   24.823">  2  9  1 -1</clus>
<clus scale="   81.230">  5  6 -1 -1</clus>
<clus scale="   94.292">  7  8 -1 -1</clus>
<clus scale="  118.597">  2  7  1 -1</clus>
<clus scale="  148.979">  1 10  2 -1</clus>
<clus scale="  148.979">  1  5  2 -1</clus>
</clustering>
</event>
<event>
10    4  0.2857708E-005  0.1652299E+03  0.7546771E-02  0.1184741E+00
          2   -1    0    0  503    0 -0.00000000000E+00  0.00000000000E+00  0.26675586115E+03  0.26675586115E+03  0.00000000000E+00 0. -1.
         21   -1    0    0  501  502  0.00000000000E+00 -0.00000000000E+00 -0.40918296064E+03  0.40918296064E+03  0.00000000000E+00 0.  1.
         23    2    1    2    0    0 -0.76700095875E+02  0.89266199977E+02  0.16196160877E+03  0.22004914158E+03  0.91316498135E+02 0.  0.
         24    2    1    2    0    0  0.96051370821E+02 -0.12831516655E+03 -0.24398414043E+03  0.30235834387E+03  0.78750616029E+02 0.  0.
        -13    1    4    4    0    0  0.10453343869E+03 -0.87464271166E+02 -0.17621326342E+03  0.22277421920E+03  0.00000000000E+00 0.  1.
         14    1    4    4    0    0 -0.84820678734E+01 -0.40850895381E+02 -0.67770877005E+02  0.79584124666E+02  0.00000000000E+00 0. -1.
        -13    1    3    3    0    0  0.10657121524E+02  0.52024966954E+02  0.69911606708E+02  0.87794101045E+02  0.00000000000E+00 0.  1.
         13    1    3    3    0    0 -0.87357217400E+02  0.37241233023E+02  0.92050002058E+02  0.13225504054E+03  0.00000000000E+00 0. -1.
         21    1    1    2  503  502  0.21356469822E+02  0.37769008108E+02  0.31092418911E+02  0.53379165322E+02  0.00000000000E+00 0. -1.
          1    1    1    2  501    0 -0.40707744767E+02  0.12799584612E+01 -0.91496986735E+02  0.10015217102E+03  0.00000000000E+00 0. -1.
<scales pt_clust_5="13000.00000" pt_clust_6="13000.00000" pt_clust_7="13000.00000" pt_clust_8="13000.00000" pt_clust_9="42.73524" pt_clust_10="40.72786"></scales>
<clustering>
<clus scale="   40.728">  2 10  1 -1</clus>
<clus scale="   42.735">  1  9  2 -1</clus>
<clus scale="   78.751">  5  6 -1 -1</clus>
<clus scale="   91.316">  7  8 -1 -1</clus>
<clus scale="  158.631">  2  5  1 -1</clus>
<clus scale="   40.728">  2  5  1 -1</clus>
</clustering>
</event>
<event>
10    4  0.2857708E-005  0.1052197E+03  0.7546771E-02  0.1271582E+00
         21   -1    0    0  501  502  0.00000000000E+00  0.00000000000E+00  0.11199061784E+03  0.11199061784E+03  0.00000000000E+00 0. -1.
          4   -1    0    0  503    0 -0.00000000000E+00 -0.00000000000E+00 -0.45480903437E+03  0.45480903437E+03  0.00000000000E+00 0. -1.
         23    2    1    2    0    0  0.50266511256E+02 -0.45767616103E+02 -0.23567000961E+03  0.26122283332E+03  0.89864444471E+02 0.  0.
         24    2    1    2    0    0 -0.85425389719E+01  0.50044003871E+02 -0.16851289740E+03  0.19562236647E+03  0.85405716307E+02 0.  0.
        -11    1    4    4    0    0 -0.16915137373E+02  0.42025342985E+02 -0.17605621654E+03  0.18179120635E+03  0.00000000000E+00 0.  1.
         12    1    4    4    0    0  0.83725984015E+01  0.80186608856E+01  0.75433191434E+01  0.13831160114E+02  0.00000000000E+00 0. -1.
        -11    1    3    3    0    0  0.59227673391E+02 -0.66409255241E+02 -0.20193368553E+03  0.22067016072E+03  0.00000000000E+00 0.  1.
         11    1    3    3    0    0 -0.89611621358E+01  0.20641639138E+02 -0.33736324080E+02  0.40552672607E+02  0.00000000000E+00 0. -1.
         21    1    1    2  503  502 -0.16403300992E+02  0.12219837952E+02 -0.16596763377E+02  0.26340942990E+02  0.00000000000E+00 0.  1.
          3    1    1    2  501    0 -0.25320671291E+02 -0.16496225719E+02  0.77961253851E+02  0.83613509433E+02  0.00000000000E+00 0. -1.
<scales pt_clust_5="13000.00000" pt_clust_6="13000.00000" pt_clust_7="13000.00000" pt_clust_8="13000.00000" pt_clust_9="20.45465" pt_clust_10="30.26661"></scales>
<clustering>
<clus scale="   20.455">  2  9  1 -1</clus>
<clus scale="   30.267">  1 10  2 -1</clus>
<clus scale="   85.406">  5  6 -1 -1</clus>
<clus scale="   89.864">  7  8 -1 -1</clus>
<clus scale="  101.438">  1  5  2 -1</clus>
<clus scale="   30.267">  1  5  2 -1</clus>
</clustering>
</event>
<event>
10    4  0.2857708E-005  0.1645081E+03  0.7546771E-02  0.1186422E+00
          2   -1    0    0  503    0 -0.00000000000E+00  0.00000000000E+00  0.42897462249E+03  0.42897462249E+03  0.00000000000E+00 0. -1.
         21   -1    0    0  501  502  0.00000000000E+00 -0.00000000000E+00 -0.28912765889E+03  0.28912765889E+03  0.00000000000E+00 0.  1.
         23    2    1    2    0    0 -0.64486722432E+02  0.22092442351E+03  0.88055305183E+02  0.26511121042E+03  0.97796108553E+02 0.  0.
         24    2    1    2    0    0  0.31433243335E+02 -0.69850098284E+02 -0.11690013422E+03  0.16125715509E+03  0.80443419060E+02 0.  0.
        -13    1    4    4    0    0 -0.12366808430E+02 -0.19399542118E+02 -0.83405602355E+02  0.86520371528E+02  0.00000000000E+00 0.  1.
         14    1    4    4    0    0  0.43800051765E+02 -0.50450556167E+02 -0.33494531860E+02  0.74736783558E+02  0.00000000000E+00 0. -1.
        -13    1    3    3    0    0 -0.35099943264E+02  0.17029090741E+03  0.10629988457E+03  0.20379073733E+03  0.00000000000E+00 0. -1.
         13    1    3    3    0    0 -0.29386779168E+02  0.50633516102E+02 -0.18244579391E+02  0.61320473089E+02  0.00000000000E+00 0.  1.
         21    1    1    2  503  502 -0.29170772661E+02 -0.12155302477E+03  0.18277814926E+03  0.22143604868E+03  0.00000000000E+00 0.  1.
          1    1    1    2  501    0  0.62224251758E+02 -0.29521300459E+02 -0.14086356630E+02  0.70297867185E+02  0.00000000000E+00 0. -1.
<scales pt_clust_5="13000.00000" pt_clust_6="13000.00000" pt_clust_7="13000.00000" pt_clust_8="13000.00000" pt_clust_9="126.22496" pt_clust_10="68.87209"></scales>
<clustering>
<clus scale="   68.872">  2 10  1 -1</clus>
<clus scale="   80.443">  5  6 -1 -1</clus>
<clus scale="   97.796">  7  8 -1 -1</clus>
<clus scale="  126.225">  1  9  2 -1</clus>
<clus scale="  154.822">  2  5  1 -1</clus>
<clus scale="   68.872">  2  5  1 -1</clus>
</clustering>
</event>
<event>
10    4  0.2857708E-005  0.1516084E+03  0.7546771E-02  0.1221906E+00
         21   -1    0    0  501  502  0.00000000000E+00  0.00000000000E+00  0.40025267898E+03  0.40025267898E+03  0.00000000000E+00 0. -1.
          2   -1    0    0  503    0 -0.00000000000E+00 -0.00000000000E+00 -0.22500148071E+03  0.22500148071E+03  0.00000000000E+00 0. -1.
         24    2    1    2    0    0  0.36931519280E+02 -0.27157974160E+02  0.20135603092E+03  0.22177412863E+03  0.80858025350E+02 0.  0.
         23    2    1    2    0    0  0.32345846497E+02 -0.10215078862E+03  0.91325358020E+02  0.17074567948E+03  0.96606048681E+02 0.  0.
        -11    1    3    3    0    0  0.46984210094E+02 -0.26719288991E+02  0.62815695503E+02  0.82868860279E+02  0.00000000000E+00 0.  1.
         12    1    3    3    0    0 -0.10052690815E+02 -0.43868516933E+00  0.13854033542E+03  0.13890526835E+03  0.00000000000E+00 0. -1.
        -11    1    4    4    0    0 -0.22308862250E+02 -0.13191587582E+02  0.53946266933E+02  0.59849001945E+02  0.00000000000E+00 0.  1.
         11    1    4    4    0    0  0.54654708747E+02 -0.88959201036E+02  0.37379091088E+02  0.11089667753E+03  0.00000000000E+00 0. -1.
         21    1    1    2  503  502 -0.41049506781E+02 -0.81723970462E+01 -0.75381017463E+02  0.86221504708E+02  0.00000000000E+00 0. -1.
          1    1    1    2  501    0 -0.28227858996E+02  0.13748115982E+03 -0.42049173214E+02  0.14651284687E+03  0.00000000000E+00 0. -1.
<scales pt_clust_5="13000.00000" pt_clust_6="13000.00000" pt_clust_7="13000.00000" pt_clust_8="13000.00000" pt_clust_9="41.85511" pt_clust_10="116.84346"></scales>
<clustering>
<clus scale="   41.855">  2  9  1 -1</clus>
<clus scale="   80.858">  5  6 -1 -1</clus>
<clus scale="   92.006">  2  5  1 -1</clus>
<clus scale="   96.606">  7  8 -1 -1</clus>
<clus scale="  116.843">  1 10  2 -1</clus>
<clus scale="  116.843">  1  5  2 -1</clus>
</clustering>
</event>
<event>
10    4  0.2857708E-005  0.2067222E+03  0.7546771E-02  0.1178077E+00
          4   -1    0    0  503    0 -0.00000000000E+00  0.00000000000E+00  0.74656393671E+03  0.74656393671E+03  0.00000000000E+00 0. -1.
         21   -1    0    0  501  502  0.00000000000E+00 -0.00000000000E+00 -0.41857778151E+03  0.41857778151E+03  0.00000000000E+00 0. -1.
         24    2    1    2    0    0 -0.27921859466E+02  0.41526792911E+02 -0.14056978254E+03  0.16894052622E+03  0.79227096814E+02 0.  0.
         23    2    1    2    0    0 -0.17123147933E+03  0.58970215499E+02 -0.19058420715E+03  0.27808634791E+03  0.90619926335E+02 0.  0.
        -11    1    3    3    0    0 -0.32522350386E+02 -0.21157151454E+01 -0.14912825343E+02  0.35840924722E+02  0.00000000000E+00 0.  1.
         12    1    3    3    0    0  0.46004909199E+01  0.43642508056E+02 -0.12565695720E+03  0.13309960150E+03  0.00000000000E+00 0. -1.
        -11    1    4    4    0    0  0.19943249981E+01  0.24634916718E+02 -0.34231245786E+02  0.42221258176E+02  0.00000000000E+00 0.  1.
         11    1    4    4    0    0 -0.17322580433E+03  0.34335298781E+02 -0.15635296137E+03  0.23586508974E+03  0.00000000000E+00 0. -1.
         21    1    1    2  503  502 -0.17491159245E+02  0.22016515996E+02  0.13483011830E+03  0.13773100025E+03  0.00000000000E+00 0. -1.
          3    1    1    2  501    0  0.21664449804E+03 -0.12251352441E+03  0.52431002660E+03  0.58038384383E+03  0.00000000000E+00 0. -1.
<scales pt_clust_5="13000.00000" pt_clust_6="13000.00000" pt_clust_7="13000.00000" pt_clust_8="13000.00000" pt_clust_9="28.11881" pt_clust_10="185.80130"></scales>
<clustering>
<clus scale="   28.119">  1  9  2 -1</clus>
<clus scale="   79.227">  5  6 -1 -1</clus>
<clus scale="   90.620">  7  8 -1 -1</clus>
<clus scale="   94.057">  1  5  2 -1</clus>
<clus scale="  185.801">  2 10  1 -1</clus>
<clus scale="  185.801">  2  5  1 -1</clus>
</clustering>
</event>
<event>
10    4  0.2857708E-005  0.1150074E+03  0.7546771E-02  0.1254292E+00
         -1   -1    0    0    0  501 -0.00000000000E+00  0.00000000000E+00  0.10859003695E+04  0.10859003695E+04  0.00000000000E+00 0.  1.
         21   -1    0    0  503  502  0.00000000000E+00 -0.00000000000E+00 -0.85118857867E+02  0.85118857867E+02  0.00000000000E+00 0. -1.
         24    2    1    2    0    0 -0.62384669121E+02  0.49053698311E+02  0.80790070237E+03  0.81576109500E+03  0.80402157717E+02 0.  0.
         23    2    1    2    0    0  0.45022602056E+02 -0.29394917083E+02  0.18660746466E+03  0.21339099926E+03  0.88443636596E+02 0.  0.
        -11    1    3    3    0    0 -0.64824104134E+02  0.35131425097E+01  0.38832776053E+03  0.39371684781E+03  0.00000000000E+00 0.  1.
         12    1    3    3    0    0  0.24394350134E+01  0.45540555802E+02  0.41957294184E+03  0.42204424719E+03  0.00000000000E+00 0. -1.
        -11    1    4    4    0    0  0.34364780295E+02 -0.48233052327E+02  0.18182237414E+03  0.19122432167E+03  0.00000000000E+00 0.  1.
         11    1    4    4    0    0  0.10657821760E+02  0.18838135244E+02  0.47850905193E+01  0.22166677591E+02  0.00000000000E+00 0. -1.
         21    1    1    2  503  501 -0.41418186693E+02 -0.20373282725E+02  0.50415666170E+02  0.68354050599E+02  0.00000000000E+00 0.  1.
         -2    1    1    2    0  502  0.58780253757E+02  0.71450149678E+00 -0.44142321574E+02  0.73513082496E+02  0.00000000000E+00 0.  1.
<scales pt_clust_5="13000.00000" pt_clust_6="13000.00000" pt_clust_7="13000.00000" pt_clust_8="13000.00000" pt_clust_9="46.15774" pt_clust_10="30.70982"></scales>
<clustering>
<clus scale="   46.158">  2  9  1 -1</clus>
<clus scale="   30.710">  2 10  1 -1</clus>
<clus scale="   80.402">  5  6 -1 -1</clus>
<clus scale="   88.444">  7  8 -1 -1</clus>
<clus scale="  108.945">  1  5  2 -1</clus>
<clus scale="   46.158">  2  5  1 -1</clus>
</clustering>
</event>
<event>
10    4  0.2857708E-005  0.1926816E+03  0.7546771E-02  0.1157520E+00
          2   -1    0    0  503    0 -0.00000000000E+00  0.00000000000E+00  0.56766591094E+03  0.56766591094E+03  0.00000000000E+00 0. -1.
         21   -1    0    0  501  502  0.00000000000E+00 -0.00000000000E+00 -0.19333646674E+03  0.19333646674E+03  0.00000000000E+00 0. -1.
         23    2    1    2    0    0  0.40782846154E+01  0.18958641278E+03  0.38505131745E+03  0.43898807815E+03  0.92121525044E+02 0.  0.
         24    2    1    2    0    0  0.14394891522E+02 -0.15917582321E+03 -0.41338701194E+02  0.18246565381E+03  0.77721753766E+02 0.  0.
        -13    1    4    4    0    0  0.25694063285E+02 -0.15905363811E+03 -0.25670539369E+02  0.16314785097E+03  0.00000000000E+00 0.  1.
         14    1    4    4    0    0 -0.11299171763E+02 -0.12218509874E+00 -0.15668161825E+02  0.19317802844E+02  0.00000000000E+00 0. -1.
        -13    1    3    3    0    0 -0.39277302070E+02  0.63780932669E+02  0.17470837493E+03  0.19008874270E+03  0.00000000000E+00 0.  1.
         13    1    3    3    0    0  0.43355586685E+02  0.12580548011E+03  0.21034294251E+03  0.24889933545E+03  0.00000000000E+00 0. -1.
         21    1    1    2  503  502  0.35944932410E+01 -0.22328546529E+02  0.80922925998E+02  0.84023831880E+02  0.00000000000E+00 0.  1.
          1    1    1    2  501    0 -0.22067669378E+02 -0.80820430411E+01 -0.50306098043E+02  0.55524813839E+02  0.00000000000E+00 0. -1.
<scales pt_clust_5="13000.00000" pt_clust_6="13000.00000" pt_clust_7="13000.00000" pt_clust_8="13000.00000" pt_clust_9="22.61602" pt_clust_10="23.52454"></scales>
<clustering>
<clus scale="   22.616">  1  9  2 -1</clus>
<clus scale="   23.525">  2 10  1 -1</clus>
<clus scale="   77.722">  5  6 -1 -1</clus>
<clus scale="   92.122">  7  8 -1 -1</clus>
<clus scale="  186.227">  2  5  1 -1</clus>
<clus scale="   23.525">  2  5  1 -1</clus>
</clustering>
</event>
<event>
10    4  0.2857708E-005  0.3288200E+03  0.7546771E-02  0.1071969E+00
          2   -1    0    0  503    0 -0.00000000000E+00  0.00000000000E+00  0.10303541706E+04  0.10303541706E+04  0.00000000000E+00 0. -1.
         21   -1    0    0  501  502  0.00000000000E+00 -0.00000000000E+00 -0.24610054395E+03  0.24610054395E+03  0.00000000000E+00 0. -1.
         23    2    1    2    0    0 -0.15289018021E+03  0.26761860523E+03  0.60310898367E+03  0.68339668656E+03  0.91079415645E+02 0.  0.
         24    2    1    2    0    0  0.17217046971E+03 -0.28190937404E+03  0.14497543830E+03  0.36961712254E+03  0.80519399854E+02 0.  0.
        -11    1    4    4    0    0  0.54982789610E+02 -0.94818915642E+02  0.81886412695E+01  0.10991263696E+03  0.00000000000E+00 0.  1.
         12    1    4    4    0    0  0.11718768010E+03 -0.18709045840E+03  0.13678679703E+03  0.25970448559E+03  0.00000000000E+00 0. -1.
        -13    1    3    3    0    0 -0.10672734895E+03  0.20295782386E+03  0.35272929548E+03  0.42071434629E+03  0.00000000000E+00 0. -1.
         13    1    3    3    0    0 -0.46162831262E+02  0.64660781371E+02  0.25037968818E+03  0.26268234027E+03  0.00000000000E+00 0.  1.
         21    1    1    2  503  502 -0.28271119020E+02 -0.12738832136E+02  0.12571013738E+03  0.12947807790E+03  0.00000000000E+00 0. -1.
          1    1    1    2  501    0  0.89908295207E+01  0.27029600945E+02 -0.89540932672E+02  0.93962827578E+02  0.00000000000E+00 0. -1.
<scales pt_clust_5="13000.00000" pt_clust_6="13000.00000" pt_clust_7="13000.00000" pt_clust_8="13000.00000" pt_clust_9="30.77408" pt_clust_10="28.48569"></scales>
<clustering>
<clus scale="   28.486">  2 10  1 -1</clus>
<clus scale="   30.774">  1  9  2 -1</clus>
<clus scale="   80.519">  5  6 -1 -1</clus>
<clus scale="   91.079">  7  8 -1 -1</clus>
<clus scale="  326.053">  2  5  1 -1</clus>
<clus scale="   28.486">  2  5  1 -1</clus>
</clustering>
</event>
<event>
10    4  0.2857708E-005  0.2455562E+03  0.7546771E-02  0.1151561E+00
         21   -1    0    0  501  502  0.00000000000E+00  0.00000000000E+00  0.26921091240E+03  0.26921091240E+03  0.00000000000E+00 0. -1.
          2   -1    0    0  503    0 -0.00000000000E+00 -0.00000000000E+00 -0.13592180589E+04  0.13592180589E+04  0.00000000000E+00 0. -1.
         23    2    1    2    0    0  0.13113945171E+03  0.12656884360E+03 -0.42109474999E+03  0.46743017106E+03  0.89179304635E+02 0.  0.
         24    2    1    2    0    0  0.51495341797E+02 -0.24426089861E+02  0.42984765377E+02  0.10719530203E+03  0.79967109682E+02 0.  0.
        -11    1    4    4    0    0  0.67158203740E+02  0.23271584215E+01  0.29410751730E+02  0.73352793493E+02  0.00000000000E+00 0.  1.
         12    1    4    4    0    0 -0.15662861943E+02 -0.26753248282E+02  0.13574013647E+02  0.33842508541E+02  0.00000000000E+00 0. -1.
        -13    1    3    3    0    0  0.10701021621E+03  0.77209186005E+02 -0.36833382046E+03  0.39125726584E+03  0.00000000000E+00 0.  1.
         13    1    3    3    0    0  0.24129235508E+02  0.49359657596E+02 -0.52760929532E+02  0.76172905217E+02  0.00000000000E+00 0. -1.
         21    1    1    2  503  502 -0.19224548395E+03 -0.19146148247E+03 -0.84821156640E+03  0.89054965428E+03  0.00000000000E+00 0. -1.
          1    1    1    2  501    0  0.96106904390E+01  0.89318728728E+02  0.13631440452E+03  0.16325384392E+03  0.00000000000E+00 0. -1.
<scales pt_clust_5="13000.00000" pt_clust_6="13000.00000" pt_clust_7="13000.00000" pt_clust_8="13000.00000" pt_clust_9="228.79004" pt_clust_10="89.83430"></scales>
<clustering>
<clus scale="   79.967">  5  6 -1 -1</clus>
<clus scale="   89.179">  7  8 -1 -1</clus>
<clus scale="   89.834">  1 10  2 -1</clus>
<clus scale="  103.501">  1  5  2 -1</clus>
<clus scale="  228.790">  2  9  1 -1</clus>
<clus scale="   89.834">  1  5  2 -1</clus>
</clustering>
</event>
<event>
10    4  0.2857708E-005  0.1767889E+03  0.7546771E-02  0.1189014E+00
         -1   -1    0    0    0  501 -0.00000000000E+00  0.00000000000E+00  0.10700317377E+03  0.10700317377E+03  0.00000000000E+00 0.  1.
         21   -1    0    0  503  502  0.00000000000E+00 -0.00000000000E+00 -0.81020809982E+03  0.81020809982E+03  0.00000000000E+00 0.  1.
         23    2    1    2    0    0 -0.63287090845E+02 -0.50180938811E+02 -0.32512337703E+03  0.34618197578E+03  0.87254613506E+02 0.  0.
         24    2    1    2    0    0 -0.11904207979E+03  0.13102724357E-01  0.49728525014E+00  0.14353157953E+03  0.80187593158E+02 0.  0.
        -13    1    4    4    0    0 -0.50908078293E+02 -0.25464530888E+01  0.39946212956E+02  0.64759684900E+02  0.00000000000E+00 0.  1.
         14    1    4    4    0    0 -0.68134001498E+02  0.25595558132E+01 -0.39448927706E+02  0.78771894627E+02  0.00000000000E+00 0. -1.
        -11    1    3    3    0    0 -0.57944785390E+02  0.13428615961E+01 -0.23679205281E+03  0.24378243929E+03  0.00000000000E+00 0.  1.
         11    1    3    3    0    0 -0.53423054558E+01 -0.51523800407E+02 -0.88331324216E+02  0.10239953649E+03  0.00000000000E+00 0. -1.
         21    1    1    2  503  501  0.21667095309E+02 -0.14504744750E+01 -0.14217611622E+02  0.25955873624E+02  0.00000000000E+00 0. -1.
         -2    1    1    2    0  502  0.16066207533E+03  0.51618310561E+02 -0.36436122265E+03  0.40154184465E+03  0.00000000000E+00 0.  1.
<scales pt_clust_5="13000.00000" pt_clust_6="13000.00000" pt_clust_7="13000.00000" pt_clust_8="13000.00000" pt_clust_9="21.71559" pt_clust_10="157.55717"></scales>
<clustering>
<clus scale="   21.716">  1  9  2 -1</clus>
<clus scale="   80.188">  5  6 -1 -1</clus>
<clus scale="   87.255">  7  8 -1 -1</clus>
<clus scale="  117.777">  1  7  2 -1</clus>
<clus scale="  157.557">  2 10  1 -1</clus>
<clus scale="  157.557">  2  5  1 -1</clus>
</clustering>
</event>
<event>
10    4  0.2857708E-005  0.1238266E+03  0.7546771E-02  0.1242973E+00
         21   -1    0    0  503  502  0.00000000000E+00  0.00000000000E+00  0.61751671595E+02  0.61751671595E+02  0.00000000000E+00 0.  1.
         -1   -1    0    0    0  501 -0.00000000000E+00 -0.00000000000E+00 -0.60128958312E+03  0.60128958312E+03  0.00000000000E+00 0.  1.
         24    2    1    2    0    0  0.33929624245E+02  0.61176874344E+02 -0.22011770829E+03  0.24795394291E+03  0.90197133794E+02 0.  0.
         23    2    1    2    0    0 -0.82725386219E+02 -0.49496907428E+02 -0.10343282100E+03  0.15742405126E+03  0.69213799809E+02 0.  0.
        -13    1    3    3    0    0  0.59995275755E+02  0.60902113707E+02 -0.14363573193E+03  0.16715179943E+03  0.00000000000E+00 0.  1.
         14    1    3    3    0    0 -0.26065651510E+02  0.27476063712E+00 -0.76481976361E+02  0.80802143475E+02  0.00000000000E+00 0. -1.
        -11    1    4    4    0    0 -0.19902802355E+02  0.17578774361E+02 -0.27295290120E+02  0.38081067637E+02  0.00000000000E+00 0. -1.
         11    1    4    4    0    0 -0.62822583865E+02 -0.67075681789E+02 -0.76137530879E+02  0.11934298362E+03  0.00000000000E+00 0.  1.
         21    1    1    2  503  501  0.17962506626E+02  0.27536173366E+02 -0.20363360691E+03  0.20627054649E+03  0.00000000000E+00 0.  1.
         -2    1    1    2    0  502  0.30833255348E+02 -0.39216140281E+02 -0.12353775334E+02  0.51392714065E+02  0.00000000000E+00 0.  1.
<scales pt_clust_5="13000.00000" pt_clust_6="13000.00000" pt_clust_7="13000.00000" pt_clust_8="13000.00000" pt_clust_9="32.87693" pt_clust_10="49.10174"></scales>
<clustering>
<clus scale="   32.877">  2  9  1 -1</clus>
<clus scale="   49.102">  1 10  2 -1</clus>
<clus scale="   69.214">  7  8 -1 -1</clus>
<clus scale="   90.197">  5  6 -1 -1</clus>
<clus scale="  109.490">  1  7  2 -1</clus>
<clus scale="   49.102">  1  5  2 -1</clus>
</clustering>
</event>
<event>
10    4  0.2857708E-005  0.1289953E+03  0.7546771E-02  0.1246186E+00
          4   -1    0    0  503    0 -0.00000000000E+00  0.00000000000E+00  0.37336401942E+02  0.37336401942E+02  0.00000000000E+00 0. -1.
         21   -1    0    0  501  502  0.00000000000E+00 -0.00000000000E+00 -0.13646483130E+04  0.13646483130E+04  0.00000000000E+00 0. -1.
         23    2    1    2    0    0 -0.13739579208E+01  0.19052321234E+02 -0.11352380852E+03  0.14653765982E+03  0.90668362399E+02 0.  0.
         24    2    1    2    0    0  0.65894395574E+02 -0.70978976789E+02 -0.86601026548E+03  0.87496900908E+03  0.78847323472E+02 0.  0.
        -13    1    4    4    0    0  0.10830774691E+02 -0.42447588852E+02 -0.14967392835E+03  0.15595316062E+03  0.00000000000E+00 0.  1.
         14    1    4    4    0    0  0.55063620883E+02 -0.28531387937E+02 -0.71633633713E+03  0.71901584846E+03  0.00000000000E+00 0. -1.
        -11    1    3    3    0    0 -0.21799447261E+02 -0.23274612509E+02 -0.86802278747E+02  0.92474640221E+02  0.00000000000E+00 0. -1.
         11    1    3    3    0    0  0.20425489340E+02  0.42326933743E+02 -0.26721529773E+02  0.54063019600E+02  0.00000000000E+00 0.  1.
         21    1    1    2  503  502  0.10863122226E+02 -0.34629904885E+02 -0.53901789258E+02  0.64981848404E+02  0.00000000000E+00 0.  1.
          3    1    1    2  501    0 -0.75383559879E+02  0.86556560440E+02 -0.29387604784E+03  0.31549619768E+03  0.00000000000E+00 0. -1.
<scales pt_clust_5="13000.00000" pt_clust_6="13000.00000" pt_clust_7="13000.00000" pt_clust_8="13000.00000" pt_clust_9="36.29377" pt_clust_10="102.09260"></scales>
<clustering>
<clus scale="   36.294">  1  9  2 -1</clus>
<clus scale="   78.847">  5  6 -1 -1</clus>
<clus scale="   90.668">  7  8 -1 -1</clus>
<clus scale="   90.775">  1  7  2 -1</clus>
<clus scale="  102.093">  2 10  1 -1</clus>
<clus scale="  102.093">  2  5  1 -1</clus>
</clustering>
</event>
<event>
10    4  0.2857708E-005  0.3372257E+03  0.7546771E-02  0.1068289E+00
          2   -1    0    0  503    0 -0.00000000000E+00  0.00000000000E+00  0.20920624064E+04  0.20920624064E+04  0.00000000000E+00 0. -1.
         21   -1    0    0  501  502  0.00000000000E+00 -0.00000000000E+00 -0.14983391205E+03  0.14983391205E+03  0.00000000000E+00 0.  1.
         24    2    1    2    0    0 -0.11573513464E+03  0.25917215483E+03  0.59942985732E+03  0.66802532979E+03  0.79855245034E+02 0.  0.
         23    2    1    2    0    0  0.17184970578E+02 -0.44376209086E+03  0.39882277494E+03  0.60378103970E+03  0.90949555247E+02 0.  0.
        -13    1    3    3    0    0 -0.97496378591E+02  0.12585822283E+03  0.35338898489E+03  0.38759464745E+03  0.00000000000E+00 0.  1.
         14    1    3    3    0    0 -0.18238756050E+02  0.13331393201E+03  0.24604087243E+03  0.28043068234E+03  0.00000000000E+00 0. -1.
        -13    1    4    4    0    0 -0.26193225477E+02 -0.31771725429E+03  0.30096019478E+03  0.43841461834E+03  0.00000000000E+00 0.  1.
         13    1    4    4    0    0  0.43378196055E+02 -0.12604483657E+03  0.97862580158E+02  0.16536642136E+03  0.00000000000E+00 0. -1.
         21    1    1    2  503  502 -0.12832679784E+02  0.19166751109E+02  0.13071120380E+03  0.13273078324E+03  0.00000000000E+00 0.  1.
          1    1    1    2  501    0  0.11138284385E+03  0.16542318491E+03  0.81326465826E+03  0.83735916570E+03  0.00000000000E+00 0. -1.
<scales pt_clust_5="13000.00000" pt_clust_6="13000.00000" pt_clust_7="13000.00000" pt_clust_8="13000.00000" pt_clust_9="23.06604" pt_clust_10="203.30147"></scales>
<clustering>
<clus scale="   23.066">  1  9  2 -1</clus>
<clus scale="   79.855">  5  6 -1 -1</clus>
<clus scale="   90.950">  7  8 -1 -1</clus>
<clus scale="  203.301">  2 10  1 -1</clus>
<clus scale="  334.404">  1  5  2 -1</clus>
<clus scale="  203.301">  2  5  1 -1</clus>
</clustering>
</event>
<event>
10    4  0.2857708E-005  0.9607703E+02  0.7546771E-02  0.1298946E+00
         21   -1    0    0  503  502  0.00000000000E+00  0.00000000000E+00  0.19339384811E+03  0.19339384811E+03  0.00000000000E+00 0. -1.
         -1   -1    0    0    0  501 -0.00000000000E+00 -0.00000000000E+00 -0.13824273700E+03  0.13824273700E+03  0.00000000000E+00 0.  1.
         24    2    1    2    0    0 -0.37949962829E+02  0.29839308343E+02 -0.77931103752E+02  0.11805554402E+03  0.74385956609E+02 0.  0.
         23    2    1    2    0    0  0.21803155892E+02  0.11640901549E+02  0.54122165568E+02  0.10947455387E+03  0.91894401051E+02 0.  0.
        -13    1    3    3    0    0 -0.16926532041E+02  0.46701481883E+02 -0.76313837965E+02  0.91056783173E+02  0.00000000000E+00 0.  1.
         14    1    3    3    0    0 -0.21023430788E+02 -0.16862173540E+02 -0.16172657876E+01  0.26998760846E+02  0.00000000000E+00 0. -1.
        -13    1    4    4    0    0  0.53271931158E+02 -0.58851825491E+01  0.49861818385E+02  0.73203380766E+02  0.00000000000E+00 0. -1.
         13    1    4    4    0    0 -0.31468775266E+02  0.17526084098E+02  0.42603471836E+01  0.36271173109E+02  0.00000000000E+00 0.  1.
         21    1    1    2  503  501  0.16882371724E+02 -0.14289041794E+02  0.16826973977E+01  0.22181583824E+02  0.00000000000E+00 0. -1.
         -2    1    1    2    0  502 -0.73556478695E+00 -0.27191168098E+02  0.77277351901E+02  0.81924903387E+02  0.00000000000E+00 0.  1.
<scales pt_clust_5="13000.00000" pt_clust_6="13000.00000" pt_clust_7="13000.00000" pt_clust_8="13000.00000" pt_clust_9="22.11767" pt_clust_10="27.45394"></scales>
<clustering>
<clus scale="   22.118">  2  9  1 -1</clus>
<clus scale="   27.454">  1 10  2 -1</clus>
<clus scale="   74.386">  5  6 -1 -1</clus>
<clus scale="   79.495">  2  5  1 -1</clus>
<clus scale="   91.894">  7  8 -1 -1</clus>
<clus scale="   27.454">  1  5  2 -1</clus>
</clustering>
</event>
<event>
10    4  0.2857708E-005  0.1524398E+03  0.7546771E-02  0.1199097E+00
         21   -1    0    0  501  502  0.00000000000E+00  0.00000000000E+00  0.68521888462E+02  0.68521888462E+02  0.00000000000E+00 0.  1.
          2   -1    0    0  503    0 -0.00000000000E+00 -0.00000000000E+00 -0.18055965553E+04  0.18055965553E+04  0.00000000000E+00 0. -1.
         23    2    1    2    0    0 -0.79751871245E+02  0.67715427004E+02 -0.51450090357E+03  0.53299104731E+03  0.91774379443E+02 0.  0.
         24    2    1    2    0    0  0.84680047589E+01 -0.10272084629E+03 -0.42831983631E+02  0.14978477013E+03  0.99888033181E+02 0.  0.
        -11    1    4    4    0    0  0.25022567632E+02 -0.76915029965E+02  0.16912964569E+02  0.82632312662E+02  0.00000000000E+00 0.  1.
         12    1    4    4    0    0 -0.16554562873E+02 -0.25805816327E+02 -0.59744948200E+02  0.67152457465E+02  0.00000000000E+00 0. -1.
        -11    1    3    3    0    0  0.17835867591E+02  0.15754390568E+02 -0.48094976825E+02  0.53660467672E+02  0.00000000000E+00 0.  1.
         11    1    3    3    0    0 -0.97587738836E+02  0.51961036435E+02 -0.46640592674E+03  0.47933057964E+03  0.00000000000E+00 0. -1.
         21    1    1    2  503  502 -0.39956603470E+02  0.37194598202E+02 -0.38841155262E+03  0.39222889045E+03  0.00000000000E+00 0.  1.
          1    1    1    2  501    0  0.11124046996E+03 -0.21891789134E+01 -0.79133022698E+03  0.79911373583E+03  0.00000000000E+00 0. -1.
<scales pt_clust_5="13000.00000" pt_clust_6="13000.00000" pt_clust_7="13000.00000" pt_clust_8="13000.00000" pt_clust_9="54.58909" pt_clust_10="90.73940"></scales>
<clustering>
<clus scale="   54.589">  2  9  1 -1</clus>
<clus scale="   90.739">  1 10  2 -1</clus>
<clus scale="   91.774">  7  8 -1 -1</clus>
<clus scale="   99.888">  5  6 -1 -1</clus>
<clus scale="  147.251">  2  7  1 -1</clus>
<clus scale="   90.739">  1  5  2 -1</clus>
</clustering>
</event>
<event>
10    4  0.2857708E-005  0.1060615E+03  0.7546771E-02  0.1274003E+00
         21   -1    0    0  501  502  0.00000000000E+00  0.00000000000E+00  0.61422671683E+02  0.61422671683E+02  0.00000000000E+00 0.  1.
          2   -1    0    0  503    0 -0.00000000000E+00 -0.00000000000E+00 -0.78959489693E+03  0.78959489693E+03  0.00000000000E+00 0. -1.
         24    2    1    2    0    0 -0.61611675185E+02  0.34097026362E+02 -0.50464479325E+03  0.51540326701E+03  0.77560006193E+02 0.  0.
         23    2    1    2    0    0  0.10286804370E+02 -0.62179003779E+02 -0.11327914251E+03  0.15853309483E+03  0.91260786611E+02 0.  0.
        -13    1    3    3    0    0  0.16374537065E+02  0.18457058170E+02 -0.98496288111E+02  0.10153968304E+03  0.00000000000E+00 0.  1.
         14    1    3    3    0    0 -0.77986212250E+02  0.15639968192E+02 -0.40614850514E+03  0.41386358397E+03  0.00000000000E+00 0. -1.
        -13    1    4    4    0    0  0.34887508663E+02 -0.28138009727E+02 -0.84592256832E+01  0.45611888267E+02  0.00000000000E+00 0.  1.
         13    1    4    4    0    0 -0.24600704293E+02 -0.34040994052E+02 -0.10481991682E+03  0.11292120656E+03  0.00000000000E+00 0. -1.
         21    1    1    2  503  502  0.21547344998E+02 -0.38581367542E+01 -0.12806228220E+03  0.12991967295E+03  0.00000000000E+00 0.  1.
          1    1    1    2  501    0  0.29777525816E+02  0.31940114171E+02  0.17813992714E+02  0.47161533832E+02  0.00000000000E+00 0. -1.
<scales pt_clust_5="13000.00000" pt_clust_6="13000.00000" pt_clust_7="13000.00000" pt_clust_8="13000.00000" pt_clust_9="21.89003" pt_clust_10="43.93334"></scales>
<clustering>
<clus scale="   21.890">  2  9  1 -1</clus>
<clus scale="   43.933">  1 10  2 -1</clus>
<clus scale="   77.560">  5  6 -1 -1</clus>
<clus scale="   91.261">  7  8 -1 -1</clus>
<clus scale="   94.531">  2  5  1 -1</clus>
<clus scale="   43.933">  1  5  2 -1</clus>
</clustering>
</event>
<event>
10    4  0.2857708E-005  0.1866371E+03  0.7546771E-02  0.1183516E+00
         21   -1    0    0  501  502  0.00000000000E+00  0.00000000000E+00  0.24894001782E+03  0.24894001782E+03  0.00000000000E+00 0.  1.
          2   -1    0    0  503    0 -0.00000000000E+00 -0.00000000000E+00 -0.11165054433E+04  0.11165054433E+04  0.00000000000E+00 0. -1.
         23    2    1    2    0    0 -0.13666744210E+03 -0.70217430289E+02 -0.23059510429E+03  0.29281893071E+03  0.94659108457E+02 0.  0.
         24    2    1    2    0    0 -0.42417090641E+02  0.87142227497E+02  0.13381555488E+03  0.18323791262E+03  0.79224696278E+02 0.  0.
        -13    1    4    4    0    0 -0.58670239970E+02  0.54252508061E+02  0.11971538347E+03  0.14393507123E+03  0.00000000000E+00 0.  1.
         14    1    4    4    0    0  0.16253149329E+02  0.32889719435E+02  0.14100171411E+02  0.39302841392E+02  0.00000000000E+00 0. -1.
        -13    1    3    3    0    0 -0.56608792396E+02 -0.32978549045E+02 -0.26921629346E+02  0.70830178598E+02  0.00000000000E+00 0.  1.
         13    1    3    3    0    0 -0.80058649700E+02 -0.37238881244E+02 -0.20367347494E+03  0.22198875211E+03  0.00000000000E+00 0. -1.
         21    1    1    2  503  502  0.16652638583E+03 -0.47223403618E+00 -0.81961119465E+03  0.83635744187E+03  0.00000000000E+00 0. -1.
          1    1    1    2  501    0  0.12558146912E+02 -0.16452563172E+02  0.48825318561E+02  0.53031175938E+02  0.00000000000E+00 0. -1.
<scales pt_clust_5="13000.00000" pt_clust_6="13000.00000" pt_clust_7="13000.00000" pt_clust_8="13000.00000" pt_clust_9="160.85108" pt_clust_10="20.69768"></scales>
<clustering>
<clus scale="   20.698">  1 10  2 -1</clus>
<clus scale="   79.225">  5  6 -1 -1</clus>
<clus scale="   94.659">  7  8 -1 -1</clus>
<clus scale="  113.117">  1  5  2 -1</clus>
<clus scale="  160.851">  2  9  1 -1</clus>
<clus scale="   20.698">  1  5  2 -1</clus>
</clustering>
</event>
<event>
10    4  0.2857708E-005  0.1144260E+03  0.7546771E-02  0.1256146E+00
          2   -1    0    0  503    0 -0.00000000000E+00  0.00000000000E+00  0.91617393928E+02  0.91617393928E+02  0.00000000000E+00 0. -1.
         21   -1    0    0  501  502  0.00000000000E+00 -0.00000000000E+00 -0.30495028258E+03  0.30495028258E+03  0.00000000000E+00 0.  1.
         24    2    1    2    0    0 -0.63741040109E+01  0.67836032076E+02 -0.78542814634E+02  0.13147451406E+03  0.80462523363E+02 0.  0.
         23    2    1    2    0    0  0.52182657972E+02 -0.56337760731E+02 -0.15991661430E+03  0.19917041908E+03  0.90545895716E+02 0.  0.
        -13    1    3    3    0    0  0.33678337833E+02  0.51867745709E+02 -0.40084155064E+02  0.73696899333E+02  0.00000000000E+00 0.  1.
         14    1    3    3    0    0 -0.40052441844E+02  0.15968286367E+02 -0.38458659570E+02  0.57777614723E+02  0.00000000000E+00 0. -1.
        -13    1    4    4    0    0  0.13935046535E+02 -0.23430325941E+02 -0.14356634438E+03  0.14613165616E+03  0.00000000000E+00 0.  1.
         13    1    4    4    0    0  0.38247611437E+02 -0.32907434790E+02 -0.16350269919E+02  0.53038762914E+02  0.00000000000E+00 0. -1.
         21    1    1    2  503  502 -0.20205727623E+02  0.95577338541E+01  0.23939518698E+02  0.32752439004E+02  0.00000000000E+00 0. -1.
          1    1    1    2  501    0 -0.25602826338E+02 -0.21056005199E+02  0.11870215844E+01  0.33170304365E+02  0.00000000000E+00 0. -1.
<scales pt_clust_5="13000.00000" pt_clust_6="13000.00000" pt_clust_7="13000.00000" pt_clust_8="13000.00000" pt_clust_9="22.35222" pt_clust_10="36.15696"></scales>
<clustering>
<clus scale="   22.352">  1  9  2 -1</clus>
<clus scale="   36.157">  2 10  1 -1</clus>
<clus scale="   80.463">  5  6 -1 -1</clus>
<clus scale="   90.546">  7  8 -1 -1</clus>
<clus scale="  106.625">  1  5  2 -1</clus>
<clus scale="   36.157">  2  5  1 -1</clus>
</clustering>
</event>
<event>
10    4  0.2857708E-005  0.1242065E+03  0.7546771E-02  0.1238480E+00
         21   -1    0    0  501  502  0.00000000000E+00  0.00000000000E+00  0.10168116078E+03  0.10168116078E+03  0.00000000000E+00 0. -1.
          2   -1    0    0  503    0 -0.00000000000E+00 -0.00000000000E+00 -0.58239524217E+03  0.58239524217E+03  0.00000000000E+00 0. -1.
         23    2    1    2    0    0  0.54020607566E+02 -0.78761552334E+02 -0.43277847238E+03  0.45162676181E+03  0.86878752647E+02 0.  0.
         24    2    1    2    0    0 -0.47973047883E+02  0.18540196358E+02 -0.35101821330E+02  0.10060211771E+03  0.79015796040E+02 0.  0.
        -11    1    4    4    0    0  0.21443229997E+00  0.30002670731E+02 -0.40907558749E+02  0.50731002306E+02  0.00000000000E+00 0.  1.
         12    1    4    4    0    0 -0.48187480183E+02 -0.11462474373E+02  0.58057374194E+01  0.49871115409E+02  0.00000000000E+00 0. -1.
        -11    1    3    3    0    0 -0.97466544883E+01 -0.35999050691E+02 -0.57225459475E+02  0.68305798704E+02  0.00000000000E+00 0.  1.
         11    1    3    3    0    0  0.63767262055E+02 -0.42762501643E+02 -0.37555301291E+03  0.38332096311E+03  0.00000000000E+00 0. -1.
         21    1    1    2  503  502  0.21146314095E+02  0.23294040962E+01 -0.52457836561E+02  0.56607573168E+02  0.00000000000E+00 0.  1.
          1    1    1    2  501    0 -0.27193873778E+02  0.57891951879E+02  0.39624048890E+02  0.75239950252E+02  0.00000000000E+00 0. -1.
<scales pt_clust_5="13000.00000" pt_clust_6="13000.00000" pt_clust_7="13000.00000" pt_clust_8="13000.00000" pt_clust_9="21.27423" pt_clust_10="63.73225"></scales>
<clustering>
<clus scale="   21.274">  2  9  1 -1</clus>
<clus scale="   63.732">  1 10  2 -1</clus>
<clus scale="   79.016">  5  6 -1 -1</clus>
<clus scale="   86.879">  7  8 -1 -1</clus>
<clus scale="  118.840">  1  5  2 -1</clus>
<clus scale="   63.732">  1  5  2 -1</clus>
</clustering>
</event>
<event>
10    4  0.2857708E-005  0.1500891E+03  0.7546771E-02  0.1202294E+00
          2   -1    0    0  503    0 -0.00000000000E+00  0.00000000000E+00  0.47591087554E+03  0.47591087554E+03  0.00000000000E+00 0. -1.
         21   -1    0    0  501  502  0.00000000000E+00 -0.00000000000E+00 -0.24096662781E+03  0.24096662781E+03  0.00000000000E+00 0. -1.
         24    2    1    2    0    0 -0.81320423084E+02  0.76249202958E+01  0.11080485575E+03  0.15955062958E+03  0.80669304718E+02 0.  0.
         23    2    1    2    0    0  0.12754317608E+03  0.42138538368E+02 -0.17272752306E+03  0.23705199973E+03  0.91191749481E+02 0.  0.
        -13    1    3    3    0    0 -0.57114997089E+02 -0.25828384758E+02  0.97975090405E+02  0.11631142116E+03  0.00000000000E+00 0.  1.
         14    1    3    3    0    0 -0.24205425995E+02  0.33453305054E+02  0.12829765340E+02  0.43239208426E+02  0.00000000000E+00 0. -1.
        -11    1    4    4    0    0  0.26859835414E+02 -0.13168968443E+02 -0.91754295835E+02  0.96507633338E+02  0.00000000000E+00 0. -1.
         11    1    4    4    0    0  0.10068334067E+03  0.55307506810E+02 -0.80973227223E+02  0.14054436639E+03  0.00000000000E+00 0.  1.
         21    1    1    2  503  502 -0.60116325768E+02 -0.12858650363E+02  0.25680721477E+03  0.26406299072E+03  0.00000000000E+00 0. -1.
          1    1    1    2  501    0  0.13893572772E+02 -0.36904808300E+02  0.40059700273E+02  0.56211883317E+02  0.00000000000E+00 0. -1.
<scales pt_clust_5="13000.00000" pt_clust_6="13000.00000" pt_clust_7="13000.00000" pt_clust_8="13000.00000" pt_clust_9="61.38776" pt_clust_10="39.43346"></scales>
<clustering>
<clus scale="   39.433">  2 10  1 -1</clus>
<clus scale="   61.388">  1  9  2 -1</clus>
<clus scale="   80.669">  5  6 -1 -1</clus>
<clus scale="   91.192">  7  8 -1 -1</clus>
<clus scale="  143.939">  1  5  2 -1</clus>
<clus scale="   39.433">  2  5  1 -1</clus>
</clustering>
</event>
<event>
10    4  0.2857708E-005  0.1117315E+03  0.7546771E-02  0.1261915E+00
         21   -1    0    0  503  502  0.00000000000E+00  0.00000000000E+00  0.90414985245E+02  0.90414985245E+02  0.00000000000E+00 0.  1.
         -1   -1    0    0    0  501 -0.00000000000E+00 -0.00000000000E+00 -0.52914721267E+03  0.52914721267E+03  0.00000000000E+00 0.  1.
         24    2    1    2    0    0 -0.18548788905E+02 -0.57053037364E+02 -0.28466686700E+03  0.30184547000E+03  0.80475809731E+02 0.  0.
         23    2    1    2    0    0  0.52168526409E+02 -0.18447412973E+02  0.14113071240E+02  0.10849040414E+03  0.92244928413E+02 0.  0.
        -13    1    3    3    0    0 -0.12957571244E+02 -0.75437353370E+02 -0.18273329207E+03  0.19811650352E+03  0.00000000000E+00 0.  1.
         14    1    3    3    0    0 -0.55912176612E+01  0.18384316006E+02 -0.10193357493E+03  0.10372896648E+03  0.00000000000E+00 0. -1.
        -11    1    4    4    0    0  0.35937407177E+02  0.26139543098E+02  0.35078951098E+02  0.56615419791E+02  0.00000000000E+00 0.  1.
         11    1    4    4    0    0  0.16231119232E+02 -0.44586956071E+02 -0.20965879858E+02  0.51874984351E+02  0.00000000000E+00 0. -1.
         21    1    1    2  503  501 -0.14321126230E+02 -0.20307622243E+02 -0.50292318714E+02  0.56096448188E+02  0.00000000000E+00 0. -1.
         -2    1    1    2    0  502 -0.19298611274E+02  0.95808072581E+02 -0.11788611295E+03  0.15312987558E+03  0.00000000000E+00 0.  1.
<scales pt_clust_5="13000.00000" pt_clust_6="13000.00000" pt_clust_7="13000.00000" pt_clust_8="13000.00000" pt_clust_9="24.84943" pt_clust_10="93.01173"></scales>
<clustering>
<clus scale="   24.849">  2  9  1 -1</clus>
<clus scale="   80.476">  5  6 -1 -1</clus>
<clus scale="   92.245">  7  8 -1 -1</clus>
<clus scale="   93.012">  1 10  2 -1</clus>
<clus scale="  102.231">  2  5  1 -1</clus>
<clus scale="   93.012">  1  5  2 -1</clus>
</clustering>
</event>
<event>
10    4  0.2857708E-005  0.9470220E+02  0.7546771E-02  0.1297672E+00
         21   -1    0    0  501  502  0.00000000000E+00  0.00000000000E+00  0.19548635544E+03  0.19548635544E+03  0.00000000000E+00 0. -1.
          2   -1    0    0  503    0 -0.00000000000E+00 -0.00000000000E+00 -0.31112867440E+03  0.31112867440E+03  0.00000000000E+00 0. -1.
         23    2    1    2    0    0  0.97560902107E+01 -0.49012897689E+02 -0.19442386644E+03  0.22012362373E+03  0.90312371505E+02 0.  0.
         24    2    1    2    0    0 -0.39226444122E+01  0.16535501647E+01  0.76035404531E+02  0.11049753082E+03  0.80063725922E+02 0.  0.
        -11    1    4    4    0    0  0.10074379647E+02  0.38576574923E+02  0.46076188857E+02  0.60931604587E+02  0.00000000000E+00 0.  1.
         12    1    4    4    0    0 -0.13997024059E+02 -0.36923024758E+02  0.29959215675E+02  0.49565926236E+02  0.00000000000E+00 0. -1.
        -11    1    3    3    0    0  0.40769210844E+02 -0.57695136955E+02 -0.14187716875E+03  0.15849286544E+03  0.00000000000E+00 0. -1.
         11    1    3    3    0    0 -0.31013120633E+02  0.86822392662E+01 -0.52546697690E+02  0.61630758296E+02  0.00000000000E+00 0.  1.
         21    1    1    2  503  502 -0.66310504357E-01  0.20523232523E+02 -0.83240047106E+02  0.85732799514E+02  0.00000000000E+00 0.  1.
          1    1    1    2  501    0 -0.57671352941E+01  0.26836115001E+02  0.85986190054E+02  0.90261075763E+02  0.00000000000E+00 0. -1.
<scales pt_clust_5="13000.00000" pt_clust_6="13000.00000" pt_clust_7="13000.00000" pt_clust_8="13000.00000" pt_clust_9="20.52334" pt_clust_10="27.63820"></scales>
<clustering>
<clus scale="   20.523">  2  9  1 -1</clus>
<clus scale="   27.638">  1 10  2 -1</clus>
<clus scale="   80.064">  5  6 -1 -1</clus>
<clus scale="   84.985">  1  5  2 -1</clus>
<clus scale="   90.312">  7  8 -1 -1</clus>
<clus scale="   27.638">  1  5  2 -1</clus>
</clustering>
</event>
<event>
10    4  0.2857708E-005  0.1593061E+03  0.7546771E-02  0.1213368E+00
         21   -1    0    0  501  502  0.00000000000E+00  0.00000000000E+00  0.10084081688E+03  0.10084081688E+03  0.00000000000E+00 0. -1.
          2   -1    0    0  503    0 -0.00000000000E+00 -0.00000000000E+00 -0.58680121894E+03  0.58680121894E+03  0.00000000000E+00 0. -1.
         24    2    1    2    0    0  0.59969151871E+02  0.22060785644E+02 -0.12255850792E+03  0.16035699297E+03  0.81306825623E+02 0.  0.
         23    2    1    2    0    0  0.10020317632E+03 -0.58002518950E+02 -0.12441346713E+03  0.19303288001E+03  0.91531487536E+02 0.  0.
        -11    1    3    3    0    0  0.11944926710E+02 -0.29438731799E+02 -0.50057792173E+02  0.59288302061E+02  0.00000000000E+00 0.  1.
         12    1    3    3    0    0  0.48024225161E+02  0.51499517443E+02 -0.72500715747E+02  0.10106869091E+03  0.00000000000E+00 0. -1.
        -11    1    4    4    0    0  0.16828232979E+02 -0.27493585494E+02  0.83692811468E+01  0.33303626461E+02  0.00000000000E+00 0.  1.
         11    1    4    4    0    0  0.83374943340E+02 -0.30508933456E+02 -0.13278274828E+03  0.15972925354E+03  0.00000000000E+00 0. -1.
         21    1    1    2  503  502 -0.35968739371E+02 -0.30047056288E+02 -0.17236872536E+03  0.17862685488E+03  0.00000000000E+00 0. -1.
          1    1    1    2  501    0 -0.12420358882E+03  0.65988789595E+02 -0.66619701658E+02  0.15562530796E+03  0.00000000000E+00 0. -1.
<scales pt_clust_5="13000.00000" pt_clust_6="13000.00000" pt_clust_7="13000.00000" pt_clust_8="13000.00000" pt_clust_9="46.86764" pt_clust_10="130.38561"></scales>
<clustering>
<clus scale="   46.868">  2  9  1 -1</clus>
<clus scale="   81.307">  5  6 -1 -1</clus>
<clus scale="   91.531">  7  8 -1 -1</clus>
<clus scale="   94.942">  2  5  1 -1</clus>
<clus scale="  130.386">  1 10  2 -1</clus>
<clus scale="  130.386">  1  5  2 -1</clus>
</clustering>
</event>
<event>
10    4  0.2857708E-005  0.9445648E+02  0.7546771E-02  0.1298148E+00
         21   -1    0    0  503  502  0.00000000000E+00  0.00000000000E+00  0.44720305011E+02  0.44720305011E+02  0.00000000000E+00 0.  1.
         -3   -1    0    0    0  501 -0.00000000000E+00 -0.00000000000E+00 -0.60901126532E+03  0.60901126532E+03  0.00000000000E+00 0.  1.
         24    2    1    2    0    0 -0.12765158869E+02  0.11862637635E+02 -0.38899800303E+03  0.39808225984E+03  0.82742780857E+02 0.  0.
         23    2    1    2    0    0  0.10861002522E+02  0.35376756627E+02 -0.85341159869E+02  0.13119855427E+03  0.92522812262E+02 0.  0.
        -11    1    3    3    0    0 -0.39232364291E+02 -0.16723013715E+02 -0.15059961983E+03  0.15652182943E+03  0.00000000000E+00 0.  1.
         12    1    3    3    0    0  0.26467205422E+02  0.28585651350E+02 -0.23839838320E+03  0.24156043040E+03  0.00000000000E+00 0. -1.
        -11    1    4    4    0    0 -0.36483027454E+02 -0.38485818747E+01 -0.21295916796E+02  0.42418615569E+02  0.00000000000E+00 0.  1.
         11    1    4    4    0    0  0.47344029976E+02  0.39225338502E+02 -0.64045243073E+02  0.88779938698E+02  0.00000000000E+00 0. -1.
         21    1    1    2  503  501 -0.33875263520E+01 -0.25554615077E+02 -0.97529294996E+02  0.10087852630E+03  0.00000000000E+00 0. -1.
         -4    1    1    2    0  502  0.52916826990E+01 -0.21684779185E+02  0.75774975820E+01  0.23572229926E+02  0.00000000000E+00 0.  1.
<scales pt_clust_5="13000.00000" pt_clust_6="13000.00000" pt_clust_7="13000.00000" pt_clust_8="13000.00000" pt_clust_9="26.97736" pt_clust_10="22.32110"></scales>
<clustering>
<clus scale="   22.321">  1 10  2 -1</clus>
<clus scale="   26.977">  2  9  1 -1</clus>
<clus scale="   82.743">  5  6 -1 -1</clus>
<clus scale="   84.899">  2  5  1 -1</clus>
<clus scale="   92.523">  7  8 -1 -1</clus>
<clus scale="   22.321">  1  5  2 -1</clus>
</clustering>
</event>
<event>
10    4  0.2857708E-005  0.1451974E+03  0.7546771E-02  0.1229742E+00
         21   -1    0    0  503  502  0.00000000000E+00  0.00000000000E+00  0.32036545701E+03  0.32036545701E+03  0.00000000000E+00 0. -1.
          2   -1    0    0  502    0 -0.00000000000E+00 -0.00000000000E+00 -0.10051829948E+03  0.10051829948E+03  0.00000000000E+00 0. -1.
         24    2    1    2    0    0  0.22758065334E+02  0.27869462239E+02  0.82028932345E+02  0.12103007832E+03  0.81393474263E+02 0.  0.
         23    2    1    2    0    0  0.88595702439E+02 -0.65632618156E+02  0.70028561208E+02  0.15933230858E+03  0.91246622497E+02 0.  0.
        -11    1    3    3    0    0  0.52274593759E+02  0.26913247160E+02  0.47433385385E+02  0.75543908255E+02  0.00000000000E+00 0.  1.
         12    1    3    3    0    0 -0.29516528424E+02  0.95621507903E+00  0.34595546960E+02  0.45486170062E+02  0.00000000000E+00 0. -1.
        -13    1    4    4    0    0  0.72349166757E+02 -0.80519939759E+02  0.27896955684E+02  0.11178596855E+03  0.00000000000E+00 0. -1.
         13    1    4    4    0    0  0.16246535683E+02  0.14887321603E+02  0.42131605524E+02  0.47546340030E+02  0.00000000000E+00 0.  1.
         21    1    1    2  503  501 -0.53135703504E+02  0.17710907670E+02  0.11676156272E+02  0.57213738408E+02  0.00000000000E+00 0. -1.
          1    1    1    2  501    0 -0.58218064269E+02  0.20052248247E+02  0.56113507699E+02  0.83307631183E+02  0.00000000000E+00 0. -1.
<scales pt_clust_5="13000.00000" pt_clust_6="13000.00000" pt_clust_7="13000.00000" pt_clust_8="13000.00000" pt_clust_9="34.71800" pt_clust_10="118.66527"></scales>
<clustering>
<clus scale="   34.718">  9 10 -1 -1</clus>
<clus scale="   81.393">  5  6 -1 -1</clus>
<clus scale="   88.992">  2  5  1 -1</clus>
<clus scale="   91.247">  7  8 -1 -1</clus>
<clus scale="  118.665">  1  9  2 -1</clus>
<clus scale="  118.665">  1  5  2 -1</clus>
</clustering>
</event>
<event>
10    4  0.2857708E-005  0.9546039E+02  0.7546771E-02  0.1294033E+00
         21   -1    0    0  501  502  0.00000000000E+00  0.00000000000E+00  0.34965401288E+03  0.34965401288E+03  0.00000000000E+00 0. -1.
          2   -1    0    0  503    0 -0.00000000000E+00 -0.00000000000E+00 -0.35191717185E+03  0.35191717185E+03  0.00000000000E+00 0. -1.
         23    2    1    2    0    0 -0.35988202588E+02  0.15161548601E+01 -0.77385992942E+02  0.12457759827E+03  0.90738837525E+02 0.  0.
         24    2    1    2    0    0 -0.58146614260E+01 -0.35495354414E+02  0.30931063492E+03  0.32244103416E+03  0.83674495295E+02 0.  0.
        -13    1    4    4    0    0  0.26485241055E+02 -0.43263678220E+02  0.12068839625E+03  0.13091563251E+03  0.00000000000E+00 0.  1.
         14    1    4    4    0    0 -0.32299902481E+02  0.77683238052E+01  0.18862223867E+03  0.19152540165E+03  0.00000000000E+00 0. -1.
        -11    1    3    3    0    0 -0.53291010931E+01  0.32624292641E+02  0.28961405615E+01  0.33183300302E+02  0.00000000000E+00 0.  1.
         11    1    3    3    0    0 -0.30659101495E+02 -0.31108137781E+02 -0.80282133504E+02  0.91394297965E+02  0.00000000000E+00 0. -1.
         21    1    1    2  503  502  0.11778684198E+02 -0.22714596621E+02 -0.25094225692E+02  0.35838672746E+02  0.00000000000E+00 0.  1.
          1    1    1    2  501    0  0.30024179816E+02  0.56693796175E+02 -0.20909357526E+03  0.21871387956E+03  0.00000000000E+00 0. -1.
<scales pt_clust_5="13000.00000" pt_clust_6="13000.00000" pt_clust_7="13000.00000" pt_clust_8="13000.00000" pt_clust_9="25.58692" pt_clust_10="56.23465"></scales>
<clustering>
<clus scale="   25.587">  2  9  1 -1</clus>
<clus scale="   56.235">  1 10  2 -1</clus>
<clus scale="   83.674">  5  6 -1 -1</clus>
<clus scale="   88.773">  1  5  2 -1</clus>
<clus scale="   90.739">  7  8 -1 -1</clus>
<clus scale="   56.235">  1  5  2 -1</clus>
</clustering>
</event>
<event>
10    4  0.2857708E-005  0.9609216E+02  0.7546771E-02  0.1291594E+00
          2   -1    0    0  502    0 -0.00000000000E+00  0.00000000000E+00  0.34752115471E+03  0.34752115471E+03  0.00000000000E+00 0. -1.
         21   -1    0    0  503  502  0.00000000000E+00 -0.00000000000E+00 -0.23413197708E+03  0.23413197708E+03  0.00000000000E+00 0. -1.
         23    2    1    2    0    0 -0.49670291748E+01  0.33112115167E+02  0.25615830257E+03  0.27332841410E+03  0.89276326278E+02 0.  0.
         24    2    1    2    0    0  0.74105987111E+02 -0.70381005998E+02 -0.17504002798E+03  0.21935555099E+03  0.83860974394E+02 0.  0.
        -11    1    4    4    0    0 -0.80328030933E+01 -0.43974660041E+02 -0.74375874452E+02  0.86775960679E+02  0.00000000000E+00 0.  1.
         12    1    4    4    0    0  0.82138790204E+02 -0.26406345957E+02 -0.10066415353E+03  0.13257959032E+03  0.00000000000E+00 0. -1.
        -13    1    3    3    0    0  0.13633647086E+02  0.60491382182E+02  0.17604471245E+03  0.18664625480E+03  0.00000000000E+00 0.  1.
         13    1    3    3    0    0 -0.18600676260E+02 -0.27379267014E+02  0.80113590120E+02  0.86682159303E+02  0.00000000000E+00 0. -1.
         21    1    1    2  503  501 -0.23750521847E+02  0.27743565028E+02  0.13469167860E+02  0.38925713498E+02  0.00000000000E+00 0. -1.
          1    1    1    2  501    0 -0.45388436088E+02  0.95253258027E+01  0.18801735180E+02  0.50043453198E+02  0.00000000000E+00 0. -1.
<scales pt_clust_5="13000.00000" pt_clust_6="13000.00000" pt_clust_7="13000.00000" pt_clust_8="13000.00000" pt_clust_9="23.56105" pt_clust_10="82.91024"></scales>
<clustering>
<clus scale="   23.561">  9 10 -1 -1</clus>
<clus scale="   82.910">  2  9  1 -1</clus>
<clus scale="   83.861">  5  6 -1 -1</clus>
<clus scale="   89.276">  7  8 -1 -1</clus>
<clus scale="   91.083">  2  5  1 -1</clus>
<clus scale="   82.910">  2  5  1 -1</clus>
</clustering>
</event>
<event>
10    4  0.2857708E-005  0.1015762E+03  0.7546771E-02  0.1283046E+00
         21   -1    0    0  501  502  0.00000000000E+00  0.00000000000E+00  0.43828671322E+02  0.43828671322E+02  0.00000000000E+00 0.  1.
          2   -1    0    0  503    0 -0.00000000000E+00 -0.00000000000E+00 -0.50693278029E+03  0.50693278029E+03  0.00000000000E+00 0. -1.
         23    2    1    2    0    0 -0.20506438590E+02 -0.33064127056E+02 -0.26994413492E+03  0.28816909312E+03  0.93047513277E+02 0.  0.
         24    2    1    2    0    0  0.93589437740E+01  0.40785307815E+02 -0.41871435898E+02  0.10023104527E+03  0.80882718362E+02 0.  0.
        -13    1    4    4    0    0  0.21783689144E+02  0.14884098079E+02  0.19274104186E+02  0.32673484365E+02  0.00000000000E+00 0.  1.
         14    1    4    4    0    0 -0.12424745370E+02  0.25901209735E+02 -0.61145540084E+02  0.67557560905E+02  0.00000000000E+00 0. -1.
        -11    1    3    3    0    0  0.94093820879E+01 -0.59173755511E+02 -0.18366642139E+03  0.19319271248E+03  0.00000000000E+00 0. -1.
         11    1    3    3    0    0 -0.29915820678E+02  0.26109628454E+02 -0.86277713537E+02  0.94976380633E+02  0.00000000000E+00 0.  1.
         21    1    1    2  503  502  0.32490735876E+02 -0.12782640419E+02 -0.70853962479E+02  0.78989415828E+02  0.00000000000E+00 0.  1.
          1    1    1    2  501    0 -0.21343241060E+02  0.50614596604E+01 -0.80434575672E+02  0.83371897401E+02  0.00000000000E+00 0. -1.
<scales pt_clust_5="13000.00000" pt_clust_6="13000.00000" pt_clust_7="13000.00000" pt_clust_8="13000.00000" pt_clust_9="32.83097" pt_clust_10="21.93520"></scales>
<clustering>
<clus scale="   21.935">  1 10  2 -1</clus>
<clus scale="   32.831">  2  9  1 -1</clus>
<clus scale="   80.883">  5  6 -1 -1</clus>
<clus scale="   90.564">  1  5  2 -1</clus>
<clus scale="   93.048">  7  8 -1 -1</clus>
<clus scale="   21.935">  1  5  2 -1</clus>
</clustering>
</event>
<event>
10    4  0.2857708E-005  0.1214589E+03  0.7546771E-02  0.1244136E+00
          2   -1    0    0  503    0 -0.00000000000E+00  0.00000000000E+00  0.56735072707E+03  0.56735072707E+03  0.00000000000E+00 0. -1.
         21   -1    0    0  501  502  0.00000000000E+00 -0.00000000000E+00 -0.50869414156E+02  0.50869414156E+02  0.00000000000E+00 0.  1.
         23    2    1    2    0    0  0.35467056591E+02 -0.72588426343E+02  0.30513006223E+03  0.32837407163E+03  0.90543825305E+02 0.  0.
         24    2    1    2    0    0  0.55406185646E+01  0.78232660297E+02  0.72597245763E+02  0.13307805148E+03  0.79299180962E+02 0.  0.
        -13    1    4    4    0    0  0.32788149286E+02  0.48998264711E+01  0.18506543561E+02  0.37967923141E+02  0.00000000000E+00 0.  1.
         14    1    4    4    0    0 -0.27247530722E+02  0.73332833826E+02  0.54090702202E+02  0.95110128336E+02  0.00000000000E+00 0. -1.
        -13    1    3    3    0    0  0.49310049274E+02 -0.86388176256E+01  0.84192592321E+02  0.97951532561E+02  0.00000000000E+00 0. -1.
         13    1    3    3    0    0 -0.13842992683E+02 -0.63949608717E+02  0.22093746991E+03  0.23042253907E+03  0.00000000000E+00 0.  1.
         21    1    1    2  503  502 -0.18374663568E+02 -0.12138611757E+02  0.12967547029E+03  0.13153213201E+03  0.00000000000E+00 0. -1.
          1    1    1    2  501    0 -0.22633011588E+02  0.64943778024E+01  0.90785346311E+01  0.25235886108E+02  0.00000000000E+00 0. -1.
<scales pt_clust_5="13000.00000" pt_clust_6="13000.00000" pt_clust_7="13000.00000" pt_clust_8="13000.00000" pt_clust_9="22.02213" pt_clust_10="24.11761"></scales>
<clustering>
<clus scale="   22.022">  1  9  2 -1</clus>
<clus scale="   24.118">  2 10  1 -1</clus>
<clus scale="   79.299">  5  6 -1 -1</clus>
<clus scale="   90.544">  7  8 -1 -1</clus>
<clus scale="  113.325">  2  5  1 -1</clus>
<clus scale="   24.118">  2  5  1 -1</clus>
</clustering>
</event>
<event>
10    4  0.2857708E-005  0.1343883E+03  0.7546771E-02  0.1225760E+00
          2   -1    0    0  503    0 -0.00000000000E+00  0.00000000000E+00  0.59170625470E+03  0.59170625470E+03  0.00000000000E+00 0. -1.
         21   -1    0    0  501  502  0.00000000000E+00 -0.00000000000E+00 -0.84227266642E+02  0.84227266642E+02  0.00000000000E+00 0. -1.
         24    2    1    2    0    0  0.61665580780E+02  0.37053886490E+02  0.14684117112E+03  0.18231636185E+03  0.80630589139E+02 0.  0.
         23    2    1    2    0    0 -0.10162480295E+03 -0.19775201707E+02  0.82302755884E+02  0.16491198638E+03  0.98506651796E+02 0.  0.
        -11    1    3    3    0    0  0.31026212580E+02 -0.48714546408E+01  0.11964388008E+03  0.12369727151E+03  0.00000000000E+00 0.  1.
         12    1    3    3    0    0  0.30639368199E+02  0.41925341131E+02  0.27197291037E+02  0.58619090340E+02  0.00000000000E+00 0. -1.
        -13    1    4    4    0    0 -0.50907722707E+02 -0.34208527112E+01 -0.15678574415E+02  0.53377112700E+02  0.00000000000E+00 0.  1.
         13    1    4    4    0    0 -0.50717080246E+02 -0.16354348996E+02  0.97981330299E+02  0.11153487368E+03  0.00000000000E+00 0. -1.
         21    1    1    2  503  502  0.61109395979E+02 -0.95969256095E+01  0.29454630389E+03  0.30097173354E+03  0.00000000000E+00 0. -1.
          1    1    1    2  501    0 -0.21150173806E+02 -0.76817591731E+01 -0.16211242836E+02  0.27733439569E+02  0.00000000000E+00 0. -1.
<scales pt_clust_5="13000.00000" pt_clust_6="13000.00000" pt_clust_7="13000.00000" pt_clust_8="13000.00000" pt_clust_9="60.84421" pt_clust_10="22.50198"></scales>
<clustering>
<clus scale="   22.502">  2 10  1 -1</clus>
<clus scale="   60.844">  1  9  2 -1</clus>
<clus scale="   80.631">  5  6 -1 -1</clus>
<clus scale="   98.507">  7  8 -1 -1</clus>
<clus scale="  121.893">  1  5  2 -1</clus>
<clus scale="   22.502">  2  5  1 -1</clus>
</clustering>
</event>
<event>
10    4  0.2857708E-005  0.2517446E+03  0.7546771E-02  0.1113061E+00
          2   -1    0    0  503    0 -0.00000000000E+00  0.00000000000E+00  0.10479941333E+04  0.10479941333E+04  0.00000000000E+00 0. -1.
         21   -1    0    0  501  502  0.00000000000E+00 -0.00000000000E+00 -0.27689824246E+03  0.27689824246E+03  0.00000000000E+00 0. -1.
         24    2    1    2    0    0  0.86496874738E+02 -0.19870313256E+03  0.48381130097E+03  0.53596734718E+03  0.78885854700E+02 0.  0.
         23    2    1    2    0    0 -0.86370499927E+02  0.24271301775E+03  0.43082501013E+03  0.51077046045E+03  0.94375853234E+02 0.  0.
        -13    1    3    3    0    0  0.48964122222E+02 -0.29570558789E+02  0.12934311107E+03  0.14142681356E+03  0.00000000000E+00 0.  1.
         14    1    3    3    0    0  0.37532752516E+02 -0.16913257377E+03  0.35446818990E+03  0.39454053363E+03  0.00000000000E+00 0. -1.
        -13    1    4    4    0    0  0.65302249041E+01  0.93795024428E+02  0.10702562040E+03  0.14245923581E+03  0.00000000000E+00 0. -1.
         13    1    4    4    0    0 -0.92900724831E+02  0.14891799332E+03  0.32379938974E+03  0.36831122465E+03  0.00000000000E+00 0.  1.
         21    1    1    2  503  502 -0.20149556838E+02 -0.10307010331E+02  0.63511755144E+02  0.67423898910E+02  0.00000000000E+00 0. -1.
          1    1    1    2  501    0  0.20023182027E+02 -0.33702874856E+02 -0.20705217543E+03  0.21073066920E+03  0.00000000000E+00 0. -1.
<scales pt_clust_5="13000.00000" pt_clust_6="13000.00000" pt_clust_7="13000.00000" pt_clust_8="13000.00000" pt_clust_9="22.63270" pt_clust_10="39.19953"></scales>
<clustering>
<clus scale="   22.633">  1  9  2 -1</clus>
<clus scale="   39.200">  2 10  1 -1</clus>
<clus scale="   78.886">  5  6 -1 -1</clus>
<clus scale="   94.376">  7  8 -1 -1</clus>
<clus scale="  246.357">  1  5  2 -1</clus>
<clus scale="   39.200">  2  5  1 -1</clus>
</clustering>
</event>
<event>
10    4  0.2857708E-005  0.1706662E+03  0.7546771E-02  0.1177306E+00
          2   -1    0    0  503    0 -0.00000000000E+00  0.00000000000E+00  0.13243226127E+04  0.13243226127E+04  0.00000000000E+00 0. -1.
         21   -1    0    0  501  502  0.00000000000E+00 -0.00000000000E+00 -0.63215947712E+03  0.63215947712E+03  0.00000000000E+00 0. -1.
         24    2    1    2    0    0  0.56912863941E+02 -0.14667922313E+03  0.89997575572E+03  0.91714416851E+03  0.80269523260E+02 0.  0.
         23    2    1    2    0    0 -0.17783526858E+03 -0.38570166647E+02 -0.14483772312E+03  0.24962902396E+03  0.90684304352E+02 0.  0.
        -13    1    3    3    0    0  0.67522803892E+02 -0.69565985921E+02  0.43252860138E+03  0.44326035967E+03  0.00000000000E+00 0.  1.
         14    1    3    3    0    0 -0.10609939951E+02 -0.77113237205E+02  0.46744715434E+03  0.47388380884E+03  0.00000000000E+00 0. -1.
        -13    1    4    4    0    0 -0.54850942266E+02  0.14866780764E+02 -0.68858511751E+01  0.57245628516E+02  0.00000000000E+00 0. -1.
         13    1    4    4    0    0 -0.12298432632E+03 -0.53436947411E+02 -0.13795187195E+03  0.19238339544E+03  0.00000000000E+00 0.  1.
         21    1    1    2  503  502  0.87509411223E+02  0.14033968488E+03  0.34252504023E+03  0.38036367780E+03  0.00000000000E+00 0. -1.
          1    1    1    2  501    0  0.33412993420E+02  0.44909704890E+02 -0.40549993721E+03  0.40934521959E+03  0.00000000000E+00 0. -1.
<scales pt_clust_5="13000.00000" pt_clust_6="13000.00000" pt_clust_7="13000.00000" pt_clust_8="13000.00000" pt_clust_9="170.08467" pt_clust_10="55.97597"></scales>
<clustering>
<clus scale="   55.976">  2 10  1 -1</clus>
<clus scale="   80.270">  5  6 -1 -1</clus>
<clus scale="   90.684">  7  8 -1 -1</clus>
<clus scale="  170.085">  1  9  2 -1</clus>
<clus scale="  170.085">  1  5  2 -1</clus>
<clus scale="   55.976">  2  5  1 -1</clus>
</clustering>
</event>
<event>
10    4  0.2857708E-005  0.1461947E+03  0.7546771E-02  0.1208509E+00
         21   -1    0    0  501  502  0.00000000000E+00  0.00000000000E+00  0.10240017729E+03  0.10240017729E+03  0.00000000000E+00 0.  1.
          2   -1    0    0  503    0 -0.00000000000E+00 -0.00000000000E+00 -0.49696847358E+03  0.49696847358E+03  0.00000000000E+00 0. -1.
         23    2    1    2    0    0 -0.83228362077E+02  0.31300077747E+02 -0.14152215380E+03  0.19227980848E+03  0.95059716031E+02 0.  0.
         24    2    1    2    0    0  0.13105392344E+03 -0.95075748877E+02 -0.60159367574E+02  0.18990027064E+03  0.78920430883E+02 0.  0.
        -13    1    4    4    0    0  0.79565690179E+02 -0.10013908857E+03 -0.49056802437E+02  0.13698578751E+03  0.00000000000E+00 0.  1.
         14    1    4    4    0    0  0.51488233260E+02  0.50633396950E+01 -0.11102565137E+02  0.52914483137E+02  0.00000000000E+00 0. -1.
        -11    1    3    3    0    0 -0.47086367513E+02 -0.19846295023E+02 -0.11186990539E+03  0.12298730489E+03  0.00000000000E+00 0.  1.
         11    1    3    3    0    0 -0.36141994564E+02  0.51146372769E+02 -0.29652248415E+02  0.69292503596E+02  0.00000000000E+00 0. -1.
         21    1    1    2  503  502  0.85074843051E+01  0.26478374395E+02 -0.30328744346E+02  0.41149900770E+02  0.00000000000E+00 0.  1.
          1    1    1    2  501    0 -0.56333045667E+02  0.37297296736E+02 -0.16255803057E+03  0.17603867098E+03  0.00000000000E+00 0. -1.
<scales pt_clust_5="13000.00000" pt_clust_6="13000.00000" pt_clust_7="13000.00000" pt_clust_8="13000.00000" pt_clust_9="27.81154" pt_clust_10="71.00623"></scales>
<clustering>
<clus scale="   27.812">  2  9  1 -1</clus>
<clus scale="   71.006">  1 10  2 -1</clus>
<clus scale="   78.920">  5  6 -1 -1</clus>
<clus scale="   95.060">  7  8 -1 -1</clus>
<clus scale="  136.253">  1  5  2 -1</clus>
<clus scale="   71.006">  1  5  2 -1</clus>
</clustering>
</event>
<event>
10    4  0.2857708E-005  0.9847171E+02  0.7546771E-02  0.1288747E+00
         -1   -1    0    0    0  501 -0.00000000000E+00  0.00000000000E+00  0.22256168467E+03  0.22256168467E+03  0.00000000000E+00 0.  1.
         21   -1    0    0  503  502  0.00000000000E+00 -0.00000000000E+00 -0.18649701189E+03  0.18649701189E+03  0.00000000000E+00 0.  1.
         24    2    1    2    0    0 -0.55310278345E+02 -0.29339984509E+02  0.11104131563E+03  0.15146301632E+03  0.81797371323E+02 0.  0.
         23    2    1    2    0    0  0.26285383177E+02 -0.22233821377E+01  0.74590636710E+01  0.95757010087E+02  0.91749128350E+02 0.  0.
        -13    1    3    3    0    0 -0.42605446288E+02 -0.57700153765E+02  0.72968454648E+02  0.10231777544E+03  0.00000000000E+00 0.  1.
         14    1    3    3    0    0 -0.12704832057E+02  0.28360169256E+02  0.38072860977E+02  0.49145240877E+02  0.00000000000E+00 0. -1.
        -13    1    4    4    0    0 -0.25492412181E+02 -0.27467714481E+02 -0.12667430947E+01  0.37495907185E+02  0.00000000000E+00 0.  1.
         13    1    4    4    0    0  0.51777795358E+02  0.25244332343E+02  0.87258067657E+01  0.58261102901E+02  0.00000000000E+00 0. -1.
         21    1    1    2  503  501  0.35721926433E+02  0.80404506533E+01  0.29650344515E+02  0.47115260847E+02  0.00000000000E+00 0.  1.
         -2    1    1    2    0  502 -0.66970312655E+01  0.23522915993E+02 -0.11208605104E+03  0.11472340930E+03  0.00000000000E+00 0.  1.
<scales pt_clust_5="13000.00000" pt_clust_6="13000.00000" pt_clust_7="13000.00000" pt_clust_8="13000.00000" pt_clust_9="36.56874" pt_clust_10="24.45767"></scales>
<clustering>
<clus scale="   24.458">  2 10  1 -1</clus>
<clus scale="   36.569">  1  9  2 -1</clus>
<clus scale="   81.797">  5  6 -1 -1</clus>
<clus scale="   89.273">  1  5  2 -1</clus>
<clus scale="   91.749">  7  8 -1 -1</clus>
<clus scale="   24.458">  2  5  1 -1</clus>
</clustering>
</event>
<event>
10    4  0.2857708E-005  0.1571078E+03  0.7546771E-02  0.1209855E+00
          2   -1    0    0  503    0 -0.00000000000E+00  0.00000000000E+00  0.46336109496E+03  0.46336109496E+03  0.00000000000E+00 0. -1.
         21   -1    0    0  501  502  0.00000000000E+00 -0.00000000000E+00 -0.15635876401E+03  0.15635876401E+03  0.00000000000E+00 0.  1.
         24    2    1    2    0    0 -0.19542529190E+02 -0.70037113792E+02 -0.60313973554E+02  0.12354190753E+03  0.79609796845E+02 0.  0.
         23    2    1    2    0    0 -0.95903743523E+02  0.86878067294E+02  0.23622541810E+03  0.28393536932E+03  0.89841633969E+02 0.  0.
        -13    1    3    3    0    0  0.59473398644E+01 -0.43293690779E+02 -0.72488789010E+02  0.84642418708E+02  0.00000000000E+00 0.  1.
         14    1    3    3    0    0 -0.25489869054E+02 -0.26743423013E+02  0.12174815455E+02  0.38899488817E+02  0.00000000000E+00 0. -1.
        -11    1    4    4    0    0 -0.10359629855E+03  0.52533042197E+02  0.14264541406E+03  0.18395550481E+03  0.00000000000E+00 0.  1.
         11    1    4    4    0    0  0.76925550267E+01  0.34345025098E+02  0.93580004040E+02  0.99979864512E+02  0.00000000000E+00 0. -1.
         21    1    1    2  503  502 -0.94713002636E+01  0.25787778337E+02  0.50790467962E+02  0.57744148414E+02  0.00000000000E+00 0.  1.
          1    1    1    2  501    0  0.12491757298E+03 -0.42628731840E+02  0.80300418442E+02  0.15449843371E+03  0.00000000000E+00 0. -1.
<scales pt_clust_5="13000.00000" pt_clust_6="13000.00000" pt_clust_7="13000.00000" pt_clust_8="13000.00000" pt_clust_9="27.47208" pt_clust_10="128.88495"></scales>
<clustering>
<clus scale="   27.472">  1  9  2 -1</clus>
<clus scale="   79.610">  5  6 -1 -1</clus>
<clus scale="   89.842">  7  8 -1 -1</clus>
<clus scale="  106.672">  1  5  2 -1</clus>
<clus scale="  128.885">  2 10  1 -1</clus>
<clus scale="  128.885">  2  5  1 -1</clus>
</clustering>
</event>
<event>
10    4  0.2857708E-005  0.1537608E+03  0.7546771E-02  0.1198302E+00
         21   -1    0    0  503  502  0.00000000000E+00  0.00000000000E+00  0.20648872793E+03  0.20648872793E+03  0.00000000000E+00 0. -1.
         -1   -1    0    0    0  501 -0.00000000000E+00 -0.00000000000E+00 -0.66494891422E+03  0.66494891422E+03  0.00000000000E+00 0.  1.
         24    2    1    2    0    0 -0.58417030601E+02  0.10340837541E+03  0.48754656855E+02  0.15204025085E+03  0.81445563065E+02 0.  0.
         23    2    1    2    0    0 -0.10868222193E+03 -0.70826565224E+02  0.71750202617E+01  0.15818883880E+03  0.90244113935E+02 0.  0.
        -13    1    3    3    0    0  0.15772562278E+02  0.31946784018E+02 -0.47852497975E+01  0.35948148013E+02  0.00000000000E+00 0.  1.
         14    1    3    3    0    0 -0.74189592879E+02  0.71461591394E+02  0.53539906652E+02  0.11609210283E+03  0.00000000000E+00 0. -1.
        -11    1    4    4    0    0 -0.59389426438E+02 -0.38042421532E+02  0.48847548979E+02  0.85792848477E+02  0.00000000000E+00 0. -1.
         11    1    4    4    0    0 -0.49292795490E+02 -0.32784143692E+02 -0.41672528717E+02  0.72395990321E+02  0.00000000000E+00 0.  1.
         21    1    1    2  503  501  0.18729729829E+02  0.32695372889E+02 -0.23662576743E+03  0.23960706167E+03  0.00000000000E+00 0.  1.
         -2    1    1    2    0  502  0.14836952270E+03 -0.65277183076E+02 -0.27776409597E+03  0.32160149083E+03  0.00000000000E+00 0.  1.
<scales pt_clust_5="13000.00000" pt_clust_6="13000.00000" pt_clust_7="13000.00000" pt_clust_8="13000.00000" pt_clust_9="37.68010" pt_clust_10="124.49256"></scales>
<clustering>
<clus scale="   37.680">  2  9  1 -1</clus>
<clus scale="   81.446">  5  6 -1 -1</clus>
<clus scale="   90.244">  7  8 -1 -1</clus>
<clus scale="  145.991">  2  5  1 -1</clus>
<clus scale="  124.493">  1 10  2 -1</clus>
<clus scale="  124.493">  1  5  2 -1</clus>
</clustering>
</event>
<event>
10    4  0.2857708E-005  0.2446046E+03  0.7546771E-02  0.1155271E+00
          2   -1    0    0  503    0 -0.00000000000E+00  0.00000000000E+00  0.96632054175E+03  0.96632054175E+03  0.00000000000E+00 0. -1.
         21   -1    0    0  501  502  0.00000000000E+00 -0.00000000000E+00 -0.20125338038E+03  0.20125338038E+03  0.00000000000E+00 0. -1.
         24    2    1    2    0    0 -0.80082249391E+00 -0.51433042203E+02 -0.69760785896E+01  0.97024246221E+02  0.81969747684E+02 0.  0.
         23    2    1    2    0    0 -0.17514243483E+03  0.66739055656E+02  0.24945679825E+03  0.32504975595E+03  0.91102555509E+02 0.  0.
        -11    1    3    3    0    0 -0.70982314263E+01 -0.18730552968E+02  0.36872801739E+02  0.41962149754E+02  0.00000000000E+00 0.  1.
         12    1    3    3    0    0  0.62974089324E+01 -0.32702489234E+02 -0.43848880328E+02  0.55062096468E+02  0.00000000000E+00 0. -1.
        -11    1    4    4    0    0 -0.12216276541E+03  0.40390298599E+02  0.95860498844E+02  0.16045046809E+03  0.00000000000E+00 0. -1.
         11    1    4    4    0    0 -0.52979669426E+02  0.26348757057E+02  0.15359629941E+03  0.16459928786E+03  0.00000000000E+00 0.  1.
         21    1    1    2  503  502 -0.69213073337E+02  0.22128503182E+02  0.49001360393E+03  0.49537203414E+03  0.00000000000E+00 0. -1.
          1    1    1    2  501    0  0.24515633067E+03 -0.37434516635E+02  0.32572837778E+02  0.25012788581E+03  0.00000000000E+00 0. -1.
<scales pt_clust_5="13000.00000" pt_clust_6="13000.00000" pt_clust_7="13000.00000" pt_clust_8="13000.00000" pt_clust_9="72.66444" pt_clust_10="227.00602"></scales>
<clustering>
<clus scale="   72.664">  1  9  2 -1</clus>
<clus scale="   81.970">  5  6 -1 -1</clus>
<clus scale="   91.103">  7  8 -1 -1</clus>
<clus scale="   95.953">  1  5  2 -1</clus>
<clus scale="  227.006">  2 10  1 -1</clus>
<clus scale="  227.006">  2  5  1 -1</clus>
</clustering>
</event>
<event>
10    4  0.2857708E-005  0.1322325E+03  0.7546771E-02  0.1227885E+00
          2   -1    0    0  503    0 -0.00000000000E+00  0.00000000000E+00  0.10814587878E+03  0.10814587878E+03  0.00000000000E+00 0. -1.
         21   -1    0    0  501  502  0.00000000000E+00 -0.00000000000E+00 -0.27273111113E+03  0.27273111113E+03  0.00000000000E+00 0. -1.
         23    2    1    2    0    0  0.69458136684E+02  0.29990805255E+02 -0.72764664724E+02  0.14088813233E+03  0.93972805900E+02 0.  0.
         24    2    1    2    0    0 -0.90157136769E+02 -0.67987897805E+02 -0.10702313041E+03  0.17475550810E+03  0.79591919257E+02 0.  0.
        -13    1    4    4    0    0 -0.23045327271E+02  0.13797487367E+02 -0.41301179709E+01  0.27175644264E+02  0.00000000000E+00 0.  1.
         14    1    4    4    0    0 -0.67111809497E+02 -0.81785385172E+02 -0.10289301244E+03  0.14757986384E+03  0.00000000000E+00 0. -1.
        -13    1    3    3    0    0 -0.19694575965E+02  0.24075583776E+02 -0.22302531643E+02  0.38274181562E+02  0.00000000000E+00 0.  1.
         13    1    3    3    0    0  0.89152712650E+02  0.59152214792E+01 -0.50462133082E+02  0.10261395077E+03  0.00000000000E+00 0. -1.
         21    1    1    2  503  502  0.23532544945E+02 -0.17413772851E+01  0.58228812902E+01  0.24304711744E+02  0.00000000000E+00 0. -1.
          1    1    1    2  501    0 -0.28335448606E+01  0.39738469835E+02  0.93796814961E+01  0.40928637728E+02  0.00000000000E+00 0. -1.
<scales pt_clust_5="13000.00000" pt_clust_6="13000.00000" pt_clust_7="13000.00000" pt_clust_8="13000.00000" pt_clust_9="23.59689" pt_clust_10="39.42588"></scales>
<clustering>
<clus scale="   23.597">  1  9  2 -1</clus>
<clus scale="   39.426">  2 10  1 -1</clus>
<clus scale="   79.592">  5  6 -1 -1</clus>
<clus scale="   93.973">  7  8 -1 -1</clus>
<clus scale="  122.431">  2  5  1 -1</clus>
<clus scale="   39.426">  2  5  1 -1</clus>
</clustering>
</event>
<event>
10    4  0.2857708E-005  0.2322079E+03  0.7546771E-02  0.1125867E+00
         21   -1    0    0  501  502  0.00000000000E+00  0.00000000000E+00  0.50980212057E+03  0.50980212057E+03  0.00000000000E+00 0. -1.
          2   -1    0    0  503    0 -0.00000000000E+00 -0.00000000000E+00 -0.64838885447E+03  0.64838885447E+03  0.00000000000E+00 0. -1.
         23    2    1    2    0    0  0.16125254940E+03 -0.12429223905E+03 -0.29347324894E+03  0.36875176790E+03  0.91653549350E+02 0.  0.
         24    2    1    2    0    0 -0.10450822459E+03  0.12628305059E+03  0.24043127375E+03  0.30175532253E+03  0.79873020530E+02 0.  0.
        -13    1    4    4    0    0  0.96485340806E+01  0.27946396775E+02  0.58391627637E+02  0.65449808867E+02  0.00000000000E+00 0.  1.
         14    1    4    4    0    0 -0.11415675867E+03  0.98336653817E+02  0.18203964611E+03  0.23630551367E+03  0.00000000000E+00 0. -1.
        -13    1    3    3    0    0  0.21305113365E+02 -0.24873301658E+02 -0.12120892654E+03  0.12555553697E+03  0.00000000000E+00 0.  1.
         13    1    3    3    0    0  0.13994743604E+03 -0.99418937392E+02 -0.17226432239E+03  0.24319623092E+03  0.00000000000E+00 0. -1.
         21    1    1    2  503  502  0.43737527550E+02  0.24798597622E+02 -0.27069691634E+03  0.27532664651E+03  0.00000000000E+00 0. -1.
          1    1    1    2  501    0 -0.10048185237E+03 -0.26789409164E+02  0.18515215763E+03  0.21235723810E+03  0.00000000000E+00 0. -1.
<scales pt_clust_5="13000.00000" pt_clust_6="13000.00000" pt_clust_7="13000.00000" pt_clust_8="13000.00000" pt_clust_9="50.27864" pt_clust_10="102.22982"></scales>
<clustering>
<clus scale="   50.279">  2  9  1 -1</clus>
<clus scale="   79.873">  5  6 -1 -1</clus>
<clus scale="   91.654">  7  8 -1 -1</clus>
<clus scale="  102.230">  1 10  2 -1</clus>
<clus scale="  227.815">  1  5  2 -1</clus>
<clus scale="  102.230">  1  5  2 -1</clus>
</clustering>
</event>
<event>
10    4  0.2857708E-005  0.1168151E+03  0.7546771E-02  0.1252021E+00
         21   -1    0    0  501  502  0.00000000000E+00  0.00000000000E+00  0.23018628889E+02  0.23018628889E+02  0.00000000000E+00 0. -1.
          2   -1    0    0  503    0 -0.00000000000E+00 -0.00000000000E+00 -0.15415814812E+04  0.15415814812E+04  0.00000000000E+00 0. -1.
         24    2    1    2    0    0  0.65834008999E+02 -0.14340627391E+02 -0.99188673372E+03  0.99749105098E+03  0.81297810036E+02 0.  0.
         23    2    1    2    0    0 -0.41308803593E+02 -0.15794720115E+02 -0.22121250637E+03  0.24354902070E+03  0.91789226348E+02 0.  0.
        -11    1    3    3    0    0  0.30317286096E+02  0.19388018734E+02 -0.15298148540E+03  0.15715714423E+03  0.00000000000E+00 0.  1.
         12    1    3    3    0    0  0.35516722903E+02 -0.33728646125E+02 -0.83890524832E+03  0.84033390675E+03  0.00000000000E+00 0. -1.
        -11    1    4    4    0    0 -0.47697786382E+02  0.11946499917E+02 -0.20494564431E+03  0.21076174892E+03  0.00000000000E+00 0.  1.
         11    1    4    4    0    0  0.63889827891E+01 -0.27741220032E+02 -0.16266862064E+02  0.32787271789E+02  0.00000000000E+00 0. -1.
         21    1    1    2  503  502  0.27286421014E+02 -0.13688846851E+02 -0.16206671189E+03  0.16491680449E+03  0.00000000000E+00 0. -1.
          1    1    1    2  501    0 -0.51811626420E+02  0.43824194356E+02 -0.14339690032E+03  0.15864323390E+03  0.00000000000E+00 0. -1.
<scales pt_clust_5="13000.00000" pt_clust_6="13000.00000" pt_clust_7="13000.00000" pt_clust_8="13000.00000" pt_clust_9="30.52758" pt_clust_10="64.61313"></scales>
<clustering>
<clus scale="   30.528">  2  9  1 -1</clus>
<clus scale="   64.613">  1 10  2 -1</clus>
<clus scale="   81.298">  5  6 -1 -1</clus>
<clus scale="   91.789">  7  8 -1 -1</clus>
<clus scale="  108.765">  2  5  1 -1</clus>
<clus scale="   64.613">  1  5  2 -1</clus>
</clustering>
</event>
<event>
10    4  0.2857708E-005  0.3117777E+03  0.7546771E-02  0.1124145E+00
         -3   -1    0    0    0  501 -0.00000000000E+00  0.00000000000E+00  0.65444443082E+03  0.65444443082E+03  0.00000000000E+00 0.  1.
         21   -1    0    0  503  502  0.00000000000E+00 -0.00000000000E+00 -0.38607168370E+03  0.38607168370E+03  0.00000000000E+00 0.  1.
         24    2    1    2    0    0  0.52323707664E+02 -0.10125472009E+02  0.94141448777E+02  0.13605191923E+03  0.82505859066E+02 0.  0.
         23    2    1    2    0    0 -0.86977599699E+02 -0.71032832782E+02  0.69585840241E+02  0.16311559973E+03  0.95675198104E+02 0.  0.
        -13    1    3    3    0    0  0.38417030570E+02 -0.90807974507E+01  0.10884754977E+03  0.11578479266E+03  0.00000000000E+00 0.  1.
         14    1    3    3    0    0  0.13906677094E+02 -0.10446745581E+01 -0.14706100995E+02  0.20267126565E+02  0.00000000000E+00 0. -1.
        -11    1    4    4    0    0 -0.44604453985E+02 -0.89757974581E+02  0.38722095245E+02  0.10744976490E+03  0.00000000000E+00 0.  1.
         11    1    4    4    0    0 -0.42373145714E+02  0.18725141799E+02  0.30863744996E+02  0.55665834838E+02  0.00000000000E+00 0. -1.
         21    1    1    2  503  501 -0.24766515844E+03 -0.87273391945E+02  0.26717930728E+03  0.37461908372E+03  0.00000000000E+00 0.  1.
         -4    1    1    2    0  502  0.28231905048E+03  0.16843169674E+03 -0.16253384918E+03  0.36672951184E+03  0.00000000000E+00 0.  1.
<scales pt_clust_5="13000.00000" pt_clust_6="13000.00000" pt_clust_7="13000.00000" pt_clust_8="13000.00000" pt_clust_9="13000.00000" pt_clust_10="311.77771"></scales>
<clustering>
<clus scale="   82.506">  5  6 -1 -1</clus>
<clus scale="   95.675">  7  8 -1 -1</clus>
<clus scale="   98.222">  1  5  2 -1</clus>
<clus scale="  142.280">  1  7  2 -1</clus>
<clus scale="  311.778">  2 10  1 -1</clus>
<clus scale="  311.778">  2  5  1 -1</clus>
</clustering>
</event>
<event>
10    4  0.2857708E-005  0.2156425E+03  0.7546771E-02  0.1169465E+00
          2   -1    0    0  503    0 -0.00000000000E+00  0.00000000000E+00  0.12462663537E+04  0.12462663537E+04  0.00000000000E+00 0. -1.
         21   -1    0    0  501  502  0.00000000000E+00 -0.00000000000E+00 -0.93134826405E+02  0.93134826405E+02  0.00000000000E+00 0. -1.
         24    2    1    2    0    0 -0.47728014935E+02 -0.17830638112E+02  0.12221970857E+03  0.15498950663E+03  0.80549332322E+02 0.  0.
         23    2    1    2    0    0 -0.70545724515E+02  0.15074804101E+03  0.43201221053E+03  0.47110640080E+03  0.87206764168E+02 0.  0.
        -13    1    3    3    0    0 -0.62200685015E+02 -0.22201768318E+02  0.54573432147E+02  0.85674402415E+02  0.00000000000E+00 0.  1.
         14    1    3    3    0    0  0.14472670081E+02  0.43711302054E+01  0.67646276422E+02  0.69315104215E+02  0.00000000000E+00 0. -1.
        -13    1    4    4    0    0 -0.88981350878E+02  0.99808215102E+02  0.31002331603E+03  0.33762970409E+03  0.00000000000E+00 0. -1.
         13    1    4    4    0    0  0.18435626363E+02  0.50939825910E+02  0.12198889450E+03  0.13347669671E+03  0.00000000000E+00 0.  1.
         21    1    1    2  503  502 -0.58201023071E+02 -0.28017216736E+01  0.43671052405E+03  0.44058062888E+03  0.00000000000E+00 0.  1.
          1    1    1    2  501    0  0.17647476252E+03 -0.13011568123E+03  0.16218908413E+03  0.27272464377E+03  0.00000000000E+00 0. -1.
<scales pt_clust_5="13000.00000" pt_clust_6="13000.00000" pt_clust_7="13000.00000" pt_clust_8="13000.00000" pt_clust_9="58.26842" pt_clust_10="197.22234"></scales>
<clustering>
<clus scale="   58.268">  1  9  2 -1</clus>
<clus scale="   80.549">  5  6 -1 -1</clus>
<clus scale="   87.207">  7  8 -1 -1</clus>
<clus scale="  100.771">  1  5  2 -1</clus>
<clus scale="  197.222">  2 10  1 -1</clus>
<clus scale="  197.222">  2  5  1 -1</clus>
</clustering>
</event>
<event>
10    4  0.2857708E-005  0.9437036E+02  0.7546771E-02  0.1298431E+00
          2   -1    0    0  503    0 -0.00000000000E+00  0.00000000000E+00  0.10512434684E+04  0.10512434684E+04  0.00000000000E+00 0. -1.
         21   -1    0    0  501  502  0.00000000000E+00 -0.00000000000E+00 -0.50394990579E+02  0.50394990579E+02  0.00000000000E+00 0. -1.
         24    2    1    2    0    0 -0.58870431657E+01  0.35576009556E+02  0.70876229488E+03  0.71443261803E+03  0.82277975987E+02 0.  0.
         23    2    1    2    0    0 -0.14920145310E+02  0.27210892657E+02  0.26576605555E+03  0.28301613704E+03  0.92214392205E+02 0.  0.
        -13    1    3    3    0    0 -0.64736931217E+01 -0.24312320800E+02  0.11860647738E+03  0.12124559424E+03  0.00000000000E+00 0.  1.
         14    1    3    3    0    0  0.58664995600E+00  0.59888330356E+02  0.59015581749E+03  0.59318702379E+03  0.00000000000E+00 0. -1.
        -11    1    4    4    0    0 -0.21219240791E+02 -0.30807148172E+02  0.12912410893E+03  0.13443352284E+03  0.00000000000E+00 0.  1.
         11    1    4    4    0    0  0.62990954809E+01  0.58018040829E+02  0.13664194662E+03  0.14858261420E+03  0.00000000000E+00 0. -1.
         21    1    1    2  503  502 -0.28770541643E+01 -0.21750646282E+02  0.47476033155E+02  0.52300495012E+02  0.00000000000E+00 0. -1.
          1    1    1    2  501    0  0.23684242640E+02 -0.41036255931E+02 -0.21155905766E+02  0.51889208888E+02  0.00000000000E+00 0. -1.
<scales pt_clust_5="13000.00000" pt_clust_6="13000.00000" pt_clust_7="13000.00000" pt_clust_8="13000.00000" pt_clust_9="21.94010" pt_clust_10="61.47229"></scales>
<clustering>
<clus scale="   21.940">  2  9  1 -1</clus>
<clus scale="   61.472">  2 10  1 -1</clus>
<clus scale="   82.278">  5  6 -1 -1</clus>
<clus scale="   84.687">  1  5  2 -1</clus>
<clus scale="   92.214">  7  8 -1 -1</clus>
<clus scale="   21.940">  2  5  1 -1</clus>
</clustering>
</event>
<event>
10    4  0.2857708E-005  0.1616623E+03  0.7546771E-02  0.1188555E+00
         21   -1    0    0  503  502  0.00000000000E+00  0.00000000000E+00  0.99537253354E+02  0.99537253354E+02  0.00000000000E+00 0.  1.
         -1   -1    0    0    0  501 -0.00000000000E+00 -0.00000000000E+00 -0.50453197400E+03  0.50453197400E+03  0.00000000000E+00 0.  1.
         24    2    1    2    0    0  0.68023840668E+02  0.13381425462E+03 -0.19492889921E+03  0.25871136449E+03  0.80004979410E+02 0.  0.
         23    2    1    2    0    0 -0.81978525888E+02 -0.98294397747E+02 -0.34572729926E+02  0.16093664259E+03  0.91230816831E+02 0.  0.
        -11    1    3    3    0    0  0.72830438408E+02  0.14239590321E+03 -0.17954965894E+03  0.24045570493E+03  0.00000000000E+00 0.  1.
         12    1    3    3    0    0 -0.48065977395E+01 -0.85816485950E+01 -0.15379240278E+02  0.18255659560E+02  0.00000000000E+00 0. -1.
        -13    1    4    4    0    0 -0.48375261864E+02  0.49268523562E+01 -0.10499786907E+02  0.49746209500E+02  0.00000000000E+00 0. -1.
         13    1    4    4    0    0 -0.33603264024E+02 -0.10322125010E+03 -0.24072943019E+02  0.11119043309E+03  0.00000000000E+00 0.  1.
         21    1    1    2  503  501 -0.11453717858E+02 -0.27781785600E+02 -0.88385556335E+02  0.93354281276E+02  0.00000000000E+00 0. -1.
         -2    1    1    2    0  502  0.25408403078E+02 -0.77380712689E+01 -0.87107535168E+02  0.91066938990E+02  0.00000000000E+00 0.  1.
<scales pt_clust_5="13000.00000" pt_clust_6="13000.00000" pt_clust_7="13000.00000" pt_clust_8="13000.00000" pt_clust_9="29.99333" pt_clust_10="26.56060"></scales>
<clustering>
<clus scale="   26.561">  1 10  2 -1</clus>
<clus scale="   29.993">  2  9  1 -1</clus>
<clus scale="   80.005">  5  6 -1 -1</clus>
<clus scale="   91.231">  7  8 -1 -1</clus>
<clus scale="  155.603">  2  5  1 -1</clus>
<clus scale="   26.561">  1  5  2 -1</clus>
</clustering>
</event>
<event>
10    4  0.2857708E-005  0.2008791E+03  0.7546771E-02  0.1178244E+00
         21   -1    0    0  503  502  0.00000000000E+00  0.00000000000E+00  0.72491394554E+03  0.72491394554E+03  0.00000000000E+00 0.  1.
         -1   -1    0    0    0  501 -0.00000000000E+00 -0.00000000000E+00 -0.13987015094E+03  0.13987015094E+03  0.00000000000E+00 0.  1.
         23    2    1    2    0    0  0.40891606706E+02  0.24130915648E+02 -0.16141457174E+02  0.10417496608E+03  0.91309650801E+02 0.  0.
         24    2    1    2    0    0 -0.13914032465E+03 -0.13669047667E+03  0.24279214327E+03  0.32134649403E+03  0.79191085573E+02 0.  0.
        -11    1    4    4    0    0 -0.32346628067E+02  0.19683643614E+01  0.20192600265E+02  0.38182717439E+02  0.00000000000E+00 0.  1.
         12    1    4    4    0    0 -0.10679369658E+03 -0.13865884103E+03  0.22259954300E+03  0.28316377659E+03  0.00000000000E+00 0. -1.
        -13    1    3    3    0    0  0.23397501541E+02 -0.31545900123E+02  0.95337081180E+01  0.40416314570E+02  0.00000000000E+00 0.  1.
         13    1    3    3    0    0  0.17494105166E+02  0.55676815770E+02 -0.25675165292E+02  0.63758651512E+02  0.00000000000E+00 0. -1.
         21    1    1    2  503  501  0.10698231556E+03  0.13918671026E+03  0.15572590550E+03  0.23466724058E+03  0.00000000000E+00 0.  1.
         -2    1    1    2    0  502 -0.87335976199E+01 -0.26627149243E+02  0.20266720301E+03  0.20459539580E+03  0.00000000000E+00 0.  1.
<scales pt_clust_5="13000.00000" pt_clust_6="13000.00000" pt_clust_7="13000.00000" pt_clust_8="13000.00000" pt_clust_9="184.61091" pt_clust_10="28.02286"></scales>
<clustering>
<clus scale="   28.023">  1 10  2 -1</clus>
<clus scale="   79.191">  5  6 -1 -1</clus>
<clus scale="   91.310">  7  8 -1 -1</clus>
<clus scale="  102.121">  2  7  1 -1</clus>
<clus scale="  184.611">  1  9  2 -1</clus>
<clus scale="   28.023">  1  5  2 -1</clus>
</clustering>
</event>
<event>
10    4  0.2857708E-005  0.2487538E+03  0.7546771E-02  0.1151429E+00
          2   -1    0    0  503    0 -0.00000000000E+00  0.00000000000E+00  0.16481316319E+04  0.16481316319E+04  0.00000000000E+00 0. -1.
         21   -1    0    0  501  502  0.00000000000E+00 -0.00000000000E+00 -0.67433411077E+02  0.67433411077E+02  0.00000000000E+00 0. -1.
         24    2    1    2    0    0 -0.31226623171E+02 -0.41011169515E+01  0.17375360774E+03  0.19968455354E+03  0.93229199089E+02 0.  0.
         23    2    1    2    0    0  0.20843375576E+02  0.20808675570E+03  0.83493541866E+03  0.86581776991E+03  0.93748136818E+02 0.  0.
        -13    1    3    3    0    0 -0.39999976374E+02  0.30074448946E+02  0.14734681437E+03  0.15561347723E+03  0.00000000000E+00 0.  1.
         14    1    3    3    0    0  0.87733532031E+01 -0.34175565897E+02  0.26406793367E+02  0.44071076306E+02  0.00000000000E+00 0. -1.
        -13    1    4    4    0    0 -0.33447709470E+02  0.12686288851E+03  0.49971958923E+03  0.51665521347E+03  0.00000000000E+00 0. -1.
         13    1    4    4    0    0  0.54291085046E+02  0.81223867195E+02  0.33521582944E+03  0.34916255644E+03  0.00000000000E+00 0.  1.
         21    1    1    2  503  502 -0.35643372288E+02  0.35444324640E+02  0.19272809751E+03  0.19917547467E+03  0.00000000000E+00 0.  1.
          1    1    1    2  501    0  0.46026619883E+02 -0.23942996339E+03  0.37928109690E+03  0.45088724485E+03  0.00000000000E+00 0. -1.
<scales pt_clust_5="13000.00000" pt_clust_6="13000.00000" pt_clust_7="13000.00000" pt_clust_8="13000.00000" pt_clust_9="50.26679" pt_clust_10="230.41213"></scales>
<clustering>
<clus scale="   50.267">  1  9  2 -1</clus>
<clus scale="   93.229">  5  6 -1 -1</clus>
<clus scale="   93.748">  7  8 -1 -1</clus>
<clus scale="   99.871">  1  5  2 -1</clus>
<clus scale="  230.412">  2 10  1 -1</clus>
<clus scale="  230.412">  2  5  1 -1</clus>
</clustering>
</event>
<event>
10    4  0.2857708E-005  0.1639578E+03  0.7546771E-02  0.1187409E+00
          2   -1    0    0  503    0 -0.00000000000E+00  0.00000000000E+00  0.94624024078E+03  0.94624024078E+03  0.00000000000E+00 0. -1.
         21   -1    0    0  501  502  0.00000000000E+00 -0.00000000000E+00 -0.89452124134E+02  0.89452124134E+02  0.00000000000E+00 0.  1.
         23    2    1    2    0    0  0.89474844466E+01 -0.12096482388E+03  0.22483772418E+03  0.27221976870E+03  0.94016244155E+02 0.  0.
         24    2    1    2    0    0 -0.85327598265E+02  0.11227079289E+03  0.50953570602E+02  0.16687426877E+03  0.73247697984E+02 0.  0.
        -13    1    4    4    0    0 -0.98484199505E+02  0.10432962618E+03  0.47438309549E+02  0.15110989929E+03  0.00000000000E+00 0.  1.
         14    1    4    4    0    0  0.13156601240E+02  0.79411667111E+01  0.35152610523E+01  0.15764369483E+02  0.00000000000E+00 0. -1.
        -13    1    3    3    0    0 -0.19285485166E+02 -0.11719826133E+03  0.14489884908E+03  0.18735804989E+03  0.00000000000E+00 0.  1.
         13    1    3    3    0    0  0.28232969613E+02 -0.37665625504E+01  0.79938875101E+02  0.84861718808E+02  0.00000000000E+00 0. -1.
         21    1    1    2  503  502  0.41339655488E+02 -0.51411309616E+02  0.28343382078E+03  0.29101000092E+03  0.00000000000E+00 0. -1.
          1    1    1    2  501    0  0.35040458330E+02  0.60105340604E+02  0.29756300109E+03  0.30558832652E+03  0.00000000000E+00 0. -1.
<scales pt_clust_5="13000.00000" pt_clust_6="13000.00000" pt_clust_7="13000.00000" pt_clust_8="13000.00000" pt_clust_9="65.97037" pt_clust_10="65.18808"></scales>
<clustering>
<clus scale="   65.970">  1  9  2 -1</clus>
<clus scale="   65.188">  2 10  1 -1</clus>
<clus scale="   73.248">  5  6 -1 -1</clus>
<clus scale="   94.016">  7  8 -1 -1</clus>
<clus scale="  152.998">  2  5  1 -1</clus>
<clus scale="   65.188">  2  5  1 -1</clus>
</clustering>
</event>
<event>
10    4  0.2857708E-005  0.1136825E+03  0.7546771E-02  0.1259141E+00
         21   -1    0    0  503  502  0.00000000000E+00  0.00000000000E+00  0.26607961274E+03  0.26607961274E+03  0.00000000000E+00 0. -1.
         -3   -1    0    0    0  501 -0.00000000000E+00 -0.00000000000E+00 -0.14769041376E+03  0.14769041376E+03  0.00000000000E+00 0.  1.
         24    2    1    2    0    0  0.42404408114E+02  0.45746234186E+02  0.29520456642E+02  0.10740859828E+03  0.82306122825E+02 0.  0.
         23    2    1    2    0    0 -0.53186034632E+02 -0.16105431120E+02  0.86085265116E+02  0.14032850824E+03  0.95881584066E+02 0.  0.
        -13    1    3    3    0    0  0.46454327376E+02  0.64164399897E+02  0.36604502654E+02  0.87263763159E+02  0.00000000000E+00 0.  1.
         14    1    3    3    0    0 -0.40499192624E+01 -0.18418165711E+02 -0.70840460112E+01  0.20144835121E+02  0.00000000000E+00 0. -1.
        -11    1    4    4    0    0 -0.52718034585E+02  0.32301835255E+02  0.41080520291E+02  0.74230781208E+02  0.00000000000E+00 0.  1.
         11    1    4    4    0    0 -0.46800004720E+00 -0.48407266375E+02  0.45004744825E+02  0.66097727031E+02  0.00000000000E+00 0. -1.
         21    1    1    2  503  501  0.18883459411E+02  0.21172518691E+02 -0.70783314517E+02  0.76257053451E+02  0.00000000000E+00 0.  1.
         -4    1    1    2    0  502 -0.81018328928E+01 -0.50813321757E+02  0.73566791735E+02  0.89775866526E+02  0.00000000000E+00 0.  1.
<scales pt_clust_5="13000.00000" pt_clust_6="13000.00000" pt_clust_7="13000.00000" pt_clust_8="13000.00000" pt_clust_9="28.37006" pt_clust_10="48.87427"></scales>
<clustering>
<clus scale="   28.370">  2  9  1 -1</clus>
<clus scale="   48.874">  1 10  2 -1</clus>
<clus scale="   82.306">  5  6 -1 -1</clus>
<clus scale="   95.882">  7  8 -1 -1</clus>
<clus scale="  102.493">  2  5  1 -1</clus>
<clus scale="   48.874">  1  5  2 -1</clus>
</clustering>
</event>
<event>
10    4  0.2857708E-005  0.9281251E+02  0.7546771E-02  0.1302095E+00
         21   -1    0    0  501  502  0.00000000000E+00  0.00000000000E+00  0.47245014024E+03  0.47245014024E+03  0.00000000000E+00 0. -1.
          2   -1    0    0  503    0 -0.00000000000E+00 -0.00000000000E+00 -0.36940064579E+02  0.36940064579E+02  0.00000000000E+00 0. -1.
         23    2    1    2    0    0  0.28191940345E+02  0.33697350863E+01  0.11953276234E+03  0.15167622233E+03  0.88946357615E+02 0.  0.
         24    2    1    2    0    0 -0.14957812289E+02 -0.28061092674E+02  0.16393829712E+03  0.18468502646E+03  0.78877326690E+02 0.  0.
        -11    1    4    4    0    0 -0.13289993929E+02  0.26757603579E+02  0.65712148005E+02  0.72185037808E+02  0.00000000000E+00 0.  1.
         12    1    4    4    0    0 -0.16678183599E+01 -0.54818696253E+02  0.98226149119E+02  0.11249998866E+03  0.00000000000E+00 0. -1.
        -13    1    3    3    0    0 -0.27443585508E+02  0.21146289942E+02  0.50637047372E+02  0.61354922626E+02  0.00000000000E+00 0.  1.
         13    1    3    3    0    0  0.55635525853E+02 -0.17776554856E+02  0.68895714972E+02  0.90321299708E+02  0.00000000000E+00 0. -1.
         21    1    1    2  503  502 -0.15372457365E+02 -0.26856199402E+02  0.53686871199E+02  0.61966507332E+02  0.00000000000E+00 0. -1.
          1    1    1    2  501    0  0.21383293097E+01  0.51547556989E+02  0.98352144992E+02  0.11106244869E+03  0.00000000000E+00 0. -1.
<scales pt_clust_5="13000.00000" pt_clust_6="13000.00000" pt_clust_7="13000.00000" pt_clust_8="13000.00000" pt_clust_9="30.94459" pt_clust_10="44.79935"></scales>
<clustering>
<clus scale="   30.945">  1  9  2 -1</clus>
<clus scale="   44.799">  1 10  2 -1</clus>
<clus scale="   78.877">  5  6 -1 -1</clus>
<clus scale="   83.213">  1  5  2 -1</clus>
<clus scale="   88.946">  7  8 -1 -1</clus>
<clus scale="   30.945">  1  5  2 -1</clus>
</clustering>
</event>
<event>
10    4  0.2857708E-005  0.9593792E+02  0.7546771E-02  0.1295642E+00
         -1   -1    0    0    0  501 -0.00000000000E+00  0.00000000000E+00  0.24940953032E+03  0.24940953032E+03  0.00000000000E+00 0.  1.
         21   -1    0    0  503  502  0.00000000000E+00 -0.00000000000E+00 -0.12549133620E+03  0.12549133620E+03  0.00000000000E+00 0.  1.
         23    2    1    2    0    0  0.49207317063E+00  0.34986832504E+02  0.15731854604E+03  0.18608702070E+03  0.93031896459E+02 0.  0.
         24    2    1    2    0    0  0.11341155987E+02 -0.21880706313E+02  0.27519704874E+01  0.85264203938E+02  0.81578330479E+02 0.  0.
        -13    1    4    4    0    0  0.46530190313E+02 -0.78959919125E+01  0.41080315153E+01  0.47373845334E+02  0.00000000000E+00 0.  1.
         14    1    4    4    0    0 -0.35189034326E+02 -0.13984714400E+02 -0.13560610279E+01  0.37890358604E+02  0.00000000000E+00 0. -1.
        -13    1    3    3    0    0 -0.37930381191E+02  0.24490651495E+02  0.34069478815E+02  0.56561782280E+02  0.00000000000E+00 0.  1.
         13    1    3    3    0    0  0.38422454361E+02  0.10496181008E+02  0.12324906723E+03  0.12952523842E+03  0.00000000000E+00 0. -1.
         21    1    1    2  503  501  0.15481691640E+02 -0.16548593766E+02  0.26647363232E+02  0.34980290149E+02  0.00000000000E+00 0.  1.
         -2    1    1    2    0  502 -0.27314920798E+02  0.34424675756E+01 -0.62799685639E+02  0.68569351737E+02  0.00000000000E+00 0.  1.
<scales pt_clust_5="13000.00000" pt_clust_6="13000.00000" pt_clust_7="13000.00000" pt_clust_8="13000.00000" pt_clust_9="22.66139" pt_clust_10="27.30164"></scales>
<clustering>
<clus scale="   22.661">  1  9  2 -1</clus>
<clus scale="   27.302">  2 10  1 -1</clus>
<clus scale="   81.578">  5  6 -1 -1</clus>
<clus scale="   84.877">  2  5  1 -1</clus>
<clus scale="   93.032">  7  8 -1 -1</clus>
<clus scale="   27.302">  2  5  1 -1</clus>
</clustering>
</event>
<event>
10    4  0.2857708E-005  0.1483329E+03  0.7546771E-02  0.1219223E+00
         -1   -1    0    0    0  501 -0.00000000000E+00  0.00000000000E+00  0.44368892872E+03  0.44368892872E+03  0.00000000000E+00 0.  1.
         21   -1    0    0  503  502  0.00000000000E+00 -0.00000000000E+00 -0.20961245958E+03  0.20961245958E+03  0.00000000000E+00 0. -1.
         23    2    1    2    0    0  0.29091365998E+02 -0.40391225195E+02  0.29947374984E+03  0.31710720230E+03  0.91622553251E+02 0.  0.
         24    2    1    2    0    0 -0.11568750785E+03  0.30225705176E+02 -0.12585696743E+03  0.19174665566E+03  0.81422423078E+02 0.  0.
        -13    1    4    4    0    0 -0.26788022436E+02  0.39062909182E+02 -0.75685614856E+02  0.89285056510E+02  0.00000000000E+00 0.  1.
         14    1    4    4    0    0 -0.88899485409E+02 -0.88372040060E+01 -0.50171352576E+02  0.10246159915E+03  0.00000000000E+00 0. -1.
        -11    1    3    3    0    0  0.50020857813E+02 -0.49436445885E+00  0.22127042981E+03  0.22685443289E+03  0.00000000000E+00 0. -1.
         11    1    3    3    0    0 -0.20929491815E+02 -0.39896860736E+02  0.78203320023E+02  0.90252769414E+02  0.00000000000E+00 0.  1.
         21    1    1    2  503  501  0.10716603682E+03  0.45085406644E+01  0.60433039075E+02  0.12311392529E+03  0.00000000000E+00 0.  1.
         -2    1    1    2    0  502 -0.20569894976E+02  0.56569793544E+01  0.26647661130E-01  0.21333605060E+02  0.00000000000E+00 0.  1.
<scales pt_clust_5="13000.00000" pt_clust_6="13000.00000" pt_clust_7="13000.00000" pt_clust_8="13000.00000" pt_clust_9="123.98800" pt_clust_10="21.33359"></scales>
<clustering>
<clus scale="   21.334">  2 10  1 -1</clus>
<clus scale="   81.422">  5  6 -1 -1</clus>
<clus scale="   91.623">  7  8 -1 -1</clus>
<clus scale="  103.923">  1  7  2 -1</clus>
<clus scale="  123.988">  1  9  2 -1</clus>
<clus scale="   21.334">  2  5  1 -1</clus>
</clustering>
</event>
<event>
10    4  0.2857708E-005  0.2419859E+03  0.7546771E-02  0.1150560E+00
          4   -1    0    0  503    0 -0.00000000000E+00  0.00000000000E+00  0.25336429927E+04  0.25336429927E+04  0.00000000000E+00 0. -1.
         21   -1    0    0  501  502  0.00000000000E+00 -0.00000000000E+00 -0.49847934619E+02  0.49847934619E+02  0.00000000000E+00 0.  1.
         24    2    1    2    0    0 -0.25333330224E+02  0.59564552834E+02  0.71535502229E+03  0.72269309025E+03  0.79767043327E+02 0.  0.
         23    2    1    2    0    0 -0.18995303751E+03  0.86822362315E+02  0.59268647859E+03  0.63602980666E+03  0.98165034556E+02 0.  0.
        -13    1    3    3    0    0 -0.50524674837E+02  0.51641152119E+02  0.42082415121E+03  0.42698069933E+03  0.00000000000E+00 0.  1.
         14    1    3    3    0    0  0.25191344612E+02  0.79234007149E+01  0.29453087109E+03  0.29571239092E+03  0.00000000000E+00 0. -1.
        -13    1    4    4    0    0 -0.15082882044E+03  0.21463973297E+02  0.35137177283E+03  0.38297801238E+03  0.00000000000E+00 0.  1.
         13    1    4    4    0    0 -0.39124217070E+02  0.65358389018E+02  0.24131470576E+03  0.25305179428E+03  0.00000000000E+00 0. -1.
         21    1    1    2  503  502  0.60128235291E+02  0.49195554174E+02  0.46497010214E+03  0.47141574339E+03  0.00000000000E+00 0.  1.
          3    1    1    2  501    0  0.15515813244E+03 -0.19558246932E+03  0.71078345509E+03  0.75335228704E+03  0.00000000000E+00 0. -1.
<scales pt_clust_5="13000.00000" pt_clust_6="13000.00000" pt_clust_7="13000.00000" pt_clust_8="13000.00000" pt_clust_9="77.68917" pt_clust_10="221.18053"></scales>
<clustering>
<clus scale="   77.689">  1  9  2 -1</clus>
<clus scale="   79.767">  5  6 -1 -1</clus>
<clus scale="   98.165">  7  8 -1 -1</clus>
<clus scale="  110.741">  1  5  2 -1</clus>
<clus scale="  221.181">  2 10  1 -1</clus>
<clus scale="  221.181">  2  5  1 -1</clus>
</clustering>
</event>
<event>
10    4  0.2857708E-005  0.1498150E+03  0.7546771E-02  0.1202938E+00
         -1   -1    0    0    0  501 -0.00000000000E+00  0.00000000000E+00  0.23296293747E+03  0.23296293747E+03  0.00000000000E+00 0.  1.
         21   -1    0    0  503  502  0.00000000000E+00 -0.00000000000E+00 -0.36697781154E+03  0.36697781154E+03  0.00000000000E+00 0. -1.
         23    2    1    2    0    0 -0.74115810283E+02 -0.93441048115E+02 -0.32086050055E+02  0.15472041677E+03  0.93190718162E+02 0.  0.
         24    2    1    2    0    0  0.12660310057E+03 -0.10584948783E+02 -0.19227512415E+03  0.24438034982E+03  0.81312027400E+02 0.  0.
        -13    1    4    4    0    0  0.42492503498E+02  0.26185474585E+02 -0.30842707263E+02  0.58673371507E+02  0.00000000000E+00 0.  1.
         14    1    4    4    0    0  0.84110597071E+02 -0.36770423368E+02 -0.16143241688E+03  0.18570697832E+03  0.00000000000E+00 0. -1.
        -11    1    3    3    0    0  0.62163422949E+01 -0.19970089414E+02  0.24348847802E+02  0.32098501087E+02  0.00000000000E+00 0.  1.
         11    1    3    3    0    0 -0.80332152578E+02 -0.73470958701E+02 -0.56434897858E+02  0.12262191569E+03  0.00000000000E+00 0. -1.
         21    1    1    2  503  501 -0.48165077222E+02 -0.20190120241E+02  0.43654396409E+02  0.68067774644E+02  0.00000000000E+00 0. -1.
         -2    1    1    2    0  502 -0.43222130637E+01  0.12421611714E+03  0.46691903726E+02  0.13277220777E+03  0.00000000000E+00 0.  1.
<scales pt_clust_5="13000.00000" pt_clust_6="13000.00000" pt_clust_7="13000.00000" pt_clust_8="13000.00000" pt_clust_9="52.22562" pt_clust_10="117.55040"></scales>
<clustering>
<clus scale="   52.226">  1  9  2 -1</clus>
<clus scale="   81.312">  5  6 -1 -1</clus>
<clus scale="   93.191">  7  8 -1 -1</clus>
<clus scale="  117.550">  2 10  1 -1</clus>
<clus scale="  142.729">  2  5  1 -1</clus>
<clus scale="  117.550">  2  5  1 -1</clus>
</clustering>
</event>
<event>
10    4  0.2857708E-005  0.1047025E+03  0.7546771E-02  0.1274978E+00
         21   -1    0    0  501  502  0.00000000000E+00  0.00000000000E+00  0.46030620744E+02  0.46030620744E+02  0.00000000000E+00 0.  1.
          2   -1    0    0  503    0 -0.00000000000E+00 -0.00000000000E+00 -0.63860489490E+03  0.63860489490E+03  0.00000000000E+00 0. -1.
         24    2    1    2    0    0  0.16332805237E+02  0.34408059207E+02 -0.26745913713E+03  0.28205032228E+03  0.81038997998E+02 0.  0.
         23    2    1    2    0    0 -0.49698082853E+02 -0.39046546866E+02 -0.16400773897E+03  0.19779496042E+03  0.90718111007E+02 0.  0.
        -11    1    3    3    0    0 -0.23392312175E+02  0.19676426300E+02 -0.38276210360E+02  0.48983980038E+02  0.00000000000E+00 0.  1.
         12    1    3    3    0    0  0.39725117412E+02  0.14731632907E+02 -0.22918292677E+03  0.23306634224E+03  0.00000000000E+00 0. -1.
        -11    1    4    4    0    0 -0.27146825387E+02 -0.45240707727E+02 -0.27881689381E+02  0.59674620795E+02  0.00000000000E+00 0.  1.
         11    1    4    4    0    0 -0.22551257466E+02  0.61941608616E+01 -0.13612604958E+03  0.13812033962E+03  0.00000000000E+00 0. -1.
         21    1    1    2  503  502  0.15325176425E+02  0.22151927361E+02 -0.17431877777E+03  0.17638765604E+03  0.00000000000E+00 0. -1.
          1    1    1    2  501    0  0.18040101190E+02 -0.17513439702E+02  0.13211379715E+02  0.28402576910E+02  0.00000000000E+00 0. -1.
<scales pt_clust_5="13000.00000" pt_clust_6="13000.00000" pt_clust_7="13000.00000" pt_clust_8="13000.00000" pt_clust_9="26.78596" pt_clust_10="25.14291"></scales>
<clustering>
<clus scale="   25.143">  1 10  2 -1</clus>
<clus scale="   26.786">  2  9  1 -1</clus>
<clus scale="   81.039">  5  6 -1 -1</clus>
<clus scale="   90.718">  7  8 -1 -1</clus>
<clus scale="   96.437">  2  5  1 -1</clus>
<clus scale="   25.143">  1  5  2 -1</clus>
</clustering>
</event>
<event>
10    4  0.2857708E-005  0.1712832E+03  0.7546771E-02  0.1179994E+00
         -3   -1    0    0    0  501 -0.00000000000E+00  0.00000000000E+00  0.17105525209E+03  0.17105525209E+03  0.00000000000E+00 0.  1.
         21   -1    0    0  503  502  0.00000000000E+00 -0.00000000000E+00 -0.36527427087E+03  0.36527427087E+03  0.00000000000E+00 0. -1.
         24    2    1    2    0    0 -0.10625720528E+03  0.53972497357E+02  0.47328883813E+02  0.15001795826E+03  0.77857179582E+02 0.  0.
         23    2    1    2    0    0  0.11576448366E+03 -0.48746491265E+02 -0.12970898425E+03  0.20717711275E+03  0.10158887423E+03 0.  0.
        -11    1    3    3    0    0 -0.41313279663E+02 -0.16900502346E+02  0.47731069493E+01  0.44890941247E+02  0.00000000000E+00 0.  1.
         12    1    3    3    0    0 -0.64943925615E+02  0.70872999703E+02  0.42555776864E+02  0.10512701701E+03  0.00000000000E+00 0. -1.
        -11    1    4    4    0    0  0.37999651525E+02  0.83207804100E+01  0.73405181217E+01  0.39586514231E+02  0.00000000000E+00 0.  1.
         11    1    4    4    0    0  0.77764832132E+02 -0.57067271675E+02 -0.13704950237E+03  0.16759059852E+03  0.00000000000E+00 0. -1.
         21    1    1    2  503  501 -0.43228303884E+02  0.18847343088E+02  0.11905577064E+02  0.48637962163E+02  0.00000000000E+00 0.  1.
         -4    1    1    2    0  502  0.33721025505E+02 -0.24073349181E+02 -0.12374449541E+03  0.13049648979E+03  0.00000000000E+00 0.  1.
<scales pt_clust_5="13000.00000" pt_clust_6="13000.00000" pt_clust_7="13000.00000" pt_clust_8="13000.00000" pt_clust_9="44.03753" pt_clust_10="41.43228"></scales>
<clustering>
<clus scale="   41.432">  2 10  1 -1</clus>
<clus scale="   44.038">  1  9  2 -1</clus>
<clus scale="   77.857">  5  6 -1 -1</clus>
<clus scale="  101.589">  7  8 -1 -1</clus>
<clus scale="  158.365">  1  5  2 -1</clus>
<clus scale="   41.432">  2  5  1 -1</clus>
</clustering>
</event>
<event>
10    4  0.2857708E-005  0.1003537E+03  0.7546771E-02  0.1284871E+00
          2   -1    0    0  503    0 -0.00000000000E+00  0.00000000000E+00  0.32893078303E+03  0.32893078303E+03  0.00000000000E+00 0. -1.
         21   -1    0    0  501  502  0.00000000000E+00 -0.00000000000E+00 -0.20558853299E+03  0.20558853299E+03  0.00000000000E+00 0.  1.
         23    2    1    2    0    0  0.41987801171E+02 -0.45172495185E+02  0.23507255597E+03  0.25968201563E+03  0.91499250848E+02 0.  0.
         24    2    1    2    0    0 -0.22595817721E+01  0.27249797204E+02 -0.12147574425E+03  0.14844872569E+03  0.80827041032E+02 0.  0.
        -13    1    4    4    0    0  0.26789841026E+02  0.43440992234E+02 -0.84500482122E+02  0.98717510439E+02  0.00000000000E+00 0.  1.
         14    1    4    4    0    0 -0.29049422798E+02 -0.16191195030E+02 -0.36975262126E+02  0.49731215254E+02  0.00000000000E+00 0. -1.
        -11    1    3    3    0    0 -0.92238498773E+01 -0.56762567487E+02  0.11283198224E+03  0.12664171781E+03  0.00000000000E+00 0.  1.
         11    1    3    3    0    0  0.51211651048E+02  0.11590072302E+02  0.12224057373E+03  0.13304029782E+03  0.00000000000E+00 0. -1.
         21    1    1    2  503  502 -0.91776452049E+01  0.19217435261E+02  0.62159809506E+02  0.65706779767E+02  0.00000000000E+00 0.  1.
          1    1    1    2  501    0 -0.30550574194E+02 -0.12947372795E+01 -0.52414371192E+02  0.60681794928E+02  0.00000000000E+00 0. -1.
<scales pt_clust_5="13000.00000" pt_clust_6="13000.00000" pt_clust_7="13000.00000" pt_clust_8="13000.00000" pt_clust_9="21.29645" pt_clust_10="30.70986"></scales>
<clustering>
<clus scale="   21.296">  1  9  2 -1</clus>
<clus scale="   30.710">  2 10  1 -1</clus>
<clus scale="   80.827">  5  6 -1 -1</clus>
<clus scale="   90.729">  2  5  1 -1</clus>
<clus scale="   91.499">  7  8 -1 -1</clus>
<clus scale="   30.710">  2  5  1 -1</clus>
</clustering>
</event>
<event>
10    4  0.2857708E-005  0.1568616E+03  0.7546771E-02  0.1194492E+00
         21   -1    0    0  501  502  0.00000000000E+00  0.00000000000E+00  0.18449220527E+03  0.18449220527E+03  0.00000000000E+00 0. -1.
          2   -1    0    0  503    0 -0.00000000000E+00 -0.00000000000E+00 -0.24598728952E+03  0.24598728952E+03  0.00000000000E+00 0. -1.
         23    2    1    2    0    0 -0.72146011940E+02  0.92629800055E+02  0.19781162612E+02  0.15118763549E+03  0.93172312591E+02 0.  0.
         24    2    1    2    0    0  0.64443245885E+02 -0.11955659293E+03  0.24352872089E+01  0.15767490922E+03  0.80054578379E+02 0.  0.
        -11    1    4    4    0    0  0.47035815726E+01 -0.28755125276E+02  0.33726138375E+02  0.44569421344E+02  0.00000000000E+00 0.  1.
         12    1    4    4    0    0  0.59739664313E+02 -0.90801467654E+02 -0.31290851166E+02  0.11310548787E+03  0.00000000000E+00 0. -1.
        -13    1    3    3    0    0 -0.68029628129E+02  0.12055218041E+02  0.61260074152E+01  0.69360554729E+02  0.00000000000E+00 0.  1.
         13    1    3    3    0    0 -0.41163838107E+01  0.80574582014E+02  0.13655155196E+02  0.81827080761E+02  0.00000000000E+00 0. -1.
         21    1    1    2  503  502  0.42320749816E+02  0.78789643919E+01 -0.64840774715E+02  0.77829621678E+02  0.00000000000E+00 0. -1.
          1    1    1    2  501    0 -0.34617983761E+02  0.19047828483E+02 -0.18870759358E+02  0.43787328400E+02  0.00000000000E+00 0. -1.
<scales pt_clust_5="13000.00000" pt_clust_6="13000.00000" pt_clust_7="13000.00000" pt_clust_8="13000.00000" pt_clust_9="41.90544" pt_clust_10="39.51235"></scales>
<clustering>
<clus scale="   39.512">  1 10  2 -1</clus>
<clus scale="   41.905">  2  9  1 -1</clus>
<clus scale="   80.055">  5  6 -1 -1</clus>
<clus scale="   93.172">  7  8 -1 -1</clus>
<clus scale="  149.443">  1  5  2 -1</clus>
<clus scale="   39.512">  1  5  2 -1</clus>
</clustering>
</event>
<event>
10    4  0.2857708E-005  0.1620399E+03  0.7546771E-02  0.1206586E+00
         21   -1    0    0  503  502  0.00000000000E+00  0.00000000000E+00  0.39292439354E+03  0.39292439354E+03  0.00000000000E+00 0. -1.
         -1   -1    0    0    0  501 -0.00000000000E+00 -0.00000000000E+00 -0.23341924148E+03  0.23341924148E+03  0.00000000000E+00 0.  1.
         24    2    1    2    0    0 -0.65484071764E+01 -0.64221067349E+02 -0.12103126121E+03  0.15850035484E+03  0.79413910409E+02 0.  0.
         23    2    1    2    0    0  0.55774964723E+02 -0.63323511412E+02  0.22775997409E+02  0.12679211585E+03  0.91851950423E+02 0.  0.
        -11    1    3    3    0    0 -0.34958380196E+02 -0.34445769026E+01 -0.37918663324E+02  0.51689249213E+02  0.00000000000E+00 0.  1.
         12    1    3    3    0    0  0.28409973019E+02 -0.60776490446E+02 -0.83112597885E+02  0.10681110563E+03  0.00000000000E+00 0. -1.
        -11    1    4    4    0    0  0.20196878234E+02 -0.74155318435E+02  0.39036941851E+02  0.86202134380E+02  0.00000000000E+00 0. -1.
         11    1    4    4    0    0  0.35578086489E+02  0.10831807023E+02 -0.16260944442E+02  0.40589981470E+02  0.00000000000E+00 0.  1.
         21    1    1    2  503  501  0.30834918076E+02 -0.29444735540E+01 -0.10055785368E+02  0.32566561327E+02  0.00000000000E+00 0.  1.
         -2    1    1    2    0  502 -0.80061475623E+02  0.13048905232E+03  0.26781620122E+03  0.30848460300E+03  0.00000000000E+00 0.  1.
<scales pt_clust_5="13000.00000" pt_clust_6="13000.00000" pt_clust_7="13000.00000" pt_clust_8="13000.00000" pt_clust_9="30.97519" pt_clust_10="133.49208"></scales>
<clustering>
<clus scale="   30.975">  2  9  1 -1</clus>
<clus scale="   79.414">  5  6 -1 -1</clus>
<clus scale="   91.852">  7  8 -1 -1</clus>
<clus scale="  104.276">  2  5  1 -1</clus>
<clus scale="  133.492">  1 10  2 -1</clus>
<clus scale="  133.492">  1  5  2 -1</clus>
</clustering>
</event>
<event>
10    4  0.2857708E-005  0.1467119E+03  0.7546771E-02  0.1224823E+00
          4   -1    0    0  503    0 -0.00000000000E+00  0.00000000000E+00  0.26412328827E+03  0.26412328827E+03  0.00000000000E+00 0. -1.
         21   -1    0    0  501  502  0.00000000000E+00 -0.00000000000E+00 -0.20672181469E+03  0.20672181469E+03  0.00000000000E+00 0.  1.
         24    2    1    2    0    0 -0.19374605851E+02 -0.41868877223E+02 -0.79572612297E+02  0.12185230389E+03  0.79923745557E+02 0.  0.
         23    2    1    2    0    0  0.14679254877E+03  0.39366849495E+02  0.10815217854E+03  0.20459196181E+03  0.84042702837E+02 0.  0.
        -11    1    3    3    0    0  0.10683374331E+02 -0.45130457701E+02 -0.12122486075E+02  0.47935867240E+02  0.00000000000E+00 0.  1.
         12    1    3    3    0    0 -0.30057980182E+02  0.32615804784E+01 -0.67450126221E+02  0.73916436650E+02  0.00000000000E+00 0. -1.
        -13    1    4    4    0    0  0.98815070400E+02  0.65587925746E+02  0.67541421137E+02  0.13648456950E+03  0.00000000000E+00 0.  1.
         13    1    4    4    0    0  0.47977478372E+02 -0.26221076251E+02  0.40610757403E+02  0.68107392312E+02  0.00000000000E+00 0. -1.
         21    1    1    2  503  502 -0.25104074258E+02  0.27186989434E+01 -0.18864679039E+02  0.31519549228E+02  0.00000000000E+00 0.  1.
          3    1    1    2  501    0 -0.10231386866E+03 -0.21667121608E+00  0.47686586382E+02  0.11288128803E+03  0.00000000000E+00 0. -1.
<scales pt_clust_5="13000.00000" pt_clust_6="13000.00000" pt_clust_7="13000.00000" pt_clust_8="13000.00000" pt_clust_9="25.25086" pt_clust_10="120.25472"></scales>
<clustering>
<clus scale="   25.251">  2  9  1 -1</clus>
<clus scale="   79.924">  5  6 -1 -1</clus>
<clus scale="   84.043">  7  8 -1 -1</clus>
<clus scale="   95.529">  1  5  2 -1</clus>
<clus scale="  120.255">  2 10  1 -1</clus>
<clus scale="   25.251">  2  5  1 -1</clus>
</clustering>
</event>
<event>
10    4  0.2857708E-005  0.1095488E+03  0.7546771E-02  0.1263223E+00
         -1   -1    0    0    0  501 -0.00000000000E+00  0.00000000000E+00  0.29796162684E+03  0.29796162684E+03  0.00000000000E+00 0.  1.
         21   -1    0    0  503  502  0.00000000000E+00 -0.00000000000E+00 -0.16435065104E+03  0.16435065104E+03  0.00000000000E+00 0. -1.
         23    2    1    2    0    0  0.79373021575E+02 -0.56789613323E+02  0.89023682038E+02  0.16082823138E+03  0.91735311140E+02 0.  0.
         24    2    1    2    0    0  0.40775269355E+02  0.58483383617E+02  0.62392999601E+02  0.12871481914E+03  0.87130301948E+02 0.  0.
        -13    1    4    4    0    0  0.86931629811E+01 -0.20304606471E+02  0.30944453134E+02  0.38018512679E+02  0.00000000000E+00 0.  1.
         14    1    4    4    0    0  0.32082106374E+02  0.78787990087E+02  0.31448546467E+02  0.90696306464E+02  0.00000000000E+00 0. -1.
        -13    1    3    3    0    0  0.55302380895E+02 -0.70385309996E+02  0.27925963907E+02  0.93767289905E+02  0.00000000000E+00 0.  1.
         13    1    3    3    0    0  0.24070640680E+02  0.13595696673E+02  0.61097718130E+02  0.67060941475E+02  0.00000000000E+00 0. -1.
         21    1    1    2  503  501 -0.41213269170E+02  0.45368440076E+01  0.52487704580E+02  0.66888531463E+02  0.00000000000E+00 0.  1.
         -2    1    1    2    0  502 -0.78935021761E+02 -0.62306143012E+01 -0.70293410417E+02  0.10588069589E+03  0.00000000000E+00 0.  1.
<scales pt_clust_5="13000.00000" pt_clust_6="13000.00000" pt_clust_7="13000.00000" pt_clust_8="13000.00000" pt_clust_9="41.46223" pt_clust_10="82.22408"></scales>
<clustering>
<clus scale="   41.462">  1  9  2 -1</clus>
<clus scale="   82.224">  2 10  1 -1</clus>
<clus scale="   87.130">  5  6 -1 -1</clus>
<clus scale="   91.735">  7  8 -1 -1</clus>
<clus scale="  105.723">  2  5  1 -1</clus>
<clus scale="   82.224">  2  5  1 -1</clus>
</clustering>
</event>
<event>
10    4  0.2857708E-005  0.9347705E+02  0.7546771E-02  0.1298086E+00
         -1   -1    0    0    0  501 -0.00000000000E+00  0.00000000000E+00  0.37367813599E+03  0.37367813599E+03  0.00000000000E+00 0.  1.
         21   -1    0    0  503  502  0.00000000000E+00 -0.00000000000E+00 -0.12604559940E+03  0.12604559940E+03  0.00000000000E+00 0. -1.
         23    2    1    2    0    0  0.29191870816E+02  0.10641951878E+02  0.17788090158E+03  0.20216441281E+03  0.90903345363E+02 0.  0.
         24    2    1    2    0    0  0.59423095915E+01 -0.45947846879E+02 -0.83943540754E+02  0.12809873778E+03  0.84948530950E+02 0.  0.
        -13    1    4    4    0    0 -0.56612343446E+01 -0.40862409709E+02  0.19279326809E+01  0.41297736329E+02  0.00000000000E+00 0.  1.
         14    1    4    4    0    0  0.11603543936E+02 -0.50854371706E+01 -0.85871473434E+02  0.86801001451E+02  0.00000000000E+00 0. -1.
        -13    1    3    3    0    0 -0.14495158041E+01  0.20219858940E+02 -0.11246065718E+01  0.20302919286E+02  0.00000000000E+00 0. -1.
         13    1    3    3    0    0  0.30641386621E+02 -0.95779070620E+01  0.17900550815E+03  0.18186149352E+03  0.00000000000E+00 0.  1.
         21    1    1    2  503  501 -0.25728806526E+02  0.85205444953E+01  0.12905411765E+03  0.13186939162E+03  0.00000000000E+00 0. -1.
         -2    1    1    2    0  502 -0.94053738820E+01  0.26785350506E+02  0.24641058109E+02  0.37591193175E+02  0.00000000000E+00 0.  1.
<scales pt_clust_5="13000.00000" pt_clust_6="13000.00000" pt_clust_7="13000.00000" pt_clust_8="13000.00000" pt_clust_9="27.10297" pt_clust_10="30.63095"></scales>
<clustering>
<clus scale="   27.103">  1  9  2 -1</clus>
<clus scale="   30.631">  2 10  1 -1</clus>
<clus scale="   84.949">  5  6 -1 -1</clus>
<clus scale="   87.697">  2  5  1 -1</clus>
<clus scale="   90.903">  7  8 -1 -1</clus>
<clus scale="   30.631">  2  5  1 -1</clus>
</clustering>
</event>
<event>
10    4  0.2857708E-005  0.9131520E+02  0.7546771E-02  0.1302634E+00
         21   -1    0    0  501  502  0.00000000000E+00  0.00000000000E+00  0.47228402840E+02  0.47228402840E+02  0.00000000000E+00 0.  1.
          2   -1    0    0  503    0 -0.00000000000E+00 -0.00000000000E+00 -0.71378471935E+03  0.71378471935E+03  0.00000000000E+00 0. -1.
         24    2    1    2    0    0  0.14150745734E+02  0.98061410137E+01 -0.46923773794E+03  0.47623706623E+03  0.79506506297E+02 0.  0.
         23    2    1    2    0    0 -0.77767419030E+01 -0.25996851821E+02 -0.54228138958E+02  0.10417553711E+03  0.84708544182E+02 0.  0.
        -11    1    3    3    0    0 -0.58129707513E+01 -0.33314881953E+02 -0.19928138346E+03  0.20213050681E+03  0.00000000000E+00 0.  1.
         12    1    3    3    0    0  0.19963716485E+02  0.43121022967E+02 -0.26995635447E+03  0.27410655942E+03  0.00000000000E+00 0. -1.
        -13    1    4    4    0    0 -0.21207410279E+02 -0.23025689699E+01  0.17409919328E+02  0.27534730171E+02  0.00000000000E+00 0.  1.
         13    1    4    4    0    0  0.13430668376E+02 -0.23694282851E+02 -0.71638058286E+02  0.76640806936E+02  0.00000000000E+00 0. -1.
         21    1    1    2  503  502  0.14812413541E+02  0.18397870351E+02 -0.15459654336E+03  0.15639047429E+03  0.00000000000E+00 0. -1.
          1    1    1    2  501    0 -0.21186417371E+02 -0.22071595441E+01  0.11506103747E+02  0.24210044563E+02  0.00000000000E+00 0. -1.
<scales pt_clust_5="13000.00000" pt_clust_6="13000.00000" pt_clust_7="13000.00000" pt_clust_8="13000.00000" pt_clust_9="23.16601" pt_clust_10="21.30108"></scales>
<clustering>
<clus scale="   21.301">  1 10  2 -1</clus>
<clus scale="   23.166">  2  9  1 -1</clus>
<clus scale="   79.507">  5  6 -1 -1</clus>
<clus scale="   84.709">  7  8 -1 -1</clus>
<clus scale="   86.511">  2  5  1 -1</clus>
<clus scale="   21.301">  1  5  2 -1</clus>
</clustering>
</event>
<event>
10    4  0.2857708E-005  0.1241237E+03  0.7546771E-02  0.1240077E+00
         21   -1    0    0  503  502  0.00000000000E+00  0.00000000000E+00  0.94146987469E+02  0.94146987469E+02  0.00000000000E+00 0. -1.
         -1   -1    0    0    0  501 -0.00000000000E+00 -0.00000000000E+00 -0.51479401923E+03  0.51479401923E+03  0.00000000000E+00 0.  1.
         24    2    1    2    0    0  0.60908157479E+02  0.26777622403E+02 -0.20140049689E+03  0.22750306691E+03  0.82271748463E+02 0.  0.
         23    2    1    2    0    0 -0.86120504854E+02  0.17211448772E+02  0.74661085591E+01  0.12905867306E+03  0.94273129739E+02 0.  0.
        -13    1    3    3    0    0  0.25445191713E+02  0.23662953913E+02 -0.18512809584E+03  0.18836083732E+03  0.00000000000E+00 0.  1.
         14    1    3    3    0    0  0.35462965767E+02  0.31146684898E+01 -0.16272401056E+02  0.39142229585E+02  0.00000000000E+00 0. -1.
        -13    1    4    4    0    0 -0.28453151049E+02  0.53468832147E+02  0.34583244623E+00  0.60569112721E+02  0.00000000000E+00 0.  1.
         13    1    4    4    0    0 -0.57667353805E+02 -0.36257383375E+02  0.71202761129E+01  0.68489560343E+02  0.00000000000E+00 0. -1.
         21    1    1    2  503  501  0.25162872269E+02  0.18883199477E+01 -0.19495782609E+03  0.19658405288E+03  0.00000000000E+00 0.  1.
         -2    1    1    2    0  502  0.49475105772E-01 -0.45877391123E+02 -0.31754817339E+02  0.55795213847E+02  0.00000000000E+00 0.  1.
<scales pt_clust_5="13000.00000" pt_clust_6="13000.00000" pt_clust_7="13000.00000" pt_clust_8="13000.00000" pt_clust_9="25.23363" pt_clust_10="45.75255"></scales>
<clustering>
<clus scale="   25.234">  2  9  1 -1</clus>
<clus scale="   45.753">  1 10  2 -1</clus>
<clus scale="   82.272">  5  6 -1 -1</clus>
<clus scale="   94.273">  7  8 -1 -1</clus>
<clus scale="  115.273">  2  5  1 -1</clus>
<clus scale="   45.753">  1  5  2 -1</clus>
</clustering>
</event>
<event>
10    4  0.2857708E-005  0.1125449E+03  0.7546771E-02  0.1262013E+00
         21   -1    0    0  501  502  0.00000000000E+00  0.00000000000E+00  0.50934444157E+02  0.50934444157E+02  0.00000000000E+00 0. -1.
          2   -1    0    0  503    0 -0.00000000000E+00 -0.00000000000E+00 -0.59839675831E+03  0.59839675831E+03  0.00000000000E+00 0. -1.
         23    2    1    2    0    0  0.78951825621E+02  0.27921005884E+02 -0.26781972177E+03  0.29546597808E+03  0.92519011556E+02 0.  0.
         24    2    1    2    0    0 -0.28863167957E+02 -0.42824571380E+02 -0.30011804030E+02  0.97102748632E+02  0.76558533374E+02 0.  0.
        -13    1    4    4    0    0 -0.22129454641E+02  0.17813508270E+02 -0.21226553943E+02  0.35462662505E+02  0.00000000000E+00 0.  1.
         14    1    4    4    0    0 -0.67337133157E+01 -0.60638079650E+02 -0.87852500872E+01  0.61640086127E+02  0.00000000000E+00 0. -1.
        -13    1    3    3    0    0 -0.13408936494E+02 -0.17338053703E+02 -0.45119250128E+02  0.50161284037E+02  0.00000000000E+00 0.  1.
         13    1    3    3    0    0  0.92360762115E+02  0.45259059587E+02 -0.22270047164E+03  0.24530469405E+03  0.00000000000E+00 0. -1.
         21    1    1    2  503  502 -0.24193542339E+02  0.37529133499E+01 -0.17973162298E+03  0.18139147761E+03  0.00000000000E+00 0. -1.
          1    1    1    2  501    0 -0.25895115325E+02  0.11150652146E+02 -0.69899165376E+02  0.75370998144E+02  0.00000000000E+00 0. -1.
<scales pt_clust_5="13000.00000" pt_clust_6="13000.00000" pt_clust_7="13000.00000" pt_clust_8="13000.00000" pt_clust_9="24.48289" pt_clust_10="32.33224"></scales>
<clustering>
<clus scale="   24.483">  2  9  1 -1</clus>
<clus scale="   32.332">  1 10  2 -1</clus>
<clus scale="   76.559">  5  6 -1 -1</clus>
<clus scale="   92.519">  7  8 -1 -1</clus>
<clus scale="   99.839">  1  5  2 -1</clus>
<clus scale="   32.332">  1  5  2 -1</clus>
</clustering>
</event>
<event>
10    4  0.2857708E-005  0.2235770E+03  0.7546771E-02  0.1173903E+00
         21   -1    0    0  501  502  0.00000000000E+00  0.00000000000E+00  0.11204258169E+03  0.11204258169E+03  0.00000000000E+00 0. -1.
          2   -1    0    0  503    0 -0.00000000000E+00 -0.00000000000E+00 -0.10484404348E+04  0.10484404348E+04  0.00000000000E+00 0. -1.
         24    2    1    2    0    0  0.10059297275E+02 -0.38975845720E+01 -0.46541835420E+03  0.47246478273E+03  0.80575094578E+02 0.  0.
         23    2    1    2    0    0 -0.16646525223E+03  0.11767054609E+03 -0.10235102645E+03  0.24521763670E+03  0.89993994885E+02 0.  0.
        -11    1    3    3    0    0  0.25164767525E+02 -0.19162555263E+02 -0.74238407678E+02  0.80695788139E+02  0.00000000000E+00 0.  1.
         12    1    3    3    0    0 -0.15105470250E+02  0.15264970691E+02 -0.39117994652E+03  0.39176899459E+03  0.00000000000E+00 0. -1.
        -13    1    4    4    0    0 -0.78487150935E+01  0.32114625838E+02 -0.45503122994E+02  0.56244872865E+02  0.00000000000E+00 0.  1.
         13    1    4    4    0    0 -0.15861653714E+03  0.85555920254E+02 -0.56847903456E+02  0.18897276384E+03  0.00000000000E+00 0. -1.
         21    1    1    2  503  502 -0.28070549610E+02 -0.18869434491E+02 -0.84309008535E+02  0.90840630962E+02  0.00000000000E+00 0.  1.
          1    1    1    2  501    0  0.18447650457E+03 -0.94903527029E+02 -0.28431946397E+03  0.35195996615E+03  0.00000000000E+00 0. -1.
<scales pt_clust_5="13000.00000" pt_clust_6="13000.00000" pt_clust_7="13000.00000" pt_clust_8="13000.00000" pt_clust_9="33.82324" pt_clust_10="204.66513"></scales>
<clustering>
<clus scale="   33.823">  2  9  1 -1</clus>
<clus scale="   80.575">  5  6 -1 -1</clus>
<clus scale="   81.715">  2  5  1 -1</clus>
<clus scale="   89.994">  7  8 -1 -1</clus>
<clus scale="  204.665">  1 10  2 -1</clus>
<clus scale="  204.665">  1  5  2 -1</clus>
</clustering>
</event>
<event>
10    4  0.2857708E-005  0.1053589E+03  0.7546771E-02  0.1275419E+00
         21   -1    0    0  501  502  0.00000000000E+00  0.00000000000E+00  0.64992450940E+02  0.64992450940E+02  0.00000000000E+00 0. -1.
          2   -1    0    0  503    0 -0.00000000000E+00 -0.00000000000E+00 -0.52418672768E+03  0.52418672768E+03  0.00000000000E+00 0. -1.
         23    2    1    2    0    0  0.32406327977E+02  0.93360142168E+01 -0.24840736928E+03  0.26698540236E+03  0.91856696564E+02 0.  0.
         24    2    1    2    0    0 -0.53553107120E+02  0.67566244263E+02 -0.44901556801E+02  0.12487672582E+03  0.78389503139E+02 0.  0.
        -13    1    4    4    0    0  0.19411142267E+02  0.24131236599E+02 -0.17913570734E+02  0.35777158081E+02  0.00000000000E+00 0.  1.
         14    1    4    4    0    0 -0.72964249387E+02  0.43435007663E+02 -0.26987986066E+02  0.89099567739E+02  0.00000000000E+00 0. -1.
        -11    1    3    3    0    0  0.17461478477E+02 -0.30560202930E+02 -0.35998154878E+02  0.50345768326E+02  0.00000000000E+00 0.  1.
         11    1    3    3    0    0  0.14944849500E+02  0.39896217147E+02 -0.21240921441E+03  0.21663963403E+03  0.00000000000E+00 0. -1.
         21    1    1    2  503  502 -0.75951823157E+01 -0.57417025241E+02 -0.14653414086E+03  0.15756476770E+03  0.00000000000E+00 0.  1.
          1    1    1    2  501    0  0.28741961459E+02 -0.19485233238E+02 -0.19351209796E+02  0.39752282745E+02  0.00000000000E+00 0. -1.
<scales pt_clust_5="13000.00000" pt_clust_6="13000.00000" pt_clust_7="13000.00000" pt_clust_8="13000.00000" pt_clust_9="59.56428" pt_clust_10="34.72427"></scales>
<clustering>
<clus scale="   34.724">  1 10  2 -1</clus>
<clus scale="   59.564">  2  9  1 -1</clus>
<clus scale="   78.390">  5  6 -1 -1</clus>
<clus scale="   91.857">  7  8 -1 -1</clus>
<clus scale="   93.850">  1  5  2 -1</clus>
<clus scale="   34.724">  1  5  2 -1</clus>
</clustering>
</event>
<event>
10    4  0.2857708E-005  0.9190288E+02  0.7546771E-02  0.1305000E+00
         21   -1    0    0  501  502  0.00000000000E+00  0.00000000000E+00  0.29081617855E+03  0.29081617855E+03  0.00000000000E+00 0.  1.
          2   -1    0    0  503    0 -0.00000000000E+00 -0.00000000000E+00 -0.20037688991E+03  0.20037688991E+03  0.00000000000E+00 0. -1.
         24    2    1    2    0    0 -0.16530146074E+02  0.27321259865E+02  0.61913458156E+02  0.10645172047E+03  0.80492207817E+02 0.  0.
         23    2    1    2    0    0 -0.32956039676E+02  0.20018903996E+02  0.15351727855E+03  0.18269089262E+03  0.91222532101E+02 0.  0.
        -13    1    3    3    0    0 -0.23430195120E+02 -0.16344140477E+02 -0.21139242430E+01  0.28645656686E+02  0.00000000000E+00 0.  1.
         14    1    3    3    0    0  0.69000490456E+01  0.43665400342E+02  0.64027382399E+02  0.77806063779E+02  0.00000000000E+00 0. -1.
        -11    1    4    4    0    0  0.18225856540E+02  0.39826169030E+02  0.60488894308E+02  0.74680733264E+02  0.00000000000E+00 0. -1.
         11    1    4    4    0    0 -0.51181896216E+02 -0.19807265035E+02  0.93028384245E+02  0.10801015935E+03  0.00000000000E+00 0.  1.
         21    1    1    2  503  502  0.40073701797E+02 -0.66495734074E+02 -0.15016450488E+03  0.16904722048E+03  0.00000000000E+00 0. -1.
          1    1    1    2  501    0  0.94124839536E+01  0.19155570214E+02  0.25173056811E+02  0.33003234896E+02  0.00000000000E+00 0. -1.
<scales pt_clust_5="13000.00000" pt_clust_6="13000.00000" pt_clust_7="13000.00000" pt_clust_8="13000.00000" pt_clust_9="77.22365" pt_clust_10="21.34317"></scales>
<clustering>
<clus scale="   21.343">  1 10  2 -1</clus>
<clus scale="   77.224">  2  9  1 -1</clus>
<clus scale="   80.492">  5  6 -1 -1</clus>
<clus scale="   81.262">  2  5  1 -1</clus>
<clus scale="   91.223">  7  8 -1 -1</clus>
<clus scale="   21.343">  1  5  2 -1</clus>
</clustering>
</event>
<event>
10    4  0.3093945E-005  0.2516346E+03  0.7546771E-02  0.1143383E+00
         21   -1    0    0  501  502  0.00000000000E+00  0.00000000000E+00  0.32274281324E+03  0.32274281324E+03  0.00000000000E+00 0. -1.
          2   -1    0    0  503    0 -0.00000000000E+00 -0.00000000000E+00 -0.10654032527E+04  0.10654032527E+04  0.00000000000E+00 0. -1.
         23    2    1    2    0    0  0.57500887358E+02 -0.43756273819E+02  0.52771611464E+02  0.12856138997E+03  0.92315894997E+02 0.  0.
         24    2    1    2    0    0 -0.18108467184E+03  0.23065121158E+03 -0.89832974207E+03  0.94830664276E+03  0.79356936843E+02 0.  0.
        -11    1    4    4    0    0 -0.56678675632E+01  0.55757847633E+02 -0.17173031055E+03  0.18064429650E+03  0.00000000000E+00 0.  1.
         12    1    4    4    0    0 -0.17541680428E+03  0.17489336395E+03 -0.72659943152E+03  0.76766234626E+03  0.00000000000E+00 0. -1.
        -11    1    3    3    0    0  0.42992012748E+02 -0.37079962773E+01  0.70310622405E+02  0.82496339431E+02  0.00000000000E+00 0.  1.
         11    1    3    3    0    0  0.14508874610E+02 -0.40048277542E+02 -0.17539010940E+02  0.46065050540E+02  0.00000000000E+00 0. -1.
         21    1    1    2  503  502 -0.26162271579E+02 -0.60709700856E+01 -0.30987768237E+02  0.41006864209E+02  0.00000000000E+00 0.  1.
          1    1    1    2  501    0  0.14974605606E+03 -0.18082396768E+03  0.13388545935E+03  0.27027116905E+03  0.00000000000E+00 0. -1.
<scales pt_clust_5="13000.00000" pt_clust_6="13000.00000" pt_clust_7="13000.00000" pt_clust_8="13000.00000" pt_clust_9="26.85742" pt_clust_10="238.79373"></scales>
<clustering>
<clus scale="   26.857">  2  9  1 -1</clus>
<clus scale="   79.357">  5  6 -1 -1</clus>
<clus scale="   92.316">  7  8 -1 -1</clus>
<clus scale="  116.846">  2  7  1 -1</clus>
<clus scale="  238.794">  1 10  2 -1</clus>
<clus scale="  238.794">  1  5  2 -1</clus>
</clustering>
</event>
<event>
10    4  0.2857708E-005  0.9489800E+02  0.7546771E-02  0.1297199E+00
         21   -1    0    0  503  502  0.00000000000E+00  0.00000000000E+00  0.58925300385E+03  0.58925300385E+03  0.00000000000E+00 0.  1.
         -3   -1    0    0    0  501 -0.00000000000E+00 -0.00000000000E+00 -0.54294298934E+02  0.54294298934E+02  0.00000000000E+00 0.  1.
         24    2    1    2    0    0 -0.31339403772E+02  0.12873119316E+02  0.72708324249E+01  0.87411926046E+02  0.80250260941E+02 0.  0.
         23    2    1    2    0    0 -0.17390483173E+01  0.24267986278E+02  0.34033510817E+03  0.35299575207E+03  0.90476824004E+02 0.  0.
        -11    1    3    3    0    0 -0.21097231976E+02 -0.14044253239E+01 -0.35417430376E+02  0.41248757339E+02  0.00000000000E+00 0.  1.
         12    1    3    3    0    0 -0.10242171796E+02  0.14277544640E+02  0.42688262801E+02  0.46163168707E+02  0.00000000000E+00 0. -1.
        -11    1    4    4    0    0  0.40929852017E+02 -0.27389406964E+01  0.19094559130E+03  0.19530226168E+03  0.00000000000E+00 0. -1.
         11    1    4    4    0    0 -0.42668900334E+02  0.27006926974E+02  0.14938951687E+03  0.15769349039E+03  0.00000000000E+00 0.  1.
         21    1    1    2  503  501 -0.16686124661E+02 -0.13599047312E+02  0.34386668405E+02  0.40568507589E+02  0.00000000000E+00 0.  1.
         -4    1    1    2    0  502  0.49764576750E+02 -0.23542058282E+02  0.15296609593E+03  0.16257111708E+03  0.00000000000E+00 0.  1.
<scales pt_clust_5="13000.00000" pt_clust_6="13000.00000" pt_clust_7="13000.00000" pt_clust_8="13000.00000" pt_clust_9="21.52582" pt_clust_10="52.69578"></scales>
<clustering>
<clus scale="   21.526">  1  9  2 -1</clus>
<clus scale="   52.696">  1 10  2 -1</clus>
<clus scale="   80.250">  5  6 -1 -1</clus>
<clus scale="   85.204">  2  5  1 -1</clus>
<clus scale="   90.477">  7  8 -1 -1</clus>
<clus scale="   21.526">  1  5  2 -1</clus>
</clustering>
</event>
<event>
10    4  0.2857708E-005  0.1485948E+03  0.7546771E-02  0.1203277E+00
         21   -1    0    0  501  502  0.00000000000E+00  0.00000000000E+00  0.55016457551E+02  0.55016457551E+02  0.00000000000E+00 0.  1.
          2   -1    0    0  503    0 -0.00000000000E+00 -0.00000000000E+00 -0.83966111811E+03  0.83966111811E+03  0.00000000000E+00 0. -1.
         23    2    1    2    0    0  0.51186647590E+02  0.12065659893E+03 -0.51805982805E+03  0.54139712366E+03  0.86872160732E+02 0.  0.
         24    2    1    2    0    0  0.27510737917E+01 -0.10433771128E+03 -0.11677608108E+03  0.17630113811E+03  0.80941409578E+02 0.  0.
        -11    1    4    4    0    0 -0.30500098164E+02 -0.69573145618E+02 -0.40405928943E+02  0.86042534092E+02  0.00000000000E+00 0.  1.
         12    1    4    4    0    0  0.33251171956E+02 -0.34764565666E+02 -0.76370152137E+02  0.90258604021E+02  0.00000000000E+00 0. -1.
        -13    1    3    3    0    0  0.33816495983E+02  0.29594738943E+02 -0.65457001876E+02  0.79397878236E+02  0.00000000000E+00 0.  1.
         13    1    3    3    0    0  0.17370151606E+02  0.91061859986E+02 -0.45260282618E+03  0.46199924543E+03  0.00000000000E+00 0. -1.
         21    1    1    2  503  502 -0.50211818922E+02  0.11252303449E+02 -0.13701096077E+03  0.14635519964E+03  0.00000000000E+00 0. -1.
          1    1    1    2  501    0 -0.37259024600E+01 -0.27571191094E+02 -0.12797790661E+02  0.30624114245E+02  0.00000000000E+00 0. -1.
<scales pt_clust_5="13000.00000" pt_clust_6="13000.00000" pt_clust_7="13000.00000" pt_clust_8="13000.00000" pt_clust_9="51.29161" pt_clust_10="27.82181"></scales>
<clustering>
<clus scale="   27.822">  1 10  2 -1</clus>
<clus scale="   51.292">  2  9  1 -1</clus>
<clus scale="   80.941">  5  6 -1 -1</clus>
<clus scale="   86.872">  7  8 -1 -1</clus>
<clus scale="  145.207">  1  5  2 -1</clus>
<clus scale="   27.822">  1  5  2 -1</clus>
</clustering>
</event>
<event>
10    4  0.2857708E-005  0.1143182E+03  0.7546771E-02  0.1256070E+00
          2   -1    0    0  503    0 -0.00000000000E+00  0.00000000000E+00  0.59230061498E+03  0.59230061498E+03  0.00000000000E+00 0. -1.
         21   -1    0    0  501  502  0.00000000000E+00 -0.00000000000E+00 -0.95263500671E+02  0.95263500671E+02  0.00000000000E+00 0. -1.
         24    2    1    2    0    0 -0.66111048630E+02 -0.34462797360E+02  0.40145872440E+03  0.41622603978E+03  0.80725792907E+02 0.  0.
         23    2    1    2    0    0  0.33631958444E+02  0.53027107239E+02  0.93015490793E+02  0.14391786070E+03  0.90097094126E+02 0.  0.
        -13    1    3    3    0    0 -0.58496610960E+02 -0.59643365927E+02  0.30056215471E+03  0.31195639669E+03  0.00000000000E+00 0.  1.
         14    1    3    3    0    0 -0.76144376705E+01  0.25180568567E+02  0.10089656969E+03  0.10426964309E+03  0.00000000000E+00 0. -1.
        -13    1    4    4    0    0  0.32310677164E+02 -0.18439846084E+02  0.22322895799E+02  0.43385705702E+02  0.00000000000E+00 0. -1.
         13    1    4    4    0    0  0.13212812794E+01  0.71466953323E+02  0.70692594994E+02  0.10053215500E+03  0.00000000000E+00 0.  1.
         21    1    1    2  503  502 -0.17394546480E+01 -0.52461041031E+02  0.40345665191E+02  0.66203921547E+02  0.00000000000E+00 0. -1.
          1    1    1    2  501    0  0.34218544834E+02  0.33896731152E+02 -0.37782766073E+02  0.61216293628E+02  0.00000000000E+00 0. -1.
<scales pt_clust_5="13000.00000" pt_clust_6="13000.00000" pt_clust_7="13000.00000" pt_clust_8="13000.00000" pt_clust_9="43.61126" pt_clust_10="48.16531"></scales>
<clustering>
<clus scale="   48.165">  2 10  1 -1</clus>
<clus scale="   43.611">  2  9  1 -1</clus>
<clus scale="   80.726">  5  6 -1 -1</clus>
<clus scale="   90.097">  7  8 -1 -1</clus>
<clus scale="  107.088">  1  5  2 -1</clus>
<clus scale="   48.165">  2  5  1 -1</clus>
</clustering>
</event>
<event>
10    4  0.2857708E-005  0.1800713E+03  0.7546771E-02  0.1168640E+00
         -1   -1    0    0    0  501 -0.00000000000E+00  0.00000000000E+00  0.32007718790E+03  0.32007718790E+03  0.00000000000E+00 0.  1.
         21   -1    0    0  503  502  0.00000000000E+00 -0.00000000000E+00 -0.30809509048E+03  0.30809509048E+03  0.00000000000E+00 0. -1.
         24    2    1    2    0    0 -0.10098001661E+03  0.99970171163E+02  0.16125840062E+03  0.23021709142E+03  0.82490232959E+02 0.  0.
         23    2    1    2    0    0  0.13490640513E+03 -0.11356468814E+03 -0.22497269182E+03  0.29972360752E+03  0.90137962604E+02 0.  0.
        -11    1    3    3    0    0 -0.10878520848E+03  0.68268538090E+02  0.10827787467E+03  0.16798485949E+03  0.00000000000E+00 0.  1.
         12    1    3    3    0    0  0.78051918721E+01  0.31701633072E+02  0.52980525959E+02  0.62232231926E+02  0.00000000000E+00 0. -1.
        -13    1    4    4    0    0  0.13069797048E+02 -0.31806783552E+02 -0.10406544599E+03  0.10959976334E+03  0.00000000000E+00 0.  1.
         13    1    4    4    0    0  0.12183660808E+03 -0.81757904586E+02 -0.12090724583E+03  0.19012384418E+03  0.00000000000E+00 0. -1.
         21    1    1    2  503  501 -0.33666768280E+01  0.20394114412E+02  0.55291384313E+01  0.21396863960E+02  0.00000000000E+00 0.  1.
         -2    1    1    2    0  502 -0.30559711692E+02 -0.67995974369E+01  0.70167250188E+02  0.76834715481E+02  0.00000000000E+00 0.  1.
<scales pt_clust_5="13000.00000" pt_clust_6="13000.00000" pt_clust_7="13000.00000" pt_clust_8="13000.00000" pt_clust_9="20.67013" pt_clust_10="31.42493"></scales>
<clustering>
<clus scale="   20.670">  1  9  2 -1</clus>
<clus scale="   31.425">  2 10  1 -1</clus>
<clus scale="   82.490">  5  6 -1 -1</clus>
<clus scale="   90.138">  7  8 -1 -1</clus>
<clus scale="  176.367">  1  5  2 -1</clus>
<clus scale="   31.425">  2  5  1 -1</clus>
</clustering>
</event>
<event>
10    4  0.2857708E-005  0.1097486E+03  0.7546771E-02  0.1266336E+00
         21   -1    0    0  503  502  0.00000000000E+00  0.00000000000E+00  0.63300415750E+03  0.63300415750E+03  0.00000000000E+00 0. -1.
         -3   -1    0    0    0  501 -0.00000000000E+00 -0.00000000000E+00 -0.52782318140E+02  0.52782318140E+02  0.00000000000E+00 0.  1.
         24    2    1    2    0    0  0.62264248628E+02 -0.30140743508E+02  0.91614761796E+02  0.13983657599E+03  0.79847995149E+02 0.  0.
         23    2    1    2    0    0 -0.46387709742E+02 -0.33579083481E+02  0.36519503055E+03  0.38115027733E+03  0.92891060413E+02 0.  0.
        -11    1    3    3    0    0  0.92351199755E+01 -0.25295611296E+02 -0.69465577730E+01  0.27810250928E+02  0.00000000000E+00 0.  1.
         12    1    3    3    0    0  0.53029128653E+02 -0.48451322124E+01  0.98561319569E+02  0.11202632506E+03  0.00000000000E+00 0. -1.
        -13    1    4    4    0    0  0.27601042465E+02  0.52740171108E+00  0.97360985178E+02  0.10119909650E+03  0.00000000000E+00 0.  1.
         13    1    4    4    0    0 -0.73988752206E+02 -0.34106485192E+02  0.26783404537E+03  0.27995118082E+03  0.00000000000E+00 0. -1.
         21    1    1    2  503  501 -0.63381297476E+00  0.49063989626E+02  0.10830084891E+02  0.50249055072E+02  0.00000000000E+00 0.  1.
         -4    1    1    2    0  502 -0.15242725912E+02  0.14655837363E+02  0.11258196212E+03  0.11455056725E+03  0.00000000000E+00 0.  1.
<scales pt_clust_5="13000.00000" pt_clust_6="13000.00000" pt_clust_7="13000.00000" pt_clust_8="13000.00000" pt_clust_9="49.94910" pt_clust_10="21.14555"></scales>
<clustering>
<clus scale="   21.146">  1 10  2 -1</clus>
<clus scale="   49.949">  2  9  1 -1</clus>
<clus scale="   79.848">  5  6 -1 -1</clus>
<clus scale="   92.891">  7  8 -1 -1</clus>
<clus scale="   98.953">  2  5  1 -1</clus>
<clus scale="   21.146">  1  5  2 -1</clus>
</clustering>
</event>
<event>
10    4  0.2857708E-005  0.1132530E+03  0.7546771E-02  0.1263561E+00
         21   -1    0    0  503  502  0.00000000000E+00  0.00000000000E+00  0.32798231865E+03  0.32798231865E+03  0.00000000000E+00 0.  1.
         -1   -1    0    0    0  501 -0.00000000000E+00 -0.00000000000E+00 -0.35944850519E+03  0.35944850519E+03  0.00000000000E+00 0.  1.
         24    2    1    2    0    0 -0.14201553859E+02  0.53254160004E+02 -0.82909686973E+02  0.12856286960E+03  0.81343134658E+02 0.  0.
         23    2    1    2    0    0 -0.46289843098E+01 -0.21371500822E+01  0.29041873110E+02  0.10619361860E+03  0.10201793633E+03 0.  0.
        -11    1    3    3    0    0  0.10697291502E+02  0.67252128469E+02 -0.47301971960E+02  0.82914156694E+02  0.00000000000E+00 0.  1.
         12    1    3    3    0    0 -0.24898845361E+02 -0.13997968465E+02 -0.35607715013E+02  0.45648712905E+02  0.00000000000E+00 0. -1.
        -11    1    4    4    0    0 -0.21890165377E+02  0.44150392751E+02  0.28216150919E+02  0.56785453181E+02  0.00000000000E+00 0.  1.
         11    1    4    4    0    0  0.17261181067E+02 -0.46287542833E+02  0.82572219028E+00  0.49408165423E+02  0.00000000000E+00 0. -1.
         21    1    1    2  503  501  0.18109467315E+02  0.27800889646E+02 -0.20722473287E+03  0.20986408026E+03  0.00000000000E+00 0.  1.
         -2    1    1    2    0  502  0.72107085433E+00 -0.78917899568E+02  0.22962636019E+03  0.24281025537E+03  0.00000000000E+00 0.  1.
<scales pt_clust_5="13000.00000" pt_clust_6="13000.00000" pt_clust_7="13000.00000" pt_clust_8="13000.00000" pt_clust_9="33.17894" pt_clust_10="77.71818"></scales>
<clustering>
<clus scale="   33.179">  2  9  1 -1</clus>
<clus scale="   77.718">  1 10  2 -1</clus>
<clus scale="   81.343">  5  6 -1 -1</clus>
<clus scale="   95.054">  2  5  1 -1</clus>
<clus scale="  102.018">  7  8 -1 -1</clus>
<clus scale="   77.718">  1  5  2 -1</clus>
</clustering>
</event>
<event>
10    4  0.2857708E-005  0.1244824E+03  0.7546771E-02  0.1238490E+00
          2   -1    0    0  503    0 -0.00000000000E+00  0.00000000000E+00  0.38726130971E+03  0.38726130971E+03  0.00000000000E+00 0. -1.
         21   -1    0    0  501  502  0.00000000000E+00 -0.00000000000E+00 -0.11051186634E+03  0.11051186634E+03  0.00000000000E+00 0.  1.
         24    2    1    2    0    0 -0.26276134453E+02 -0.89743747936E+02  0.15275908966E+03  0.19715424553E+03  0.82401950959E+02 0.  0.
         23    2    1    2    0    0  0.19431139028E+02  0.82408175844E+02 -0.21319970409E+00  0.12459564177E+03  0.91407613927E+02 0.  0.
        -11    1    3    3    0    0  0.73086667313E+01 -0.20329389694E+02 -0.44451158413E+01  0.22055832552E+02  0.00000000000E+00 0.  1.
         12    1    3    3    0    0 -0.33584801184E+02 -0.69414358241E+02  0.15720420550E+03  0.17509841298E+03  0.00000000000E+00 0. -1.
        -13    1    4    4    0    0 -0.18559824981E+02 -0.98162729043E+01 -0.11959949692E+02  0.24163334076E+02  0.00000000000E+00 0. -1.
         13    1    4    4    0    0  0.37990964008E+02  0.92224448749E+02  0.11746749988E+02  0.10043230769E+03  0.00000000000E+00 0.  1.
         21    1    1    2  503  502 -0.13457004690E+02  0.19428031808E+02  0.14355059953E+03  0.14548303689E+03  0.00000000000E+00 0. -1.
          1    1    1    2  501    0  0.20302000115E+02 -0.12092459716E+02 -0.19347046114E+02  0.30540251866E+02  0.00000000000E+00 0. -1.
<scales pt_clust_5="13000.00000" pt_clust_6="13000.00000" pt_clust_7="13000.00000" pt_clust_8="13000.00000" pt_clust_9="23.39092" pt_clust_10="23.63046"></scales>
<clustering>
<clus scale="   23.630">  2 10  1 -1</clus>
<clus scale="   23.391">  1  9  2 -1</clus>
<clus scale="   82.402">  5  6 -1 -1</clus>
<clus scale="   91.408">  7  8 -1 -1</clus>
<clus scale="  118.028">  1  5  2 -1</clus>
<clus scale="   23.630">  2  5  1 -1</clus>
</clustering>
</event>
<event>
10    4  0.2857708E-005  0.1212927E+03  0.7546771E-02  0.1253459E+00
         21   -1    0    0  501  502  0.00000000000E+00  0.00000000000E+00  0.97950131700E+02  0.97950131700E+02  0.00000000000E+00 0. -1.
          2   -1    0    0  503    0 -0.00000000000E+00 -0.00000000000E+00 -0.42761208050E+03  0.42761208050E+03  0.00000000000E+00 0. -1.
         24    2    1    2    0    0  0.37781208837E+02  0.51531380633E+01 -0.21363245668E+03  0.23279906205E+03  0.84276937349E+02 0.  0.
         23    2    1    2    0    0 -0.77219747129E+01  0.47871784639E+02 -0.24696027424E+02  0.12594000224E+03  0.11357664256E+03 0.  0.
        -13    1    3    3    0    0  0.31570563425E+02  0.43254264110E+02 -0.13395818125E+03  0.14426512456E+03  0.00000000000E+00 0.  1.
         14    1    3    3    0    0  0.62106454121E+01 -0.38101126047E+02 -0.79674275430E+02  0.88533937492E+02  0.00000000000E+00 0. -1.
        -11    1    4    4    0    0  0.14715875374E+02 -0.32856961909E+02 -0.21827474718E+02  0.42101966539E+02  0.00000000000E+00 0.  1.
         11    1    4    4    0    0 -0.22437850087E+02  0.80728746548E+02 -0.28685527067E+01  0.83838035702E+02  0.00000000000E+00 0. -1.
         21    1    1    2  503  502  0.14864932782E+02 -0.20162949601E+02 -0.10627880722E+03  0.10919109683E+03  0.00000000000E+00 0. -1.
          1    1    1    2  501    0 -0.44924166906E+02 -0.32861973101E+02  0.14945342528E+02  0.57632051079E+02  0.00000000000E+00 0. -1.
<scales pt_clust_5="13000.00000" pt_clust_6="13000.00000" pt_clust_7="13000.00000" pt_clust_8="13000.00000" pt_clust_9="25.05016" pt_clust_10="55.67935"></scales>
<clustering>
<clus scale="   25.050">  2  9  1 -1</clus>
<clus scale="   55.679">  1 10  2 -1</clus>
<clus scale="   84.277">  5  6 -1 -1</clus>
<clus scale="   94.419">  2  5  1 -1</clus>
<clus scale="  113.577">  7  8 -1 -1</clus>
<clus scale="   55.679">  1  5  2 -1</clus>
</clustering>
</event>
<event>
10    4  0.2857708E-005  0.1469688E+03  0.7546771E-02  0.1205361E+00
          4   -1    0    0  503    0 -0.00000000000E+00  0.00000000000E+00  0.98396047259E+03  0.98396047259E+03  0.00000000000E+00 0. -1.
         21   -1    0    0  501  502  0.00000000000E+00 -0.00000000000E+00 -0.14788140766E+03  0.14788140766E+03  0.00000000000E+00 0.  1.
         24    2    1    2    0    0 -0.93941150015E+02 -0.43671054466E+02  0.74077478584E+03  0.75211349010E+03  0.78710342336E+02 0.  0.
         23    2    1    2    0    0  0.10414964747E+03 -0.26098286474E+02 -0.24449872591E+02  0.13904357619E+03  0.84894347192E+02 0.  0.
        -11    1    3    3    0    0 -0.37366287068E+02 -0.57450870310E+02  0.31453499870E+03  0.32191475163E+03  0.00000000000E+00 0.  1.
         12    1    3    3    0    0 -0.56574862946E+02  0.13779815844E+02  0.42623978714E+03  0.43019873847E+03  0.00000000000E+00 0. -1.
        -13    1    4    4    0    0  0.32847354900E+02  0.65410995778E+01  0.28868166066E+02  0.44216577430E+02  0.00000000000E+00 0. -1.
         13    1    4    4    0    0  0.71302292569E+02 -0.32639386052E+02 -0.53318038658E+02  0.94826998759E+02  0.00000000000E+00 0.  1.
         21    1    1    2  503  502 -0.24534500047E+02  0.34401095658E+01  0.15992151788E+03  0.16182913189E+03  0.00000000000E+00 0. -1.
          3    1    1    2  501    0  0.14326002593E+02  0.66329231374E+02 -0.40167366205E+02  0.78855682058E+02  0.00000000000E+00 0. -1.
<scales pt_clust_5="13000.00000" pt_clust_6="13000.00000" pt_clust_7="13000.00000" pt_clust_8="13000.00000" pt_clust_9="24.77450" pt_clust_10="67.81847"></scales>
<clustering>
<clus scale="   24.775">  1  9  2 -1</clus>
<clus scale="   67.818">  2 10  1 -1</clus>
<clus scale="   78.710">  5  6 -1 -1</clus>
<clus scale="   84.894">  7  8 -1 -1</clus>
<clus scale="  143.485">  1  5  2 -1</clus>
<clus scale="   67.818">  2  5  1 -1</clus>
</clustering>
</event>
<event>
10    4  0.2857708E-005  0.1317951E+03  0.7546771E-02  0.1227533E+00
          2   -1    0    0  503    0 -0.00000000000E+00  0.00000000000E+00  0.34600308443E+03  0.34600308443E+03  0.00000000000E+00 0. -1.
         21   -1    0    0  501  502  0.00000000000E+00 -0.00000000000E+00 -0.98100044499E+02  0.98100044499E+02  0.00000000000E+00 0.  1.
         23    2    1    2    0    0 -0.24109426849E+02 -0.71963068080E+02  0.13987447776E+03  0.18346693162E+03  0.91297852318E+02 0.  0.
         24    2    1    2    0    0  0.19600688207E+02  0.10159360883E+03  0.13521148906E+02  0.13179039056E+03  0.80501162985E+02 0.  0.
        -11    1    4    4    0    0 -0.30314433594E+02  0.23382596971E+02  0.51991146816E+01  0.38636013235E+02  0.00000000000E+00 0.  1.
         12    1    4    4    0    0  0.49915121801E+02  0.78211011863E+02  0.83220342246E+01  0.93154377324E+02  0.00000000000E+00 0. -1.
        -13    1    3    3    0    0 -0.36056485106E+02 -0.14089718920E+02  0.88172869891E+01  0.39703083600E+02  0.00000000000E+00 0.  1.
         13    1    3    3    0    0  0.11947058257E+02 -0.57873349160E+02  0.13105719077E+03  0.14376384802E+03  0.00000000000E+00 0. -1.
         21    1    1    2  503  502 -0.37428976437E+02 -0.24104110028E+02  0.56889859744E+02  0.72238442252E+02  0.00000000000E+00 0.  1.
          1    1    1    2  501    0  0.41937715079E+02 -0.55264307255E+01  0.37617553517E+02  0.56607364496E+02  0.00000000000E+00 0. -1.
<scales pt_clust_5="13000.00000" pt_clust_6="13000.00000" pt_clust_7="13000.00000" pt_clust_8="13000.00000" pt_clust_9="41.79146" pt_clust_10="42.30030"></scales>
<clustering>
<clus scale="   42.300">  2 10  1 -1</clus>
<clus scale="   41.791">  1  9  2 -1</clus>
<clus scale="   80.501">  5  6 -1 -1</clus>
<clus scale="   91.298">  7  8 -1 -1</clus>
<clus scale="  124.560">  2  5  1 -1</clus>
<clus scale="   42.300">  2  5  1 -1</clus>
</clustering>
</event>
<event>
10    4  0.2857708E-005  0.9761736E+02  0.7546771E-02  0.1289218E+00
         -1   -1    0    0    0  501 -0.00000000000E+00  0.00000000000E+00  0.55636632030E+03  0.55636632030E+03  0.00000000000E+00 0.  1.
         21   -1    0    0  503  502  0.00000000000E+00 -0.00000000000E+00 -0.49818438201E+02  0.49818438201E+02  0.00000000000E+00 0.  1.
         24    2    1    2    0    0  0.42387141685E+02  0.50373635591E+02  0.29174918300E+03  0.30910326152E+03  0.78058103754E+02 0.  0.
         23    2    1    2    0    0  0.22391641828E+02 -0.50948389066E+02  0.49555552400E+02  0.11368650903E+03  0.85858870181E+02 0.  0.
        -13    1    3    3    0    0  0.60984246206E+02  0.34767726876E+02  0.25895107936E+03  0.26829747412E+03  0.00000000000E+00 0.  1.
         14    1    3    3    0    0 -0.18597104521E+02  0.15605908715E+02  0.32798103637E+02  0.40805787403E+02  0.00000000000E+00 0. -1.
        -13    1    4    4    0    0  0.37374828614E+02 -0.24966694915E+02  0.65716597223E+02  0.79617113860E+02  0.00000000000E+00 0. -1.
         13    1    4    4    0    0 -0.14983186786E+02 -0.25981694151E+02 -0.16161044823E+02  0.34069395166E+02  0.00000000000E+00 0.  1.
         21    1    1    2  503  501 -0.23644717487E+02 -0.14996588253E+02  0.10584310203E+03  0.10948393751E+03  0.00000000000E+00 0.  1.
         -2    1    1    2    0  502 -0.41134066026E+02  0.15571341728E+02  0.59400044672E+02  0.73911050447E+02  0.00000000000E+00 0.  1.
<scales pt_clust_5="13000.00000" pt_clust_6="13000.00000" pt_clust_7="13000.00000" pt_clust_8="13000.00000" pt_clust_9="27.99947" pt_clust_10="46.59789"></scales>
<clustering>
<clus scale="   27.999">  1  9  2 -1</clus>
<clus scale="   46.598">  2 10  1 -1</clus>
<clus scale="   78.058">  5  6 -1 -1</clus>
<clus scale="   85.859">  7  8 -1 -1</clus>
<clus scale="   90.832">  1  5  2 -1</clus>
<clus scale="   46.598">  2  5  1 -1</clus>
</clustering>
</event>
<event>
10    4  0.2857708E-005  0.9717351E+02  0.7546771E-02  0.1291416E+00
         21   -1    0    0  501  502  0.00000000000E+00  0.00000000000E+00  0.39723637996E+03  0.39723637996E+03  0.00000000000E+00 0. -1.
          2   -1    0    0  503    0 -0.00000000000E+00 -0.00000000000E+00 -0.34059617174E+03  0.34059617174E+03  0.00000000000E+00 0. -1.
         24    2    1    2    0    0 -0.52429644094E+02 -0.37570228533E+02 -0.28933784019E+01  0.10356593611E+03  0.80976180652E+02 0.  0.
         23    2    1    2    0    0  0.13619793701E+02  0.14385176019E+02  0.15008066305E+03  0.17637260199E+03  0.90502249918E+02 0.  0.
        -11    1    3    3    0    0 -0.39712175966E+01 -0.39662652971E+02  0.25541427686E+02  0.47341959594E+02  0.00000000000E+00 0.  1.
         12    1    3    3    0    0 -0.48458426497E+02  0.20924244383E+01 -0.28434806088E+02  0.56223976521E+02  0.00000000000E+00 0. -1.
        -11    1    4    4    0    0  0.18101955700E+02 -0.33911510304E+02  0.97665839310E+02  0.10495850370E+03  0.00000000000E+00 0.  1.
         11    1    4    4    0    0 -0.44821619985E+01  0.48296686324E+02  0.52414823741E+02  0.71414098284E+02  0.00000000000E+00 0. -1.
         21    1    1    2  503  502  0.16919863203E+02  0.42499645323E+02 -0.27113247400E+03  0.27496421600E+03  0.00000000000E+00 0. -1.
          1    1    1    2  501    0  0.21889987189E+02 -0.19314592810E+02  0.18058539757E+03  0.18292979760E+03  0.00000000000E+00 0. -1.
<scales pt_clust_5="13000.00000" pt_clust_6="13000.00000" pt_clust_7="13000.00000" pt_clust_8="13000.00000" pt_clust_9="45.65696" pt_clust_10="29.19289"></scales>
<clustering>
<clus scale="   29.193">  1 10  2 -1</clus>
<clus scale="   45.657">  2  9  1 -1</clus>
<clus scale="   80.976">  5  6 -1 -1</clus>
<clus scale="   88.370">  2  5  1 -1</clus>
<clus scale="   90.502">  7  8 -1 -1</clus>
<clus scale="   29.193">  1  5  2 -1</clus>
</clustering>
</event>
<event>
10    4  0.2857708E-005  0.2732218E+03  0.7546771E-02  0.1142986E+00
         21   -1    0    0  501  502  0.00000000000E+00  0.00000000000E+00  0.33611745500E+03  0.33611745500E+03  0.00000000000E+00 0. -1.
          2   -1    0    0  503    0 -0.00000000000E+00 -0.00000000000E+00 -0.37331222516E+03  0.37331222516E+03  0.00000000000E+00 0. -1.
         24    2    1    2    0    0 -0.32880043702E+02 -0.42590038940E+02 -0.39829027822E+02  0.10390572538E+03  0.79467223546E+02 0.  0.
         23    2    1    2    0    0  0.57813688554E+02  0.26036936408E+03  0.98827995641E+02  0.29902314536E+03  0.92267222808E+02 0.  0.
        -13    1    3    3    0    0 -0.21288998745E+02 -0.11593703623E+02  0.22667677259E+02  0.33188236223E+02  0.00000000000E+00 0.  1.
         14    1    3    3    0    0 -0.11591044957E+02 -0.30996335317E+02 -0.62496705081E+02  0.70717489154E+02  0.00000000000E+00 0. -1.
        -13    1    4    4    0    0  0.23811517795E+01  0.69581854536E+02  0.69174996510E+02  0.98145221517E+02  0.00000000000E+00 0.  1.
         13    1    4    4    0    0  0.55432536775E+02  0.19078750954E+03  0.29652999132E+02  0.20087792385E+03  0.00000000000E+00 0. -1.
         21    1    1    2  503  502  0.26727718792E+02  0.19760581512E+02 -0.48462708692E+02  0.58766365102E+02  0.00000000000E+00 0. -1.
          1    1    1    2  501    0 -0.51661363644E+02 -0.23753990665E+03 -0.47731029280E+02  0.24773444432E+03  0.00000000000E+00 0. -1.
<scales pt_clust_5="13000.00000" pt_clust_6="13000.00000" pt_clust_7="13000.00000" pt_clust_8="13000.00000" pt_clust_9="33.23931" pt_clust_10="257.17112"></scales>
<clustering>
<clus scale="   33.239">  2  9  1 -1</clus>
<clus scale="   79.467">  5  6 -1 -1</clus>
<clus scale="   92.154">  2  5  1 -1</clus>
<clus scale="   92.267">  7  8 -1 -1</clus>
<clus scale="  257.171">  1 10  2 -1</clus>
<clus scale="  257.171">  1  5  2 -1</clus>
</clustering>
</event>
<event>
10    4  0.2857708E-005  0.1241423E+03  0.7546771E-02  0.1243094E+00
         -1   -1    0    0    0  501 -0.00000000000E+00  0.00000000000E+00  0.24747754287E+03  0.24747754287E+03  0.00000000000E+00 0.  1.
         21   -1    0    0  503  502  0.00000000000E+00 -0.00000000000E+00 -0.23109841086E+03  0.23109841086E+03  0.00000000000E+00 0. -1.
         23    2    1    2    0    0  0.25497495913E+02  0.23895136167E+02  0.58798164324E+02  0.11476874232E+03  0.92160405029E+02 0.  0.
         24    2    1    2    0    0 -0.45687465864E+02 -0.30215751395E+02 -0.17623122230E+03  0.21497505290E+03  0.11025648955E+03 0.  0.
        -13    1    4    4    0    0  0.31649703026E+02  0.13091535830E+02 -0.55093360177E+02  0.64871953474E+02  0.00000000000E+00 0.  1.
         14    1    4    4    0    0 -0.77337168890E+02 -0.43307287224E+02 -0.12113786212E+03  0.15010309943E+03  0.00000000000E+00 0. -1.
        -13    1    3    3    0    0 -0.78297381728E+01  0.36758401939E+02  0.68163562444E+02  0.77838012295E+02  0.00000000000E+00 0. -1.
         13    1    3    3    0    0  0.33327234086E+02 -0.12863265772E+02 -0.93653981194E+01  0.36930730024E+02  0.00000000000E+00 0.  1.
         21    1    1    2  503  501  0.32211791203E+02  0.26342705576E+02  0.91055337875E+02  0.10011299708E+03  0.00000000000E+00 0. -1.
         -2    1    1    2    0  502 -0.12021821253E+02 -0.20022090348E+02  0.42756852108E+02  0.48719161429E+02  0.00000000000E+00 0.  1.
<scales pt_clust_5="13000.00000" pt_clust_6="13000.00000" pt_clust_7="13000.00000" pt_clust_8="13000.00000" pt_clust_9="41.17565" pt_clust_10="23.35399"></scales>
<clustering>
<clus scale="   23.354">  2 10  1 -1</clus>
<clus scale="   41.176">  1  9  2 -1</clus>
<clus scale="   92.160">  7  8 -1 -1</clus>
<clus scale="  108.390">  1  7  2 -1</clus>
<clus scale="  110.256">  5  6 -1 -1</clus>
<clus scale="   23.354">  2  5  1 -1</clus>
</clustering>
</event>
<event>
10    4  0.2857708E-005  0.1524542E+03  0.7546771E-02  0.1199013E+00
          2   -1    0    0  503    0 -0.00000000000E+00  0.00000000000E+00  0.11138349886E+04  0.11138349886E+04  0.00000000000E+00 0. -1.
         21   -1    0    0  501  502  0.00000000000E+00 -0.00000000000E+00 -0.65644720084E+02  0.65644720084E+02  0.00000000000E+00 0. -1.
         24    2    1    2    0    0  0.11008457295E+03 -0.12817665987E+03  0.53909224230E+03  0.57090830187E+03  0.82267697782E+02 0.  0.
         23    2    1    2    0    0 -0.65644415906E+02  0.58056417039E+02  0.25868528687E+03  0.28785239184E+03  0.90891060881E+02 0.  0.
        -13    1    3    3    0    0  0.56650757420E+02 -0.46314737236E+02  0.11987214419E+03  0.14044107005E+03  0.00000000000E+00 0.  1.
         14    1    3    3    0    0  0.53433815534E+02 -0.81861922638E+02  0.41922009811E+03  0.43046723183E+03  0.00000000000E+00 0. -1.
        -11    1    4    4    0    0  0.19038149052E+02  0.32180299382E+02  0.86421556650E+02  0.94163200039E+02  0.00000000000E+00 0. -1.
         11    1    4    4    0    0 -0.84682564958E+02  0.25876117657E+02  0.17226373022E+03  0.19368919180E+03  0.00000000000E+00 0.  1.
         21    1    1    2  503  502 -0.37415687882E+02  0.33603244782E+02  0.27274457425E+03  0.27734223361E+03  0.00000000000E+00 0.  1.
          1    1    1    2  501    0 -0.70244691665E+01  0.36516998053E+02 -0.22331834883E+02  0.43376781383E+02  0.00000000000E+00 0. -1.
<scales pt_clust_5="13000.00000" pt_clust_6="13000.00000" pt_clust_7="13000.00000" pt_clust_8="13000.00000" pt_clust_9="52.39098" pt_clust_10="37.18648"></scales>
<clustering>
<clus scale="   37.186">  2 10  1 -1</clus>
<clus scale="   52.391">  1  9  2 -1</clus>
<clus scale="   82.268">  5  6 -1 -1</clus>
<clus scale="   90.891">  7  8 -1 -1</clus>
<clus scale="  147.476">  1  5  2 -1</clus>
<clus scale="   37.186">  2  5  1 -1</clus>
</clustering>
</event>
<event>
10    4  0.2857708E-005  0.1459781E+03  0.7546771E-02  0.1206581E+00
         21   -1    0    0  501  502  0.00000000000E+00  0.00000000000E+00  0.83199752174E+02  0.83199752174E+02  0.00000000000E+00 0. -1.
          2   -1    0    0  503    0 -0.00000000000E+00 -0.00000000000E+00 -0.97454278263E+03  0.97454278263E+03  0.00000000000E+00 0. -1.
         24    2    1    2    0    0 -0.31359075539E+02  0.99758293265E+02 -0.48791647895E+03  0.50533672850E+03  0.79797305987E+02 0.  0.
         23    2    1    2    0    0  0.99532957000E+02 -0.52637628036E+02 -0.11935494771E+03  0.18508030798E+03  0.85624689475E+02 0.  0.
        -11    1    3    3    0    0 -0.30659816725E+02  0.65177262488E+00 -0.83506092387E+02  0.88959072808E+02  0.00000000000E+00 0.  1.
         12    1    3    3    0    0 -0.69925881370E+00  0.99106520640E+02 -0.40441038657E+03  0.41637765569E+03  0.00000000000E+00 0. -1.
        -13    1    4    4    0    0  0.73330610076E+02 -0.76530727742E+02 -0.89129874765E+02  0.13848633593E+03  0.00000000000E+00 0.  1.
         13    1    4    4    0    0  0.26202346924E+02  0.23893099706E+02 -0.30225072941E+02  0.46593972058E+02  0.00000000000E+00 0. -1.
         21    1    1    2  503  502 -0.43784199733E+02  0.21569022484E+02 -0.29010758883E+03  0.29418479222E+03  0.00000000000E+00 0. -1.
          1    1    1    2  501    0 -0.24389681728E+02 -0.68689687713E+02  0.60359850348E+01  0.73140706096E+02  0.00000000000E+00 0. -1.
<scales pt_clust_5="13000.00000" pt_clust_6="13000.00000" pt_clust_7="13000.00000" pt_clust_8="13000.00000" pt_clust_9="48.80859" pt_clust_10="72.65128"></scales>
<clustering>
<clus scale="   48.809">  2  9  1 -1</clus>
<clus scale="   72.651">  1 10  2 -1</clus>
<clus scale="   79.797">  5  6 -1 -1</clus>
<clus scale="   85.625">  7  8 -1 -1</clus>
<clus scale="  142.638">  2  5  1 -1</clus>
<clus scale="   72.651">  1  5  2 -1</clus>
</clustering>
</event>
<event>
10    4  0.2857708E-005  0.7240140E+03  0.7546771E-02  0.9677024E-01
         21   -1    0    0  501  502  0.00000000000E+00  0.00000000000E+00  0.76332595317E+03  0.76332595317E+03  0.00000000000E+00 0.  1.
          2   -1    0    0  503    0 -0.00000000000E+00 -0.00000000000E+00 -0.13390640644E+04  0.13390640644E+04  0.00000000000E+00 0. -1.
         24    2    1    2    0    0  0.30244374501E+02 -0.22284345346E+03 -0.43140853672E+03  0.49274402562E+03  0.78162793518E+02 0.  0.
         23    2    1    2    0    0  0.11180118973E+03 -0.44501168203E+03 -0.23891039252E+03  0.52620712690E+03  0.96337228438E+02 0.  0.
        -13    1    3    3    0    0 -0.23324497088E+02 -0.73985811912E+02 -0.17553559087E+03  0.19191319962E+03  0.00000000000E+00 0.  1.
         14    1    3    3    0    0  0.53568871588E+02 -0.14885764155E+03 -0.25587294586E+03  0.30083082600E+03  0.00000000000E+00 0. -1.
        -13    1    4    4    0    0 -0.17791036809E+01 -0.11785878107E+03 -0.94161350857E+02  0.15086489811E+03  0.00000000000E+00 0.  1.
         13    1    4    4    0    0  0.11358029341E+03 -0.32715290096E+03 -0.14474904166E+03  0.37534222880E+03  0.00000000000E+00 0. -1.
         21    1    1    2  503  502  0.14890624904E+03  0.59131988700E+03 -0.21990785887E+03  0.64822198833E+03  0.00000000000E+00 0.  1.
          1    1    1    2  501    0 -0.29095181327E+03  0.76535248487E+02  0.31448867687E+03  0.43521687672E+03  0.00000000000E+00 0. -1.
<scales pt_clust_5="13000.00000" pt_clust_6="13000.00000" pt_clust_7="13000.00000" pt_clust_8="13000.00000" pt_clust_9="633.61633" pt_clust_10="300.84980"></scales>
<clustering>
<clus scale="   78.163">  5  6 -1 -1</clus>
<clus scale="   96.337">  7  8 -1 -1</clus>
<clus scale="  233.468">  5  7 -1 -1</clus>
<clus scale="  300.850">  1 10  2 -1</clus>
<clus scale="  633.616">  1  9  2 -1</clus>
<clus scale="  300.850">  1  5  2 -1</clus>
</clustering>
</event>
<event>
10    4  0.2857708E-005  0.2365355E+03  0.7546771E-02  0.1147836E+00
         21   -1    0    0  501  502  0.00000000000E+00  0.00000000000E+00  0.15405157730E+03  0.15405157730E+03  0.00000000000E+00 0. -1.
          2   -1    0    0  503    0 -0.00000000000E+00 -0.00000000000E+00 -0.20360711527E+04  0.20360711527E+04  0.00000000000E+00 0. -1.
         24    2    1    2    0    0 -0.59806640481E+02  0.76150019447E+02 -0.66721595170E+03  0.67910003952E+03  0.81388437518E+02 0.  0.
         23    2    1    2    0    0 -0.47213899689E+02  0.11545166100E+03 -0.11354004374E+03  0.19852570830E+03  0.10470375816E+03 0.  0.
        -13    1    3    3    0    0  0.45839597646E+01  0.56342835006E+02 -0.23745990912E+03  0.24409575208E+03  0.00000000000E+00 0.  1.
         14    1    3    3    0    0 -0.64390600246E+02  0.19807184441E+02 -0.42975604258E+03  0.43500428744E+03  0.00000000000E+00 0. -1.
        -13    1    4    4    0    0 -0.35557541418E+02 -0.54762379328E+01 -0.49497131381E+02  0.61190636118E+02  0.00000000000E+00 0.  1.
         13    1    4    4    0    0 -0.11656358272E+02  0.12092789893E+03 -0.64042912362E+02  0.13733507218E+03  0.00000000000E+00 0. -1.
         21    1    1    2  503  502  0.21238664737E+03  0.38991789255E+02 -0.10253622212E+04  0.10478531062E+04  0.00000000000E+00 0. -1.
          1    1    1    2  501    0 -0.10536610720E+03 -0.23059346970E+03 -0.75901358781E+02  0.26464387595E+03  0.00000000000E+00 0. -1.
<scales pt_clust_5="13000.00000" pt_clust_6="13000.00000" pt_clust_7="13000.00000" pt_clust_8="13000.00000" pt_clust_9="236.53555" pt_clust_10="13000.00000"></scales>
<clustering>
<clus scale="   81.388">  5  6 -1 -1</clus>
<clus scale="  104.704">  7  8 -1 -1</clus>
<clus scale="  126.490">  2  5  1 -1</clus>
<clus scale="  171.183">  2  7  1 -1</clus>
<clus scale="  236.536">  2  9  1 -1</clus>
<clus scale="  236.536">  1  5  2 -1</clus>
</clustering>
</event>
<event>
10    4  0.2857708E-005  0.1934808E+03  0.7546771E-02  0.1155361E+00
         21   -1    0    0  501  502  0.00000000000E+00  0.00000000000E+00  0.14449294631E+03  0.14449294631E+03  0.00000000000E+00 0. -1.
          2   -1    0    0  503    0 -0.00000000000E+00 -0.00000000000E+00 -0.70338253528E+03  0.70338253528E+03  0.00000000000E+00 0. -1.
         23    2    1    2    0    0  0.44622913729E+02  0.14808902416E+03 -0.41983408576E+03  0.45526533300E+03  0.84168285952E+02 0.  0.
         24    2    1    2    0    0 -0.37903417095E+02 -0.18847817336E+03 -0.47061917759E+02  0.21508839703E+03  0.84187312425E+02 0.  0.
        -13    1    4    4    0    0 -0.38503226444E+02 -0.93109481790E+02  0.14177416219E+02  0.10174906966E+03  0.00000000000E+00 0.  1.
         14    1    4    4    0    0  0.59980934870E+00 -0.95368691570E+02 -0.61239333978E+02  0.11333932737E+03  0.00000000000E+00 0. -1.
        -13    1    3    3    0    0  0.19232871080E+02  0.13420861122E+03 -0.39327042422E+03  0.41598495312E+03  0.00000000000E+00 0. -1.
         13    1    3    3    0    0  0.25390042648E+02  0.13880412948E+02 -0.26563661534E+02  0.39280379878E+02  0.00000000000E+00 0.  1.
         21    1    1    2  503  502  0.11903435976E+01  0.21547238563E+02 -0.13138492089E+03  0.13314540114E+03  0.00000000000E+00 0. -1.
          1    1    1    2  501    0 -0.79098402310E+01  0.18841910632E+02  0.39391335436E+02  0.44376350416E+02  0.00000000000E+00 0. -1.
<scales pt_clust_5="13000.00000" pt_clust_6="13000.00000" pt_clust_7="13000.00000" pt_clust_8="13000.00000" pt_clust_9="21.73788" pt_clust_10="20.43485"></scales>
<clustering>
<clus scale="   20.435">  1 10  2 -1</clus>
<clus scale="   21.738">  2  9  1 -1</clus>
<clus scale="   84.168">  7  8 -1 -1</clus>
<clus scale="   84.187">  5  6 -1 -1</clus>
<clus scale="  193.473">  2  7  1 -1</clus>
<clus scale="   20.435">  1  5  2 -1</clus>
</clustering>
</event>
<event>
10    4  0.2857708E-005  0.1041517E+03  0.7546771E-02  0.1274305E+00
          2   -1    0    0  503    0 -0.00000000000E+00  0.00000000000E+00  0.67998234988E+03  0.67998234988E+03  0.00000000000E+00 0. -1.
         21   -1    0    0  501  502  0.00000000000E+00 -0.00000000000E+00 -0.59467087666E+02  0.59467087666E+02  0.00000000000E+00 0. -1.
         23    2    1    2    0    0  0.45034159541E+02 -0.55031212991E+02  0.26791007111E+03  0.29053332534E+03  0.87047670862E+02 0.  0.
         24    2    1    2    0    0  0.32242163475E+02  0.33680400427E+02  0.96357551339E+01  0.94057868358E+02  0.81117866987E+02 0.  0.
        -13    1    4    4    0    0  0.85021784082E+00 -0.24829721402E+02  0.12054665922E+02  0.27614360499E+02  0.00000000000E+00 0.  1.
         14    1    4    4    0    0  0.31391945634E+02  0.58510121829E+02 -0.24189107885E+01  0.66443507859E+02  0.00000000000E+00 0. -1.
        -11    1    3    3    0    0  0.62473347436E+02 -0.91053298853E+01  0.14340239408E+03  0.15668462848E+03  0.00000000000E+00 0. -1.
         11    1    3    3    0    0 -0.17439187895E+02 -0.45925883106E+02  0.12450767703E+03  0.13384869686E+03  0.00000000000E+00 0.  1.
         21    1    1    2  503  502 -0.21568339627E+02 -0.96183512721E+01  0.53919016677E+02  0.58863964485E+02  0.00000000000E+00 0. -1.
          1    1    1    2  501    0 -0.55707983388E+02  0.30969163836E+02  0.28905041930E+03  0.29599427936E+03  0.00000000000E+00 0. -1.
<scales pt_clust_5="13000.00000" pt_clust_6="13000.00000" pt_clust_7="13000.00000" pt_clust_8="13000.00000" pt_clust_9="23.61580" pt_clust_10="70.94360"></scales>
<clustering>
<clus scale="   23.616">  1  9  2 -1</clus>
<clus scale="   70.944">  2 10  1 -1</clus>
<clus scale="   81.118">  5  6 -1 -1</clus>
<clus scale="   87.048">  7  8 -1 -1</clus>
<clus scale="   99.249">  2  5  1 -1</clus>
<clus scale="   70.944">  2  5  1 -1</clus>
</clustering>
</event>
<event>
10    4  0.2857708E-005  0.1031172E+03  0.7546771E-02  0.1280248E+00
         -1   -1    0    0    0  501 -0.00000000000E+00  0.00000000000E+00  0.12886183024E+03  0.12886183024E+03  0.00000000000E+00 0.  1.
         21   -1    0    0  503  502  0.00000000000E+00 -0.00000000000E+00 -0.16578547712E+03  0.16578547712E+03  0.00000000000E+00 0. -1.
         24    2    1    2    0    0  0.18389135207E+02 -0.53687097565E+02  0.11293764423E+02  0.96405396589E+02  0.77110223952E+02 0.  0.
         23    2    1    2    0    0 -0.21832676800E+02  0.17200757954E+02 -0.84057366416E+02  0.12682379835E+03  0.90808056515E+02 0.  0.
        -13    1    3    3    0    0  0.27412829173E+02 -0.44050917822E+02  0.39535532777E+02  0.65230398713E+02  0.00000000000E+00 0.  1.
         14    1    3    3    0    0 -0.90236939665E+01 -0.96361797428E+01 -0.28241768354E+02  0.31174997876E+02  0.00000000000E+00 0. -1.
        -13    1    4    4    0    0 -0.35589143621E+02 -0.39310084536E+01  0.32456739861E+01  0.35952390334E+02  0.00000000000E+00 0.  1.
         13    1    4    4    0    0  0.13756466821E+02  0.21131766408E+02 -0.87303040402E+02  0.90871408013E+02  0.00000000000E+00 0. -1.
         21    1    1    2  503  501  0.21494008701E+02  0.34531838819E+01  0.22941541457E+02  0.31626432195E+02  0.00000000000E+00 0.  1.
         -2    1    1    2    0  502 -0.18050467108E+02  0.33033155729E+02  0.12898413661E+02  0.39791680226E+02  0.00000000000E+00 0.  1.
<scales pt_clust_5="13000.00000" pt_clust_6="13000.00000" pt_clust_7="13000.00000" pt_clust_8="13000.00000" pt_clust_9="21.76963" pt_clust_10="36.14981"></scales>
<clustering>
<clus scale="   21.770">  1  9  2 -1</clus>
<clus scale="   36.150">  2 10  1 -1</clus>
<clus scale="   77.110">  5  6 -1 -1</clus>
<clus scale="   90.808">  7  8 -1 -1</clus>
<clus scale="   91.286">  1  5  2 -1</clus>
<clus scale="   36.150">  2  5  1 -1</clus>
</clustering>
</event>
<event>
10    4  0.2857708E-005  0.1089880E+03  0.7546771E-02  0.1274735E+00
         21   -1    0    0  501  502  0.00000000000E+00  0.00000000000E+00  0.32265714773E+03  0.32265714773E+03  0.00000000000E+00 0.  1.
          2   -1    0    0  503    0 -0.00000000000E+00 -0.00000000000E+00 -0.26347034256E+03  0.26347034256E+03  0.00000000000E+00 0. -1.
         24    2    1    2    0    0  0.29716330865E+02 -0.18544654229E+02  0.20715707173E+03  0.22441683352E+03  0.78879010400E+02 0.  0.
         23    2    1    2    0    0  0.54175194736E+02 -0.23613706920E+02  0.57508339081E+02  0.12188616818E+03  0.89757841161E+02 0.  0.
        -11    1    3    3    0    0  0.42942360326E+02 -0.60867319673E+01  0.20038727017E+03  0.20502719981E+03  0.00000000000E+00 0.  1.
         12    1    3    3    0    0 -0.13226029461E+02 -0.12457922262E+02  0.67698015578E+01  0.19389633713E+02  0.00000000000E+00 0. -1.
        -11    1    4    4    0    0  0.82946055187E+01 -0.19480208222E+02 -0.21660924664E+02  0.30289844014E+02  0.00000000000E+00 0.  1.
         11    1    4    4    0    0  0.45880589217E+02 -0.41334986980E+01  0.79169263745E+02  0.91596324163E+02  0.00000000000E+00 0. -1.
         21    1    1    2  503  502 -0.35423474100E+02 -0.19974966585E+02 -0.10161512682E+03  0.10945070035E+03  0.00000000000E+00 0. -1.
          1    1    1    2  501    0 -0.48468051501E+02  0.62133327734E+02 -0.10386347881E+03  0.13037378825E+03  0.00000000000E+00 0. -1.
<scales pt_clust_5="13000.00000" pt_clust_6="13000.00000" pt_clust_7="13000.00000" pt_clust_8="13000.00000" pt_clust_9="40.66721" pt_clust_10="61.82167"></scales>
<clustering>
<clus scale="   40.667">  2  9  1 -1</clus>
<clus scale="   78.879">  5  6 -1 -1</clus>
<clus scale="   85.903">  2  5  1 -1</clus>
<clus scale="   61.822">  1 10  2 -1</clus>
<clus scale="   89.758">  7  8 -1 -1</clus>
<clus scale="   61.822">  1  5  2 -1</clus>
</clustering>
</event>
<event>
10    4  0.2857708E-005  0.1132812E+03  0.7546771E-02  0.1257434E+00
         21   -1    0    0  501  502  0.00000000000E+00  0.00000000000E+00  0.10882935628E+03  0.10882935628E+03  0.00000000000E+00 0. -1.
          4   -1    0    0  503    0 -0.00000000000E+00 -0.00000000000E+00 -0.69980220671E+03  0.69980220671E+03  0.00000000000E+00 0. -1.
         23    2    1    2    0    0 -0.33299082886E+02  0.70418316612E+02 -0.38517044781E+03  0.40327093959E+03  0.90573774460E+02 0.  0.
         24    2    1    2    0    0  0.24980773123E+02 -0.52943377381E+02 -0.25363078158E+03  0.27313643118E+03  0.82752017727E+02 0.  0.
        -13    1    4    4    0    0 -0.21493441541E+02 -0.35214367748E+02 -0.57326048096E+02  0.70627866423E+02  0.00000000000E+00 0.  1.
         14    1    4    4    0    0  0.46474214664E+02 -0.17729009633E+02 -0.19630473348E+03  0.20250856475E+03  0.00000000000E+00 0. -1.
        -11    1    3    3    0    0  0.30766823457E+02  0.25929096678E+02 -0.15969213677E+03  0.16468301074E+03  0.00000000000E+00 0. -1.
         11    1    3    3    0    0 -0.64065906343E+02  0.44489219933E+02 -0.22547831104E+03  0.23858792885E+03  0.00000000000E+00 0.  1.
         21    1    1    2  503  502  0.28525192331E+02  0.10095487339E+02 -0.32814235010E+02  0.44636078249E+02  0.00000000000E+00 0.  1.
          3    1    1    2  501    0 -0.20206882568E+02 -0.27570426570E+02  0.80642613957E+02  0.87588113978E+02  0.00000000000E+00 0. -1.
<scales pt_clust_5="13000.00000" pt_clust_6="13000.00000" pt_clust_7="13000.00000" pt_clust_8="13000.00000" pt_clust_9="30.25897" pt_clust_10="34.05131"></scales>
<clustering>
<clus scale="   30.259">  2  9  1 -1</clus>
<clus scale="   34.051">  1 10  2 -1</clus>
<clus scale="   82.752">  5  6 -1 -1</clus>
<clus scale="   90.574">  7  8 -1 -1</clus>
<clus scale="  107.130">  1  5  2 -1</clus>
<clus scale="   34.051">  1  5  2 -1</clus>
</clustering>
</event>
<event>
10    4  0.2857708E-005  0.9163952E+02  0.7546771E-02  0.1305196E+00
         21   -1    0    0  501  502  0.00000000000E+00  0.00000000000E+00  0.30961729509E+02  0.30961729509E+02  0.00000000000E+00 0. -1.
          2   -1    0    0  503    0 -0.00000000000E+00 -0.00000000000E+00 -0.11156787079E+04  0.11156787079E+04  0.00000000000E+00 0. -1.
         24    2    1    2    0    0 -0.65446770014E+01  0.34734933707E+02 -0.76637414731E+03  0.77148092262E+03  0.81265810065E+02 0.  0.
         23    2    1    2    0    0  0.58282630169E+01  0.42688753795E+02 -0.13241916883E+03  0.16650211140E+03  0.91278795331E+02 0.  0.
        -11    1    3    3    0    0  0.10121526784E+02  0.21792960298E+02 -0.57839691679E+02  0.62632326769E+02  0.00000000000E+00 0.  1.
         12    1    3    3    0    0 -0.16666203785E+02  0.12941973410E+02 -0.70853445563E+03  0.70884859585E+03  0.00000000000E+00 0. -1.
        -13    1    4    4    0    0 -0.22622633329E+02 -0.20207891622E+02 -0.27710698152E+02  0.41085584024E+02  0.00000000000E+00 0.  1.
         13    1    4    4    0    0  0.28450896346E+02  0.62896645417E+02 -0.10470847068E+03  0.12541652738E+03  0.00000000000E+00 0. -1.
         21    1    1    2  503  502  0.20620211990E+02 -0.23396678638E+02 -0.10363557925E+03  0.10822629533E+03  0.00000000000E+00 0.  1.
          1    1    1    2  501    0 -0.19903798005E+02 -0.54027008864E+02 -0.82288082999E+02  0.10043110806E+03  0.00000000000E+00 0. -1.
<scales pt_clust_5="13000.00000" pt_clust_6="13000.00000" pt_clust_7="13000.00000" pt_clust_8="13000.00000" pt_clust_9="31.18650" pt_clust_10="58.97042"></scales>
<clustering>
<clus scale="   31.186">  2  9  1 -1</clus>
<clus scale="   58.970">  1 10  2 -1</clus>
<clus scale="   81.266">  5  6 -1 -1</clus>
<clus scale="   81.671">  2  5  1 -1</clus>
<clus scale="   91.279">  7  8 -1 -1</clus>
<clus scale="   58.970">  1  5  2 -1</clus>
</clustering>
</event>
<event>
10    4  0.2857708E-005  0.1871427E+03  0.7546771E-02  0.1162137E+00
         21   -1    0    0  501  502  0.00000000000E+00  0.00000000000E+00  0.78367423387E+02  0.78367423387E+02  0.00000000000E+00 0.  1.
          2   -1    0    0  503    0 -0.00000000000E+00 -0.00000000000E+00 -0.76658319943E+03  0.76658319943E+03  0.00000000000E+00 0. -1.
         24    2    1    2    0    0  0.12332312125E+03 -0.56455898933E+02 -0.18874349695E+03  0.24593367194E+03  0.80395289616E+02 0.  0.
         23    2    1    2    0    0 -0.18837084667E+03  0.78207829898E+02 -0.29282268075E+03  0.36811691715E+03  0.90359846144E+02 0.  0.
        -13    1    3    3    0    0  0.97538581497E+02 -0.22377863972E+02 -0.76907667720E+02  0.12621146157E+03  0.00000000000E+00 0.  1.
         14    1    3    3    0    0  0.25784539756E+02 -0.34078034961E+02 -0.11183582923E+03  0.11972221037E+03  0.00000000000E+00 0. -1.
        -11    1    4    4    0    0 -0.12305116486E+03  0.63145426833E+02 -0.25762766703E+03  0.29240545297E+03  0.00000000000E+00 0. -1.
         11    1    4    4    0    0 -0.65319681809E+02  0.15062403064E+02 -0.35195013716E+02  0.75711464179E+02  0.00000000000E+00 0.  1.
         21    1    1    2  503  502 -0.70996818828E+01  0.18729889538E+02 -0.46959638800E+02  0.51053128417E+02  0.00000000000E+00 0. -1.
          1    1    1    2  501    0  0.72147407301E+02 -0.40481820502E+02 -0.15968995954E+03  0.17984690531E+03  0.00000000000E+00 0. -1.
<scales pt_clust_5="13000.00000" pt_clust_6="13000.00000" pt_clust_7="13000.00000" pt_clust_8="13000.00000" pt_clust_9="20.03033" pt_clust_10="79.15398"></scales>
<clustering>
<clus scale="   20.030">  2  9  1 -1</clus>
<clus scale="   79.154">  1 10  2 -1</clus>
<clus scale="   80.395">  5  6 -1 -1</clus>
<clus scale="   90.360">  7  8 -1 -1</clus>
<clus scale="  182.540">  2  5  1 -1</clus>
<clus scale="   79.154">  1  5  2 -1</clus>
</clustering>
</event>
<event>
10    4  0.2857708E-005  0.1681567E+03  0.7546771E-02  0.1180444E+00
         21   -1    0    0  501  502  0.00000000000E+00  0.00000000000E+00  0.10433122558E+03  0.10433122558E+03  0.00000000000E+00 0. -1.
          2   -1    0    0  503    0 -0.00000000000E+00 -0.00000000000E+00 -0.50908297849E+03  0.50908297849E+03  0.00000000000E+00 0. -1.
         23    2    1    2    0    0 -0.95411769139E+02 -0.92488482681E+02 -0.14870634844E+03  0.21992117179E+03  0.92705008580E+02 0.  0.
         24    2    1    2    0    0  0.84912509563E+02  0.13090993524E+03 -0.18002946741E+03  0.25401848798E+03  0.88131933353E+02 0.  0.
        -11    1    4    4    0    0  0.27439115797E+02 -0.18526052284E+01 -0.68090106369E+01  0.28331958064E+02  0.00000000000E+00 0.  1.
         12    1    4    4    0    0  0.57473393766E+02  0.13276254046E+03 -0.17322045677E+03  0.22568652992E+03  0.00000000000E+00 0. -1.
        -11    1    3    3    0    0 -0.59305000253E+02 -0.89873535887E+02 -0.14885740448E+03  0.18371952094E+03  0.00000000000E+00 0.  1.
         11    1    3    3    0    0 -0.36106768886E+02 -0.26149467935E+01  0.15105603483E+00  0.36201650847E+02  0.00000000000E+00 0. -1.
         21    1    1    2  503  502  0.39392554713E+02  0.19606921321E+02 -0.56824686620E+02  0.71869671907E+02  0.00000000000E+00 0. -1.
          1    1    1    2  501    0 -0.28893295137E+02 -0.58028373877E+02 -0.19191250438E+02  0.67604872399E+02  0.00000000000E+00 0. -1.
<scales pt_clust_5="13000.00000" pt_clust_6="13000.00000" pt_clust_7="13000.00000" pt_clust_8="13000.00000" pt_clust_9="44.00233" pt_clust_10="61.45219"></scales>
<clustering>
<clus scale="   44.002">  2  9  1 -1</clus>
<clus scale="   61.452">  1 10  2 -1</clus>
<clus scale="   88.132">  5  6 -1 -1</clus>
<clus scale="   92.705">  7  8 -1 -1</clus>
<clus scale="  165.679">  1  5  2 -1</clus>
<clus scale="   61.452">  1  5  2 -1</clus>
</clustering>
</event>
<event>
10    4  0.2857708E-005  0.1127052E+03  0.7546771E-02  0.1259853E+00
          2   -1    0    0  503    0 -0.00000000000E+00  0.00000000000E+00  0.83641095496E+03  0.83641095496E+03  0.00000000000E+00 0. -1.
         21   -1    0    0  501  502  0.00000000000E+00 -0.00000000000E+00 -0.17671518409E+03  0.17671518409E+03  0.00000000000E+00 0.  1.
         24    2    1    2    0    0 -0.16326590139E+02  0.86767632713E+02  0.73493742600E+03  0.74449477942E+03  0.79650968671E+02 0.  0.
         23    2    1    2    0    0  0.43654512935E+02 -0.79780904948E+02 -0.37496055797E+02  0.13403727194E+03  0.91045740010E+02 0.  0.
        -13    1    3    3    0    0 -0.47905356579E+02  0.58796100752E+02  0.42728638939E+03  0.43396493316E+03  0.00000000000E+00 0.  1.
         14    1    3    3    0    0  0.31578766440E+02  0.27971531961E+02  0.30765103661E+03  0.31052984626E+03  0.00000000000E+00 0. -1.
        -13    1    4    4    0    0  0.72256973599E+02 -0.58424923749E+02 -0.25130741284E+02  0.96260563609E+02  0.00000000000E+00 0. -1.
         13    1    4    4    0    0 -0.28602460665E+02 -0.21355981199E+02 -0.12365314513E+02  0.37776708328E+02  0.00000000000E+00 0.  1.
         21    1    1    2  503  502  0.70917289502E+01 -0.24442586621E+02  0.40222012702E+02  0.47597720177E+02  0.00000000000E+00 0.  1.
          1    1    1    2  501    0 -0.34419651746E+02  0.17455858856E+02 -0.77967612036E+02  0.86996367518E+02  0.00000000000E+00 0. -1.
<scales pt_clust_5="13000.00000" pt_clust_6="13000.00000" pt_clust_7="13000.00000" pt_clust_8="13000.00000" pt_clust_9="25.45059" pt_clust_10="38.49414"></scales>
<clustering>
<clus scale="   25.451">  1  9  2 -1</clus>
<clus scale="   38.494">  2 10  1 -1</clus>
<clus scale="   79.651">  5  6 -1 -1</clus>
<clus scale="   91.046">  7  8 -1 -1</clus>
<clus scale="  103.718">  1  5  2 -1</clus>
<clus scale="   38.494">  2  5  1 -1</clus>
</clustering>
</event>
<event>
10    4  0.2857708E-005  0.1275003E+03  0.7546771E-02  0.1242649E+00
          2   -1    0    0  503    0 -0.00000000000E+00  0.00000000000E+00  0.37964923708E+03  0.37964923708E+03  0.00000000000E+00 0. -1.
         21   -1    0    0  501  502  0.00000000000E+00 -0.00000000000E+00 -0.24534753500E+03  0.24534753500E+03  0.00000000000E+00 0. -1.
         24    2    1    2    0    0 -0.40869916206E+02  0.44183754659E+02 -0.97251733530E+00  0.99574229556E+02  0.79319147595E+02 0.  0.
         23    2    1    2    0    0 -0.19375162364E+02  0.81638082445E+02 -0.14544569833E+03  0.19150701600E+03  0.92088612736E+02 0.  0.
        -11    1    3    3    0    0  0.37608074378E+01  0.46347676451E+02  0.19501444284E+02  0.50423775287E+02  0.00000000000E+00 0.  1.
         12    1    3    3    0    0 -0.44630723644E+02 -0.21639217921E+01 -0.20473961619E+02  0.49150454269E+02  0.00000000000E+00 0. -1.
        -11    1    4    4    0    0 -0.25593474749E+02 -0.13670866496E+02 -0.31543546535E+02  0.42859233177E+02  0.00000000000E+00 0.  1.
         11    1    4    4    0    0  0.62183123844E+01  0.95308948941E+02 -0.11390215179E+03  0.14864778283E+03  0.00000000000E+00 0. -1.
         21    1    1    2  503  502 -0.31423927459E+02 -0.10017032555E+02  0.46258133800E+02  0.56812138675E+02  0.00000000000E+00 0. -1.
          1    1    1    2  501    0  0.91669006029E+02 -0.11580480455E+03  0.23446178394E+03  0.27710338784E+03  0.00000000000E+00 0. -1.
<scales pt_clust_5="13000.00000" pt_clust_6="13000.00000" pt_clust_7="13000.00000" pt_clust_8="13000.00000" pt_clust_9="32.98188" pt_clust_10="88.18173"></scales>
<clustering>
<clus scale="   32.982">  1  9  2 -1</clus>
<clus scale="   79.319">  5  6 -1 -1</clus>
<clus scale="   92.089">  7  8 -1 -1</clus>
<clus scale="  100.953">  1  5  2 -1</clus>
<clus scale="   88.182">  2 10  1 -1</clus>
<clus scale="   88.182">  2  5  1 -1</clus>
</clustering>
</event>
<event>
10    4  0.2857708E-005  0.9249808E+02  0.7546771E-02  0.1302232E+00
         -1   -1    0    0    0  501 -0.00000000000E+00  0.00000000000E+00  0.97184044385E+02  0.97184044385E+02  0.00000000000E+00 0.  1.
         21   -1    0    0  503  502  0.00000000000E+00 -0.00000000000E+00 -0.28666940194E+03  0.28666940194E+03  0.00000000000E+00 0. -1.
         23    2    1    2    0    0  0.13822132247E+01 -0.30695725485E+01  0.70838441838E+01  0.92694158421E+02  0.92361752733E+02 0.  0.
         24    2    1    2    0    0  0.10444266793E+02  0.43258484946E+02 -0.17227911236E+03  0.19663804309E+03  0.83702139786E+02 0.  0.
        -13    1    4    4    0    0  0.13427270485E+02 -0.19549959500E+02 -0.17203606682E+02  0.29299429892E+02  0.00000000000E+00 0.  1.
         14    1    4    4    0    0 -0.29830036919E+01  0.62808444445E+02 -0.15507550568E+03  0.16733861319E+03  0.00000000000E+00 0. -1.
        -11    1    3    3    0    0 -0.42764629457E+02  0.47183118251E+01 -0.10915337830E+02  0.44387167053E+02  0.00000000000E+00 0.  1.
         11    1    3    3    0    0  0.44146842682E+02 -0.77878843736E+01  0.17999182013E+02  0.48306991367E+02  0.00000000000E+00 0. -1.
         21    1    1    2  503  501  0.12052745459E+02  0.19757720583E+02  0.49668923991E+01  0.23670788238E+02  0.00000000000E+00 0. -1.
         -2    1    1    2    0  502 -0.23879225477E+02 -0.59946632980E+02 -0.29256981781E+02  0.70850456582E+02  0.00000000000E+00 0.  1.
<scales pt_clust_5="13000.00000" pt_clust_6="13000.00000" pt_clust_7="13000.00000" pt_clust_8="13000.00000" pt_clust_9="23.14382" pt_clust_10="58.80978"></scales>
<clustering>
<clus scale="   23.144">  1  9  2 -1</clus>
<clus scale="   58.810">  2 10  1 -1</clus>
<clus scale="   83.702">  5  6 -1 -1</clus>
<clus scale="   83.853">  2  5  1 -1</clus>
<clus scale="   92.362">  7  8 -1 -1</clus>
<clus scale="   58.810">  2  5  1 -1</clus>
</clustering>
</event>
<event>
10    4  0.2857708E-005  0.3221209E+03  0.7546771E-02  0.1106306E+00
          2   -1    0    0  503    0 -0.00000000000E+00  0.00000000000E+00  0.49770502040E+03  0.49770502040E+03  0.00000000000E+00 0. -1.
         21   -1    0    0  501  502  0.00000000000E+00 -0.00000000000E+00 -0.55258325570E+03  0.55258325570E+03  0.00000000000E+00 0. -1.
         23    2    1    2    0    0 -0.13699860325E+02  0.10279823161E+03  0.33117617909E+02  0.13950927008E+03  0.87240456368E+02 0.  0.
         24    2    1    2    0    0 -0.30856049195E+03 -0.17313791983E+03 -0.14720000301E+03  0.39151200906E+03  0.80171665079E+02 0.  0.
        -13    1    4    4    0    0 -0.11228994877E+03 -0.39407783461E+02 -0.84260885370E+02  0.14581461791E+03  0.00000000000E+00 0.  1.
         14    1    4    4    0    0 -0.19627054317E+03 -0.13373013637E+03 -0.62939117641E+02  0.24569739115E+03  0.00000000000E+00 0. -1.
        -11    1    3    3    0    0 -0.42495741537E+02  0.77379830210E+02  0.45285404566E+02  0.99218415825E+02  0.00000000000E+00 0.  1.
         11    1    3    3    0    0  0.28795881212E+02  0.25418401400E+02 -0.12167786657E+02  0.40290854255E+02  0.00000000000E+00 0. -1.
         21    1    1    2  503  502  0.37665549482E+02  0.21758382115E+02  0.19530044332E+03  0.20008594146E+03  0.00000000000E+00 0. -1.
          1    1    1    2  501    0  0.28459480279E+03  0.48581306102E+02 -0.13609629352E+03  0.31918105549E+03  0.00000000000E+00 0. -1.
<scales pt_clust_5="13000.00000" pt_clust_6="13000.00000" pt_clust_7="13000.00000" pt_clust_8="13000.00000" pt_clust_9="43.49852" pt_clust_10="311.98454"></scales>
<clustering>
<clus scale="   43.499">  1  9  2 -1</clus>
<clus scale="   80.172">  5  6 -1 -1</clus>
<clus scale="   87.240">  7  8 -1 -1</clus>
<clus scale="  139.688">  1  7  2 -1</clus>
<clus scale="  311.985">  2 10  1 -1</clus>
<clus scale="  311.985">  2  5  1 -1</clus>
</clustering>
</event>
<event>
10    4  0.2857708E-005  0.1556797E+03  0.7546771E-02  0.1196375E+00
         21   -1    0    0  503  502  0.00000000000E+00  0.00000000000E+00  0.61892247908E+03  0.61892247908E+03  0.00000000000E+00 0. -1.
         -3   -1    0    0    0  501 -0.00000000000E+00 -0.00000000000E+00 -0.73085465492E+02  0.73085465492E+02  0.00000000000E+00 0.  1.
         23    2    1    2    0    0  0.94457520452E+02  0.30433199407E+02  0.79395613058E+02  0.15893759415E+03  0.95441566758E+02 0.  0.
         24    2    1    2    0    0 -0.10954370955E+03 -0.83230719728E+02  0.41086659473E+03  0.44060474479E+03  0.79962525316E+02 0.  0.
        -11    1    4    4    0    0 -0.28137507484E+02 -0.54660982406E+02  0.94914447928E+02  0.11308534277E+03  0.00000000000E+00 0.  1.
         12    1    4    4    0    0 -0.81406202063E+02 -0.28569737322E+02  0.31595214680E+03  0.32751940201E+03  0.00000000000E+00 0. -1.
        -11    1    3    3    0    0  0.63161746673E+02  0.21927668010E+01  0.94903678241E+02  0.11402158836E+03  0.00000000000E+00 0.  1.
         11    1    3    3    0    0  0.31295773779E+02  0.28240432606E+02 -0.15508065183E+02  0.44916005787E+02  0.00000000000E+00 0. -1.
         21    1    1    2  503  501  0.23633128168E+02  0.28573514087E+02  0.73151581482E+01  0.37795264161E+02  0.00000000000E+00 0.  1.
         -4    1    1    2    0  502 -0.85469390722E+01  0.24224006234E+02  0.48259647648E+02  0.54670341472E+02  0.00000000000E+00 0.  1.
<scales pt_clust_5="13000.00000" pt_clust_6="13000.00000" pt_clust_7="13000.00000" pt_clust_8="13000.00000" pt_clust_9="37.61622" pt_clust_10="25.68760"></scales>
<clustering>
<clus scale="   25.688">  1 10  2 -1</clus>
<clus scale="   37.616">  2  9  1 -1</clus>
<clus scale="   79.963">  5  6 -1 -1</clus>
<clus scale="   95.442">  7  8 -1 -1</clus>
<clus scale="  146.701">  1  5  2 -1</clus>
<clus scale="   25.688">  1  5  2 -1</clus>
</clustering>
</event>
<event>
10    4  0.2857708E-005  0.1364660E+03  0.7546771E-02  0.1220301E+00
         21   -1    0    0  501  502  0.00000000000E+00  0.00000000000E+00  0.65172405848E+03  0.65172405848E+03  0.00000000000E+00 0. -1.
          2   -1    0    0  503    0 -0.00000000000E+00 -0.00000000000E+00 -0.43227556036E+03  0.43227556036E+03  0.00000000000E+00 0. -1.
         24    2    1    2    0    0 -0.88668487153E+02  0.26373848111E+01 -0.18078802743E+03  0.21694542275E+03  0.80696649095E+02 0.  0.
         23    2    1    2    0    0  0.14360078302E+03  0.31923359240E+00 -0.13843918560E+03  0.21885737119E+03  0.90065831604E+02 0.  0.
        -13    1    3    3    0    0 -0.37543641012E+02 -0.10543960924E+02 -0.13092909900E+02  0.41135439490E+02  0.00000000000E+00 0.  1.
         14    1    3    3    0    0 -0.51124846141E+02  0.13181345735E+02 -0.16769511753E+03  0.17580998326E+03  0.00000000000E+00 0. -1.
        -11    1    4    4    0    0  0.91733575604E+02 -0.43355119055E+02 -0.88644881763E+02  0.13473169747E+03  0.00000000000E+00 0.  1.
         11    1    4    4    0    0  0.51867207416E+02  0.43674352648E+02 -0.49794303833E+02  0.84125673718E+02  0.00000000000E+00 0. -1.
         21    1    1    2  503  502  0.13581815963E+02  0.22109374543E+02 -0.49300377948E+02  0.55711914644E+02  0.00000000000E+00 0. -1.
          1    1    1    2  501    0 -0.68514111830E+02 -0.25065992946E+02  0.58797608910E+03  0.59248491025E+03  0.00000000000E+00 0. -1.
<scales pt_clust_5="13000.00000" pt_clust_6="13000.00000" pt_clust_7="13000.00000" pt_clust_8="13000.00000" pt_clust_9="25.94784" pt_clust_10="72.83463"></scales>
<clustering>
<clus scale="   25.948">  2  9  1 -1</clus>
<clus scale="   72.835">  1 10  2 -1</clus>
<clus scale="   80.697">  5  6 -1 -1</clus>
<clus scale="   90.066">  7  8 -1 -1</clus>
<clus scale="  130.472">  2  5  1 -1</clus>
<clus scale="   72.835">  1  5  2 -1</clus>
</clustering>
</event>
<event>
10    4  0.2857708E-005  0.9819309E+02  0.7546771E-02  0.1289869E+00
         -1   -1    0    0    0  501 -0.00000000000E+00  0.00000000000E+00  0.17575186146E+03  0.17575186146E+03  0.00000000000E+00 0.  1.
         21   -1    0    0  503  502  0.00000000000E+00 -0.00000000000E+00 -0.16422871776E+03  0.16422871776E+03  0.00000000000E+00 0.  1.
         23    2    1    2    0    0 -0.29642271098E+02  0.36487953753E+02 -0.19615577622E+01  0.10261174056E+03  0.91188193248E+02 0.  0.
         24    2    1    2    0    0  0.30218205865E+02  0.53488820719E+01 -0.43792721240E+02  0.96463638377E+02  0.80284996047E+02 0.  0.
        -11    1    4    4    0    0  0.40801936374E+02 -0.23667430038E+02 -0.58371555966E+01  0.47529124144E+02  0.00000000000E+00 0.  1.
         12    1    4    4    0    0 -0.10583730509E+02  0.29016312110E+02 -0.37955565643E+02  0.48934514233E+02  0.00000000000E+00 0. -1.
        -11    1    3    3    0    0 -0.18404745856E+02  0.18509459781E+02  0.44472239568E+02  0.51566606090E+02  0.00000000000E+00 0. -1.
         11    1    3    3    0    0 -0.11237525241E+02  0.17978493972E+02 -0.46433797330E+02  0.51045134475E+02  0.00000000000E+00 0.  1.
         21    1    1    2  503  501 -0.45360065479E+02 -0.45030226986E+02 -0.50220521649E+01  0.64113008747E+02  0.00000000000E+00 0.  1.
         -2    1    1    2    0  502  0.44784130712E+02  0.31933911614E+01  0.62299474875E+02  0.76792191533E+02  0.00000000000E+00 0.  1.
<scales pt_clust_5="13000.00000" pt_clust_6="13000.00000" pt_clust_7="13000.00000" pt_clust_8="13000.00000" pt_clust_9="56.78941" pt_clust_10="44.89786"></scales>
<clustering>
<clus scale="   44.898">  2 10  1 -1</clus>
<clus scale="   56.789">  1  9  2 -1</clus>
<clus scale="   80.285">  5  6 -1 -1</clus>
<clus scale="   88.161">  2  5  1 -1</clus>
<clus scale="   91.188">  7  8 -1 -1</clus>
<clus scale="   44.898">  2  5  1 -1</clus>
</clustering>
</event>
<event>
10    4  0.2857708E-005  0.2455473E+03  0.7546771E-02  0.1116651E+00
         21   -1    0    0  503  502  0.00000000000E+00  0.00000000000E+00  0.10624878134E+04  0.10624878134E+04  0.00000000000E+00 0.  1.
         -1   -1    0    0    0  501 -0.00000000000E+00 -0.00000000000E+00 -0.14688807756E+03  0.14688807756E+03  0.00000000000E+00 0.  1.
         24    2    1    2    0    0 -0.23271755537E+02 -0.29063385132E+03  0.41611075497E+03  0.51450027628E+03  0.80949143005E+02 0.  0.
         23    2    1    2    0    0 -0.94409367761E+02  0.17056793787E+03  0.41367970245E+03  0.46603388606E+03  0.89722553364E+02 0.  0.
        -11    1    3    3    0    0  0.62672452719E+00 -0.13192676321E+03  0.25490497788E+03  0.28702197021E+03  0.00000000000E+00 0.  1.
         12    1    3    3    0    0 -0.23898480064E+02 -0.15870708811E+03  0.16120577708E+03  0.22747830607E+03  0.00000000000E+00 0. -1.
        -11    1    4    4    0    0 -0.63380456869E+02  0.16778575139E+03  0.37972668133E+03  0.41995415606E+03  0.00000000000E+00 0.  1.
         11    1    4    4    0    0 -0.31028910893E+02  0.27821864768E+01  0.33953021126E+02  0.46079729995E+02  0.00000000000E+00 0. -1.
         21    1    1    2  503  501  0.54537042969E+02  0.93732544777E+02  0.11170864849E+03  0.15568847470E+03  0.00000000000E+00 0.  1.
         -2    1    1    2    0  502  0.63144080330E+02  0.26333368680E+02 -0.25899370091E+02  0.73153253911E+02  0.00000000000E+00 0.  1.
<scales pt_clust_5="13000.00000" pt_clust_6="13000.00000" pt_clust_7="13000.00000" pt_clust_8="13000.00000" pt_clust_9="115.58251" pt_clust_10="68.41510"></scales>
<clustering>
<clus scale="   68.415">  1 10  2 -1</clus>
<clus scale="   80.949">  5  6 -1 -1</clus>
<clus scale="   89.723">  7  8 -1 -1</clus>
<clus scale="  115.583">  2  9  1 -1</clus>
<clus scale="  242.479">  2  5  1 -1</clus>
<clus scale="   68.415">  1  5  2 -1</clus>
</clustering>
</event>
<event>
10    4  0.2857708E-005  0.1054897E+03  0.7546771E-02  0.1273941E+00
         21   -1    0    0  501  502  0.00000000000E+00  0.00000000000E+00  0.26049682523E+02  0.26049682523E+02  0.00000000000E+00 0. -1.
          2   -1    0    0  503    0 -0.00000000000E+00 -0.00000000000E+00 -0.84381769451E+03  0.84381769451E+03  0.00000000000E+00 0. -1.
         23    2    1    2    0    0  0.63989912352E+02  0.25526237126E+02 -0.25545450526E+03  0.27990629173E+03  0.91346758160E+02 0.  0.
         24    2    1    2    0    0 -0.30887232122E+02 -0.16527396172E+02 -0.27391698031E+03  0.28762217255E+03  0.80429012840E+02 0.  0.
        -11    1    4    4    0    0 -0.32876387204E+02  0.18555797340E+02 -0.60359486938E+02  0.71192992028E+02  0.00000000000E+00 0.  1.
         12    1    4    4    0    0  0.19891550824E+01 -0.35083193511E+02 -0.21355749337E+03  0.21642918052E+03  0.00000000000E+00 0. -1.
        -11    1    3    3    0    0  0.46086329039E+01 -0.29972172328E+02 -0.44636422006E+02  0.53962772175E+02  0.00000000000E+00 0.  1.
         11    1    3    3    0    0  0.59381279448E+02  0.55498409455E+02 -0.21081808325E+03  0.22594351955E+03  0.00000000000E+00 0. -1.
         21    1    1    2  503  502 -0.57674506809E+02 -0.23432055906E+02 -0.19911870983E+03  0.20862327431E+03  0.00000000000E+00 0. -1.
          1    1    1    2  501    0  0.24571826579E+02  0.14433214951E+02 -0.89277816590E+02  0.93715638451E+02  0.00000000000E+00 0. -1.
<scales pt_clust_5="13000.00000" pt_clust_6="13000.00000" pt_clust_7="13000.00000" pt_clust_8="13000.00000" pt_clust_9="56.63569" pt_clust_10="28.49725"></scales>
<clustering>
<clus scale="   28.497">  1 10  2 -1</clus>
<clus scale="   56.636">  2  9  1 -1</clus>
<clus scale="   80.429">  5  6 -1 -1</clus>
<clus scale="   91.347">  7  8 -1 -1</clus>
<clus scale="   96.191">  1  5  2 -1</clus>
<clus scale="   28.497">  1  5  2 -1</clus>
</clustering>
</event>
<event>
10    4  0.2857708E-005  0.1202667E+03  0.7546771E-02  0.1245891E+00
         21   -1    0    0  503  502  0.00000000000E+00  0.00000000000E+00  0.18042164516E+03  0.18042164516E+03  0.00000000000E+00 0.  1.
         -3   -1    0    0    0  501 -0.00000000000E+00 -0.00000000000E+00 -0.22834213170E+03  0.22834213170E+03  0.00000000000E+00 0.  1.
         23    2    1    2    0    0 -0.67083732566E+01  0.91679095859E+02 -0.13968962563E+03  0.19036050708E+03  0.90960828146E+02 0.  0.
         24    2    1    2    0    0 -0.37484443526E+02 -0.36400995166E+02  0.53366272363E+02  0.10992573731E+03  0.80657254732E+02 0.  0.
        -13    1    4    4    0    0  0.26827320242E+01  0.21981078828E+02  0.16678696912E+01  0.22206905837E+02  0.00000000000E+00 0.  1.
         14    1    4    4    0    0 -0.40167175551E+02 -0.58382073994E+02  0.51698402672E+02  0.87718831469E+02  0.00000000000E+00 0. -1.
        -13    1    3    3    0    0  0.35651744525E+02  0.96892950099E+01 -0.43186884043E+02  0.56833408122E+02  0.00000000000E+00 0. -1.
         13    1    3    3    0    0 -0.42360117781E+02  0.81989800849E+02 -0.96502741584E+02  0.13352709895E+03  0.00000000000E+00 0.  1.
         21    1    1    2  503  501  0.44050589828E+02 -0.26334131467E+02 -0.98028358960E+01  0.52249751539E+02  0.00000000000E+00 0.  1.
         -4    1    1    2    0  502  0.14222695485E+00 -0.28943969227E+02  0.48205702627E+02  0.56227780935E+02  0.00000000000E+00 0.  1.
<scales pt_clust_5="13000.00000" pt_clust_6="13000.00000" pt_clust_7="13000.00000" pt_clust_8="13000.00000" pt_clust_9="53.95677" pt_clust_10="28.94432"></scales>
<clustering>
<clus scale="   28.944">  1 10  2 -1</clus>
<clus scale="   53.957">  1  9  2 -1</clus>
<clus scale="   80.657">  5  6 -1 -1</clus>
<clus scale="   90.961">  7  8 -1 -1</clus>
<clus scale="  112.676">  1  5  2 -1</clus>
<clus scale="   28.944">  1  5  2 -1</clus>
</clustering>
</event>
<event>
10    4  0.2857708E-005  0.1545729E+03  0.7546771E-02  0.1198225E+00
         21   -1    0    0  501  502  0.00000000000E+00  0.00000000000E+00  0.79394520871E+02  0.79394520871E+02  0.00000000000E+00 0. -1.
          2   -1    0    0  503    0 -0.00000000000E+00 -0.00000000000E+00 -0.82069121469E+03  0.82069121469E+03  0.00000000000E+00 0. -1.
         24    2    1    2    0    0  0.55809916705E+02  0.41689327758E+02 -0.56544246361E+02  0.12043470534E+03  0.80340024914E+02 0.  0.
         23    2    1    2    0    0 -0.13669420375E+03 -0.11784948768E+03 -0.22718670061E+03  0.30629317050E+03  0.98121874604E+02 0.  0.
        -11    1    3    3    0    0 -0.75281605663E+01  0.27792455487E+02 -0.46676746929E+02  0.54843527306E+02  0.00000000000E+00 0.  1.
         12    1    3    3    0    0  0.63338077271E+02  0.13896872271E+02 -0.98674994325E+01  0.65591178038E+02  0.00000000000E+00 0. -1.
        -13    1    4    4    0    0 -0.11504122393E+03 -0.96352999045E+02 -0.23108526059E+03  0.27553363005E+03  0.00000000000E+00 0. -1.
         13    1    4    4    0    0 -0.21652979812E+02 -0.21496488639E+02  0.38985599791E+01  0.30759540446E+02  0.00000000000E+00 0.  1.
         21    1    1    2  503  502 -0.19066792560E+01  0.20761517586E+02 -0.10154509764E+03  0.10366331508E+03  0.00000000000E+00 0. -1.
          1    1    1    2  501    0  0.82790966297E+02  0.55398642340E+02 -0.35602064921E+03  0.36969454464E+03  0.00000000000E+00 0. -1.
<scales pt_clust_5="13000.00000" pt_clust_6="13000.00000" pt_clust_7="13000.00000" pt_clust_8="13000.00000" pt_clust_9="20.84889" pt_clust_10="105.05808"></scales>
<clustering>
<clus scale="   20.849">  2  9  1 -1</clus>
<clus scale="   80.340">  5  6 -1 -1</clus>
<clus scale="   98.122">  7  8 -1 -1</clus>
<clus scale="  105.058">  1 10  2 -1</clus>
<clus scale="  143.942">  2  5  1 -1</clus>
<clus scale="  105.058">  1  5  2 -1</clus>
</clustering>
</event>
<event>
10    4  0.2857708E-005  0.1349847E+03  0.7546771E-02  0.1232363E+00
          4   -1    0    0  503    0 -0.00000000000E+00  0.00000000000E+00  0.45740554554E+03  0.45740554554E+03  0.00000000000E+00 0. -1.
         21   -1    0    0  501  502  0.00000000000E+00 -0.00000000000E+00 -0.44675506590E+03  0.44675506590E+03  0.00000000000E+00 0. -1.
         23    2    1    2    0    0  0.46564175860E+02 -0.57032562183E+01 -0.18660560392E+03  0.21370873166E+03  0.93000112744E+02 0.  0.
         24    2    1    2    0    0 -0.95919572648E+02  0.92374454619E+02  0.19488062999E+03  0.24942040192E+03  0.80613104811E+02 0.  0.
        -11    1    4    4    0    0 -0.10714747316E+03  0.63456020316E+02  0.15206519683E+03  0.19654788630E+03  0.00000000000E+00 0.  1.
         12    1    4    4    0    0  0.11227900513E+02  0.28918434303E+02  0.42815433156E+02  0.52872515627E+02  0.00000000000E+00 0. -1.
        -13    1    3    3    0    0 -0.26052849618E+02 -0.13482190294E+02 -0.72765390935E+02  0.78455863683E+02  0.00000000000E+00 0. -1.
         13    1    3    3    0    0  0.72617025479E+02  0.77789340752E+01 -0.11384021298E+03  0.13525286798E+03  0.00000000000E+00 0.  1.
         21    1    1    2  503  502  0.33409783446E+02  0.20481780768E+02  0.20636886912E+03  0.21005672356E+03  0.00000000000E+00 0. -1.
          3    1    1    2  501    0  0.15945613341E+02 -0.10715297917E+03 -0.20399341555E+03  0.23097475429E+03  0.00000000000E+00 0. -1.
<scales pt_clust_5="13000.00000" pt_clust_6="13000.00000" pt_clust_7="13000.00000" pt_clust_8="13000.00000" pt_clust_9="39.18822" pt_clust_10="108.27003"></scales>
<clustering>
<clus scale="   39.188">  1  9  2 -1</clus>
<clus scale="   80.613">  5  6 -1 -1</clus>
<clus scale="   93.000">  7  8 -1 -1</clus>
<clus scale="  104.932">  1  7  2 -1</clus>
<clus scale="  108.270">  2 10  1 -1</clus>
<clus scale="  108.270">  2  5  1 -1</clus>
</clustering>
</event>
<event>
10    4  0.2857708E-005  0.1481784E+03  0.7546771E-02  0.1204467E+00
          2   -1    0    0  503    0 -0.00000000000E+00  0.00000000000E+00  0.71798291773E+03  0.71798291773E+03  0.00000000000E+00 0. -1.
         21   -1    0    0  501  502  0.00000000000E+00 -0.00000000000E+00 -0.77535901884E+02  0.77535901884E+02  0.00000000000E+00 0. -1.
         23    2    1    2    0    0  0.11013457644E+03 -0.12515360494E+03  0.33584529671E+03  0.38553911487E+03  0.89751300929E+02 0.  0.
         24    2    1    2    0    0 -0.17114067697E+02  0.76160338435E+02  0.49399106713E+02  0.12248425986E+03  0.80429060090E+02 0.  0.
        -11    1    4    4    0    0  0.27244686937E+02  0.40980933718E+02  0.43287259013E+02  0.65540038813E+02  0.00000000000E+00 0.  1.
         12    1    4    4    0    0 -0.44358754634E+02  0.35179404717E+02  0.61118476998E+01  0.56944221052E+02  0.00000000000E+00 0. -1.
        -11    1    3    3    0    0  0.59975789886E+02 -0.12491966330E+03  0.25971085102E+03  0.29436668254E+03  0.00000000000E+00 0.  1.
         11    1    3    3    0    0  0.50158786556E+02 -0.23394163953E+00  0.76134445684E+02  0.91172432330E+02  0.00000000000E+00 0. -1.
         21    1    1    2  503  502 -0.99038221669E+01  0.47938247818E+02  0.85256416836E+02  0.98309805762E+02  0.00000000000E+00 0.  1.
          1    1    1    2  501    0 -0.83116686578E+02  0.10550186823E+01  0.16994619560E+03  0.18918563912E+03  0.00000000000E+00 0. -1.
<scales pt_clust_5="13000.00000" pt_clust_6="13000.00000" pt_clust_7="13000.00000" pt_clust_8="13000.00000" pt_clust_9="48.95060" pt_clust_10="87.22179"></scales>
<clustering>
<clus scale="   48.951">  1  9  2 -1</clus>
<clus scale="   80.429">  5  6 -1 -1</clus>
<clus scale="   87.222">  2 10  1 -1</clus>
<clus scale="   89.751">  7  8 -1 -1</clus>
<clus scale="  142.725">  2  5  1 -1</clus>
<clus scale="   87.222">  2  5  1 -1</clus>
</clustering>
</event>
<event>
10    4  0.2857708E-005  0.2337443E+03  0.7546771E-02  0.1125335E+00
         21   -1    0    0  501  502  0.00000000000E+00  0.00000000000E+00  0.39168099875E+03  0.39168099875E+03  0.00000000000E+00 0.  1.
          2   -1    0    0  503    0 -0.00000000000E+00 -0.00000000000E+00 -0.24766040136E+03  0.24766040136E+03  0.00000000000E+00 0. -1.
         24    2    1    2    0    0 -0.17878043659E+03 -0.18440448124E+02  0.90751221614E+02  0.21546878339E+03  0.76736678033E+02 0.  0.
         23    2    1    2    0    0  0.24474644680E+03  0.68542971952E+02  0.80921614683E+02  0.28364818300E+03  0.96483271992E+02 0.  0.
        -13    1    3    3    0    0 -0.14206064577E+03 -0.58143319049E+01  0.10206889546E+03  0.17502312119E+03  0.00000000000E+00 0.  1.
         14    1    3    3    0    0 -0.36719790823E+02 -0.12626116220E+02 -0.11317673850E+02  0.40445662193E+02  0.00000000000E+00 0. -1.
        -11    1    4    4    0    0  0.21104567247E+02  0.25459897379E+02  0.40581237358E+02  0.52349268942E+02  0.00000000000E+00 0. -1.
         11    1    4    4    0    0  0.22364187955E+03  0.43083074573E+02  0.40340377325E+02  0.23129891406E+03  0.00000000000E+00 0.  1.
         21    1    1    2  503  502  0.78783883798E+01 -0.30649058436E+02 -0.51306537770E+02  0.60280963864E+02  0.00000000000E+00 0. -1.
          1    1    1    2  501    0 -0.73844398585E+02 -0.19453465392E+02  0.23654298858E+02  0.79943469856E+02  0.00000000000E+00 0. -1.
<scales pt_clust_5="13000.00000" pt_clust_6="13000.00000" pt_clust_7="13000.00000" pt_clust_8="13000.00000" pt_clust_9="31.64544" pt_clust_10="76.53253"></scales>
<clustering>
<clus scale="   31.645">  2  9  1 -1</clus>
<clus scale="   76.533">  1 10  2 -1</clus>
<clus scale="   76.737">  5  6 -1 -1</clus>
<clus scale="   96.483">  7  8 -1 -1</clus>
<clus scale="  226.309">  2  5  1 -1</clus>
<clus scale="   76.533">  1  5  2 -1</clus>
</clustering>
</event>
<event>
10    4  0.2857708E-005  0.1016217E+03  0.7546771E-02  0.1278747E+00
         21   -1    0    0  501  502  0.00000000000E+00  0.00000000000E+00  0.52501670265E+02  0.52501670265E+02  0.00000000000E+00 0.  1.
          2   -1    0    0  503    0 -0.00000000000E+00 -0.00000000000E+00 -0.53344451815E+03  0.53344451815E+03  0.00000000000E+00 0. -1.
         23    2    1    2    0    0  0.18059250299E+02 -0.26681755353E+02 -0.22451050651E+03  0.24491542613E+03  0.92415073624E+02 0.  0.
         24    2    1    2    0    0 -0.25718179543E+02  0.43559768924E+02 -0.12705656877E+03  0.16293415824E+03  0.88573641833E+02 0.  0.
        -13    1    4    4    0    0 -0.21415508763E+02  0.39335539100E+02 -0.10215515927E+02  0.45937625293E+02  0.00000000000E+00 0.  1.
         14    1    4    4    0    0 -0.43026707793E+01  0.42242298242E+01 -0.11684105284E+03  0.11699653295E+03  0.00000000000E+00 0. -1.
        -11    1    3    3    0    0  0.37057780787E+02 -0.44261736934E+02 -0.20364370222E+03  0.21166751741E+03  0.00000000000E+00 0. -1.
         11    1    3    3    0    0 -0.18998530488E+02  0.17579981580E+02 -0.20866804298E+02  0.33247908726E+02  0.00000000000E+00 0.  1.
         21    1    1    2  503  502 -0.19030229411E+02 -0.24459206489E+02 -0.14360829366E+03  0.14691407156E+03  0.00000000000E+00 0. -1.
          1    1    1    2  501    0  0.26689158655E+02  0.75811929178E+01  0.14232521064E+02  0.31182532475E+02  0.00000000000E+00 0. -1.
<scales pt_clust_5="13000.00000" pt_clust_6="13000.00000" pt_clust_7="13000.00000" pt_clust_8="13000.00000" pt_clust_9="29.76313" pt_clust_10="27.74501"></scales>
<clustering>
<clus scale="   27.745">  1 10  2 -1</clus>
<clus scale="   29.763">  2  9  1 -1</clus>
<clus scale="   88.574">  5  6 -1 -1</clus>
<clus scale="   92.415">  7  8 -1 -1</clus>
<clus scale="   98.141">  1  5  2 -1</clus>
<clus scale="   27.745">  1  5  2 -1</clus>
</clustering>
</event>
<event>
10    4  0.2857708E-005  0.1633560E+03  0.7546771E-02  0.1201677E+00
         21   -1    0    0  501  502  0.00000000000E+00  0.00000000000E+00  0.39520453568E+03  0.39520453568E+03  0.00000000000E+00 0. -1.
          2   -1    0    0  503    0 -0.00000000000E+00 -0.00000000000E+00 -0.54019310155E+03  0.54019310155E+03  0.00000000000E+00 0. -1.
         24    2    1    2    0    0 -0.45252350543E+02  0.14500468910E+03 -0.41552954654E+03  0.44997266866E+03  0.82075961148E+02 0.  0.
         23    2    1    2    0    0 -0.17783405907E+02 -0.12288809779E+02  0.14051336116E+03  0.17022996861E+03  0.93632116161E+02 0.  0.
        -13    1    3    3    0    0  0.22726606424E+02  0.54190017983E+02 -0.12665152681E+03  0.13961971899E+03  0.00000000000E+00 0.  1.
         14    1    3    3    0    0 -0.67978956967E+02  0.90814671119E+02 -0.28887801973E+03  0.31035294967E+03  0.00000000000E+00 0. -1.
        -11    1    4    4    0    0 -0.53866139891E+02 -0.22477954992E+02  0.91265879582E+02  0.10833411403E+03  0.00000000000E+00 0.  1.
         11    1    4    4    0    0  0.36082733985E+02  0.10189145213E+02  0.49247481579E+02  0.61895854578E+02  0.00000000000E+00 0. -1.
         21    1    1    2  503  502  0.97127481941E+02 -0.82776297982E+02 -0.40802320865E+02  0.13397944859E+03  0.00000000000E+00 0. -1.
          1    1    1    2  501    0 -0.34091725492E+02 -0.49939581341E+02  0.17082994037E+03  0.18121555137E+03  0.00000000000E+00 0. -1.
<scales pt_clust_5="13000.00000" pt_clust_6="13000.00000" pt_clust_7="13000.00000" pt_clust_8="13000.00000" pt_clust_9="141.23988" pt_clust_10="60.46658"></scales>
<clustering>
<clus scale="   60.467">  1 10  2 -1</clus>
<clus scale="   82.076">  5  6 -1 -1</clus>
<clus scale="   93.632">  7  8 -1 -1</clus>
<clus scale="  113.142">  1  7  2 -1</clus>
<clus scale="  141.240">  1  9  2 -1</clus>
<clus scale="   60.467">  1  5  2 -1</clus>
</clustering>
</event>
<event>
10    4  0.6998025E-005  0.1065826E+03  0.7546771E-02  0.1271822E+00
         21   -1    0    0  501  502  0.00000000000E+00  0.00000000000E+00  0.22586471896E+03  0.22586471896E+03  0.00000000000E+00 0. -1.
          2   -1    0    0  503    0 -0.00000000000E+00 -0.00000000000E+00 -0.10148012083E+04  0.10148012083E+04  0.00000000000E+00 0. -1.
         24    2    1    2    0    0 -0.45560727844E+02 -0.26841683287E+02 -0.85028875203E+03  0.85576610714E+03  0.80922261567E+02 0.  0.
         23    2    1    2    0    0  0.37625504421E+02  0.72273323304E+02 -0.22465646460E+02  0.12495952985E+03  0.92038399516E+02 0.  0.
        -11    1    3    3    0    0 -0.30148814332E+02  0.21086977177E+02 -0.18797929815E+03  0.19154589044E+03  0.00000000000E+00 0.  1.
         12    1    3    3    0    0 -0.15411913512E+02 -0.47928660463E+02 -0.66230945388E+03  0.66422021670E+03  0.00000000000E+00 0. -1.
        -13    1    4    4    0    0  0.97553937926E+00  0.84239067672E+02 -0.18017994940E+02  0.86149987470E+02  0.00000000000E+00 0.  1.
         13    1    4    4    0    0  0.36649965041E+02 -0.11965744368E+02 -0.44476515195E+01  0.38809542381E+02  0.00000000000E+00 0. -1.
         21    1    1    2  503  502 -0.20883848953E+02 -0.73061124027E+02 -0.68605087013E+02  0.10237539233E+03  0.00000000000E+00 0.  1.
          1    1    1    2  501    0  0.28819072376E+02  0.27629484009E+02  0.15242299613E+03  0.15756489796E+03  0.00000000000E+00 0. -1.
<scales pt_clust_5="13000.00000" pt_clust_6="13000.00000" pt_clust_7="13000.00000" pt_clust_8="13000.00000" pt_clust_9="67.94013" pt_clust_10="39.92402"></scales>
<clustering>
<clus scale="   39.924">  1 10  2 -1</clus>
<clus scale="   67.940">  1  9  2 -1</clus>
<clus scale="   80.922">  5  6 -1 -1</clus>
<clus scale="   92.038">  7  8 -1 -1</clus>
<clus scale="   97.145">  2  5  1 -1</clus>
<clus scale="   39.924">  1  5  2 -1</clus>
</clustering>
</event>
<event>
10    4  0.2857708E-005  0.1302040E+03  0.7546771E-02  0.1230386E+00
         21   -1    0    0  501  502  0.00000000000E+00  0.00000000000E+00  0.38819483158E+02  0.38819483158E+02  0.00000000000E+00 0. -1.
          2   -1    0    0  503    0 -0.00000000000E+00 -0.00000000000E+00 -0.69704358266E+03  0.69704358266E+03  0.00000000000E+00 0. -1.
         23    2    1    2    0    0 -0.38269087369E+02  0.70254950685E+02 -0.22694045644E+03  0.25817224295E+03  0.93544936349E+02 0.  0.
         24    2    1    2    0    0  0.12829403378E+02 -0.10514783444E+03 -0.20908813896E+03  0.24812630171E+03  0.81413457544E+02 0.  0.
        -11    1    4    4    0    0  0.20085208959E+02 -0.26731297295E+02 -0.11394194389E+02  0.35324291072E+02  0.00000000000E+00 0.  1.
         12    1    4    4    0    0 -0.72558055812E+01 -0.78416537144E+02 -0.19769394457E+03  0.21280201064E+03  0.00000000000E+00 0. -1.
        -13    1    3    3    0    0 -0.23123030770E+02  0.34003865659E+02 -0.21229892654E+03  0.21624470315E+03  0.00000000000E+00 0.  1.
         13    1    3    3    0    0 -0.15146056599E+02  0.36251085026E+02 -0.14641529910E+02  0.41927539805E+02  0.00000000000E+00 0. -1.
         21    1    1    2  503  502  0.25404127692E+02  0.12713004926E+02 -0.17648946261E+03  0.17876107129E+03  0.00000000000E+00 0. -1.
          1    1    1    2  501    0  0.35556298408E-01  0.22179878828E+02 -0.45706041490E+02  0.50803449861E+02  0.00000000000E+00 0. -1.
<scales pt_clust_5="13000.00000" pt_clust_6="13000.00000" pt_clust_7="13000.00000" pt_clust_8="13000.00000" pt_clust_9="28.72610" pt_clust_10="22.17992"></scales>
<clustering>
<clus scale="   22.180">  1 10  2 -1</clus>
<clus scale="   28.726">  2  9  1 -1</clus>
<clus scale="   81.413">  5  6 -1 -1</clus>
<clus scale="   93.545">  7  8 -1 -1</clus>
<clus scale="  121.781">  1  5  2 -1</clus>
<clus scale="   22.180">  1  5  2 -1</clus>
</clustering>
</event>
<event>
10    4  0.2857708E-005  0.1576841E+03  0.7546771E-02  0.1209298E+00
         21   -1    0    0  501  502  0.00000000000E+00  0.00000000000E+00  0.14176543576E+04  0.14176543576E+04  0.00000000000E+00 0. -1.
          4   -1    0    0  503    0 -0.00000000000E+00 -0.00000000000E+00 -0.54056621198E+02  0.54056621198E+02  0.00000000000E+00 0. -1.
         23    2    1    2    0    0 -0.55416215700E+02 -0.25518041592E+02  0.25264812394E+03  0.27509315815E+03  0.90127929739E+02 0.  0.
         24    2    1    2    0    0 -0.30777885781E+02  0.12732857140E+03  0.97867014546E+03  0.99057034892E+03  0.79211862728E+02 0.  0.
        -13    1    4    4    0    0 -0.26270301858E+02  0.25988286444E+02  0.11097397584E+03  0.11696470880E+03  0.00000000000E+00 0.  1.
         14    1    4    4    0    0 -0.45075839231E+01  0.10134028495E+03  0.86769616963E+03  0.87360564012E+03  0.00000000000E+00 0. -1.
        -11    1    3    3    0    0  0.10140803595E+02  0.23902627657E+02  0.75647815058E+02  0.79979768876E+02  0.00000000000E+00 0. -1.
         11    1    3    3    0    0 -0.65557019296E+02 -0.49420669249E+02  0.17700030888E+03  0.19511338927E+03  0.00000000000E+00 0.  1.
         21    1    1    2  503  502  0.71016486506E+02 -0.11673022839E+03  0.11638109160E+03  0.17948216083E+03  0.00000000000E+00 0. -1.
          3    1    1    2  501    0  0.15177614976E+02  0.14919698581E+02  0.15898375370E+02  0.26565310868E+02  0.00000000000E+00 0. -1.
<scales pt_clust_5="13000.00000" pt_clust_6="13000.00000" pt_clust_7="13000.00000" pt_clust_8="13000.00000" pt_clust_9="136.34421" pt_clust_10="21.28281"></scales>
<clustering>
<clus scale="   21.283">  1 10  2 -1</clus>
<clus scale="   79.212">  5  6 -1 -1</clus>
<clus scale="   90.128">  7  8 -1 -1</clus>
<clus scale="  106.769">  2  7  1 -1</clus>
<clus scale="  136.344">  2  9  1 -1</clus>
<clus scale="   21.283">  1  5  2 -1</clus>
</clustering>
</event>
<event>
10    4  0.2857708E-005  0.9108423E+02  0.7546771E-02  0.1307435E+00
         21   -1    0    0  503  502  0.00000000000E+00  0.00000000000E+00  0.16637930197E+03  0.16637930197E+03  0.00000000000E+00 0. -1.
         -1   -1    0    0    0  501 -0.00000000000E+00 -0.00000000000E+00 -0.67552455466E+03  0.67552455466E+03  0.00000000000E+00 0.  1.
         24    2    1    2    0    0 -0.20860657244E+02 -0.26588420257E+01 -0.56382372525E+03  0.56982209185E+03  0.79735730605E+02 0.  0.
         23    2    1    2    0    0  0.58219238579E+02  0.25351076261E+02  0.90781736446E+02  0.14336207758E+03  0.90990135778E+02 0.  0.
        -11    1    3    3    0    0 -0.44958437062E+02 -0.23095389958E+01 -0.19154247895E+03  0.19676157215E+03  0.00000000000E+00 0.  1.
         12    1    3    3    0    0  0.24097779819E+02 -0.34930302988E+00 -0.37228124631E+03  0.37306051970E+03  0.00000000000E+00 0. -1.
        -13    1    4    4    0    0 -0.14172290638E+02  0.29377403652E+02  0.51339551955E+02  0.60824627103E+02  0.00000000000E+00 0. -1.
         13    1    4    4    0    0  0.72391529217E+02 -0.40263273916E+01  0.39442184491E+02  0.82537450481E+02  0.00000000000E+00 0.  1.
         21    1    1    2  503  501  0.20927821070E+02  0.20810798226E+01 -0.58010514662E+02  0.61705140786E+02  0.00000000000E+00 0. -1.
         -2    1    1    2    0  502 -0.58286402406E+02 -0.24773314058E+02  0.21907250782E+02  0.67014546418E+02  0.00000000000E+00 0.  1.
<scales pt_clust_5="13000.00000" pt_clust_6="13000.00000" pt_clust_7="13000.00000" pt_clust_8="13000.00000" pt_clust_9="21.03104" pt_clust_10="62.59767"></scales>
<clustering>
<clus scale="   21.031">  2  9  1 -1</clus>
<clus scale="   62.598">  1 10  2 -1</clus>
<clus scale="   79.736">  5  6 -1 -1</clus>
<clus scale="   79.843">  2  5  1 -1</clus>
<clus scale="   90.990">  7  8 -1 -1</clus>
<clus scale="   62.598">  1  5  2 -1</clus>
</clustering>
</event>
<event>
10    4  0.2857708E-005  0.1574967E+03  0.7546771E-02  0.1197773E+00
         21   -1    0    0  501  502  0.00000000000E+00  0.00000000000E+00  0.44284887706E+03  0.44284887706E+03  0.00000000000E+00 0. -1.
          2   -1    0    0  503    0 -0.00000000000E+00 -0.00000000000E+00 -0.36170062123E+03  0.36170062123E+03  0.00000000000E+00 0. -1.
         23    2    1    2    0    0  0.79961886494E+01  0.86091123889E+02 -0.45993502832E+02  0.13366973758E+03  0.90975687949E+02 0.  0.
         24    2    1    2    0    0  0.10995231877E+03  0.51919216463E+02  0.21019509368E+03  0.25619132105E+03  0.81651075534E+02 0.  0.
        -11    1    4    4    0    0  0.46783636063E+02  0.56464846853E+02  0.65817174902E+02  0.98533689901E+02  0.00000000000E+00 0.  1.
         12    1    4    4    0    0  0.63168682709E+02 -0.45456303903E+01  0.14437791877E+03  0.15765763115E+03  0.00000000000E+00 0. -1.
        -11    1    3    3    0    0  0.36716803639E+02  0.88925964784E+01 -0.33240535342E+02  0.50320325232E+02  0.00000000000E+00 0.  1.
         11    1    3    3    0    0 -0.28720614990E+02  0.77198527411E+02 -0.12752967489E+02  0.83349412353E+02  0.00000000000E+00 0. -1.
         21    1    1    2  503  502 -0.30201315371E+02  0.31085626512E+02 -0.19091020934E+03  0.19576808641E+03  0.00000000000E+00 0. -1.
          1    1    1    2  501    0 -0.87747192051E+02 -0.16909596686E+03  0.10785687434E+03  0.21892035324E+03  0.00000000000E+00 0. -1.
<scales pt_clust_5="13000.00000" pt_clust_6="13000.00000" pt_clust_7="13000.00000" pt_clust_8="13000.00000" pt_clust_9="43.34092" pt_clust_10="134.67862"></scales>
<clustering>
<clus scale="   43.341">  2  9  1 -1</clus>
<clus scale="   81.651">  5  6 -1 -1</clus>
<clus scale="   90.976">  7  8 -1 -1</clus>
<clus scale="  137.423">  2  7  1 -1</clus>
<clus scale="  134.679">  1 10  2 -1</clus>
<clus scale="  134.679">  1  5  2 -1</clus>
</clustering>
</event>
<event>
10    4  0.2857708E-005  0.3113754E+03  0.7546771E-02  0.1080421E+00
         21   -1    0    0  501  502  0.00000000000E+00  0.00000000000E+00  0.22441699852E+03  0.22441699852E+03  0.00000000000E+00 0.  1.
          2   -1    0    0  503    0 -0.00000000000E+00 -0.00000000000E+00 -0.11970696039E+04  0.11970696039E+04  0.00000000000E+00 0. -1.
         23    2    1    2    0    0 -0.15105048024E+03  0.24149878821E+03 -0.83839242262E+03  0.89131029247E+03  0.10195229705E+03 0.  0.
         24    2    1    2    0    0  0.97508580755E+02 -0.33880189930E+03 -0.89465089954E+02  0.37275020687E+03  0.81511128787E+02 0.  0.
        -11    1    4    4    0    0  0.13940506007E+02 -0.17960768225E+03 -0.25646032003E+02  0.18196421678E+03  0.00000000000E+00 0.  1.
         12    1    4    4    0    0  0.83568074748E+02 -0.15919421705E+03 -0.63819057951E+02  0.19078599009E+03  0.00000000000E+00 0. -1.
        -11    1    3    3    0    0 -0.11434317376E+03  0.10258872225E+03 -0.35014771933E+03  0.38236400546E+03  0.00000000000E+00 0.  1.
         11    1    3    3    0    0 -0.36707306476E+02  0.13891006596E+03 -0.48824470329E+03  0.50894628701E+03  0.00000000000E+00 0. -1.
         21    1    1    2  503  502  0.27255641885E+02  0.13193381741E+02 -0.60743708978E+02  0.67872921823E+02  0.00000000000E+00 0.  1.
          1    1    1    2  501    0  0.26286257601E+02  0.84109729343E+02  0.15948616197E+02  0.89553181225E+02  0.00000000000E+00 0. -1.
<scales pt_clust_5="13000.00000" pt_clust_6="13000.00000" pt_clust_7="13000.00000" pt_clust_8="13000.00000" pt_clust_9="30.28094" pt_clust_10="88.79775"></scales>
<clustering>
<clus scale="   30.281">  2  9  1 -1</clus>
<clus scale="   81.511">  5  6 -1 -1</clus>
<clus scale="   88.798">  1 10  2 -1</clus>
<clus scale="  101.952">  7  8 -1 -1</clus>
<clus scale="  305.294">  1  5  2 -1</clus>
<clus scale="   88.798">  1  5  2 -1</clus>
</clustering>
</event>
<event>
10    4  0.2857708E-005  0.1270801E+03  0.7546771E-02  0.1237031E+00
          4   -1    0    0  503    0 -0.00000000000E+00  0.00000000000E+00  0.14058129366E+03  0.14058129366E+03  0.00000000000E+00 0. -1.
         21   -1    0    0  501  502  0.00000000000E+00 -0.00000000000E+00 -0.39187831260E+03  0.39187831260E+03  0.00000000000E+00 0.  1.
         24    2    1    2    0    0 -0.22704331334E+02  0.96972012901E+02 -0.72312998017E+02  0.14744313333E+03  0.81186513272E+02 0.  0.
         23    2    1    2    0    0  0.29986289006E+02 -0.29117780971E+02 -0.20794903676E+03  0.23381499300E+03  0.98385092193E+02 0.  0.
        -11    1    3    3    0    0 -0.17489313209E+02  0.10929863780E+03 -0.75113548679E+02  0.13376888090E+03  0.00000000000E+00 0.  1.
         12    1    3    3    0    0 -0.52150181256E+01 -0.12326624903E+02  0.28005506622E+01  0.13674252432E+02  0.00000000000E+00 0. -1.
        -11    1    4    4    0    0  0.42625405528E+02 -0.55972722219E+02 -0.10289384444E+03  0.12464755935E+03  0.00000000000E+00 0. -1.
         11    1    4    4    0    0 -0.12639116521E+02  0.26854941248E+02 -0.10505519232E+03  0.10916743365E+03  0.00000000000E+00 0.  1.
         21    1    1    2  503  502 -0.19577754240E+02  0.50366479787E+01  0.65640365828E+02  0.68682704592E+02  0.00000000000E+00 0. -1.
          3    1    1    2  501    0  0.12295796568E+02 -0.72890879908E+02 -0.36675349992E+02  0.82518775343E+02  0.00000000000E+00 0. -1.
<scales pt_clust_5="13000.00000" pt_clust_6="13000.00000" pt_clust_7="13000.00000" pt_clust_8="13000.00000" pt_clust_9="20.21525" pt_clust_10="71.58604"></scales>
<clustering>
<clus scale="   20.215">  1  9  2 -1</clus>
<clus scale="   71.586">  2 10  1 -1</clus>
<clus scale="   81.187">  5  6 -1 -1</clus>
<clus scale="   98.385">  7  8 -1 -1</clus>
<clus scale="  114.285">  1  5  2 -1</clus>
<clus scale="   71.586">  2  5  1 -1</clus>
</clustering>
</event>
<event>
10    4  0.2857708E-005  0.1033477E+03  0.7546771E-02  0.1278132E+00
         21   -1    0    0  503  502  0.00000000000E+00  0.00000000000E+00  0.14891126391E+03  0.14891126391E+03  0.00000000000E+00 0. -1.
         -3   -1    0    0    0  501 -0.00000000000E+00 -0.00000000000E+00 -0.33050426643E+03  0.33050426643E+03  0.00000000000E+00 0.  1.
         24    2    1    2    0    0  0.39131493669E+02  0.16953313857E+02 -0.17088713023E+03  0.19346837516E+03  0.80055682262E+02 0.  0.
         23    2    1    2    0    0 -0.55296125084E+02 -0.10625388597E+02  0.37413232109E+02  0.11290404344E+03  0.90426836485E+02 0.  0.
        -11    1    3    3    0    0  0.27048547994E+02  0.47928573391E+02 -0.83856562041E+02  0.10030301637E+03  0.00000000000E+00 0.  1.
         12    1    3    3    0    0  0.12082945675E+02 -0.30975259535E+02 -0.87030568186E+02  0.93165358788E+02  0.00000000000E+00 0. -1.
        -13    1    4    4    0    0  0.13603042711E+02 -0.30181602022E+02  0.24258957565E+01  0.33194229044E+02  0.00000000000E+00 0.  1.
         13    1    4    4    0    0 -0.68899167795E+02  0.19556213425E+02  0.34987336353E+02  0.79709814398E+02  0.00000000000E+00 0. -1.
         21    1    1    2  503  501  0.12421200616E+02 -0.28342088345E+02 -0.10630616845E+03  0.11071838893E+03  0.00000000000E+00 0.  1.
         -4    1    1    2    0  502  0.37434307981E+01  0.22014163086E+02  0.58187064046E+02  0.62324722805E+02  0.00000000000E+00 0.  1.
<scales pt_clust_5="13000.00000" pt_clust_6="13000.00000" pt_clust_7="13000.00000" pt_clust_8="13000.00000" pt_clust_9="30.48166" pt_clust_10="22.33017"></scales>
<clustering>
<clus scale="   22.330">  1 10  2 -1</clus>
<clus scale="   30.482">  2  9  1 -1</clus>
<clus scale="   80.056">  5  6 -1 -1</clus>
<clus scale="   90.427">  7  8 -1 -1</clus>
<clus scale="   94.407">  2  5  1 -1</clus>
<clus scale="   22.330">  1  5  2 -1</clus>
</clustering>
</event>
<event>
10    4  0.2857708E-005  0.1936390E+03  0.7546771E-02  0.1156289E+00
         21   -1    0    0  503  502  0.00000000000E+00  0.00000000000E+00  0.12863653936E+03  0.12863653936E+03  0.00000000000E+00 0. -1.
         -1   -1    0    0    0  501 -0.00000000000E+00 -0.00000000000E+00 -0.94605553161E+03  0.94605553161E+03  0.00000000000E+00 0.  1.
         23    2    1    2    0    0  0.13530583914E+03 -0.90663145706E+02 -0.44106133942E+03  0.47878956542E+03  0.90426029032E+02 0.  0.
         24    2    1    2    0    0 -0.12754348019E+03  0.17760654873E+03 -0.23433766274E+03  0.33025423844E+03  0.79638535530E+02 0.  0.
        -11    1    4    4    0    0 -0.83009039775E+02  0.16358325447E+03 -0.16541805909E+03  0.24700833204E+03  0.00000000000E+00 0.  1.
         12    1    4    4    0    0 -0.44534440417E+02  0.14023294265E+02 -0.68919603652E+02  0.83245906403E+02  0.00000000000E+00 0. -1.
        -11    1    3    3    0    0  0.11466410196E+03 -0.25377791327E+02 -0.26360991860E+03  0.28858634368E+03  0.00000000000E+00 0.  1.
         11    1    3    3    0    0  0.20641737179E+02 -0.65285354379E+02 -0.17745142082E+03  0.19020322174E+03  0.00000000000E+00 0. -1.
         21    1    1    2  503  501  0.85703200475E+01  0.32406524649E+02 -0.14126090144E+03  0.14518359239E+03  0.00000000000E+00 0.  1.
         -2    1    1    2    0  502 -0.16332678996E+02 -0.11934992767E+03 -0.75908865087E+00  0.12046467472E+03  0.00000000000E+00 0.  1.
<scales pt_clust_5="13000.00000" pt_clust_6="13000.00000" pt_clust_7="13000.00000" pt_clust_8="13000.00000" pt_clust_9="33.52064" pt_clust_10="117.95094"></scales>
<clustering>
<clus scale="   33.521">  2  9  1 -1</clus>
<clus scale="   79.639">  5  6 -1 -1</clus>
<clus scale="   90.426">  7  8 -1 -1</clus>
<clus scale="  117.951">  1 10  2 -1</clus>
<clus scale="  188.843">  1  5  2 -1</clus>
<clus scale="  117.951">  1  5  2 -1</clus>
</clustering>
</event>
<event>
10    4  0.2857708E-005  0.1196231E+03  0.7546771E-02  0.1246618E+00
         21   -1    0    0  501  502  0.00000000000E+00  0.00000000000E+00  0.56714833804E+02  0.56714833804E+02  0.00000000000E+00 0.  1.
          2   -1    0    0  503    0 -0.00000000000E+00 -0.00000000000E+00 -0.11039035236E+04  0.11039035236E+04  0.00000000000E+00 0. -1.
         24    2    1    2    0    0  0.68184811248E+02  0.55486126304E+02 -0.13451491435E+03  0.18057901084E+03  0.82381055322E+02 0.  0.
         23    2    1    2    0    0 -0.30169099486E+02 -0.62876656024E+02 -0.86619579775E+02  0.14397776554E+03  0.91449422812E+02 0.  0.
        -13    1    3    3    0    0  0.66031037014E+02  0.75084087283E+02 -0.10417557494E+03  0.14439622026E+03  0.00000000000E+00 0.  1.
         14    1    3    3    0    0  0.21537742338E+01 -0.19597960979E+02 -0.30339339411E+02  0.36182790577E+02  0.00000000000E+00 0. -1.
        -11    1    4    4    0    0 -0.96634796467E+00 -0.80730995094E+02 -0.62598002459E+02  0.10216132981E+03  0.00000000000E+00 0.  1.
         11    1    4    4    0    0 -0.29202751521E+02  0.17854339071E+02 -0.24021577316E+02  0.41816435726E+02  0.00000000000E+00 0. -1.
         21    1    1    2  503  502  0.17536760054E+02 -0.47563280842E+02 -0.34400998839E+03  0.34772500018E+03  0.00000000000E+00 0. -1.
          1    1    1    2  501    0 -0.55552471816E+02  0.54953810562E+02 -0.48204420723E+03  0.48833658079E+03  0.00000000000E+00 0. -1.
<scales pt_clust_5="13000.00000" pt_clust_6="13000.00000" pt_clust_7="13000.00000" pt_clust_8="13000.00000" pt_clust_9="50.69323" pt_clust_10="50.65291"></scales>
<clustering>
<clus scale="   50.693">  2  9  1 -1</clus>
<clus scale="   50.653">  1 10  2 -1</clus>
<clus scale="   82.381">  5  6 -1 -1</clus>
<clus scale="   91.449">  7  8 -1 -1</clus>
<clus scale="  112.842">  2  5  1 -1</clus>
<clus scale="   50.653">  1  5  2 -1</clus>
</clustering>
</event>
<event>
10    4  0.2857708E-005  0.9747945E+02  0.7546771E-02  0.1290955E+00
         21   -1    0    0  501  502  0.00000000000E+00  0.00000000000E+00  0.67733602664E+02  0.67733602664E+02  0.00000000000E+00 0.  1.
          2   -1    0    0  503    0 -0.00000000000E+00 -0.00000000000E+00 -0.45653862053E+03  0.45653862053E+03  0.00000000000E+00 0. -1.
         24    2    1    2    0    0  0.37457073008E+02  0.26623017976E+02 -0.10873365833E+03  0.14275508850E+03  0.80275708871E+02 0.  0.
         23    2    1    2    0    0 -0.30213098260E+02 -0.14759287716E+02 -0.10499160979E+02  0.96906533697E+02  0.90277217566E+02 0.  0.
        -11    1    3    3    0    0  0.56833132651E+02  0.37034589894E+02 -0.65750099363E+02  0.94470320110E+02  0.00000000000E+00 0.  1.
         12    1    3    3    0    0 -0.19376059643E+02 -0.10411571918E+02 -0.42983558971E+02  0.48284768394E+02  0.00000000000E+00 0. -1.
        -13    1    4    4    0    0  0.27227206378E+02  0.14490998142E+02 -0.10071646471E+02  0.32446076141E+02  0.00000000000E+00 0. -1.
         13    1    4    4    0    0 -0.57440304638E+02 -0.29250285858E+02 -0.42751450825E+00  0.64460457556E+02  0.00000000000E+00 0.  1.
         21    1    1    2  503  502 -0.41893065496E+02  0.85734192635E+01 -0.78915609856E+02  0.89756369877E+02  0.00000000000E+00 0. -1.
          1    1    1    2  501    0  0.34649090748E+02 -0.20437149523E+02 -0.19065658870E+03  0.19485423112E+03  0.00000000000E+00 0. -1.
<scales pt_clust_5="13000.00000" pt_clust_6="13000.00000" pt_clust_7="13000.00000" pt_clust_8="13000.00000" pt_clust_9="39.63431" pt_clust_10="40.22733"></scales>
<clustering>
<clus scale="   40.227">  1 10  2 -1</clus>
<clus scale="   39.634">  2  9  1 -1</clus>
<clus scale="   80.276">  5  6 -1 -1</clus>
<clus scale="   88.298">  2  5  1 -1</clus>
<clus scale="   90.277">  7  8 -1 -1</clus>
<clus scale="   40.227">  1  5  2 -1</clus>
</clustering>
</event>
<event>
10    4  0.2857708E-005  0.1936112E+03  0.7546771E-02  0.1156094E+00
         21   -1    0    0  501  502  0.00000000000E+00  0.00000000000E+00  0.49354090530E+02  0.49354090530E+02  0.00000000000E+00 0. -1.
          2   -1    0    0  503    0 -0.00000000000E+00 -0.00000000000E+00 -0.14426720772E+04  0.14426720772E+04  0.00000000000E+00 0. -1.
         23    2    1    2    0    0 -0.14643083151E+03  0.65863874870E+02 -0.56568114540E+03  0.59497244387E+03  0.90647737297E+02 0.  0.
         24    2    1    2    0    0  0.17604882069E+03 -0.10480964151E+03 -0.35927966432E+03  0.42167792170E+03  0.82171431978E+02 0.  0.
        -11    1    4    4    0    0  0.11269625777E+03 -0.29335570016E+02 -0.24152439653E+03  0.26813253496E+03  0.00000000000E+00 0.  1.
         12    1    4    4    0    0  0.63352562925E+02 -0.75474071498E+02 -0.11775526779E+03  0.15354538674E+03  0.00000000000E+00 0. -1.
        -13    1    3    3    0    0 -0.12584083990E+02  0.45454244831E+02 -0.18549790755E+03  0.19139989876E+03  0.00000000000E+00 0.  1.
         13    1    3    3    0    0 -0.13384674752E+03  0.20409630039E+02 -0.38018323785E+03  0.40357254510E+03  0.00000000000E+00 0. -1.
         21    1    1    2  503  502  0.19233414028E+02  0.66631346154E+01 -0.76225296106E+02  0.78896244173E+02  0.00000000000E+00 0. -1.
          1    1    1    2  501    0 -0.48851403213E+02  0.32282632028E+02 -0.39213188085E+03  0.39647955799E+03  0.00000000000E+00 0. -1.
<scales pt_clust_5="13000.00000" pt_clust_6="13000.00000" pt_clust_7="13000.00000" pt_clust_8="13000.00000" pt_clust_9="20.35489" pt_clust_10="55.17858"></scales>
<clustering>
<clus scale="   20.355">  2  9  1 -1</clus>
<clus scale="   55.179">  1 10  2 -1</clus>
<clus scale="   82.171">  5  6 -1 -1</clus>
<clus scale="   90.648">  7  8 -1 -1</clus>
<clus scale="  189.790">  1  5  2 -1</clus>
<clus scale="   55.179">  1  5  2 -1</clus>
</clustering>
</event>
<event>
10    4  0.2857708E-005  0.1540470E+03  0.7546771E-02  0.1198553E+00
         21   -1    0    0  501  502  0.00000000000E+00  0.00000000000E+00  0.52731260254E+03  0.52731260254E+03  0.00000000000E+00 0.  1.
          4   -1    0    0  503    0 -0.00000000000E+00 -0.00000000000E+00 -0.13501310644E+03  0.13501310644E+03  0.00000000000E+00 0. -1.
         24    2    1    2    0    0  0.62680904700E+02 -0.12464646912E+03 -0.53191156442E+02  0.16977451187E+03  0.80798809870E+02 0.  0.
         23    2    1    2    0    0 -0.68288835188E+02  0.77349455733E+02  0.35882595824E+03  0.38576360561E+03  0.97011276624E+02 0.  0.
        -11    1    3    3    0    0  0.60430729846E+02 -0.10984410546E+03 -0.11995539273E+02  0.12594242167E+03  0.00000000000E+00 0.  1.
         12    1    3    3    0    0  0.22501748549E+01 -0.14802363666E+02 -0.41195617170E+02  0.43832090196E+02  0.00000000000E+00 0. -1.
        -11    1    4    4    0    0 -0.15493026066E+01 -0.21854757809E+02  0.49395070231E+02  0.54036133657E+02  0.00000000000E+00 0. -1.
         11    1    4    4    0    0 -0.66739532581E+02  0.99204213542E+02  0.30943088801E+03  0.33172747195E+03  0.00000000000E+00 0.  1.
         21    1    1    2  503  502  0.18100578452E+01  0.23428580323E+02  0.85273674398E+01  0.24997813521E+02  0.00000000000E+00 0. -1.
          3    1    1    2  501    0  0.37978726421E+01  0.23868433068E+02  0.78137326861E+02  0.81789777984E+02  0.00000000000E+00 0. -1.
<scales pt_clust_5="13000.00000" pt_clust_6="13000.00000" pt_clust_7="13000.00000" pt_clust_8="13000.00000" pt_clust_9="23.49840" pt_clust_10="24.50610"></scales>
<clustering>
<clus scale="   23.498">  2  9  1 -1</clus>
<clus scale="   24.506">  1 10  2 -1</clus>
<clus scale="   80.799">  5  6 -1 -1</clus>
<clus scale="   97.011">  7  8 -1 -1</clus>
<clus scale="  144.387">  2  5  1 -1</clus>
<clus scale="   24.506">  1  5  2 -1</clus>
</clustering>
</event>
<event>
10    4  0.2857708E-005  0.1237328E+03  0.7546771E-02  0.1240782E+00
          2   -1    0    0  503    0 -0.00000000000E+00  0.00000000000E+00  0.87105693212E+03  0.87105693212E+03  0.00000000000E+00 0. -1.
         21   -1    0    0  501  502  0.00000000000E+00 -0.00000000000E+00 -0.22660142483E+03  0.22660142483E+03  0.00000000000E+00 0. -1.
         24    2    1    2    0    0 -0.10074193104E+02  0.78297816192E+02  0.62581895459E+03  0.63575722131E+03  0.79409339137E+02 0.  0.
         23    2    1    2    0    0 -0.69116556887E+02 -0.11781459051E+03  0.13580334509E+03  0.21343760532E+03  0.91954807676E+02 0.  0.
        -13    1    3    3    0    0 -0.36634182717E+02  0.27533882997E+02  0.16017605620E+03  0.16660296227E+03  0.00000000000E+00 0.  1.
         14    1    3    3    0    0  0.26559989613E+02  0.50763933194E+02  0.46564289838E+03  0.46915425904E+03  0.00000000000E+00 0. -1.
        -11    1    4    4    0    0 -0.43449610671E+02 -0.81763636596E+01  0.70651961004E+02  0.83345192926E+02  0.00000000000E+00 0. -1.
         11    1    4    4    0    0 -0.25666946216E+02 -0.10963822685E+03  0.65151384088E+02  0.13009241239E+03  0.00000000000E+00 0.  1.
         21    1    1    2  503  502  0.48586213508E+02  0.28590148501E+02  0.51704302172E+02  0.76494127862E+02  0.00000000000E+00 0.  1.
          1    1    1    2  501    0  0.30604536484E+02  0.10926625812E+02 -0.16887109456E+03  0.17196940246E+03  0.00000000000E+00 0. -1.
<scales pt_clust_5="13000.00000" pt_clust_6="13000.00000" pt_clust_7="13000.00000" pt_clust_8="13000.00000" pt_clust_9="63.43011" pt_clust_10="32.49660"></scales>
<clustering>
<clus scale="   32.497">  2 10  1 -1</clus>
<clus scale="   63.430">  2  9  1 -1</clus>
<clus scale="   79.409">  5  6 -1 -1</clus>
<clus scale="   91.955">  7  8 -1 -1</clus>
<clus scale="  114.717">  1  5  2 -1</clus>
<clus scale="   32.497">  2  5  1 -1</clus>
</clustering>
</event>
<event>
10    4  0.2857708E-005  0.1766946E+03  0.7546771E-02  0.1205617E+00
         21   -1    0    0  501  502  0.00000000000E+00  0.00000000000E+00  0.28734581577E+03  0.28734581577E+03  0.00000000000E+00 0.  1.
          2   -1    0    0  503    0 -0.00000000000E+00 -0.00000000000E+00 -0.92279097009E+03  0.92279097009E+03  0.00000000000E+00 0. -1.
         24    2    1    2    0    0 -0.20559843351E+02 -0.13371467103E+02 -0.82630320432E+02  0.11632732365E+03  0.78120247576E+02 0.  0.
         23    2    1    2    0    0 -0.13891523509E+03  0.52687455626E+02  0.22457095294E+03  0.28475968830E+03  0.92642089019E+02 0.  0.
        -13    1    3    3    0    0  0.16906445817E+02  0.17135142138E+02 -0.45357178486E+01  0.24495177947E+02  0.00000000000E+00 0.  1.
         14    1    3    3    0    0 -0.37466289168E+02 -0.30506609241E+02 -0.78094602583E+02  0.91832145701E+02  0.00000000000E+00 0. -1.
        -11    1    4    4    0    0 -0.14789113232E+02 -0.22273235934E+02  0.58320785941E+02  0.64157064942E+02  0.00000000000E+00 0.  1.
         11    1    4    4    0    0 -0.12412612186E+03  0.74960691560E+02  0.16625016700E+03  0.22060262336E+03  0.00000000000E+00 0. -1.
         21    1    1    2  503  502 -0.18429339652E+02  0.21975422826E+02 -0.19293882756E+03  0.19505883971E+03  0.00000000000E+00 0.  1.
          1    1    1    2  501    0  0.17790441810E+03 -0.61291411349E+02 -0.58444695927E+03  0.61399093420E+03  0.00000000000E+00 0. -1.
<scales pt_clust_5="13000.00000" pt_clust_6="13000.00000" pt_clust_7="13000.00000" pt_clust_8="13000.00000" pt_clust_9="28.68030" pt_clust_10="150.46079"></scales>
<clustering>
<clus scale="   28.680">  2  9  1 -1</clus>
<clus scale="   78.120">  5  6 -1 -1</clus>
<clus scale="   82.115">  2  5  1 -1</clus>
<clus scale="   92.642">  7  8 -1 -1</clus>
<clus scale="  150.461">  1 10  2 -1</clus>
<clus scale="  150.461">  1  5  2 -1</clus>
</clustering>
</event>
<event>
10    4  0.2857708E-005  0.2716243E+03  0.7546771E-02  0.1115210E+00
          2   -1    0    0  503    0 -0.00000000000E+00  0.00000000000E+00  0.47263062696E+03  0.47263062696E+03  0.00000000000E+00 0. -1.
         21   -1    0    0  501  502  0.00000000000E+00 -0.00000000000E+00 -0.48167991657E+03  0.48167991657E+03  0.00000000000E+00 0.  1.
         23    2    1    2    0    0 -0.56373888846E+01 -0.14348421192E+03  0.78659535477E+02  0.19567939088E+03  0.10716157086E+03 0.  0.
         24    2    1    2    0    0 -0.26807587254E+03 -0.50053227925E+02 -0.16440361063E+03  0.32883845166E+03  0.82074241015E+02 0.  0.
        -13    1    4    4    0    0 -0.16525289362E+03 -0.30119689423E+02 -0.53486993155E+02  0.17628548714E+03  0.00000000000E+00 0.  1.
         14    1    4    4    0    0 -0.10282297892E+03 -0.19933538502E+02 -0.11091661747E+03  0.15255296452E+03  0.00000000000E+00 0. -1.
        -13    1    3    3    0    0 -0.35915797194E+02 -0.15462545209E+02  0.45533185442E+02  0.60019211665E+02  0.00000000000E+00 0.  1.
         13    1    3    3    0    0  0.30278408309E+02 -0.12802166671E+03  0.33126350036E+02  0.13566017922E+03  0.00000000000E+00 0. -1.
         21    1    1    2  503  502  0.18950704414E+03  0.25512985214E+03  0.46591536778E+02  0.32120854990E+03  0.00000000000E+00 0. -1.
          1    1    1    2  501    0  0.84206217287E+02 -0.61592412292E+02  0.30103248755E+02  0.10858415109E+03  0.00000000000E+00 0. -1.
<scales pt_clust_5="13000.00000" pt_clust_6="13000.00000" pt_clust_7="13000.00000" pt_clust_8="13000.00000" pt_clust_9="258.92777" pt_clust_10="104.32796"></scales>
<clustering>
<clus scale="   82.074">  5  6 -1 -1</clus>
<clus scale="  104.328">  2 10  1 -1</clus>
<clus scale="  107.162">  7  8 -1 -1</clus>
<clus scale="  185.756">  1  7  2 -1</clus>
<clus scale="  258.928">  1  9  2 -1</clus>
<clus scale="  104.328">  2  5  1 -1</clus>
</clustering>
</event>
<event>
10    4  0.2857708E-005  0.1315355E+03  0.7546771E-02  0.1235763E+00
         -1   -1    0    0    0  501 -0.00000000000E+00  0.00000000000E+00  0.93170150730E+02  0.93170150730E+02  0.00000000000E+00 0.  1.
         21   -1    0    0  503  502  0.00000000000E+00 -0.00000000000E+00 -0.54639281963E+03  0.54639281963E+03  0.00000000000E+00 0.  1.
         24    2    1    2    0    0 -0.81802213301E+01  0.10070501428E+03 -0.69442172187E+02  0.13261762374E+03  0.50564838819E+02 0.  0.
         23    2    1    2    0    0 -0.48722156994E+02 -0.70454477615E+02 -0.17644307086E+03  0.21712222536E+03  0.93124763050E+02 0.  0.
        -13    1    3    3    0    0 -0.41529778551E+01  0.31075810012E+02  0.36792188481E+01  0.31567227377E+02  0.00000000000E+00 0.  1.
         14    1    3    3    0    0 -0.40272434750E+01  0.69629204269E+02 -0.73121391035E+02  0.10105039636E+03  0.00000000000E+00 0. -1.
        -11    1    4    4    0    0  0.19414268976E+02 -0.35457410042E+02 -0.25332233113E+02  0.47706014309E+02  0.00000000000E+00 0. -1.
         11    1    4    4    0    0 -0.68136425970E+02 -0.34997067574E+02 -0.15111083774E+03  0.16941621105E+03  0.00000000000E+00 0.  1.
         21    1    1    2  503  501  0.23254301788E+02  0.76692182566E+01  0.34735496200E+02  0.42498637114E+02  0.00000000000E+00 0.  1.
         -2    1    1    2    0  502  0.33648076536E+02 -0.37919754923E+02 -0.24207292206E+03  0.24732448415E+03  0.00000000000E+00 0.  1.
<scales pt_clust_5="13000.00000" pt_clust_6="13000.00000" pt_clust_7="13000.00000" pt_clust_8="13000.00000" pt_clust_9="24.48631" pt_clust_10="51.17439"></scales>
<clustering>
<clus scale="   24.486">  1  9  2 -1</clus>
<clus scale="   50.565">  5  6 -1 -1</clus>
<clus scale="   51.174">  2 10  1 -1</clus>
<clus scale="   93.125">  7  8 -1 -1</clus>
<clus scale="  105.765">  1  5  2 -1</clus>
<clus scale="   51.174">  2  5  1 -1</clus>
</clustering>
</event>
<event>
10    4  0.2857708E-005  0.9877315E+02  0.7546771E-02  0.1289560E+00
          2   -1    0    0  503    0 -0.00000000000E+00  0.00000000000E+00  0.25775236348E+03  0.25775236348E+03  0.00000000000E+00 0. -1.
         21   -1    0    0  501  502  0.00000000000E+00 -0.00000000000E+00 -0.16518976915E+03  0.16518976915E+03  0.00000000000E+00 0.  1.
         24    2    1    2    0    0  0.55841830088E+02  0.14057041283E+02  0.17199071168E+03  0.19816503265E+03  0.79828972575E+02 0.  0.
         23    2    1    2    0    0  0.47586842373E+01 -0.14243602716E+02 -0.56821304134E+02  0.10951291170E+03  0.92406124964E+02 0.  0.
        -11    1    3    3    0    0  0.13661402118E+02  0.32595318777E+02  0.13359027484E+03  0.13818628820E+03  0.00000000000E+00 0.  1.
         12    1    3    3    0    0  0.42180427971E+02 -0.18538277494E+02  0.38400436843E+02  0.59978744452E+02  0.00000000000E+00 0. -1.
        -13    1    4    4    0    0 -0.47468855916E+01 -0.43170627313E+02 -0.64825764917E+02  0.78029582739E+02  0.00000000000E+00 0.  1.
         13    1    4    4    0    0  0.95055698290E+01  0.28927024597E+02  0.80044607828E+01  0.31483328957E+02  0.00000000000E+00 0. -1.
         21    1    1    2  503  502 -0.23302130570E+02  0.40893610423E+01  0.37546323258E+02  0.44378356808E+02  0.00000000000E+00 0. -1.
          1    1    1    2  501    0 -0.37298383756E+02 -0.39027996091E+01 -0.60153136476E+02  0.70885831472E+02  0.00000000000E+00 0. -1.
<scales pt_clust_5="13000.00000" pt_clust_6="13000.00000" pt_clust_7="13000.00000" pt_clust_8="13000.00000" pt_clust_9="23.65824" pt_clust_10="38.06550"></scales>
<clustering>
<clus scale="   23.658">  1  9  2 -1</clus>
<clus scale="   38.066">  2 10  1 -1</clus>
<clus scale="   79.829">  5  6 -1 -1</clus>
<clus scale="   87.120">  1  5  2 -1</clus>
<clus scale="   92.406">  7  8 -1 -1</clus>
<clus scale="   38.066">  2  5  1 -1</clus>
</clustering>
</event>
<event>
10    4  0.2857708E-005  0.1557082E+03  0.7546771E-02  0.1195444E+00
          2   -1    0    0  503    0 -0.00000000000E+00  0.00000000000E+00  0.22813406609E+03  0.22813406609E+03  0.00000000000E+00 0. -1.
         21   -1    0    0  501  502  0.00000000000E+00 -0.00000000000E+00 -0.63935191764E+03  0.63935191764E+03  0.00000000000E+00 0.  1.
         24    2    1    2    0    0 -0.11770032617E+03  0.51378677791E+02  0.14425595938E+03  0.20930708668E+03  0.80663122981E+02 0.  0.
         23    2    1    2    0    0  0.14794347920E+03 -0.94701720113E+02 -0.43145385449E+03  0.47473086169E+03  0.91440000315E+02 0.  0.
        -11    1    3    3    0    0 -0.17160048414E+02 -0.20389435030E+02  0.15282567581E+02  0.30720566308E+02  0.00000000000E+00 0.  1.
         12    1    3    3    0    0 -0.10054027775E+03  0.71768112821E+02  0.12897339180E+03  0.17858652038E+03  0.00000000000E+00 0. -1.
        -11    1    4    4    0    0  0.99943442499E+02 -0.54777976794E+02 -0.36988696038E+03  0.38704738974E+03  0.00000000000E+00 0.  1.
         11    1    4    4    0    0  0.48000036702E+02 -0.39923743319E+02 -0.61566894102E+02  0.87683471951E+02  0.00000000000E+00 0. -1.
         21    1    1    2  503  502  0.17931216642E+02  0.17661451813E+02  0.18235513009E+02  0.31080369127E+02  0.00000000000E+00 0.  1.
          1    1    1    2  501    0 -0.48174369675E+02  0.25661590509E+02 -0.14225546945E+03  0.15236766622E+03  0.00000000000E+00 0. -1.
<scales pt_clust_5="13000.00000" pt_clust_6="13000.00000" pt_clust_7="13000.00000" pt_clust_8="13000.00000" pt_clust_9="25.16854" pt_clust_10="54.39919"></scales>
<clustering>
<clus scale="   25.169">  1  9  2 -1</clus>
<clus scale="   54.399">  2 10  1 -1</clus>
<clus scale="   80.663">  5  6 -1 -1</clus>
<clus scale="   91.440">  7  8 -1 -1</clus>
<clus scale="  149.634">  1  5  2 -1</clus>
<clus scale="   54.399">  2  5  1 -1</clus>
</clustering>
</event>
<event>
10    4  0.2857708E-005  0.1081919E+03  0.7546771E-02  0.1265473E+00
          2   -1    0    0  503    0 -0.00000000000E+00  0.00000000000E+00  0.24711675182E+03  0.24711675182E+03  0.00000000000E+00 0. -1.
         21   -1    0    0  501  502  0.00000000000E+00 -0.00000000000E+00 -0.32922879094E+03  0.32922879094E+03  0.00000000000E+00 0. -1.
         23    2    1    2    0    0 -0.35087158408E+02 -0.43465229605E+02 -0.10613332674E+03  0.14734386860E+03  0.85589705557E+02 0.  0.
         24    2    1    2    0    0  0.65126316873E+02  0.32659713872E+02 -0.13715438414E+03  0.17921452538E+03  0.89433925096E+02 0.  0.
        -11    1    4    4    0    0  0.27634052025E+02 -0.24513415546E+02 -0.16331980069E+02  0.40389131533E+02  0.00000000000E+00 0.  1.
         12    1    4    4    0    0  0.37492264848E+02  0.57173129418E+02 -0.12082240407E+03  0.13882539384E+03  0.00000000000E+00 0. -1.
        -13    1    3    3    0    0 -0.38071995391E+02 -0.69420329459E+01 -0.10362220088E+03  0.11061297017E+03  0.00000000000E+00 0.  1.
         13    1    3    3    0    0  0.29848369823E+01 -0.36523196659E+02 -0.25111258619E+01  0.36730898425E+02  0.00000000000E+00 0. -1.
         21    1    1    2  503  502  0.58698253003E+02 -0.30158487014E+02  0.13234735500E+03  0.14788793602E+03  0.00000000000E+00 0. -1.
          1    1    1    2  501    0 -0.88737411467E+02  0.40964002746E+02  0.28828316768E+02  0.10189921277E+03  0.00000000000E+00 0. -1.
<scales pt_clust_5="13000.00000" pt_clust_6="13000.00000" pt_clust_7="13000.00000" pt_clust_8="13000.00000" pt_clust_9="65.99257" pt_clust_10="57.48352"></scales>
<clustering>
<clus scale="   65.993">  1  9  2 -1</clus>
<clus scale="   57.484">  2 10  1 -1</clus>
<clus scale="   85.590">  7  8 -1 -1</clus>
<clus scale="   89.434">  5  6 -1 -1</clus>
<clus scale="  105.036">  1  7  2 -1</clus>
<clus scale="   57.484">  2  5  1 -1</clus>
</clustering>
</event>
<event>
10    4  0.2857708E-005  0.1200106E+03  0.7546771E-02  0.1245011E+00
          4   -1    0    0  503    0 -0.00000000000E+00  0.00000000000E+00  0.33767053214E+03  0.33767053214E+03  0.00000000000E+00 0. -1.
         21   -1    0    0  501  502  0.00000000000E+00 -0.00000000000E+00 -0.95331684793E+03  0.95331684793E+03  0.00000000000E+00 0.  1.
         23    2    1    2    0    0 -0.29642587841E+02  0.41625279728E+00  0.25222231506E+03  0.26976373238E+03  0.90980870591E+02 0.  0.
         24    2    1    2    0    0  0.10470695541E+03 -0.13724240112E+03 -0.56696144165E+03  0.59870030004E+03  0.84839553089E+02 0.  0.
        -13    1    4    4    0    0  0.11056548143E+03 -0.10683886700E+03 -0.39300382154E+03  0.42200861713E+03  0.00000000000E+00 0.  1.
         14    1    4    4    0    0 -0.58585260205E+01 -0.30403534126E+02 -0.17395762011E+03  0.17669168291E+03  0.00000000000E+00 0. -1.
        -13    1    3    3    0    0  0.34577186686E+01 -0.35728630261E+02  0.49158994675E+02  0.60869512863E+02  0.00000000000E+00 0. -1.
         13    1    3    3    0    0 -0.33100306509E+02  0.36144883058E+02  0.20306332038E+03  0.20889421952E+03  0.00000000000E+00 0.  1.
         21    1    1    2  503  502 -0.58593530225E+01  0.68399673546E+02  0.31956818562E+02  0.75723745362E+02  0.00000000000E+00 0.  1.
          3    1    1    2  501    0 -0.69205014551E+02  0.68426474780E+02 -0.33286400776E+03  0.34679960230E+03  0.00000000000E+00 0. -1.
<scales pt_clust_5="13000.00000" pt_clust_6="13000.00000" pt_clust_7="13000.00000" pt_clust_8="13000.00000" pt_clust_9="68.65018" pt_clust_10="98.61067"></scales>
<clustering>
<clus scale="   68.650">  1  9  2 -1</clus>
<clus scale="   84.840">  5  6 -1 -1</clus>
<clus scale="   90.981">  7  8 -1 -1</clus>
<clus scale="   98.611">  2 10  1 -1</clus>
<clus scale="  115.424">  2  5  1 -1</clus>
<clus scale="   98.611">  2  5  1 -1</clus>
</clustering>
</event>
<event>
10    4  0.2857708E-005  0.9406167E+02  0.7546771E-02  0.1297937E+00
         21   -1    0    0  503  502  0.00000000000E+00  0.00000000000E+00  0.20543082043E+02  0.20543082043E+02  0.00000000000E+00 0.  1.
         -3   -1    0    0    0  501 -0.00000000000E+00 -0.00000000000E+00 -0.10122454272E+04  0.10122454272E+04  0.00000000000E+00 0.  1.
         24    2    1    2    0    0 -0.50953371737E+00  0.21523899872E+02 -0.56892039315E+03  0.57474405611E+03  0.78719618903E+02 0.  0.
         23    2    1    2    0    0  0.20098895665E+02 -0.61168666505E+02 -0.18812388161E+03  0.21709737258E+03  0.87149887998E+02 0.  0.
        -11    1    3    3    0    0  0.17123823370E+02  0.43861132764E+02 -0.23869936691E+03  0.24329901779E+03  0.00000000000E+00 0.  1.
         12    1    3    3    0    0 -0.17633357087E+02 -0.22337232892E+02 -0.33022102624E+03  0.33144503832E+03  0.00000000000E+00 0. -1.
        -13    1    4    4    0    0 -0.29738894075E+01 -0.72482906154E+02 -0.89643578452E+02  0.11531949905E+03  0.00000000000E+00 0.  1.
         13    1    4    4    0    0  0.23072785073E+02  0.11314239648E+02 -0.98480303161E+02  0.10177787353E+03  0.00000000000E+00 0. -1.
         21    1    1    2  503  501 -0.19837992104E+02  0.61919408683E+01 -0.10545921213E+03  0.10748735500E+03  0.00000000000E+00 0.  1.
         -4    1    1    2    0  502  0.24863015637E+00  0.33452825765E+02 -0.12919885830E+03  0.13345972559E+03  0.00000000000E+00 0.  1.
<scales pt_clust_5="13000.00000" pt_clust_6="13000.00000" pt_clust_7="13000.00000" pt_clust_8="13000.00000" pt_clust_9="20.78187" pt_clust_10="34.45098"></scales>
<clustering>
<clus scale="   20.782">  2  9  1 -1</clus>
<clus scale="   34.451">  1 10  2 -1</clus>
<clus scale="   78.720">  5  6 -1 -1</clus>
<clus scale="   86.309">  2  5  1 -1</clus>
<clus scale="   87.150">  7  8 -1 -1</clus>
<clus scale="   34.451">  1  5  2 -1</clus>
</clustering>
</event>
<event>
10    4  0.2857708E-005  0.1729469E+03  0.7546771E-02  0.1176277E+00
          2   -1    0    0  503    0 -0.00000000000E+00  0.00000000000E+00  0.76443277212E+02  0.76443277212E+02  0.00000000000E+00 0. -1.
         21   -1    0    0  501  502  0.00000000000E+00 -0.00000000000E+00 -0.76824744591E+03  0.76824744591E+03  0.00000000000E+00 0. -1.
         24    2    1    2    0    0  0.52534721592E+02  0.13310607939E+03 -0.25005511733E+03  0.29924399203E+03  0.80884360172E+02 0.  0.
         23    2    1    2    0    0 -0.83560734022E+02 -0.12474091768E+03 -0.32934770012E+03  0.37347017995E+03  0.92018340118E+02 0.  0.
        -11    1    3    3    0    0 -0.20470793359E+02  0.29845682350E+02 -0.75142481952E+02  0.83403901165E+02  0.00000000000E+00 0.  1.
         12    1    3    3    0    0  0.73005514951E+02  0.10326039704E+03 -0.17491263538E+03  0.21584009087E+03  0.00000000000E+00 0. -1.
        -13    1    4    4    0    0 -0.75077089556E+02 -0.63283213084E+02 -0.27124530669E+03  0.28847071053E+03  0.00000000000E+00 0. -1.
         13    1    4    4    0    0 -0.84836444660E+01 -0.61457704599E+02 -0.58102393439E+02  0.84999469418E+02  0.00000000000E+00 0.  1.
         21    1    1    2  503  502 -0.15197806871E+02  0.30667608684E+02  0.98143921567E+01  0.35606149040E+02  0.00000000000E+00 0.  1.
          1    1    1    2  501    0  0.46223819301E+02 -0.39032770389E+02 -0.12221574340E+03  0.13637040210E+03  0.00000000000E+00 0. -1.
<scales pt_clust_5="13000.00000" pt_clust_6="13000.00000" pt_clust_7="13000.00000" pt_clust_8="13000.00000" pt_clust_9="34.22683" pt_clust_10="56.39267"></scales>
<clustering>
<clus scale="   34.227">  1  9  2 -1</clus>
<clus scale="   56.393">  2 10  1 -1</clus>
<clus scale="   80.884">  5  6 -1 -1</clus>
<clus scale="   92.018">  7  8 -1 -1</clus>
<clus scale="  167.289">  1  5  2 -1</clus>
<clus scale="   56.393">  2  5  1 -1</clus>
</clustering>
</event>
<event>
10    4  0.2857708E-005  0.1347951E+03  0.7546771E-02  0.1222736E+00
          2   -1    0    0  503    0 -0.00000000000E+00  0.00000000000E+00  0.62633317871E+03  0.62633317871E+03  0.00000000000E+00 0. -1.
         21   -1    0    0  501  502  0.00000000000E+00 -0.00000000000E+00 -0.16480081687E+03  0.16480081687E+03  0.00000000000E+00 0. -1.
         24    2    1    2    0    0  0.10523338586E+03  0.58834664695E+02  0.46467926871E+03  0.48662078194E+03  0.79607659026E+02 0.  0.
         23    2    1    2    0    0 -0.48292495255E+02  0.34923536698E+02  0.37189949538E+02  0.11353592644E+03  0.89193585710E+02 0.  0.
        -13    1    3    3    0    0 -0.21228028888E+01  0.28139382767E+02  0.52717124272E+02  0.59794868895E+02  0.00000000000E+00 0.  1.
         14    1    3    3    0    0  0.10735618875E+03  0.30695281928E+02  0.41196214444E+03  0.42682591304E+03  0.00000000000E+00 0. -1.
        -13    1    4    4    0    0 -0.59749044395E+02 -0.10117825362E+02  0.24447167593E+02  0.65345104633E+02  0.00000000000E+00 0.  1.
         13    1    4    4    0    0  0.11456549140E+02  0.45041362060E+02  0.12742781945E+02  0.48190821804E+02  0.00000000000E+00 0. -1.
         21    1    1    2  503  502  0.11975899457E+02 -0.16334990684E+02  0.49707130556E+02  0.53675440535E+02  0.00000000000E+00 0.  1.
          1    1    1    2  501    0 -0.68916790062E+02 -0.77423210709E+02 -0.90043986964E+02  0.13730184666E+03  0.00000000000E+00 0. -1.
<scales pt_clust_5="13000.00000" pt_clust_6="13000.00000" pt_clust_7="13000.00000" pt_clust_8="13000.00000" pt_clust_9="20.25473" pt_clust_10="103.83017"></scales>
<clustering>
<clus scale="   20.255">  1  9  2 -1</clus>
<clus scale="   79.608">  5  6 -1 -1</clus>
<clus scale="   89.194">  7  8 -1 -1</clus>
<clus scale="  103.830">  2 10  1 -1</clus>
<clus scale="  128.653">  1  5  2 -1</clus>
<clus scale="  103.830">  2  5  1 -1</clus>
</clustering>
</event>
<event>
10    4  0.2857708E-005  0.1053585E+03  0.7546771E-02  0.1280740E+00
         -3   -1    0    0    0  501 -0.00000000000E+00  0.00000000000E+00  0.19161716244E+03  0.19161716244E+03  0.00000000000E+00 0.  1.
         21   -1    0    0  503  502  0.00000000000E+00 -0.00000000000E+00 -0.19390709849E+03  0.19390709849E+03  0.00000000000E+00 0.  1.
         24    2    1    2    0    0  0.24783688088E+02  0.49631045302E+02  0.62329804514E+02  0.11498398277E+03  0.79112830246E+02 0.  0.
         23    2    1    2    0    0  0.86169024222E+01  0.11295217895E+02 -0.12148672691E+03  0.15852935456E+03  0.10084988095E+03 0.  0.
        -13    1    3    3    0    0  0.13729935381E+02  0.58734015896E+02  0.74734424555E+02  0.96038689925E+02  0.00000000000E+00 0.  1.
         14    1    3    3    0    0  0.11053752707E+02 -0.91029705941E+01 -0.12404620041E+02  0.18945292843E+02  0.00000000000E+00 0. -1.
        -13    1    4    4    0    0 -0.12227259308E+02  0.20544227160E+02  0.93865375126E+01  0.25684201881E+02  0.00000000000E+00 0. -1.
         13    1    4    4    0    0  0.20844161730E+02 -0.92490092656E+01 -0.13087326442E+03  0.13284515268E+03  0.00000000000E+00 0.  1.
         21    1    1    2  503  501 -0.17617333697E+02 -0.20234616089E+02  0.62488886552E+02  0.68004934213E+02  0.00000000000E+00 0.  1.
         -4    1    1    2    0  502 -0.15783256814E+02 -0.40691647108E+02 -0.56219002058E+01  0.44005989387E+02  0.00000000000E+00 0.  1.
<scales pt_clust_5="13000.00000" pt_clust_6="13000.00000" pt_clust_7="13000.00000" pt_clust_8="13000.00000" pt_clust_9="26.82928" pt_clust_10="47.49819"></scales>
<clustering>
<clus scale="   26.829">  1  9  2 -1</clus>
<clus scale="   47.498">  2 10  1 -1</clus>
<clus scale="   79.113">  5  6 -1 -1</clus>
<clus scale="   84.785">  1  5  2 -1</clus>
<clus scale="  100.850">  7  8 -1 -1</clus>
<clus scale="   47.498">  2  5  1 -1</clus>
</clustering>
</event>
<event>
10    4  0.2857708E-005  0.9339664E+02  0.7546771E-02  0.1299848E+00
         21   -1    0    0  501  502  0.00000000000E+00  0.00000000000E+00  0.42077407623E+03  0.42077407623E+03  0.00000000000E+00 0.  1.
          2   -1    0    0  503    0 -0.00000000000E+00 -0.00000000000E+00 -0.13472472547E+03  0.13472472547E+03  0.00000000000E+00 0. -1.
         24    2    1    2    0    0  0.10808987028E+02  0.43098248474E+02 -0.17957810337E+02  0.95600351582E+02  0.82720318232E+02 0.  0.
         23    2    1    2    0    0 -0.20492950105E+01  0.29099994682E+02  0.31962833172E+03  0.33366950783E+03  0.91225329347E+02 0.  0.
        -13    1    3    3    0    0 -0.26353171556E+01  0.46356970147E+02  0.23396679517E+02  0.51993443723E+02  0.00000000000E+00 0.  1.
         14    1    3    3    0    0  0.13444304183E+02 -0.32587216728E+01 -0.41354489855E+02  0.43606907859E+02  0.00000000000E+00 0. -1.
        -11    1    4    4    0    0 -0.29274938867E+02  0.48623754973E+02  0.14224383273E+03  0.15314894562E+03  0.00000000000E+00 0.  1.
         11    1    4    4    0    0  0.27225643856E+02 -0.19523760291E+02  0.17738449898E+03  0.18052056221E+03  0.00000000000E+00 0. -1.
         21    1    1    2  503  502  0.17873348508E+01 -0.27879600343E+02 -0.57766723071E+02  0.64167444826E+02  0.00000000000E+00 0. -1.
          1    1    1    2  501    0 -0.10547026868E+02 -0.44318642813E+02  0.42145552449E+02  0.62061497466E+02  0.00000000000E+00 0. -1.
<scales pt_clust_5="13000.00000" pt_clust_6="13000.00000" pt_clust_7="13000.00000" pt_clust_8="13000.00000" pt_clust_9="27.93683" pt_clust_10="49.17468"></scales>
<clustering>
<clus scale="   27.937">  2  9  1 -1</clus>
<clus scale="   49.175">  1 10  2 -1</clus>
<clus scale="   82.720">  5  6 -1 -1</clus>
<clus scale="   85.109">  2  5  1 -1</clus>
<clus scale="   91.225">  7  8 -1 -1</clus>
<clus scale="   49.175">  1  5  2 -1</clus>
</clustering>
</event>
<event>
10    4  0.2857708E-005  0.1090402E+03  0.7546771E-02  0.1263175E+00
         21   -1    0    0  501  502  0.00000000000E+00  0.00000000000E+00  0.49939652845E+02  0.49939652845E+02  0.00000000000E+00 0. -1.
          2   -1    0    0  503    0 -0.00000000000E+00 -0.00000000000E+00 -0.65590529385E+03  0.65590529385E+03  0.00000000000E+00 0. -1.
         23    2    1    2    0    0  0.63592829083E+00  0.71607623074E+02 -0.17738101045E+03  0.20764898116E+03  0.80783788100E+02 0.  0.
         24    2    1    2    0    0 -0.14361177885E+01 -0.64295454069E+02 -0.64161339555E+02  0.12001876738E+03  0.78433788518E+02 0.  0.
        -13    1    4    4    0    0 -0.18189489545E+02 -0.50925962253E+02 -0.77700905534E+02  0.94666477077E+02  0.00000000000E+00 0.  1.
         14    1    4    4    0    0  0.16753371757E+02 -0.13369491816E+02  0.13539565979E+02  0.25352290301E+02  0.00000000000E+00 0. -1.
        -11    1    3    3    0    0 -0.19196372407E+02  0.44589298349E+02 -0.31274792827E+02  0.57747890933E+02  0.00000000000E+00 0. -1.
         11    1    3    3    0    0  0.19832300698E+02  0.27018324725E+02 -0.14610621763E+03  0.14990109023E+03  0.00000000000E+00 0.  1.
         21    1    1    2  503  502  0.32863389918E+02  0.32016672072E+02 -0.11847039257E+03  0.12704449458E+03  0.00000000000E+00 0. -1.
          1    1    1    2  501    0 -0.32063200420E+02 -0.39328841076E+02 -0.24595289843E+03  0.25113270358E+03  0.00000000000E+00 0. -1.
<scales pt_clust_5="13000.00000" pt_clust_6="13000.00000" pt_clust_7="13000.00000" pt_clust_8="13000.00000" pt_clust_9="45.88104" pt_clust_10="29.59474"></scales>
<clustering>
<clus scale="   45.881">  2  9  1 -1</clus>
<clus scale="   29.595">  1 10  2 -1</clus>
<clus scale="   78.434">  5  6 -1 -1</clus>
<clus scale="   80.784">  7  8 -1 -1</clus>
<clus scale="  107.311">  1  5  2 -1</clus>
<clus scale="   29.595">  1  5  2 -1</clus>
</clustering>
</event>
<event>
10    4  0.2857708E-005  0.1019553E+03  0.7546771E-02  0.1283654E+00
         21   -1    0    0  501  502  0.00000000000E+00  0.00000000000E+00  0.92234737833E+02  0.92234737833E+02  0.00000000000E+00 0. -1.
          2   -1    0    0  503    0 -0.00000000000E+00 -0.00000000000E+00 -0.34741802668E+03  0.34741802668E+03  0.00000000000E+00 0. -1.
         23    2    1    2    0    0  0.54787578615E+02  0.25988638144E+02 -0.15558001587E+03  0.19221828122E+03  0.95213645104E+02 0.  0.
         24    2    1    2    0    0 -0.18526426986E+02  0.45382366784E+02 -0.64038362693E+02  0.11407205131E+03  0.80676720823E+02 0.  0.
        -11    1    4    4    0    0 -0.25836903649E+02 -0.63387544951E+01  0.54345535779E+01  0.27152527899E+02  0.00000000000E+00 0.  1.
         12    1    4    4    0    0  0.73104766638E+01  0.51721121279E+02 -0.69472916271E+02  0.86919523415E+02  0.00000000000E+00 0. -1.
        -11    1    3    3    0    0  0.54565282544E+02  0.86425240874E+00 -0.15782428415E+03  0.16699287906E+03  0.00000000000E+00 0.  1.
         11    1    3    3    0    0  0.22229607017E+00  0.25124385735E+02  0.22442682715E+01  0.25225402161E+02  0.00000000000E+00 0. -1.
         21    1    1    2  503  502 -0.21355759661E+02 -0.32750861909E+02 -0.69560565767E+02  0.79795737583E+02  0.00000000000E+00 0.  1.
          1    1    1    2  501    0 -0.14905391968E+02 -0.38620143019E+02  0.33995655485E+02  0.53566694395E+02  0.00000000000E+00 0. -1.
<scales pt_clust_5="13000.00000" pt_clust_6="13000.00000" pt_clust_7="13000.00000" pt_clust_8="13000.00000" pt_clust_9="39.09843" pt_clust_10="42.76981"></scales>
<clustering>
<clus scale="   39.098">  2  9  1 -1</clus>
<clus scale="   42.770">  1 10  2 -1</clus>
<clus scale="   80.677">  5  6 -1 -1</clus>
<clus scale="   88.532">  1  5  2 -1</clus>
<clus scale="   95.214">  7  8 -1 -1</clus>
<clus scale="   42.770">  1  5  2 -1</clus>
</clustering>
</event>
<event>
10    4  0.2857708E-005  0.5464066E+03  0.7546771E-02  0.1016012E+00
          2   -1    0    0  503    0 -0.00000000000E+00  0.00000000000E+00  0.22383190593E+04  0.22383190593E+04  0.00000000000E+00 0. -1.
         21   -1    0    0  501  502  0.00000000000E+00 -0.00000000000E+00 -0.31725721653E+03  0.31725721653E+03  0.00000000000E+00 0.  1.
         24    2    1    2    0    0  0.15697361283E+03 -0.50775495452E+03  0.88000755490E+03  0.10315773170E+04  0.85338475320E+02 0.  0.
         23    2    1    2    0    0 -0.29866603666E+03 -0.83010647941E+02  0.20297987549E+03  0.38121201570E+03  0.89608046176E+02 0.  0.
        -13    1    3    3    0    0  0.73442491867E+02 -0.11317524490E+03  0.22554384035E+03  0.26281639901E+03  0.00000000000E+00 0.  1.
         14    1    3    3    0    0  0.83531120959E+02 -0.39457970962E+03  0.65446371455E+03  0.76876091802E+03  0.00000000000E+00 0. -1.
        -13    1    4    4    0    0 -0.17896311444E+03 -0.21494300121E+02  0.15685706150E+03  0.23894338035E+03  0.00000000000E+00 0.  1.
         13    1    4    4    0    0 -0.11970292222E+03 -0.61516347820E+02  0.46122813983E+02  0.14226863536E+03  0.00000000000E+00 0. -1.
         21    1    1    2  503  502  0.26104990014E+03  0.58852402470E+03  0.77576206118E+03  0.10081241757E+04  0.00000000000E+00 0.  1.
          1    1    1    2  501    0 -0.11935747631E+03  0.22415777615E+01  0.62312351234E+02  0.13466276746E+03  0.00000000000E+00 0. -1.
<scales pt_clust_5="13000.00000" pt_clust_6="13000.00000" pt_clust_7="13000.00000" pt_clust_8="13000.00000" pt_clust_9="539.70132" pt_clust_10="119.37852"></scales>
<clustering>
<clus scale="   85.338">  5  6 -1 -1</clus>
<clus scale="   89.608">  7  8 -1 -1</clus>
<clus scale="  119.379">  2 10  1 -1</clus>
<clus scale="  357.827">  2  7  1 -1</clus>
<clus scale="  539.701">  2  9  1 -1</clus>
<clus scale="  119.379">  2  5  1 -1</clus>
</clustering>
</event>
<event>
10    4  0.2857708E-005  0.6697953E+03  0.7546771E-02  0.9770328E-01
         21   -1    0    0  501  502  0.00000000000E+00  0.00000000000E+00  0.22066696639E+03  0.22066696639E+03  0.00000000000E+00 0.  1.
          2   -1    0    0  503    0 -0.00000000000E+00 -0.00000000000E+00 -0.20150273818E+04  0.20150273818E+04  0.00000000000E+00 0. -1.
         24    2    1    2    0    0 -0.36082412389E+02  0.95826033108E+02 -0.23433156229E+03  0.26884893949E+03  0.82969283924E+02 0.  0.
         23    2    1    2    0    0 -0.77062074649E+02  0.51083556927E+03 -0.46204596662E+03  0.69925284626E+03  0.92609532702E+02 0.  0.
        -13    1    3    3    0    0 -0.50542930088E+02  0.99034450090E+02 -0.17220041534E+03  0.20497656727E+03  0.00000000000E+00 0.  1.
         14    1    3    3    0    0  0.14460517699E+02 -0.32084169819E+01 -0.62131146957E+02  0.63872372227E+02  0.00000000000E+00 0. -1.
        -11    1    4    4    0    0 -0.44927797399E+02  0.46717686361E+03 -0.42838921750E+03  0.63544476592E+03  0.00000000000E+00 0.  1.
         11    1    4    4    0    0 -0.32134277250E+02  0.43658705656E+02 -0.33656749126E+02  0.63808080332E+02  0.00000000000E+00 0. -1.
         21    1    1    2  503  502 -0.17754368753E+02 -0.10527866405E+02 -0.60188520420E+02  0.63629486649E+02  0.00000000000E+00 0.  1.
          1    1    1    2  501    0  0.13089885579E+03 -0.59613373597E+03 -0.10377943661E+04  0.12039630758E+04  0.00000000000E+00 0. -1.
<scales pt_clust_5="13000.00000" pt_clust_6="13000.00000" pt_clust_7="13000.00000" pt_clust_8="13000.00000" pt_clust_9="20.64107" pt_clust_10="614.15525"></scales>
<clustering>
<clus scale="   20.641">  2  9  1 -1</clus>
<clus scale="   82.969">  5  6 -1 -1</clus>
<clus scale="   92.610">  7  8 -1 -1</clus>
<clus scale="  114.894">  5  7 -1 -1</clus>
<clus scale="  614.155">  1 10  2 -1</clus>
<clus scale="  614.155">  1  5  2 -1</clus>
</clustering>
</event>
<event>
10    4  0.2857708E-005  0.1628887E+03  0.7546771E-02  0.1198060E+00
         -1   -1    0    0    0  501 -0.00000000000E+00  0.00000000000E+00  0.17951756556E+03  0.17951756556E+03  0.00000000000E+00 0.  1.
         21   -1    0    0  503  502  0.00000000000E+00 -0.00000000000E+00 -0.12104584844E+04  0.12104584844E+04  0.00000000000E+00 0.  1.
         23    2    1    2    0    0 -0.85844052297E+02  0.30107266459E+02 -0.33616870714E+03  0.35805968100E+03  0.83196674719E+02 0.  0.
         24    2    1    2    0    0 -0.33517111529E+02 -0.54479037404E+02  0.12397075703E+03  0.16163449987E+03  0.81643129952E+02 0.  0.
        -11    1    4    4    0    0 -0.42391713022E+02 -0.69673756964E+02  0.79867172866E+02  0.11415014255E+03  0.00000000000E+00 0.  1.
         12    1    4    4    0    0  0.88746014924E+01  0.15194719560E+02  0.44103584165E+02  0.47484357323E+02  0.00000000000E+00 0. -1.
        -13    1    3    3    0    0 -0.25244188466E+02  0.26021481062E+02 -0.33517767561E+02  0.49374358429E+02  0.00000000000E+00 0. -1.
         13    1    3    3    0    0 -0.60599863830E+02  0.40857853971E+01 -0.30265093958E+03  0.30868532257E+03  0.00000000000E+00 0.  1.
         21    1    1    2  503  501 -0.14200986442E+02 -0.31777062635E+02  0.38580454109E+01  0.35019055385E+02  0.00000000000E+00 0.  1.
         -2    1    1    2    0  502  0.13356215027E+03  0.56148833580E+02 -0.82260101409E+03  0.83526281366E+03  0.00000000000E+00 0.  1.
<scales pt_clust_5="13000.00000" pt_clust_6="13000.00000" pt_clust_7="13000.00000" pt_clust_8="13000.00000" pt_clust_9="34.80589" pt_clust_10="140.95083"></scales>
<clustering>
<clus scale="   34.806">  1  9  2 -1</clus>
<clus scale="   81.643">  5  6 -1 -1</clus>
<clus scale="   83.197">  7  8 -1 -1</clus>
<clus scale="  123.446">  1  7  2 -1</clus>
<clus scale="  140.951">  2 10  1 -1</clus>
<clus scale="  140.951">  2  5  1 -1</clus>
</clustering>
</event>
<event>
10    4  0.2857708E-005  0.1176456E+03  0.7546771E-02  0.1251041E+00
         -1   -1    0    0    0  501 -0.00000000000E+00  0.00000000000E+00  0.52728841764E+03  0.52728841764E+03  0.00000000000E+00 0.  1.
         21   -1    0    0  503  502  0.00000000000E+00 -0.00000000000E+00 -0.10143773010E+03  0.10143773010E+03  0.00000000000E+00 0. -1.
         24    2    1    2    0    0 -0.53939559982E+02 -0.15984258854E+02  0.10732002979E+03  0.14545197060E+03  0.80459395319E+02 0.  0.
         23    2    1    2    0    0  0.79846909592E+02 -0.80121287323E+02  0.15618897471E+02  0.14684622393E+03  0.92330460141E+02 0.  0.
        -11    1    3    3    0    0 -0.24344120131E+02  0.29284599962E+02  0.20728808053E+02  0.43357899663E+02  0.00000000000E+00 0.  1.
         12    1    3    3    0    0 -0.29595439850E+02 -0.45268858816E+02  0.86591221742E+02  0.10209407094E+03  0.00000000000E+00 0. -1.
        -13    1    4    4    0    0 -0.20561322117E+02 -0.71870756746E+01  0.12873699964E+00  0.21781611446E+02  0.00000000000E+00 0.  1.
         13    1    4    4    0    0  0.10040823171E+03 -0.72934211649E+02  0.15490160471E+02  0.12506461248E+03  0.00000000000E+00 0. -1.
         21    1    1    2  503  501 -0.59113626891E+02  0.19820442089E+02  0.11222755216E+03  0.12838338783E+03  0.00000000000E+00 0.  1.
         -2    1    1    2    0  502  0.33206277281E+02  0.76285104089E+02  0.19068420812E+03  0.20804456537E+03  0.00000000000E+00 0.  1.
<scales pt_clust_5="13000.00000" pt_clust_6="13000.00000" pt_clust_7="13000.00000" pt_clust_8="13000.00000" pt_clust_9="62.34798" pt_clust_10="86.09928"></scales>
<clustering>
<clus scale="   62.348">  1  9  2 -1</clus>
<clus scale="   80.459">  5  6 -1 -1</clus>
<clus scale="   86.099">  2 10  1 -1</clus>
<clus scale="   92.330">  7  8 -1 -1</clus>
<clus scale="  108.578">  1  5  2 -1</clus>
<clus scale="   86.099">  2  5  1 -1</clus>
</clustering>
</event>
<event>
10    4  0.2857708E-005  0.2661398E+03  0.7546771E-02  0.1118349E+00
         21   -1    0    0  501  502  0.00000000000E+00  0.00000000000E+00  0.79411284893E+02  0.79411284893E+02  0.00000000000E+00 0. -1.
          4   -1    0    0  503    0 -0.00000000000E+00 -0.00000000000E+00 -0.18775836652E+04  0.18775836652E+04  0.00000000000E+00 0. -1.
         24    2    1    2    0    0  0.45019580008E+02  0.16539157061E+03 -0.68288989943E+03  0.70873287215E+03  0.81132823843E+02 0.  0.
         23    2    1    2    0    0  0.21676488027E+03 -0.15065647199E+03 -0.51356701459E+03  0.58464002011E+03  0.91479444495E+02 0.  0.
        -13    1    3    3    0    0 -0.71172731840E+00  0.84964395486E+02 -0.20399696790E+03  0.22098465550E+03  0.00000000000E+00 0.  1.
         14    1    3    3    0    0  0.45731307327E+02  0.80427175127E+02 -0.47889293153E+03  0.48774821665E+03  0.00000000000E+00 0. -1.
        -13    1    4    4    0    0  0.21605235304E+03 -0.12055415618E+03 -0.43402417978E+03  0.49958874333E+03  0.00000000000E+00 0. -1.
         13    1    4    4    0    0  0.71252723166E+00 -0.30102315813E+02 -0.79542834814E+02  0.85051276784E+02  0.00000000000E+00 0.  1.
         21    1    1    2  503  502 -0.39001230207E+01 -0.20418234105E+02 -0.62890908822E+02  0.66237313170E+02  0.00000000000E+00 0. -1.
          3    1    1    2  501    0 -0.25788433726E+03  0.56831354834E+01 -0.53882455745E+03  0.59738474465E+03  0.00000000000E+00 0. -1.
<scales pt_clust_5="13000.00000" pt_clust_6="13000.00000" pt_clust_7="13000.00000" pt_clust_8="13000.00000" pt_clust_9="20.78738" pt_clust_10="249.92391"></scales>
<clustering>
<clus scale="   20.787">  2  9  1 -1</clus>
<clus scale="   81.133">  5  6 -1 -1</clus>
<clus scale="   91.479">  7  8 -1 -1</clus>
<clus scale="  182.484">  2  5  1 -1</clus>
<clus scale="  249.924">  1 10  2 -1</clus>
<clus scale="  249.924">  1  5  2 -1</clus>
</clustering>
</event>
<event>
10    4  0.2857708E-005  0.3438092E+03  0.7546771E-02  0.1108192E+00
         21   -1    0    0  501  502  0.00000000000E+00  0.00000000000E+00  0.67805022111E+03  0.67805022111E+03  0.00000000000E+00 0. -1.
          2   -1    0    0  503    0 -0.00000000000E+00 -0.00000000000E+00 -0.49489160555E+03  0.49489160555E+03  0.00000000000E+00 0. -1.
         24    2    1    2    0    0 -0.10939997087E+02  0.51149114161E+02 -0.16323444699E+03  0.19654257681E+03  0.96164361384E+02 0.  0.
         23    2    1    2    0    0 -0.16605523435E+03  0.29810532910E+03 -0.67236503794E+01  0.35976097452E+03  0.11376125537E+03 0.  0.
        -13    1    3    3    0    0 -0.48785567820E+02  0.40030993677E+01 -0.69733663985E+02  0.85198828189E+02  0.00000000000E+00 0.  1.
         14    1    3    3    0    0  0.37845570733E+02  0.47146014793E+02 -0.93500783003E+02  0.11134374862E+03  0.00000000000E+00 0. -1.
        -13    1    4    4    0    0 -0.46022127775E+02  0.19801174773E+03  0.76922085316E+00  0.20329112176E+03  0.00000000000E+00 0.  1.
         13    1    4    4    0    0 -0.12003310657E+03  0.10009358136E+03 -0.74928712325E+01  0.15646985276E+03  0.00000000000E+00 0. -1.
         21    1    1    2  503  502 -0.49472702434E+02 -0.12041956801E+03 -0.10938878390E+02  0.13064486100E+03  0.00000000000E+00 0.  1.
          1    1    1    2  501    0  0.22646793387E+03 -0.22883487525E+03  0.36405559132E+03  0.48599341433E+03  0.00000000000E+00 0. -1.
<scales pt_clust_5="13000.00000" pt_clust_6="13000.00000" pt_clust_7="13000.00000" pt_clust_8="13000.00000" pt_clust_9="120.67077" pt_clust_10="324.44286"></scales>
<clustering>
<clus scale="   96.164">  5  6 -1 -1</clus>
<clus scale="  109.469">  2  5  1 -1</clus>
<clus scale="  113.761">  7  8 -1 -1</clus>
<clus scale="  120.671">  2  9  1 -1</clus>
<clus scale="  324.443">  1 10  2 -1</clus>
<clus scale="  324.443">  1  5  2 -1</clus>
</clustering>
</event>
<event>
10    4  0.2857708E-005  0.1021394E+03  0.7546771E-02  0.1282023E+00
          2   -1    0    0  503    0 -0.00000000000E+00  0.00000000000E+00  0.12594606683E+04  0.12594606683E+04  0.00000000000E+00 0. -1.
         21   -1    0    0  501  502  0.00000000000E+00 -0.00000000000E+00 -0.41242699441E+02  0.41242699441E+02  0.00000000000E+00 0. -1.
         24    2    1    2    0    0 -0.52673805014E+02  0.36251516298E+02  0.65035226763E+03  0.65838286835E+03  0.80132559878E+02 0.  0.
         23    2    1    2    0    0 -0.21072043824E+02 -0.26163009405E+02  0.36278474921E+03  0.37596133803E+03  0.92766477442E+02 0.  0.
        -11    1    3    3    0    0 -0.15063098490E+02  0.50338145087E+02  0.22117889422E+03  0.22733439914E+03  0.00000000000E+00 0.  1.
         12    1    3    3    0    0 -0.37610706524E+02 -0.14086628789E+02  0.42917337342E+03  0.43104846921E+03  0.00000000000E+00 0. -1.
        -13    1    4    4    0    0 -0.45417321007E+02  0.16654685746E+02  0.15267177081E+03  0.16015236872E+03  0.00000000000E+00 0. -1.
         13    1    4    4    0    0  0.24345277183E+02 -0.42817695151E+02  0.21011297840E+03  0.21580896930E+03  0.00000000000E+00 0.  1.
         21    1    1    2  503  502  0.13644222719E+01  0.52779780889E+02  0.14225159871E+03  0.15173359633E+03  0.00000000000E+00 0. -1.
          1    1    1    2  501    0  0.72381426566E+02 -0.62868287781E+02  0.62829353272E+02  0.11462556501E+03  0.00000000000E+00 0. -1.
<scales pt_clust_5="13000.00000" pt_clust_6="13000.00000" pt_clust_7="13000.00000" pt_clust_8="13000.00000" pt_clust_9="52.79741" pt_clust_10="93.25064"></scales>
<clustering>
<clus scale="   52.797">  1  9  2 -1</clus>
<clus scale="   80.133">  5  6 -1 -1</clus>
<clus scale="   92.766">  7  8 -1 -1</clus>
<clus scale="   93.251">  2 10  1 -1</clus>
<clus scale="   90.819">  1  5  2 -1</clus>
<clus scale="   93.251">  2  5  1 -1</clus>
</clustering>
</event>
<event>
10    4  0.2857708E-005  0.1187096E+03  0.7546771E-02  0.1247216E+00
          2   -1    0    0  503    0 -0.00000000000E+00  0.00000000000E+00  0.88737002208E+03  0.88737002208E+03  0.00000000000E+00 0. -1.
         21   -1    0    0  501  502  0.00000000000E+00 -0.00000000000E+00 -0.78722918376E+02  0.78722918376E+02  0.00000000000E+00 0. -1.
         24    2    1    2    0    0  0.30578636498E+02  0.67328036394E+02  0.58913098240E+03  0.59992823871E+03  0.85851381335E+02 0.  0.
         23    2    1    2    0    0 -0.13204693699E+03 -0.21470062393E+02  0.12392217946E+03  0.20420594305E+03  0.91902140712E+02 0.  0.
        -13    1    3    3    0    0  0.22304333906E+02  0.42875589670E+02  0.11056536984E+03  0.12066689898E+03  0.00000000000E+00 0.  1.
         14    1    3    3    0    0  0.82743025920E+01  0.24452446724E+02  0.47856561256E+03  0.47926133973E+03  0.00000000000E+00 0. -1.
        -11    1    4    4    0    0 -0.56231518015E+02 -0.52395432832E+02  0.81365747365E+02  0.11192698443E+03  0.00000000000E+00 0.  1.
         11    1    4    4    0    0 -0.75815418975E+02  0.30925370438E+02  0.42556432099E+02  0.92278958621E+02  0.00000000000E+00 0. -1.
         21    1    1    2  503  502  0.40290266712E+02  0.12177776928E+02  0.52407449646E+02  0.67217145291E+02  0.00000000000E+00 0. -1.
          1    1    1    2  501    0  0.61178033781E+02 -0.58035750928E+02  0.43186492196E+02  0.94741613409E+02  0.00000000000E+00 0. -1.
<scales pt_clust_5="13000.00000" pt_clust_6="13000.00000" pt_clust_7="13000.00000" pt_clust_8="13000.00000" pt_clust_9="42.09042" pt_clust_10="92.80778"></scales>
<clustering>
<clus scale="   42.090">  2  9  1 -1</clus>
<clus scale="   85.851">  5  6 -1 -1</clus>
<clus scale="   91.902">  7  8 -1 -1</clus>
<clus scale="   92.808">  2 10  1 -1</clus>
<clus scale="  114.090">  1  5  2 -1</clus>
<clus scale="   42.090">  2  5  1 -1</clus>
</clustering>
</event>
<event>
10    4  0.2857708E-005  0.1041306E+03  0.7546771E-02  0.1279065E+00
         21   -1    0    0  503  502  0.00000000000E+00  0.00000000000E+00  0.26440838149E+03  0.26440838149E+03  0.00000000000E+00 0.  1.
         -3   -1    0    0    0  501 -0.00000000000E+00 -0.00000000000E+00 -0.22632668155E+03  0.22632668155E+03  0.00000000000E+00 0.  1.
         24    2    1    2    0    0 -0.96435719265E+01 -0.13558040109E+02 -0.11650935719E+03  0.14235390012E+03  0.80083604031E+02 0.  0.
         23    2    1    2    0    0  0.47950513694E+02 -0.11288247154E+01  0.13507814619E+02  0.10732717050E+03  0.95058584378E+02 0.  0.
        -13    1    3    3    0    0 -0.12747937918E+02 -0.46035012083E+02 -0.81746026269E+02  0.94679169142E+02  0.00000000000E+00 0.  1.
         14    1    3    3    0    0  0.31043659917E+01  0.32476971974E+02 -0.34763330922E+02  0.47674730976E+02  0.00000000000E+00 0. -1.
        -11    1    4    4    0    0  0.19381128638E+02 -0.40254174846E+02 -0.19456646962E+02  0.48729742979E+02  0.00000000000E+00 0.  1.
         11    1    4    4    0    0  0.28569385056E+02  0.39125350130E+02  0.32964461581E+02  0.58597427525E+02  0.00000000000E+00 0. -1.
         21    1    1    2  503  501 -0.38186757188E+02 -0.26381125290E+02 -0.36335227544E+02  0.58944388679E+02  0.00000000000E+00 0.  1.
         -4    1    1    2    0  502 -0.12018458010E+00  0.41067990114E+02  0.17741847005E+03  0.18210960374E+03  0.00000000000E+00 0.  1.
<scales pt_clust_5="13000.00000" pt_clust_6="13000.00000" pt_clust_7="13000.00000" pt_clust_8="13000.00000" pt_clust_9="43.54436" pt_clust_10="41.06817"></scales>
<clustering>
<clus scale="   41.068">  1 10  2 -1</clus>
<clus scale="   43.544">  2  9  1 -1</clus>
<clus scale="   80.084">  5  6 -1 -1</clus>
<clus scale="   90.667">  2  5  1 -1</clus>
<clus scale="   95.059">  7  8 -1 -1</clus>
<clus scale="   41.068">  1  5  2 -1</clus>
</clustering>
</event>
<event>
10    4  0.2857708E-005  0.1267485E+03  0.7546771E-02  0.1240677E+00
         21   -1    0    0  503  502  0.00000000000E+00  0.00000000000E+00  0.24030976357E+03  0.24030976357E+03  0.00000000000E+00 0.  1.
         -1   -1    0    0    0  501 -0.00000000000E+00 -0.00000000000E+00 -0.81343995506E+03  0.81343995506E+03  0.00000000000E+00 0.  1.
         24    2    1    2    0    0 -0.44153236824E+02  0.92832721750E+02 -0.61459066374E+03  0.62783274970E+03  0.76712809146E+02 0.  0.
         23    2    1    2    0    0  0.15497637931E+02  0.33644070057E+02 -0.45416482861E+02  0.11319685905E+03  0.96844058935E+02 0.  0.
        -13    1    3    3    0    0 -0.48781481850E+02  0.90909017058E+02 -0.61420078239E+03  0.62280549407E+03  0.00000000000E+00 0.  1.
         14    1    3    3    0    0  0.46282450261E+01  0.19237046923E+01 -0.38988135823E+00  0.50272556369E+01  0.00000000000E+00 0. -1.
        -11    1    4    4    0    0 -0.41344861650E+01  0.28904545958E+02 -0.73222939616E+02  0.78829979315E+02  0.00000000000E+00 0.  1.
         11    1    4    4    0    0  0.19632124096E+02  0.47395240989E+01  0.27806456754E+02  0.34366879731E+02  0.00000000000E+00 0. -1.
         21    1    1    2  503  501 -0.17201050368E+02 -0.10722210462E+03 -0.82381759318E+02  0.13630557626E+03  0.00000000000E+00 0. -1.
         -2    1    1    2    0  502  0.45856649261E+02 -0.19254687189E+02  0.16925871444E+03  0.17641453362E+03  0.00000000000E+00 0.  1.
<scales pt_clust_5="13000.00000" pt_clust_6="13000.00000" pt_clust_7="13000.00000" pt_clust_8="13000.00000" pt_clust_9="100.89763" pt_clust_10="49.73505"></scales>
<clustering>
<clus scale="   49.735">  1 10  2 -1</clus>
<clus scale="   76.713">  5  6 -1 -1</clus>
<clus scale="   96.844">  7  8 -1 -1</clus>
<clus scale="  106.949">  1  7  2 -1</clus>
<clus scale="  100.898">  1  9  2 -1</clus>
<clus scale="   49.735">  1  5  2 -1</clus>
</clustering>
</event>
<event>
10    4  0.2857708E-005  0.3067779E+03  0.7546771E-02  0.1082177E+00
          2   -1    0    0  503    0 -0.00000000000E+00  0.00000000000E+00  0.25890275802E+04  0.25890275802E+04  0.00000000000E+00 0. -1.
         21   -1    0    0  501  502  0.00000000000E+00 -0.00000000000E+00 -0.54041908722E+03  0.54041908722E+03  0.00000000000E+00 0. -1.
         24    2    1    2    0    0  0.28733740012E+03  0.17574915873E+03  0.13175231423E+04  0.13623234931E+04  0.81286660138E+02 0.  0.
         23    2    1    2    0    0  0.20514325886E+01 -0.33842829846E+03  0.89830721975E+03  0.96409944829E+03  0.89408968084E+02 0.  0.
        -11    1    3    3    0    0  0.24812369001E+03  0.16139373905E+03  0.12332191325E+04  0.12682439565E+04  0.00000000000E+00 0.  1.
         12    1    3    3    0    0  0.39213710112E+02  0.14355419680E+02  0.84304009836E+02  0.94079536613E+02  0.00000000000E+00 0. -1.
        -11    1    4    4    0    0 -0.31706771072E+02 -0.23965862943E+03  0.68960250121E+03  0.73074837507E+03  0.00000000000E+00 0.  1.
         11    1    4    4    0    0  0.33758203660E+02 -0.98769669026E+02  0.20870471854E+03  0.23335107322E+03  0.00000000000E+00 0. -1.
         21    1    1    2  503  502 -0.32387362828E+02  0.72516060569E+01  0.27030155263E+03  0.27233151932E+03  0.00000000000E+00 0.  1.
          1    1    1    2  501    0 -0.25700146988E+03  0.15542753367E+03 -0.43752342167E+03  0.53069220671E+03  0.00000000000E+00 0. -1.
<scales pt_clust_5="13000.00000" pt_clust_6="13000.00000" pt_clust_7="13000.00000" pt_clust_8="13000.00000" pt_clust_9="33.18926" pt_clust_10="300.97811"></scales>
<clustering>
<clus scale="   33.189">  1  9  2 -1</clus>
<clus scale="   81.287">  5  6 -1 -1</clus>
<clus scale="   89.409">  7  8 -1 -1</clus>
<clus scale="  300.978">  2 10  1 -1</clus>
<clus scale="  304.510">  1  5  2 -1</clus>
<clus scale="  300.978">  2  5  1 -1</clus>
</clustering>
</event>
<event>
10    4  0.2857708E-005  0.2433350E+03  0.7546771E-02  0.1118252E+00
         21   -1    0    0  503  502  0.00000000000E+00  0.00000000000E+00  0.39321848590E+03  0.39321848590E+03  0.00000000000E+00 0.  1.
         -1   -1    0    0    0  501 -0.00000000000E+00 -0.00000000000E+00 -0.41727058229E+03  0.41727058229E+03  0.00000000000E+00 0.  1.
         24    2    1    2    0    0  0.16702520430E+03 -0.17849523525E+03  0.27105094202E+02  0.25935904713E+03  0.82307115833E+02 0.  0.
         23    2    1    2    0    0 -0.14013480571E+03  0.13780789810E+03  0.19487960372E+03  0.29208706380E+03  0.93316731310E+02 0.  0.
        -11    1    3    3    0    0  0.10079785024E+03 -0.16012663402E+03  0.20101642670E+02  0.19027564629E+03  0.00000000000E+00 0.  1.
         12    1    3    3    0    0  0.66227354068E+02 -0.18368601235E+02  0.70034515320E+01  0.69083400839E+02  0.00000000000E+00 0. -1.
        -11    1    4    4    0    0 -0.13893550351E+02  0.63052624384E+02  0.93995326475E+02  0.11403414218E+03  0.00000000000E+00 0. -1.
         11    1    4    4    0    0 -0.12624125536E+03  0.74755273718E+02  0.10088427725E+03  0.17805292162E+03  0.00000000000E+00 0.  1.
         21    1    1    2  503  501 -0.34332299661E+01  0.20577306011E+02 -0.14386850092E+02  0.25341547826E+02  0.00000000000E+00 0. -1.
         -2    1    1    2    0  502 -0.23457168631E+02  0.20110031137E+02 -0.23164994422E+03  0.23370140943E+03  0.00000000000E+00 0.  1.
<scales pt_clust_5="13000.00000" pt_clust_6="13000.00000" pt_clust_7="13000.00000" pt_clust_8="13000.00000" pt_clust_9="20.86175" pt_clust_10="41.02078"></scales>
<clustering>
<clus scale="   20.862">  2  9  1 -1</clus>
<clus scale="   41.021">  1 10  2 -1</clus>
<clus scale="   82.307">  5  6 -1 -1</clus>
<clus scale="   93.317">  7  8 -1 -1</clus>
<clus scale="  239.329">  2  5  1 -1</clus>
<clus scale="   41.021">  1  5  2 -1</clus>
</clustering>
</event>
<event>
10    4  0.2857708E-005  0.1007134E+03  0.7546771E-02  0.1283578E+00
         21   -1    0    0  501  502  0.00000000000E+00  0.00000000000E+00  0.75549385478E+02  0.75549385478E+02  0.00000000000E+00 0. -1.
          2   -1    0    0  503    0 -0.00000000000E+00 -0.00000000000E+00 -0.98399923870E+03  0.98399923870E+03  0.00000000000E+00 0. -1.
         24    2    1    2    0    0  0.24156636873E+02 -0.71331689018E+02 -0.19955022933E+03  0.22819464548E+03  0.81121817268E+02 0.  0.
         23    2    1    2    0    0 -0.20945344323E+02  0.38807518850E+01 -0.14946974801E+03  0.17623405376E+03  0.90903621762E+02 0.  0.
        -13    1    3    3    0    0  0.21070087962E+02 -0.88584341263E+02 -0.18135865980E+03  0.20293372714E+03  0.00000000000E+00 0.  1.
         14    1    3    3    0    0  0.30865489118E+01  0.17252652246E+02 -0.18191569523E+02  0.25260918341E+02  0.00000000000E+00 0. -1.
        -13    1    4    4    0    0 -0.27784897980E+02 -0.39800015667E+02 -0.88253666847E+02  0.10072115724E+03  0.00000000000E+00 0. -1.
         13    1    4    4    0    0  0.68395536567E+01  0.43680767552E+02 -0.61216081163E+02  0.75512896522E+02  0.00000000000E+00 0.  1.
         21    1    1    2  503  502  0.66448498818E+02  0.68357340894E+02 -0.57573279440E+03  0.58357208603E+03  0.00000000000E+00 0. -1.
          1    1    1    2  501    0 -0.69659791368E+02 -0.90640376158E+00  0.16302918512E+02  0.71547838914E+02  0.00000000000E+00 0. -1.
<scales pt_clust_5="13000.00000" pt_clust_6="13000.00000" pt_clust_7="13000.00000" pt_clust_8="13000.00000" pt_clust_9="89.44214" pt_clust_10="69.66569"></scales>
<clustering>
<clus scale="   69.666">  1 10  2 -1</clus>
<clus scale="   81.122">  5  6 -1 -1</clus>
<clus scale="   89.442">  2  9  1 -1</clus>
<clus scale="   90.904">  7  8 -1 -1</clus>
<clus scale="   91.981">  2  5  1 -1</clus>
<clus scale="   69.666">  1  5  2 -1</clus>
</clustering>
</event>
<event>
10    4  0.2857708E-005  0.1300665E+03  0.7546771E-02  0.1236958E+00
         21   -1    0    0  501  502  0.00000000000E+00  0.00000000000E+00  0.20562414038E+03  0.20562414038E+03  0.00000000000E+00 0. -1.
          2   -1    0    0  503    0 -0.00000000000E+00 -0.00000000000E+00 -0.17679645631E+03  0.17679645631E+03  0.00000000000E+00 0. -1.
         23    2    1    2    0    0  0.52448958474E+02 -0.27519658710E+02  0.34381501725E+02  0.11058646237E+03  0.86827721017E+02 0.  0.
         24    2    1    2    0    0 -0.51963640003E+02 -0.66550288800E+02 -0.44341128025E+02  0.12568991581E+03  0.81869765354E+02 0.  0.
        -11    1    4    4    0    0 -0.42120029877E+02 -0.14788163230E+01 -0.42497206526E+02  0.59852287985E+02  0.00000000000E+00 0.  1.
         12    1    4    4    0    0 -0.98436101262E+01 -0.65071472477E+02 -0.18439214987E+01  0.65837627821E+02  0.00000000000E+00 0. -1.
        -13    1    3    3    0    0  0.36192481349E+02  0.14036437920E+01 -0.23990209597E+02  0.43444171975E+02  0.00000000000E+00 0.  1.
         13    1    3    3    0    0  0.16256477125E+02 -0.28923302502E+02  0.58371711322E+02  0.67142290390E+02  0.00000000000E+00 0. -1.
         21    1    1    2  503  502  0.18814439845E+01 -0.21484242643E+02 -0.56879228944E+01  0.22303922979E+02  0.00000000000E+00 0. -1.
          1    1    1    2  501    0 -0.23667624561E+01  0.11555419015E+03  0.44475233261E+02  0.12384029554E+03  0.00000000000E+00 0. -1.
<scales pt_clust_5="13000.00000" pt_clust_6="13000.00000" pt_clust_7="13000.00000" pt_clust_8="13000.00000" pt_clust_9="21.56647" pt_clust_10="101.06748"></scales>
<clustering>
<clus scale="   21.566">  2  9  1 -1</clus>
<clus scale="   81.870">  5  6 -1 -1</clus>
<clus scale="   86.828">  7  8 -1 -1</clus>
<clus scale="  106.751">  2  7  1 -1</clus>
<clus scale="  101.067">  1 10  2 -1</clus>
<clus scale="  101.067">  1  5  2 -1</clus>
</clustering>
</event>
<event>
10    4  0.2857708E-005  0.2153394E+03  0.7546771E-02  0.1175985E+00
         -1   -1    0    0    0  501 -0.00000000000E+00  0.00000000000E+00  0.12837509110E+03  0.12837509110E+03  0.00000000000E+00 0.  1.
         21   -1    0    0  503  502  0.00000000000E+00 -0.00000000000E+00 -0.55185749392E+03  0.55185749392E+03  0.00000000000E+00 0.  1.
         24    2    1    2    0    0  0.15064998779E+02 -0.34939517355E+02 -0.10570135899E+03  0.13795578408E+03  0.80070575165E+02 0.  0.
         23    2    1    2    0    0 -0.13484106285E+02  0.19895158545E+03 -0.15203897222E+03  0.26723789370E+03  0.92394200466E+02 0.  0.
        -13    1    3    3    0    0  0.11684746051E+02 -0.25941981238E+02 -0.11854632120E+03  0.12191287853E+03  0.00000000000E+00 0.  1.
         14    1    3    3    0    0  0.33802527283E+01 -0.89975361169E+01  0.12844962204E+02  0.16042905557E+02  0.00000000000E+00 0. -1.
        -13    1    4    4    0    0  0.21420540329E+02  0.11318567135E+03 -0.40124051369E+02  0.12198268421E+03  0.00000000000E+00 0.  1.
         13    1    4    4    0    0 -0.34904646614E+02  0.85765914101E+02 -0.11191492086E+03  0.14525520950E+03  0.00000000000E+00 0. -1.
         21    1    1    2  503  501 -0.18782763472E+01  0.26835662957E+02 -0.99685968447E+01  0.28688911646E+02  0.00000000000E+00 0.  1.
         -2    1    1    2    0  502  0.29738385327E+00 -0.19084773106E+03 -0.15577347476E+03  0.24634999559E+03  0.00000000000E+00 0.  1.
<scales pt_clust_5="13000.00000" pt_clust_6="13000.00000" pt_clust_7="13000.00000" pt_clust_8="13000.00000" pt_clust_9="26.90131" pt_clust_10="194.51055"></scales>
<clustering>
<clus scale="   26.901">  1  9  2 -1</clus>
<clus scale="   80.071">  5  6 -1 -1</clus>
<clus scale="   87.238">  1  5  2 -1</clus>
<clus scale="   92.394">  7  8 -1 -1</clus>
<clus scale="  194.511">  2 10  1 -1</clus>
<clus scale="  194.511">  2  5  1 -1</clus>
</clustering>
</event>
<event>
10    4  0.2857708E-005  0.9720967E+02  0.7546771E-02  0.1292746E+00
         21   -1    0    0  503  502  0.00000000000E+00  0.00000000000E+00  0.97301768205E+03  0.97301768205E+03  0.00000000000E+00 0. -1.
         -1   -1    0    0    0  501 -0.00000000000E+00 -0.00000000000E+00 -0.22079957570E+02  0.22079957570E+02  0.00000000000E+00 0.  1.
         23    2    1    2    0    0 -0.22503122879E+02  0.13972338678E+02  0.17313095994E+03  0.19767255357E+03  0.91643288663E+02 0.  0.
         24    2    1    2    0    0  0.56394555728E+02  0.13423933716E+02  0.47899098295E+03  0.48903590359E+03  0.79769701856E+02 0.  0.
        -11    1    4    4    0    0 -0.15977564526E+02  0.14648118367E+02  0.59054098385E+02  0.62906569418E+02  0.00000000000E+00 0.  1.
         12    1    4    4    0    0  0.72372120255E+02 -0.12241846508E+01  0.41993688457E+03  0.42612933417E+03  0.00000000000E+00 0. -1.
        -13    1    3    3    0    0  0.21798652220E+02 -0.22897468924E+02  0.98042692477E+02  0.10301380912E+03  0.00000000000E+00 0. -1.
         13    1    3    3    0    0 -0.44301775099E+02  0.36869807602E+02  0.75088267465E+02  0.94658744447E+02  0.00000000000E+00 0.  1.
         21    1    1    2  503  501  0.55869663089E+01 -0.32338057605E+02  0.89527890479E+02  0.95353066736E+02  0.00000000000E+00 0. -1.
         -2    1    1    2    0  502 -0.39478399159E+02  0.49417852115E+01  0.20928789110E+03  0.21303611572E+03  0.00000000000E+00 0.  1.
<scales pt_clust_5="13000.00000" pt_clust_6="13000.00000" pt_clust_7="13000.00000" pt_clust_8="13000.00000" pt_clust_9="32.81713" pt_clust_10="38.97279"></scales>
<clustering>
<clus scale="   32.817">  2  9  1 -1</clus>
<clus scale="   38.973">  1 10  2 -1</clus>
<clus scale="   79.770">  5  6 -1 -1</clus>
<clus scale="   86.107">  1  5  2 -1</clus>
<clus scale="   91.643">  7  8 -1 -1</clus>
<clus scale="   38.973">  1  5  2 -1</clus>
</clustering>
</event>
<event>
10    4  0.2857708E-005  0.1416065E+03  0.7546771E-02  0.1216027E+00
         -1   -1    0    0    0  501 -0.00000000000E+00  0.00000000000E+00  0.16941925492E+03  0.16941925492E+03  0.00000000000E+00 0.  1.
         21   -1    0    0  501  502  0.00000000000E+00 -0.00000000000E+00 -0.29450588446E+03  0.29450588446E+03  0.00000000000E+00 0.  1.
         23    2    1    2    0    0 -0.66043803193E+01  0.83520281890E+02  0.74537162664E+01  0.12461491062E+03  0.91945977269E+02 0.  0.
         24    2    1    2    0    0  0.43088635479E+02 -0.15070615380E+03 -0.53197914928E+02  0.17923881471E+03  0.68757248670E+02 0.  0.
        -13    1    4    4    0    0  0.38176535365E+02 -0.15359334366E+03 -0.37655129979E+02  0.16268457789E+03  0.00000000000E+00 0.  1.
         14    1    4    4    0    0  0.49121001134E+01  0.28871898562E+01 -0.15542784949E+02  0.16554236822E+02  0.00000000000E+00 0. -1.
        -13    1    3    3    0    0 -0.44329895988E+02  0.53791823206E+02  0.24142584884E+02  0.73766959589E+02  0.00000000000E+00 0. -1.
         13    1    3    3    0    0  0.37725515669E+02  0.29728458684E+02 -0.16688868617E+02  0.50847951030E+02  0.00000000000E+00 0.  1.
         21    1    1    2  503  502 -0.36664338246E+02 -0.25600021302E+02 -0.37181303870E+02  0.58155688863E+02  0.00000000000E+00 0.  1.
         -2    1    1    2    0  503  0.18008308646E+00  0.92785893217E+02 -0.42161127009E+02  0.10191572519E+03  0.00000000000E+00 0.  1.
<scales pt_clust_5="13000.00000" pt_clust_6="13000.00000" pt_clust_7="13000.00000" pt_clust_8="13000.00000" pt_clust_9="44.71728" pt_clust_10="85.96082"></scales>
<clustering>
<clus scale="   44.717">  2  9  1 -1</clus>
<clus scale="   68.757">  5  6 -1 -1</clus>
<clus scale="   85.961">  2 10  1 -1</clus>
<clus scale="   91.946">  7  8 -1 -1</clus>
<clus scale="  127.773">  2  5  1 -1</clus>
<clus scale="   44.717">  2  5  1 -1</clus>
</clustering>
</event>
<event>
10    4  0.2857708E-005  0.9266253E+02  0.7546771E-02  0.1304159E+00
          2   -1    0    0  503    0 -0.00000000000E+00  0.00000000000E+00  0.18653567521E+03  0.18653567521E+03  0.00000000000E+00 0. -1.
         21   -1    0    0  501  502  0.00000000000E+00 -0.00000000000E+00 -0.12932917987E+03  0.12932917987E+03  0.00000000000E+00 0.  1.
         24    2    1    2    0    0  0.26901698883E+02 -0.34179391369E+02  0.32164192998E+02  0.96143250829E+02  0.79479916781E+02 0.  0.
         23    2    1    2    0    0  0.85068970091E+01 -0.42041583564E+02 -0.10991733103E+02  0.10189298125E+03  0.91768727709E+02 0.  0.
        -13    1    3    3    0    0  0.23091973852E+02 -0.40275472774E+02  0.55132676952E+02  0.72076105829E+02  0.00000000000E+00 0.  1.
         14    1    3    3    0    0  0.38097250311E+01  0.60960814046E+01 -0.22968483954E+02  0.24067145000E+02  0.00000000000E+00 0. -1.
        -13    1    4    4    0    0 -0.36896679269E+02  0.33919103527E+01 -0.31880856393E+01  0.37189163569E+02  0.00000000000E+00 0. -1.
         13    1    4    4    0    0  0.45403576278E+02 -0.45433493916E+02 -0.78036474635E+01  0.64703817677E+02  0.00000000000E+00 0.  1.
         21    1    1    2  503  502 -0.24590355688E+02 -0.86089415562E+01  0.13733500312E+02  0.29451799578E+02  0.00000000000E+00 0.  1.
          1    1    1    2  501    0 -0.10818240204E+02  0.84829916490E+02  0.22300535131E+02  0.88376823432E+02  0.00000000000E+00 0. -1.
<scales pt_clust_5="13000.00000" pt_clust_6="13000.00000" pt_clust_7="13000.00000" pt_clust_8="13000.00000" pt_clust_9="26.05378" pt_clust_10="84.13106"></scales>
<clustering>
<clus scale="   26.054">  1  9  2 -1</clus>
<clus scale="   79.480">  5  6 -1 -1</clus>
<clus scale="   84.131">  2 10  1 -1</clus>
<clus scale="   80.510">  1  5  2 -1</clus>
<clus scale="   91.769">  7  8 -1 -1</clus>
<clus scale="   84.131">  2  5  1 -1</clus>
</clustering>
</event>
<event>
10    4  0.2857708E-005  0.2590942E+03  0.7546771E-02  0.1108227E+00
         21   -1    0    0  501  502  0.00000000000E+00  0.00000000000E+00  0.12223807528E+04  0.12223807528E+04  0.00000000000E+00 0. -1.
          4   -1    0    0  503    0 -0.00000000000E+00 -0.00000000000E+00 -0.21902157005E+03  0.21902157005E+03  0.00000000000E+00 0. -1.
         23    2    1    2    0    0 -0.18320859605E+03  0.49227562024E+02 -0.79178382056E+02  0.22491998086E+03  0.91274525890E+02 0.  0.
         24    2    1    2    0    0  0.20304369087E+03 -0.85556762391E+02  0.96992684859E+03  0.99790458072E+03  0.80676890235E+02 0.  0.
        -11    1    4    4    0    0  0.56214159047E+02 -0.51999813716E+02  0.21845908319E+03  0.23149164851E+03  0.00000000000E+00 0.  1.
         12    1    4    4    0    0  0.14682953183E+03 -0.33556948675E+02  0.75146776540E+03  0.76641293221E+03  0.00000000000E+00 0. -1.
        -11    1    3    3    0    0 -0.37944146515E+02  0.52180968934E+02 -0.32971541674E+02  0.72455050438E+02  0.00000000000E+00 0.  1.
         11    1    3    3    0    0 -0.14526444953E+03 -0.29534069095E+01 -0.46206840381E+02  0.15246493042E+03  0.00000000000E+00 0. -1.
         21    1    1    2  503  502 -0.47287558814E+02  0.54792975247E+02 -0.25363729977E+02  0.76692256150E+02  0.00000000000E+00 0. -1.
          3    1    1    2  501    0  0.27452463988E+02 -0.18463774880E+02  0.13797444620E+03  0.14188550513E+03  0.00000000000E+00 0. -1.
<scales pt_clust_5="13000.00000" pt_clust_6="13000.00000" pt_clust_7="13000.00000" pt_clust_8="13000.00000" pt_clust_9="71.62031" pt_clust_10="33.08397"></scales>
<clustering>
<clus scale="   33.084">  1 10  2 -1</clus>
<clus scale="   71.620">  2  9  1 -1</clus>
<clus scale="   80.677">  5  6 -1 -1</clus>
<clus scale="   91.275">  7  8 -1 -1</clus>
<clus scale="  255.553">  1  5  2 -1</clus>
<clus scale="   33.084">  1  5  2 -1</clus>
</clustering>
</event>
<event>
10    4  0.2857708E-005  0.2980066E+03  0.7546771E-02  0.1086611E+00
         21   -1    0    0  503  502  0.00000000000E+00  0.00000000000E+00  0.62364872562E+03  0.62364872562E+03  0.00000000000E+00 0.  1.
         -1   -1    0    0    0  501 -0.00000000000E+00 -0.00000000000E+00 -0.29901464788E+03  0.29901464788E+03  0.00000000000E+00 0.  1.
         24    2    1    2    0    0 -0.20669761141E+03  0.24636052125E+03 -0.33433234400E+01  0.33215643911E+03  0.83062104705E+02 0.  0.
         23    2    1    2    0    0  0.16547805545E+03 -0.18661882674E+03  0.26115657987E+03  0.37288225102E+03  0.92891552847E+02 0.  0.
        -11    1    3    3    0    0 -0.17478477623E+03  0.15012931872E+03  0.46565227518E+01  0.23045653288E+03  0.00000000000E+00 0.  1.
         12    1    3    3    0    0 -0.31912835184E+02  0.96231202529E+02 -0.79998461918E+01  0.10169990624E+03  0.00000000000E+00 0. -1.
        -13    1    4    4    0    0  0.14620162787E+03 -0.15160670420E+03  0.25762102678E+03  0.33275832400E+03  0.00000000000E+00 0.  1.
         13    1    4    4    0    0  0.19276427579E+02 -0.35012122533E+02  0.35355530966E+01  0.40123927028E+02  0.00000000000E+00 0. -1.
         21    1    1    2  503  501  0.55940689984E+02 -0.39185205290E+01 -0.57644908694E+02  0.80421707874E+02  0.00000000000E+00 0.  1.
         -2    1    1    2    0  502 -0.14721134020E+02 -0.55823173987E+02  0.12446573000E+03  0.13720297550E+03  0.00000000000E+00 0.  1.
<scales pt_clust_5="13000.00000" pt_clust_6="13000.00000" pt_clust_7="13000.00000" pt_clust_8="13000.00000" pt_clust_9="56.07776" pt_clust_10="57.46178"></scales>
<clustering>
<clus scale="   56.078">  2  9  1 -1</clus>
<clus scale="   57.462">  1 10  2 -1</clus>
<clus scale="   83.062">  5  6 -1 -1</clus>
<clus scale="   92.892">  7  8 -1 -1</clus>
<clus scale="  295.091">  2  5  1 -1</clus>
<clus scale="   57.462">  1  5  2 -1</clus>
</clustering>
</event>
<event>
10    4  0.2857708E-005  0.8873839E+02  0.7546771E-02  0.1311183E+00
          2   -1    0    0  503    0 -0.00000000000E+00  0.00000000000E+00  0.35571908825E+03  0.35571908825E+03  0.00000000000E+00 0. -1.
         21   -1    0    0  501  502  0.00000000000E+00 -0.00000000000E+00 -0.10111643414E+03  0.10111643414E+03  0.00000000000E+00 0.  1.
         23    2    1    2    0    0  0.59366694381E+01 -0.37081557074E+00  0.41043493978E+02  0.97182211401E+02  0.87888749375E+02 0.  0.
         24    2    1    2    0    0 -0.22945554705E+02 -0.37659768490E+02 -0.26983861250E+02  0.95021484152E+02  0.79725761451E+02 0.  0.
        -11    1    4    4    0    0 -0.37973819375E+02 -0.38448922747E+02 -0.45862940265E+02  0.70878345833E+02  0.00000000000E+00 0.  1.
         12    1    4    4    0    0  0.15028264669E+02  0.78915425645E+00  0.18879079015E+02  0.24143138319E+02  0.00000000000E+00 0. -1.
        -13    1    3    3    0    0  0.16256024557E+02 -0.42085942061E+02  0.21240501533E+02  0.49866258722E+02  0.00000000000E+00 0.  1.
         13    1    3    3    0    0 -0.10319355119E+02  0.41715126490E+02  0.19802992445E+02  0.47315952679E+02  0.00000000000E+00 0. -1.
         21    1    1    2  503  502 -0.85234486600E+01 -0.18890381721E+02  0.16661506128E+03  0.16789900042E+03  0.00000000000E+00 0. -1.
          1    1    1    2  501    0  0.25532333927E+02  0.56920965782E+02  0.73927960099E+02  0.96732826413E+02  0.00000000000E+00 0. -1.
<scales pt_clust_5="13000.00000" pt_clust_6="13000.00000" pt_clust_7="13000.00000" pt_clust_8="13000.00000" pt_clust_9="20.72428" pt_clust_10="53.00174"></scales>
<clustering>
<clus scale="   20.724">  1  9  2 -1</clus>
<clus scale="   53.002">  2 10  1 -1</clus>
<clus scale="   79.726">  5  6 -1 -1</clus>
<clus scale="   80.661">  2  5  1 -1</clus>
<clus scale="   87.889">  7  8 -1 -1</clus>
<clus scale="   53.002">  2  5  1 -1</clus>
</clustering>
</event>
<event>
10    4  0.2857708E-005  0.1215022E+03  0.7546771E-02  0.1248478E+00
          2   -1    0    0  503    0 -0.00000000000E+00  0.00000000000E+00  0.19663644127E+03  0.19663644127E+03  0.00000000000E+00 0. -1.
         21   -1    0    0  501  502  0.00000000000E+00 -0.00000000000E+00 -0.39643037154E+03  0.39643037154E+03  0.00000000000E+00 0. -1.
         23    2    1    2    0    0 -0.41444866460E+02 -0.10242790423E+03 -0.59721662908E+02  0.16208194027E+03  0.10244376907E+03 0.  0.
         24    2    1    2    0    0 -0.17493774787E+02  0.15831842732E+02 -0.18676540544E+03  0.20477502258E+03  0.80590407619E+02 0.  0.
        -11    1    4    4    0    0  0.97292266208E+01  0.39497040186E+02 -0.56580076910E+02  0.69684855868E+02  0.00000000000E+00 0.  1.
         12    1    4    4    0    0 -0.27223001408E+02 -0.23665197454E+02 -0.13018532853E+03  0.13509016671E+03  0.00000000000E+00 0. -1.
        -11    1    3    3    0    0  0.18626303970E+02 -0.66011096053E+02  0.19320315475E+01  0.68615863674E+02  0.00000000000E+00 0.  1.
         11    1    3    3    0    0 -0.60071170430E+02 -0.36416808173E+02 -0.61653694456E+02  0.93466076597E+02  0.00000000000E+00 0. -1.
         21    1    1    2  503  502  0.28809266843E+02  0.23092780745E+02  0.11946216566E+03  0.12503783188E+03  0.00000000000E+00 0. -1.
          1    1    1    2  501    0  0.30129374404E+02  0.63503280749E+02 -0.72769027574E+02  0.10117201808E+03  0.00000000000E+00 0. -1.
<scales pt_clust_5="13000.00000" pt_clust_6="13000.00000" pt_clust_7="13000.00000" pt_clust_8="13000.00000" pt_clust_9="36.92222" pt_clust_10="76.69098"></scales>
<clustering>
<clus scale="   36.922">  1  9  2 -1</clus>
<clus scale="   76.691">  2 10  1 -1</clus>
<clus scale="   80.590">  5  6 -1 -1</clus>
<clus scale="  102.444">  7  8 -1 -1</clus>
<clus scale="  103.744">  2  5  1 -1</clus>
<clus scale="   76.691">  2  5  1 -1</clus>
</clustering>
</event>
<event>
10    4  0.2857708E-005  0.3023650E+03  0.7546771E-02  0.1084064E+00
         21   -1    0    0  501  502  0.00000000000E+00  0.00000000000E+00  0.23310645608E+03  0.23310645608E+03  0.00000000000E+00 0. -1.
          2   -1    0    0  503    0 -0.00000000000E+00 -0.00000000000E+00 -0.56436161291E+03  0.56436161291E+03  0.00000000000E+00 0. -1.
         24    2    1    2    0    0 -0.52789957164E+02  0.66125662889E+02  0.29861336355E+02  0.11982531549E+03  0.79416773756E+02 0.  0.
         23    2    1    2    0    0 -0.88599018427E+02  0.15327568010E+02 -0.69471859186E+02  0.14494750314E+03  0.89992883274E+02 0.  0.
        -13    1    3    3    0    0 -0.37728871422E+02  0.11795659606E+02  0.46510344879E+02  0.61039474974E+02  0.00000000000E+00 0.  1.
         14    1    3    3    0    0 -0.15061085742E+02  0.54330003284E+02 -0.16649008524E+02  0.58785840517E+02  0.00000000000E+00 0. -1.
        -13    1    4    4    0    0 -0.13356050041E+02 -0.33772196983E+02 -0.11807241633E+02  0.38188431714E+02  0.00000000000E+00 0. -1.
         13    1    4    4    0    0 -0.75242968386E+02  0.49099764993E+02 -0.57664617553E+02  0.10675907142E+03  0.00000000000E+00 0.  1.
         21    1    1    2  503  502  0.17550530192E+03 -0.17004471419E+03 -0.34577629702E+03  0.42341299391E+03  0.00000000000E+00 0. -1.
          1    1    1    2  501    0 -0.34116326327E+02  0.88591483288E+02  0.54131663027E+02  0.10928225645E+03  0.00000000000E+00 0. -1.
<scales pt_clust_5="13000.00000" pt_clust_6="13000.00000" pt_clust_7="13000.00000" pt_clust_8="13000.00000" pt_clust_9="222.51830" pt_clust_10="94.93353"></scales>
<clustering>
<clus scale="   79.417">  5  6 -1 -1</clus>
<clus scale="   89.993">  7  8 -1 -1</clus>
<clus scale="   94.934">  1 10  2 -1</clus>
<clus scale="  131.702">  5  7 -1 -1</clus>
<clus scale="  222.518">  2  9  1 -1</clus>
<clus scale="   94.934">  1  5  2 -1</clus>
</clustering>
</event>
<event>
10    4  0.2857708E-005  0.2590802E+03  0.7546771E-02  0.1107697E+00
         21   -1    0    0  501  502  0.00000000000E+00  0.00000000000E+00  0.35143102219E+03  0.35143102219E+03  0.00000000000E+00 0. -1.
          2   -1    0    0  503    0 -0.00000000000E+00 -0.00000000000E+00 -0.64100091591E+03  0.64100091591E+03  0.00000000000E+00 0. -1.
         24    2    1    2    0    0 -0.18496529756E+01 -0.58590648892E+02  0.10955164484E+03  0.15019683915E+03  0.84387453157E+02 0.  0.
         23    2    1    2    0    0 -0.16363613092E+02 -0.28750316809E+02  0.17334798347E+03  0.19936918211E+03  0.92758820891E+02 0.  0.
        -11    1    3    3    0    0  0.10865530783E+02 -0.58460518820E+02  0.11987883104E+03  0.13381564241E+03  0.00000000000E+00 0.  1.
         12    1    3    3    0    0 -0.12715183759E+02 -0.13013007250E+00 -0.10327186206E+02  0.16381196745E+02  0.00000000000E+00 0. -1.
        -11    1    4    4    0    0  0.33236649060E+02 -0.14175723589E+02  0.29934215736E+02  0.46922097691E+02  0.00000000000E+00 0.  1.
         11    1    4    4    0    0 -0.49600262151E+02 -0.14574593220E+02  0.14341376773E+03  0.15244708442E+03  0.00000000000E+00 0. -1.
         21    1    1    2  503  502  0.28456754465E+02  0.18481810470E+03 -0.43992381857E+03  0.47801724325E+03  0.00000000000E+00 0. -1.
          1    1    1    2  501    0 -0.10243488398E+02 -0.97477138996E+02 -0.13254570345E+03  0.16484867359E+03  0.00000000000E+00 0. -1.
<scales pt_clust_5="13000.00000" pt_clust_6="13000.00000" pt_clust_7="13000.00000" pt_clust_8="13000.00000" pt_clust_9="181.43465" pt_clust_10="98.01393"></scales>
<clustering>
<clus scale="   84.387">  5  6 -1 -1</clus>
<clus scale="   92.759">  7  8 -1 -1</clus>
<clus scale="   98.014">  1 10  2 -1</clus>
<clus scale="  103.999">  5  7 -1 -1</clus>
<clus scale="  181.435">  2  9  1 -1</clus>
<clus scale="   98.014">  1  5  2 -1</clus>
</clustering>
</event>
<event>
10    4  0.2857708E-005  0.5335949E+03  0.7546771E-02  0.1005364E+00
          2   -1    0    0  503    0 -0.00000000000E+00  0.00000000000E+00  0.19074809272E+04  0.19074809272E+04  0.00000000000E+00 0. -1.
         21   -1    0    0  501  502  0.00000000000E+00 -0.00000000000E+00 -0.40223153005E+03  0.40223153005E+03  0.00000000000E+00 0.  1.
         24    2    1    2    0    0 -0.16189450937E+03  0.41713862821E+03  0.17405747690E+03  0.48672907587E+03  0.79966997685E+02 0.  0.
         23    2    1    2    0    0 -0.38785602142E+02  0.13062229230E+03  0.23418861749E+03  0.28579718854E+03  0.90935241980E+02 0.  0.
        -11    1    3    3    0    0 -0.89494741729E+02  0.32297989827E+03  0.13955471719E+03  0.36304385765E+03  0.00000000000E+00 0.  1.
         12    1    3    3    0    0 -0.72399767645E+02  0.94158729939E+02  0.34502759714E+02  0.12368521822E+03  0.00000000000E+00 0. -1.
        -13    1    4    4    0    0  0.10582292927E+02  0.76107559286E+02  0.17590927600E+03  0.19195941989E+03  0.00000000000E+00 0.  1.
         13    1    4    4    0    0 -0.49367895069E+02  0.54514733017E+02  0.58279341499E+02  0.93837768649E+02  0.00000000000E+00 0. -1.
         21    1    1    2  503  502  0.22313727562E+02 -0.19254675788E+03  0.11222851927E+04  0.11389013172E+04  0.00000000000E+00 0. -1.
          1    1    1    2  501    0  0.17836638395E+03 -0.35521416263E+03 -0.25281889949E+02  0.39828487571E+03  0.00000000000E+00 0. -1.
<scales pt_clust_5="13000.00000" pt_clust_6="13000.00000" pt_clust_7="13000.00000" pt_clust_8="13000.00000" pt_clust_9="193.83538" pt_clust_10="441.48176"></scales>
<clustering>
<clus scale="   79.967">  5  6 -1 -1</clus>
<clus scale="   90.935">  7  8 -1 -1</clus>
<clus scale="  151.487">  5  7 -1 -1</clus>
<clus scale="  193.835">  1  9  2 -1</clus>
<clus scale="  441.482">  2 10  1 -1</clus>
<clus scale="  441.482">  2  5  1 -1</clus>
</clustering>
</event>
<event>
10    4  0.2857708E-005  0.1431346E+03  0.7546771E-02  0.1224844E+00
          2   -1    0    0  503    0 -0.00000000000E+00  0.00000000000E+00  0.64945873525E+03  0.64945873525E+03  0.00000000000E+00 0. -1.
         21   -1    0    0  501  502  0.00000000000E+00 -0.00000000000E+00 -0.70935465097E+02  0.70935465097E+02  0.00000000000E+00 0. -1.
         24    2    1    2    0    0 -0.19512401186E+02  0.49392009227E+02  0.16839057495E+03  0.19337094443E+03  0.78845621588E+02 0.  0.
         23    2    1    2    0    0 -0.89966182879E+02 -0.54531411227E+02  0.10749484482E+03  0.17759955456E+03  0.94439775749E+02 0.  0.
        -13    1    3    3    0    0 -0.35629967246E+02  0.63191886053E+02  0.11561926233E+03  0.13649367330E+03  0.00000000000E+00 0.  1.
         14    1    3    3    0    0  0.16117566061E+02 -0.13799876826E+02  0.52771312611E+02  0.56877271127E+02  0.00000000000E+00 0. -1.
        -11    1    4    4    0    0  0.63475312790E+01 -0.20958470912E+02 -0.81817830252E+01  0.23377130487E+02  0.00000000000E+00 0.  1.
         11    1    4    4    0    0 -0.96313714158E+02 -0.33572940314E+02  0.11567662785E+03  0.15422242407E+03  0.00000000000E+00 0. -1.
         21    1    1    2  503  502 -0.19873904127E+02  0.34081912774E+02  0.97589014741E+02  0.10526236099E+03  0.00000000000E+00 0. -1.
          1    1    1    2  501    0  0.12935248819E+03 -0.28942510774E+02  0.20504883564E+03  0.24416134037E+03  0.00000000000E+00 0. -1.
<scales pt_clust_5="13000.00000" pt_clust_6="13000.00000" pt_clust_7="13000.00000" pt_clust_8="13000.00000" pt_clust_9="39.45312" pt_clust_10="107.55769"></scales>
<clustering>
<clus scale="   39.453">  1  9  2 -1</clus>
<clus scale="   78.846">  5  6 -1 -1</clus>
<clus scale="   94.440">  7  8 -1 -1</clus>
<clus scale="  102.828">  1  5  2 -1</clus>
<clus scale="  107.558">  2 10  1 -1</clus>
<clus scale="  107.558">  2  5  1 -1</clus>
</clustering>
</event>
<event>
10    4  0.2857708E-005  0.1104574E+03  0.7546771E-02  0.1261401E+00
          4   -1    0    0  502    0 -0.00000000000E+00  0.00000000000E+00  0.34496712423E+03  0.34496712423E+03  0.00000000000E+00 0. -1.
         21   -1    0    0  503  502  0.00000000000E+00 -0.00000000000E+00 -0.93746089553E+02  0.93746089553E+02  0.00000000000E+00 0.  1.
         23    2    1    2    0    0  0.54042450225E+02  0.11404905956E+02  0.91652220631E+02  0.14079732911E+03  0.91504644866E+02 0.  0.
         24    2    1    2    0    0  0.30896356740E+02 -0.63953586642E+02  0.34242801228E+01  0.10759426629E+03  0.80747472654E+02 0.  0.
        -11    1    4    4    0    0  0.65232384012E+01 -0.72945817236E+02 -0.16235472935E+02  0.75014901673E+02  0.00000000000E+00 0.  1.
         12    1    4    4    0    0  0.24373118339E+02  0.89922305939E+01  0.19659753058E+02  0.32579364618E+02  0.00000000000E+00 0. -1.
        -13    1    3    3    0    0  0.79949642230E+02  0.11300241254E+02  0.73251555509E+02  0.10902032439E+03  0.00000000000E+00 0. -1.
         13    1    3    3    0    0 -0.25907192005E+02  0.10466470201E+00  0.18400665122E+02  0.31777004723E+02  0.00000000000E+00 0.  1.
         21    1    1    2  503  501 -0.50808102423E+02  0.47563804750E+02  0.12842428059E+03  0.14607044410E+03  0.00000000000E+00 0. -1.
          3    1    1    2  501    0 -0.34130704541E+02  0.49848759365E+01  0.27720253332E+02  0.44251174283E+02  0.00000000000E+00 0. -1.
<scales pt_clust_5="13000.00000" pt_clust_6="13000.00000" pt_clust_7="13000.00000" pt_clust_8="13000.00000" pt_clust_9="30.40432" pt_clust_10="86.86729"></scales>
<clustering>
<clus scale="   30.404">  9 10 -1 -1</clus>
<clus scale="   80.747">  5  6 -1 -1</clus>
<clus scale="   91.505">  7  8 -1 -1</clus>
<clus scale="  106.882">  1  7  2 -1</clus>
<clus scale="   86.867">  2  9  1 -1</clus>
<clus scale="   86.867">  2  5  1 -1</clus>
</clustering>
</event>
<event>
10    4  0.2857708E-005  0.2672791E+03  0.7546771E-02  0.1103325E+00
          2   -1    0    0  503    0 -0.00000000000E+00  0.00000000000E+00  0.73689663707E+03  0.73689663707E+03  0.00000000000E+00 0. -1.
         21   -1    0    0  501  502  0.00000000000E+00 -0.00000000000E+00 -0.68075200515E+03  0.68075200515E+03  0.00000000000E+00 0.  1.
         23    2    1    2    0    0  0.15948139096E+03  0.79951311494E+02  0.58353510593E+03  0.61676888974E+03  0.89800429978E+02 0.  0.
         24    2    1    2    0    0 -0.20684697449E+03 -0.10984537187E+03 -0.59383881802E+03  0.64328976032E+03  0.79532995527E+02 0.  0.
        -11    1    4    4    0    0 -0.17795649711E+03 -0.80467022985E+02 -0.54744863900E+03  0.58124303781E+03  0.00000000000E+00 0.  1.
         12    1    4    4    0    0 -0.28890477382E+02 -0.29378348880E+02 -0.46390179013E+02  0.62046722517E+02  0.00000000000E+00 0. -1.
        -13    1    3    3    0    0  0.50530697650E+02  0.25801311961E+01  0.71548228658E+02  0.87630802268E+02  0.00000000000E+00 0.  1.
         13    1    3    3    0    0  0.10895069331E+03  0.77371180298E+02  0.51198687727E+03  0.52913808747E+03  0.00000000000E+00 0. -1.
         21    1    1    2  503  502  0.76432346077E+02  0.42060294772E+02  0.36354815383E+01  0.87316600078E+02  0.00000000000E+00 0. -1.
          1    1    1    2  501    0 -0.29066762547E+02 -0.12166234401E+02  0.62812862469E+02  0.70273392091E+02  0.00000000000E+00 0. -1.
<scales pt_clust_5="13000.00000" pt_clust_6="13000.00000" pt_clust_7="13000.00000" pt_clust_8="13000.00000" pt_clust_9="85.30484" pt_clust_10="31.51024"></scales>
<clustering>
<clus scale="   31.510">  2 10  1 -1</clus>
<clus scale="   79.533">  5  6 -1 -1</clus>
<clus scale="   85.305">  1  9  2 -1</clus>
<clus scale="   89.800">  7  8 -1 -1</clus>
<clus scale="  264.007">  2  5  1 -1</clus>
<clus scale="   31.510">  2  5  1 -1</clus>
</clustering>
</event>
<event>
10    4  0.2857708E-005  0.2161064E+03  0.7546771E-02  0.1178716E+00
          2   -1    0    0  503    0 -0.00000000000E+00  0.00000000000E+00  0.32133042704E+03  0.32133042704E+03  0.00000000000E+00 0. -1.
         21   -1    0    0  501  502  0.00000000000E+00 -0.00000000000E+00 -0.72426350425E+03  0.72426350425E+03  0.00000000000E+00 0. -1.
         24    2    1    2    0    0  0.80441327237E+01  0.21131793673E+02  0.45812842243E+02  0.94918525758E+02  0.79996557692E+02 0.  0.
         23    2    1    2    0    0 -0.10117364102E+03 -0.16163868914E+03 -0.55560646025E+02  0.21915128208E+03  0.92612783076E+02 0.  0.
        -13    1    3    3    0    0  0.38023977604E+02 -0.11885294044E+00  0.43961427362E+02  0.58124384681E+02  0.00000000000E+00 0.  1.
         14    1    3    3    0    0 -0.29979844880E+02  0.21250646614E+02  0.18514148803E+01  0.36794141077E+02  0.00000000000E+00 0. -1.
        -13    1    4    4    0    0  0.16522647930E+01 -0.37345213799E+02 -0.43547000166E+02  0.57391081155E+02  0.00000000000E+00 0.  1.
         13    1    4    4    0    0 -0.10282590581E+03 -0.12429347534E+03 -0.12013645859E+02  0.16176020093E+03  0.00000000000E+00 0. -1.
         21    1    1    2  503  502 -0.22434355483E+02 -0.18166143283E+02  0.15062715875E+03  0.15336834752E+03  0.00000000000E+00 0. -1.
          1    1    1    2  501    0  0.11556386378E+03  0.15867303875E+03 -0.54381243218E+03  0.57815577592E+03  0.00000000000E+00 0. -1.
<scales pt_clust_5="13000.00000" pt_clust_6="13000.00000" pt_clust_7="13000.00000" pt_clust_8="13000.00000" pt_clust_9="28.86709" pt_clust_10="195.25585"></scales>
<clustering>
<clus scale="   28.867">  1  9  2 -1</clus>
<clus scale="   79.997">  5  6 -1 -1</clus>
<clus scale="   81.152">  1  5  2 -1</clus>
<clus scale="   92.613">  7  8 -1 -1</clus>
<clus scale="  195.256">  2 10  1 -1</clus>
<clus scale="  195.256">  2  5  1 -1</clus>
</clustering>
</event>
<event>
10    4  0.2857708E-005  0.1016948E+03  0.7546771E-02  0.1284970E+00
          4   -1    0    0  503    0 -0.00000000000E+00  0.00000000000E+00  0.10943551087E+04  0.10943551087E+04  0.00000000000E+00 0. -1.
         21   -1    0    0  501  502  0.00000000000E+00 -0.00000000000E+00 -0.15475951585E+03  0.15475951585E+03  0.00000000000E+00 0.  1.
         24    2    1    2    0    0 -0.36192977300E+02  0.69363668771E+01  0.62705546044E+03  0.63252859949E+03  0.74403184864E+02 0.  0.
         23    2    1    2    0    0  0.48619368757E+02 -0.48996323272E+01  0.18718914679E+03  0.21385104390E+03  0.91129813372E+02 0.  0.
        -11    1    3    3    0    0 -0.21107255695E+02  0.37600005790E+02  0.23013193737E+03  0.23413668076E+03  0.00000000000E+00 0.  1.
         12    1    3    3    0    0 -0.15085721604E+02 -0.30663638913E+02  0.39692352307E+03  0.39839191873E+03  0.00000000000E+00 0. -1.
        -11    1    4    4    0    0  0.43368936181E+02 -0.43140678575E+02  0.85891164355E+02  0.10544797242E+03  0.00000000000E+00 0.  1.
         11    1    4    4    0    0  0.52504325754E+01  0.38241046248E+02  0.10129798243E+03  0.10840307148E+03  0.00000000000E+00 0. -1.
         21    1    1    2  503  502  0.81120877337E+01  0.43580117115E+02  0.25757592419E+03  0.26136256292E+03  0.00000000000E+00 0.  1.
          3    1    1    2  501    0 -0.20538479191E+02 -0.45616851664E+02 -0.13222493852E+03  0.14137241828E+03  0.00000000000E+00 0. -1.
<scales pt_clust_5="13000.00000" pt_clust_6="13000.00000" pt_clust_7="13000.00000" pt_clust_8="13000.00000" pt_clust_9="44.32869" pt_clust_10="49.79135"></scales>
<clustering>
<clus scale="   44.329">  1  9  2 -1</clus>
<clus scale="   49.791">  2 10  1 -1</clus>
<clus scale="   74.403">  5  6 -1 -1</clus>
<clus scale="   87.023">  1  5  2 -1</clus>
<clus scale="   91.130">  7  8 -1 -1</clus>
<clus scale="   49.791">  2  5  1 -1</clus>
</clustering>
</event>
<event>
10    4  0.2857708E-005  0.1392185E+03  0.7546771E-02  0.1217478E+00
          2   -1    0    0  503    0 -0.00000000000E+00  0.00000000000E+00  0.14586080422E+04  0.14586080422E+04  0.00000000000E+00 0. -1.
         21   -1    0    0  501  502  0.00000000000E+00 -0.00000000000E+00 -0.52520738577E+02  0.52520738577E+02  0.00000000000E+00 0. -1.
         24    2    1    2    0    0 -0.14861971886E+03 -0.75379756328E+01  0.94622265145E+03  0.96116203126E+03  0.79690038991E+02 0.  0.
         23    2    1    2    0    0  0.41725457374E+02  0.36058485369E+02  0.80765103754E+02  0.13524533128E+03  0.93418785522E+02 0.  0.
        -13    1    3    3    0    0 -0.98976012795E+02  0.33316052031E+02  0.59988945644E+03  0.60891179195E+03  0.00000000000E+00 0.  1.
         14    1    3    3    0    0 -0.49643706063E+02 -0.40854027664E+02  0.34633319500E+03  0.35225023930E+03  0.00000000000E+00 0. -1.
        -11    1    4    4    0    0  0.21428524932E+02 -0.10833041517E+02  0.80651012000E+02  0.84149404073E+02  0.00000000000E+00 0.  1.
         11    1    4    4    0    0  0.20296932441E+02  0.46891526886E+02  0.11409175484E+00  0.51095927207E+02  0.00000000000E+00 0. -1.
         21    1    1    2  503  502  0.41454738598E+02 -0.14212979406E+02  0.32683237539E+03  0.32975734372E+03  0.00000000000E+00 0.  1.
          1    1    1    2  501    0  0.65439522887E+02 -0.14307530331E+02  0.52267173006E+02  0.84964074489E+02  0.00000000000E+00 0. -1.
<scales pt_clust_5="13000.00000" pt_clust_6="13000.00000" pt_clust_7="13000.00000" pt_clust_8="13000.00000" pt_clust_9="43.82356" pt_clust_10="69.62874"></scales>
<clustering>
<clus scale="   43.824">  1  9  2 -1</clus>
<clus scale="   69.629">  2 10  1 -1</clus>
<clus scale="   79.690">  5  6 -1 -1</clus>
<clus scale="   93.419">  7  8 -1 -1</clus>
<clus scale="  130.404">  1  5  2 -1</clus>
<clus scale="   69.629">  2  5  1 -1</clus>
</clustering>
</event>
<event>
10    4  0.2857708E-005  0.2318275E+03  0.7546771E-02  0.1125930E+00
          2   -1    0    0  503    0 -0.00000000000E+00  0.00000000000E+00  0.45555427755E+03  0.45555427755E+03  0.00000000000E+00 0. -1.
         21   -1    0    0  501  502  0.00000000000E+00 -0.00000000000E+00 -0.40669900797E+03  0.40669900797E+03  0.00000000000E+00 0. -1.
         23    2    1    2    0    0 -0.22151901791E+03  0.14092858552E+03  0.11999683892E+03  0.30220032055E+03  0.89410574729E+02 0.  0.
         24    2    1    2    0    0  0.19218481315E+03 -0.50942178700E+02 -0.22592203225E+03  0.31156093834E+03  0.80618519357E+02 0.  0.
        -11    1    4    4    0    0  0.11287534001E+03 -0.62386023580E+02 -0.17198141372E+03  0.21496619498E+03  0.00000000000E+00 0.  1.
         12    1    4    4    0    0  0.79309473145E+02  0.11443844880E+02 -0.53940618532E+02  0.96594743355E+02  0.00000000000E+00 0. -1.
        -13    1    3    3    0    0 -0.65116936158E+02  0.76834286860E+01  0.58121756059E+02  0.87620710898E+02  0.00000000000E+00 0.  1.
         13    1    3    3    0    0 -0.15640208176E+03  0.13324515684E+03  0.61875082858E+02  0.21457960965E+03  0.00000000000E+00 0. -1.
         21    1    1    2  503  502  0.32614004791E+02 -0.58704836699E+02  0.18985377000E+03  0.20138119362E+03  0.00000000000E+00 0. -1.
          1    1    1    2  501    0 -0.32798000276E+01 -0.31281570124E+02 -0.35073307080E+02  0.47110833013E+02  0.00000000000E+00 0. -1.
<scales pt_clust_5="13000.00000" pt_clust_6="13000.00000" pt_clust_7="13000.00000" pt_clust_8="13000.00000" pt_clust_9="67.56260" pt_clust_10="31.45304"></scales>
<clustering>
<clus scale="   31.453">  2 10  1 -1</clus>
<clus scale="   67.563">  1  9  2 -1</clus>
<clus scale="   80.619">  5  6 -1 -1</clus>
<clus scale="   89.411">  7  8 -1 -1</clus>
<clus scale="  228.581">  2  5  1 -1</clus>
<clus scale="   31.453">  2  5  1 -1</clus>
</clustering>
</event>
<event>
10    4  0.2857708E-005  0.9983096E+02  0.7546771E-02  0.1286979E+00
          2   -1    0    0  503    0 -0.00000000000E+00  0.00000000000E+00  0.45137914053E+03  0.45137914053E+03  0.00000000000E+00 0. -1.
         21   -1    0    0  501  502  0.00000000000E+00 -0.00000000000E+00 -0.12394216785E+03  0.12394216785E+03  0.00000000000E+00 0.  1.
         23    2    1    2    0    0 -0.20161411827E+02 -0.36257810702E+02  0.78449660513E+02  0.12803550626E+03  0.92291008579E+02 0.  0.
         24    2    1    2    0    0 -0.28275770194E+02  0.49807280722E+02  0.84169537501E+01  0.98728004586E+02  0.79975554928E+02 0.  0.
        -11    1    4    4    0    0 -0.68853244605E+01  0.59454749135E+02  0.29907767438E+02  0.66908515457E+02  0.00000000000E+00 0.  1.
         12    1    4    4    0    0 -0.21390445734E+02 -0.96474684127E+01 -0.21490813688E+02  0.31819489129E+02  0.00000000000E+00 0. -1.
        -11    1    3    3    0    0  0.21812625370E+02  0.85789591139E+01  0.59200630961E+02  0.63671845200E+02  0.00000000000E+00 0. -1.
         11    1    3    3    0    0 -0.41974037197E+02 -0.44836769815E+02  0.19249029552E+02  0.64363661058E+02  0.00000000000E+00 0.  1.
         21    1    1    2  503  502  0.59660822924E+02  0.22380006820E+02  0.28401454513E+03  0.29107480197E+03  0.00000000000E+00 0. -1.
          1    1    1    2  501    0 -0.11223640903E+02 -0.35929476840E+02 -0.43444186709E+02  0.57482995572E+02  0.00000000000E+00 0. -1.
<scales pt_clust_5="13000.00000" pt_clust_6="13000.00000" pt_clust_7="13000.00000" pt_clust_8="13000.00000" pt_clust_9="62.62544" pt_clust_10="37.64170"></scales>
<clustering>
<clus scale="   37.642">  2 10  1 -1</clus>
<clus scale="   62.625">  1  9  2 -1</clus>
<clus scale="   79.976">  5  6 -1 -1</clus>
<clus scale="   88.570">  2  5  1 -1</clus>
<clus scale="   92.291">  7  8 -1 -1</clus>
<clus scale="   37.642">  2  5  1 -1</clus>
</clustering>
</event>
<event>
10    4  0.2857708E-005  0.1815129E+03  0.7546771E-02  0.1192689E+00
         21   -1    0    0  501  502  0.00000000000E+00  0.00000000000E+00  0.26210402349E+03  0.26210402349E+03  0.00000000000E+00 0. -1.
          2   -1    0    0  503    0 -0.00000000000E+00 -0.00000000000E+00 -0.33855166108E+03  0.33855166108E+03  0.00000000000E+00 0. -1.
         23    2    1    2    0    0 -0.53518955796E+02 -0.33165412756E+02  0.12957848306E+03  0.16436060189E+03  0.79117639932E+02 0.  0.
         24    2    1    2    0    0 -0.65557037208E+02 -0.11848926318E+03 -0.15797315990E+03  0.22296902519E+03  0.80138856545E+02 0.  0.
        -11    1    4    4    0    0 -0.74325624263E+02 -0.94556302049E+02 -0.15658328394E+03  0.19744244095E+03  0.00000000000E+00 0.  1.
         12    1    4    4    0    0  0.87685870554E+01 -0.23932961135E+02 -0.13898759561E+01  0.25526584237E+02  0.00000000000E+00 0. -1.
        -13    1    3    3    0    0 -0.71374475944E+02 -0.20184654652E+02  0.11814780279E+03  0.13950139570E+03  0.00000000000E+00 0. -1.
         13    1    3    3    0    0  0.17855520148E+02 -0.12980758104E+02  0.11430680273E+02  0.24859206186E+02  0.00000000000E+00 0.  1.
         21    1    1    2  503  502  0.26282713789E+02 -0.88067289624E-01 -0.20512941682E+02  0.33340209603E+02  0.00000000000E+00 0. -1.
          1    1    1    2  501    0  0.92793279215E+02  0.15174274323E+03 -0.27540019068E+02  0.17998584789E+03  0.00000000000E+00 0. -1.
<scales pt_clust_5="13000.00000" pt_clust_6="13000.00000" pt_clust_7="13000.00000" pt_clust_8="13000.00000" pt_clust_9="26.28286" pt_clust_10="162.86407"></scales>
<clustering>
<clus scale="   26.283">  2  9  1 -1</clus>
<clus scale="   79.118">  7  8 -1 -1</clus>
<clus scale="   80.139">  5  6 -1 -1</clus>
<clus scale="  100.346">  2  7  1 -1</clus>
<clus scale="  162.864">  1 10  2 -1</clus>
<clus scale="  162.864">  1  5  2 -1</clus>
</clustering>
</event>
<event>
10    4  0.2857708E-005  0.1468806E+03  0.7546771E-02  0.1210224E+00
         21   -1    0    0  501  502  0.00000000000E+00  0.00000000000E+00  0.98599982496E+02  0.98599982496E+02  0.00000000000E+00 0.  1.
          2   -1    0    0  503    0 -0.00000000000E+00 -0.00000000000E+00 -0.69858674794E+03  0.69858674794E+03  0.00000000000E+00 0. -1.
         24    2    1    2    0    0  0.10949627221E+03 -0.31098667954E+02 -0.21834334093E+03  0.26003511330E+03  0.83593569390E+02 0.  0.
         23    2    1    2    0    0 -0.59608221012E+02 -0.10666981141E+03 -0.75784109441E+02  0.16660163343E+03  0.84150367439E+02 0.  0.
        -13    1    3    3    0    0  0.82348394858E+01  0.23404332727E+02 -0.26018567543E+02  0.35951929416E+02  0.00000000000E+00 0.  1.
         14    1    3    3    0    0  0.10126143272E+03 -0.54503000681E+02 -0.19232477339E+03  0.22408318388E+03  0.00000000000E+00 0. -1.
        -13    1    4    4    0    0 -0.12829259490E+02 -0.98884669020E+02 -0.41112458757E+02  0.10785639495E+03  0.00000000000E+00 0.  1.
         13    1    4    4    0    0 -0.46778961522E+02 -0.77851423860E+01 -0.34671650684E+02  0.58745238481E+02  0.00000000000E+00 0. -1.
         21    1    1    2  503  502 -0.30761191776E+02  0.62800514531E+01 -0.19497978977E+03  0.19749128685E+03  0.00000000000E+00 0. -1.
          1    1    1    2  501    0 -0.19126859418E+02  0.13148842791E+03 -0.11087952530E+03  0.17305869685E+03  0.00000000000E+00 0. -1.
<scales pt_clust_5="13000.00000" pt_clust_6="13000.00000" pt_clust_7="13000.00000" pt_clust_8="13000.00000" pt_clust_9="31.39570" pt_clust_10="120.38542"></scales>
<clustering>
<clus scale="   31.396">  2  9  1 -1</clus>
<clus scale="   83.594">  5  6 -1 -1</clus>
<clus scale="   84.150">  7  8 -1 -1</clus>
<clus scale="  129.516">  2  5  1 -1</clus>
<clus scale="  120.385">  1 10  2 -1</clus>
<clus scale="  120.385">  1  5  2 -1</clus>
</clustering>
</event>
<event>
10    4  0.2857708E-005  0.2153683E+03  0.7546771E-02  0.1139074E+00
         -1   -1    0    0    0  501 -0.00000000000E+00  0.00000000000E+00  0.73067735608E+02  0.73067735608E+02  0.00000000000E+00 0.  1.
         21   -1    0    0  503  502  0.00000000000E+00 -0.00000000000E+00 -0.96737945977E+03  0.96737945977E+03  0.00000000000E+00 0.  1.
         23    2    1    2    0    0 -0.13376139783E+03 -0.11159199864E+03 -0.37727566955E+03  0.42885586031E+03  0.10599779418E+03 0.  0.
         24    2    1    2    0    0  0.14983156127E+03  0.13593720829E+03 -0.42040575435E+03  0.47461731034E+03  0.87133068540E+02 0.  0.
        -11    1    4    4    0    0  0.14542638449E+03  0.14109825412E+03 -0.35418409411E+03  0.40804892249E+03  0.00000000000E+00 0.  1.
         12    1    4    4    0    0  0.44051767743E+01 -0.51610458269E+01 -0.66221660233E+02  0.66568387847E+02  0.00000000000E+00 0. -1.
        -13    1    3    3    0    0 -0.90529649450E+02 -0.13096932154E+02 -0.12764236593E+03  0.15703413846E+03  0.00000000000E+00 0.  1.
         13    1    3    3    0    0 -0.43231748383E+02 -0.98495066485E+02 -0.24963330362E+03  0.27182172185E+03  0.00000000000E+00 0. -1.
         21    1    1    2  503  501 -0.30298395610E+01  0.21569401197E+02 -0.85137261567E+02  0.87879305316E+02  0.00000000000E+00 0.  1.
         -2    1    1    2    0  502 -0.13040323872E+02 -0.45914610852E+02 -0.11493038697E+02  0.49094719419E+02  0.00000000000E+00 0.  1.
<scales pt_clust_5="13000.00000" pt_clust_6="13000.00000" pt_clust_7="13000.00000" pt_clust_8="13000.00000" pt_clust_9="21.78116" pt_clust_10="47.04641"></scales>
<clustering>
<clus scale="   21.781">  2  9  1 -1</clus>
<clus scale="   47.046">  2 10  1 -1</clus>
<clus scale="   87.133">  5  6 -1 -1</clus>
<clus scale="  105.998">  7  8 -1 -1</clus>
<clus scale="  206.737">  2  5  1 -1</clus>
<clus scale="   21.781">  2  5  1 -1</clus>
</clustering>
</event>
<event>
10    4  0.2857708E-005  0.1265026E+03  0.7546771E-02  0.1234402E+00
          2   -1    0    0  503    0 -0.00000000000E+00  0.00000000000E+00  0.52313833938E+03  0.52313833938E+03  0.00000000000E+00 0. -1.
         21   -1    0    0  501  502  0.00000000000E+00 -0.00000000000E+00 -0.13245988250E+03  0.13245988250E+03  0.00000000000E+00 0. -1.
         24    2    1    2    0    0  0.35846959398E+02  0.47750120915E+02  0.20224405608E+03  0.22645208373E+03  0.82539744725E+02 0.  0.
         23    2    1    2    0    0 -0.72611026394E+02 -0.10145285092E+03  0.19594480290E+03  0.24865240768E+03  0.88705196839E+02 0.  0.
        -13    1    3    3    0    0  0.25506038779E+02  0.10100918196E+02  0.83642962141E+01  0.28680097869E+02  0.00000000000E+00 0.  1.
         14    1    3    3    0    0  0.10340920619E+02  0.37649202719E+02  0.19387975987E+03  0.19777198586E+03  0.00000000000E+00 0. -1.
        -11    1    4    4    0    0 -0.75254582359E+02 -0.67680802408E+02  0.83483690816E+02  0.13120011362E+03  0.00000000000E+00 0. -1.
         11    1    4    4    0    0  0.26435559647E+01 -0.33772048510E+02  0.11246111209E+03  0.11745229406E+03  0.00000000000E+00 0.  1.
         21    1    1    2  503  502  0.12449800254E+02  0.39070258446E+02  0.79239139526E+02  0.89220647017E+02  0.00000000000E+00 0.  1.
          1    1    1    2  501    0  0.24314266742E+02  0.14632471557E+02 -0.86749541632E+02  0.91273083460E+02  0.00000000000E+00 0. -1.
<scales pt_clust_5="13000.00000" pt_clust_6="13000.00000" pt_clust_7="13000.00000" pt_clust_8="13000.00000" pt_clust_9="43.50845" pt_clust_10="28.37768"></scales>
<clustering>
<clus scale="   28.378">  2 10  1 -1</clus>
<clus scale="   43.508">  1  9  2 -1</clus>
<clus scale="   82.540">  5  6 -1 -1</clus>
<clus scale="   88.705">  7  8 -1 -1</clus>
<clus scale="  122.258">  1  5  2 -1</clus>
<clus scale="   28.378">  2  5  1 -1</clus>
</clustering>
</event>
<event>
10    4  0.2857708E-005  0.2513293E+03  0.7546771E-02  0.1128912E+00
         21   -1    0    0  503  502  0.00000000000E+00  0.00000000000E+00  0.13656749748E+03  0.13656749748E+03  0.00000000000E+00 0. -1.
          2   -1    0    0  502    0 -0.00000000000E+00 -0.00000000000E+00 -0.89841015128E+03  0.89841015128E+03  0.00000000000E+00 0. -1.
         23    2    1    2    0    0  0.97875504668E+02 -0.98998926315E+02 -0.27284419230E+03  0.31972089667E+03  0.91635673553E+02 0.  0.
         24    2    1    2    0    0  0.10971609434E+03  0.20725131380E+03 -0.15658180186E+03  0.29324849166E+03  0.80536257417E+02 0.  0.
        -11    1    4    4    0    0 -0.47631357273E+01  0.22581491124E+02 -0.41234944539E+02  0.47253908352E+02  0.00000000000E+00 0.  1.
         12    1    4    4    0    0  0.11447923007E+03  0.18466982267E+03 -0.11534685732E+03  0.24599458331E+03  0.00000000000E+00 0. -1.
        -13    1    3    3    0    0  0.10036763604E+03 -0.46935459309E+02 -0.15184053181E+03  0.18796847290E+03  0.00000000000E+00 0. -1.
         13    1    3    3    0    0 -0.24921313730E+01 -0.52063467006E+02 -0.12100366049E+03  0.13175242377E+03  0.00000000000E+00 0.  1.
         21    1    1    2  503  501 -0.64371317069E+02 -0.85398831601E+02 -0.19400893736E+03  0.22153124988E+03  0.00000000000E+00 0. -1.
          1    1    1    2  501    0 -0.14322028194E+03 -0.22853555881E+02 -0.13840772227E+03  0.20047701056E+03  0.00000000000E+00 0. -1.
<scales pt_clust_5="13000.00000" pt_clust_6="13000.00000" pt_clust_7="13000.00000" pt_clust_8="13000.00000" pt_clust_9="97.06476" pt_clust_10="97.06476"></scales>
<clustering>
<clus scale="   80.536">  5  6 -1 -1</clus>
<clus scale="   91.636">  7  8 -1 -1</clus>
<clus scale="   97.065">  9 10 -1 -1</clus>
<clus scale="  166.666">  2  7  1 -1</clus>
<clus scale="  238.485">  2  5  1 -1</clus>
<clus scale="  251.329">  1  5  2 -1</clus>
</clustering>
</event>
<event>
10    4  0.2857708E-005  0.2480793E+03  0.7546771E-02  0.1148690E+00
          2   -1    0    0  503    0 -0.00000000000E+00  0.00000000000E+00  0.11111638363E+03  0.11111638363E+03  0.00000000000E+00 0. -1.
         21   -1    0    0  501  502  0.00000000000E+00 -0.00000000000E+00 -0.11509601663E+04  0.11509601663E+04  0.00000000000E+00 0. -1.
         24    2    1    2    0    0 -0.18643908350E+02  0.71940035288E+02 -0.29682144352E+03  0.31608782406E+03  0.79281644714E+02 0.  0.
         23    2    1    2    0    0  0.14279880157E+03 -0.23731601120E+03 -0.31694415184E+03  0.42939396408E+03  0.84942298665E+02 0.  0.
        -11    1    3    3    0    0 -0.31554535143E+02  0.57888443507E+02 -0.10964035639E+03  0.12793657932E+03  0.00000000000E+00 0.  1.
         12    1    3    3    0    0  0.12910626793E+02  0.14051591781E+02 -0.18718108713E+03  0.18815124474E+03  0.00000000000E+00 0. -1.
        -11    1    4    4    0    0  0.96391059696E+02 -0.11918339360E+03 -0.11813268732E+03  0.19352325316E+03  0.00000000000E+00 0.  1.
         11    1    4    4    0    0  0.46407741876E+02 -0.11813261760E+03 -0.19881146452E+03  0.23587071093E+03  0.00000000000E+00 0. -1.
         21    1    1    2  503  502 -0.30070648132E+02 -0.26429917708E+02 -0.87613330323E-01  0.40034886103E+02  0.00000000000E+00 0.  1.
          1    1    1    2  501    0 -0.94084245090E+02  0.19180589362E+03 -0.42599057402E+03  0.47655987573E+03  0.00000000000E+00 0. -1.
<scales pt_clust_5="13000.00000" pt_clust_6="13000.00000" pt_clust_7="13000.00000" pt_clust_8="13000.00000" pt_clust_9="40.03479" pt_clust_10="233.08396"></scales>
<clustering>
<clus scale="   40.035">  1  9  2 -1</clus>
<clus scale="   79.282">  5  6 -1 -1</clus>
<clus scale="   84.942">  7  8 -1 -1</clus>
<clus scale="  107.439">  1  5  2 -1</clus>
<clus scale="  233.084">  2 10  1 -1</clus>
<clus scale="  233.084">  2  5  1 -1</clus>
</clustering>
</event>
<event>
10    4  0.2857708E-005  0.1176525E+03  0.7546771E-02  0.1249802E+00
          2   -1    0    0  503    0 -0.00000000000E+00  0.00000000000E+00  0.95634272417E+03  0.95634272417E+03  0.00000000000E+00 0. -1.
         21   -1    0    0  501  502  0.00000000000E+00 -0.00000000000E+00 -0.33408246703E+02  0.33408246703E+02  0.00000000000E+00 0. -1.
         24    2    1    2    0    0  0.65580280784E+02 -0.69831125991E+02  0.35199204736E+03  0.37426847665E+03  0.83673961440E+02 0.  0.
         23    2    1    2    0    0 -0.66118887886E+02 -0.19799780024E+02  0.20790739817E+03  0.23759212097E+03  0.91982558720E+02 0.  0.
        -13    1    3    3    0    0  0.56871667581E+02 -0.16698672133E+02  0.97175135985E+02  0.11382547728E+03  0.00000000000E+00 0.  1.
         14    1    3    3    0    0  0.87086132023E+01 -0.53132453858E+02  0.25481691138E+03  0.26044299937E+03  0.00000000000E+00 0. -1.
        -13    1    4    4    0    0 -0.32279028716E+02 -0.17111584303E+01  0.19416065452E+03  0.19683298382E+03  0.00000000000E+00 0.  1.
         13    1    4    4    0    0 -0.33839859170E+02 -0.18088621593E+02  0.13746743651E+02  0.40759137145E+02  0.00000000000E+00 0. -1.
         21    1    1    2  503  502  0.26601029171E+02  0.33520983924E+02  0.16146745519E+03  0.16704194144E+03  0.00000000000E+00 0.  1.
          1    1    1    2  501    0 -0.26062422068E+02  0.56109922090E+02  0.20156757675E+03  0.21084843182E+03  0.00000000000E+00 0. -1.
<scales pt_clust_5="13000.00000" pt_clust_6="13000.00000" pt_clust_7="13000.00000" pt_clust_8="13000.00000" pt_clust_9="42.79335" pt_clust_10="67.60195"></scales>
<clustering>
<clus scale="   42.793">  1  9  2 -1</clus>
<clus scale="   67.602">  2 10  1 -1</clus>
<clus scale="   83.674">  5  6 -1 -1</clus>
<clus scale="   91.983">  7  8 -1 -1</clus>
<clus scale="  111.277">  1  5  2 -1</clus>
<clus scale="   67.602">  2  5  1 -1</clus>
</clustering>
</event>
<event>
10    4  0.2857708E-005  0.1246573E+03  0.7546771E-02  0.1240348E+00
          2   -1    0    0  503    0 -0.00000000000E+00  0.00000000000E+00  0.68800100950E+03  0.68800100950E+03  0.00000000000E+00 0. -1.
         21   -1    0    0  501  502  0.00000000000E+00 -0.00000000000E+00 -0.91381406369E+02  0.91381406369E+02  0.00000000000E+00 0. -1.
         24    2    1    2    0    0  0.17242210445E+02 -0.11144329478E+03  0.20034394529E+03  0.24327023468E+03  0.79534953898E+02 0.  0.
         23    2    1    2    0    0 -0.13012856692E+02  0.29061359461E+02  0.45149628518E+02  0.11004203546E+03  0.95167555188E+02 0.  0.
        -11    1    3    3    0    0 -0.24593752785E+02 -0.81859178670E+01  0.47770643060E+02  0.54349758655E+02  0.00000000000E+00 0.  1.
         12    1    3    3    0    0  0.41835963230E+02 -0.10325737691E+03  0.15257330223E+03  0.18892047602E+03  0.00000000000E+00 0. -1.
        -13    1    4    4    0    0 -0.31266807976E+02  0.54897161957E+01  0.66286703988E+02  0.73496104594E+02  0.00000000000E+00 0.  1.
         13    1    4    4    0    0  0.18253951284E+02  0.23571643265E+02 -0.21137075470E+02  0.36545930869E+02  0.00000000000E+00 0. -1.
         21    1    1    2  503  502  0.72449577650E+02  0.71427636910E+01  0.29697232518E+03  0.30576546943E+03  0.00000000000E+00 0. -1.
          1    1    1    2  501    0 -0.76678931402E+02  0.75239171627E+02  0.54153704149E+02  0.12030467631E+03  0.00000000000E+00 0. -1.
<scales pt_clust_5="13000.00000" pt_clust_6="13000.00000" pt_clust_7="13000.00000" pt_clust_8="13000.00000" pt_clust_9="72.80083" pt_clust_10="97.70436"></scales>
<clustering>
<clus scale="   72.801">  1  9  2 -1</clus>
<clus scale="   79.535">  5  6 -1 -1</clus>
<clus scale="   95.168">  7  8 -1 -1</clus>
<clus scale="   97.704">  2 10  1 -1</clus>
<clus scale="  113.174">  1  5  2 -1</clus>
<clus scale="   97.704">  2  5  1 -1</clus>
</clustering>
</event>
<event>
10    4  0.2857708E-005  0.2455097E+03  0.7546771E-02  0.1116363E+00
         21   -1    0    0  503  502  0.00000000000E+00  0.00000000000E+00  0.27469659215E+03  0.27469659215E+03  0.00000000000E+00 0. -1.
         -1   -1    0    0    0  501 -0.00000000000E+00 -0.00000000000E+00 -0.52030161674E+03  0.52030161674E+03  0.00000000000E+00 0.  1.
         23    2    1    2    0    0  0.17767473290E+03  0.12473495727E+03 -0.13371066642E+03  0.27287448120E+03  0.97235898201E+02 0.  0.
         24    2    1    2    0    0 -0.23825561677E+03 -0.13258103923E+03  0.75405886490E+02  0.29819461034E+03  0.94289485268E+02 0.  0.
        -11    1    4    4    0    0 -0.18994472737E+03 -0.66486632324E+02  0.26897514652E+02  0.20303435184E+03  0.00000000000E+00 0.  1.
         12    1    4    4    0    0 -0.48310889401E+02 -0.66094406906E+02  0.48508371837E+02  0.95160258498E+02  0.00000000000E+00 0. -1.
        -13    1    3    3    0    0  0.11957352235E+03  0.28100490243E+02 -0.50821954519E+02  0.13292981554E+03  0.00000000000E+00 0.  1.
         13    1    3    3    0    0  0.58101210553E+02  0.96634467028E+02 -0.82888711905E+02  0.13994466566E+03  0.00000000000E+00 0. -1.
         21    1    1    2  503  501 -0.51143118254E+00 -0.33315530755E+02 -0.11863171697E+03  0.12322203708E+03  0.00000000000E+00 0.  1.
         -2    1    1    2    0  502  0.61092315050E+02  0.41161612715E+02 -0.68668527690E+02  0.10070708026E+03  0.00000000000E+00 0.  1.
<scales pt_clust_5="13000.00000" pt_clust_6="13000.00000" pt_clust_7="13000.00000" pt_clust_8="13000.00000" pt_clust_9="33.31946" pt_clust_10="69.86876"></scales>
<clustering>
<clus scale="   33.319">  2  9  1 -1</clus>
<clus scale="   69.869">  1 10  2 -1</clus>
<clus scale="   94.289">  5  6 -1 -1</clus>
<clus scale="   97.236">  7  8 -1 -1</clus>
<clus scale="  244.358">  1  5  2 -1</clus>
<clus scale="   69.869">  1  5  2 -1</clus>
</clustering>
</event>
<event>
10    4  0.2857708E-005  0.1887006E+03  0.7546771E-02  0.1165595E+00
         21   -1    0    0  501  502  0.00000000000E+00  0.00000000000E+00  0.43841250027E+03  0.43841250027E+03  0.00000000000E+00 0.  1.
          4   -1    0    0  503    0 -0.00000000000E+00 -0.00000000000E+00 -0.49072422650E+03  0.49072422650E+03  0.00000000000E+00 0. -1.
         24    2    1    2    0    0  0.18275915615E+02  0.19883459341E+03 -0.66143917258E+02  0.22532860853E+03  0.80800738879E+02 0.  0.
         23    2    1    2    0    0  0.15670237768E+03 -0.26838465538E+02  0.13159829011E+03  0.22591370423E+03  0.91885545095E+02 0.  0.
        -13    1    3    3    0    0 -0.31272364826E+02  0.57061124614E+02 -0.16140997657E+02  0.67040767816E+02  0.00000000000E+00 0.  1.
         14    1    3    3    0    0  0.49548280440E+02  0.14177346880E+03 -0.50002919601E+02  0.15828784072E+03  0.00000000000E+00 0. -1.
        -11    1    4    4    0    0  0.86741441300E+02  0.15115241718E+02  0.24705101811E+02  0.91448839394E+02  0.00000000000E+00 0. -1.
         11    1    4    4    0    0  0.69960936380E+02 -0.41953707256E+02  0.10689318830E+03  0.13446486484E+03  0.00000000000E+00 0.  1.
         21    1    1    2  503  502 -0.47723240533E+01 -0.94642435476E+02 -0.23761843575E+03  0.25581729159E+03  0.00000000000E+00 0.  1.
          3    1    1    2  501    0 -0.17020596924E+03 -0.77353692401E+02  0.11985233668E+03  0.22207712241E+03  0.00000000000E+00 0. -1.
<scales pt_clust_5="13000.00000" pt_clust_6="13000.00000" pt_clust_7="13000.00000" pt_clust_8="13000.00000" pt_clust_9="94.76268" pt_clust_10="164.81802"></scales>
<clustering>
<clus scale="   80.801">  5  6 -1 -1</clus>
<clus scale="   91.886">  7  8 -1 -1</clus>
<clus scale="   94.763">  2  9  1 -1</clus>
<clus scale="  164.372">  2  5  1 -1</clus>
<clus scale="  164.818">  1 10  2 -1</clus>
<clus scale="  164.818">  1  5  2 -1</clus>
</clustering>
</event>
<event>
10    4  0.2857708E-005  0.1711246E+03  0.7546771E-02  0.1202738E+00
          2   -1    0    0  502    0 -0.00000000000E+00  0.00000000000E+00  0.10074068174E+04  0.10074068174E+04  0.00000000000E+00 0. -1.
         21   -1    0    0  503  502  0.00000000000E+00 -0.00000000000E+00 -0.46622679806E+02  0.46622679806E+02  0.00000000000E+00 0. -1.
         24    2    1    2    0    0  0.53455242306E+02 -0.52777726505E+01  0.30946659192E+03  0.32407061268E+03  0.79792685599E+02 0.  0.
         23    2    1    2    0    0 -0.11771205488E+03 -0.10784528618E+03  0.27606568031E+03  0.33162205448E+03  0.90962594274E+02 0.  0.
        -11    1    3    3    0    0 -0.19670717217E+02  0.61716102455E+01  0.46081654272E+02  0.50483113507E+02  0.00000000000E+00 0.  1.
         12    1    3    3    0    0  0.73125959524E+02 -0.11449382896E+02  0.26338493765E+03  0.27358749917E+03  0.00000000000E+00 0. -1.
        -13    1    4    4    0    0 -0.12865054671E+03 -0.86837877819E+02  0.26064251537E+03  0.30335837060E+03  0.00000000000E+00 0. -1.
         13    1    4    4    0    0  0.10938491839E+02 -0.21007408358E+02  0.15423164941E+02  0.28263683879E+02  0.00000000000E+00 0.  1.
         21    1    1    2  503  501  0.23706021897E+02  0.64540014012E+02  0.22588562016E+03  0.23611798381E+03  0.00000000000E+00 0. -1.
          1    1    1    2  501    0  0.40550790671E+02  0.48583044815E+02  0.14936624516E+03  0.16221884620E+03  0.00000000000E+00 0. -1.
<scales pt_clust_5="13000.00000" pt_clust_6="13000.00000" pt_clust_7="13000.00000" pt_clust_8="13000.00000" pt_clust_9="29.29623" pt_clust_10="148.12821"></scales>
<clustering>
<clus scale="   29.296">  9 10 -1 -1</clus>
<clus scale="   79.793">  5  6 -1 -1</clus>
<clus scale="   90.963">  7  8 -1 -1</clus>
<clus scale="   96.188">  1  5  2 -1</clus>
<clus scale="  148.128">  2  9  1 -1</clus>
<clus scale="  148.128">  2  5  1 -1</clus>
</clustering>
</event>
<event>
10    4  0.2857708E-005  0.1465429E+03  0.7546771E-02  0.1207445E+00
         21   -1    0    0  501  502  0.00000000000E+00  0.00000000000E+00  0.20427258509E+03  0.20427258509E+03  0.00000000000E+00 0. -1.
          2   -1    0    0  503    0 -0.00000000000E+00 -0.00000000000E+00 -0.10281911654E+04  0.10281911654E+04  0.00000000000E+00 0. -1.
         24    2    1    2    0    0 -0.74429679244E+02 -0.14425074439E+03 -0.73271471552E+03  0.75462525545E+03  0.78995996186E+02 0.  0.
         23    2    1    2    0    0 -0.27300561571E+02  0.79370965879E+02  0.73495642853E+02  0.14493383873E+03  0.92515605187E+02 0.  0.
        -13    1    3    3    0    0 -0.84929881993E+02 -0.11096618192E+03 -0.49439853899E+03  0.51376696443E+03  0.00000000000E+00 0.  1.
         14    1    3    3    0    0  0.10500202749E+02 -0.33284562469E+02 -0.23831617652E+03  0.24085829101E+03  0.00000000000E+00 0. -1.
        -11    1    4    4    0    0  0.23036220077E+02 -0.59019539115E+01  0.43885493185E+01  0.24181808463E+02  0.00000000000E+00 0.  1.
         11    1    4    4    0    0 -0.50336781647E+02  0.85272919790E+02  0.69107093535E+02  0.12075203026E+03  0.00000000000E+00 0. -1.
         21    1    1    2  503  502  0.36805629496E+02  0.35798427302E+02 -0.23040947446E+03  0.23606081353E+03  0.00000000000E+00 0. -1.
          1    1    1    2  501    0  0.64924611319E+02  0.29081351209E+02  0.65709966826E+02  0.96843842774E+02  0.00000000000E+00 0. -1.
<scales pt_clust_5="13000.00000" pt_clust_6="13000.00000" pt_clust_7="13000.00000" pt_clust_8="13000.00000" pt_clust_9="51.34376" pt_clust_10="72.08537"></scales>
<clustering>
<clus scale="   51.344">  2  9  1 -1</clus>
<clus scale="   72.085">  1 10  2 -1</clus>
<clus scale="   78.996">  5  6 -1 -1</clus>
<clus scale="   92.516">  7  8 -1 -1</clus>
<clus scale="  138.405">  2  5  1 -1</clus>
<clus scale="   72.085">  1  5  2 -1</clus>
</clustering>
</event>
<event>
10    4  0.2857708E-005  0.1313717E+03  0.7546771E-02  0.1228089E+00
         -1   -1    0    0    0  501 -0.00000000000E+00  0.00000000000E+00  0.14851344541E+03  0.14851344541E+03  0.00000000000E+00 0.  1.
         21   -1    0    0  503  502  0.00000000000E+00 -0.00000000000E+00 -0.37053985950E+03  0.37053985950E+03  0.00000000000E+00 0.  1.
         24    2    1    2    0    0  0.86469650602E+02 -0.36552020861E+01 -0.79254152955E+02  0.14267769674E+03  0.81150128832E+02 0.  0.
         23    2    1    2    0    0 -0.84346005550E+02  0.93014151003E+02 -0.87211948098E+02  0.17820848184E+03  0.91577607356E+02 0.  0.
        -11    1    3    3    0    0  0.71905141002E+02 -0.34956691595E+02 -0.36959107550E+02  0.88081185396E+02  0.00000000000E+00 0.  1.
         12    1    3    3    0    0  0.14564509600E+02  0.31301489509E+02 -0.42295045405E+02  0.54596511346E+02  0.00000000000E+00 0. -1.
        -11    1    4    4    0    0 -0.86639620413E+02  0.36265046842E+02 -0.32609773059E+02  0.99423210302E+02  0.00000000000E+00 0.  1.
         11    1    4    4    0    0  0.22936148624E+01  0.56749104161E+02 -0.54602175039E+02  0.78785271537E+02  0.00000000000E+00 0. -1.
         21    1    1    2  503  501 -0.22655402624E+02  0.22359501184E+02  0.39019968279E+02  0.50356454261E+02  0.00000000000E+00 0.  1.
         -2    1    1    2    0  502  0.20531757573E+02 -0.11171845010E+03 -0.94580281315E+02  0.14781067206E+03  0.00000000000E+00 0.  1.
<scales pt_clust_5="13000.00000" pt_clust_6="13000.00000" pt_clust_7="13000.00000" pt_clust_8="13000.00000" pt_clust_9="31.83103" pt_clust_10="107.00456"></scales>
<clustering>
<clus scale="   31.831">  1  9  2 -1</clus>
<clus scale="   81.150">  5  6 -1 -1</clus>
<clus scale="   91.578">  7  8 -1 -1</clus>
<clus scale="  107.005">  2 10  1 -1</clus>
<clus scale="  124.328">  1  5  2 -1</clus>
<clus scale="  107.005">  2  5  1 -1</clus>
</clustering>
</event>
<event>
10    4  0.2857708E-005  0.1258902E+03  0.7546771E-02  0.1237250E+00
          2   -1    0    0  502    0 -0.00000000000E+00  0.00000000000E+00  0.74133713675E+03  0.74133713675E+03  0.00000000000E+00 0. -1.
         21   -1    0    0  503  502  0.00000000000E+00 -0.00000000000E+00 -0.36018433510E+02  0.36018433510E+02  0.00000000000E+00 0. -1.
         23    2    1    2    0    0  0.78256987624E+02  0.84367063834E+02  0.38162703771E+03  0.40913923260E+03  0.92270028555E+02 0.  0.
         24    2    1    2    0    0 -0.25079178930E+02 -0.53982135724E+02  0.17610933807E+03  0.20228521266E+03  0.79760717858E+02 0.  0.
        -13    1    4    4    0    0 -0.91314668303E+01  0.20912972557E+02  0.36222371808E+02  0.42811170587E+02  0.00000000000E+00 0.  1.
         14    1    4    4    0    0 -0.15947712100E+02 -0.74895108281E+02  0.13988696626E+03  0.15947404208E+03  0.00000000000E+00 0. -1.
        -11    1    3    3    0    0 -0.12149851154E+02  0.27062353334E+02  0.16344631653E+03  0.16611648997E+03  0.00000000000E+00 0.  1.
         11    1    3    3    0    0  0.90406838778E+02  0.57304710500E+02  0.21818072118E+03  0.24302274263E+03  0.00000000000E+00 0. -1.
         21    1    1    2  503  501 -0.25813285740E+02  0.90414081585E+01  0.44665566123E+02  0.52374474501E+02  0.00000000000E+00 0. -1.
          1    1    1    2  501    0 -0.27364522954E+02 -0.39426336268E+02  0.10291676134E+03  0.11355665050E+03  0.00000000000E+00 0. -1.
<scales pt_clust_5="13000.00000" pt_clust_6="13000.00000" pt_clust_7="13000.00000" pt_clust_8="13000.00000" pt_clust_9="27.35092" pt_clust_10="49.39097"></scales>
<clustering>
<clus scale="   27.351">  2  9  1 -1</clus>
<clus scale="   49.391">  2 10  1 -1</clus>
<clus scale="   79.761">  5  6 -1 -1</clus>
<clus scale="   92.270">  7  8 -1 -1</clus>
<clus scale="  117.031">  2  5  1 -1</clus>
<clus scale="   27.351">  2  5  1 -1</clus>
</clustering>
</event>
<event>
10    4  0.2857708E-005  0.2843424E+03  0.7546771E-02  0.1124706E+00
          2   -1    0    0  503    0 -0.00000000000E+00  0.00000000000E+00  0.12644532662E+04  0.12644532662E+04  0.00000000000E+00 0. -1.
         21   -1    0    0  501  502  0.00000000000E+00 -0.00000000000E+00 -0.35926096972E+03  0.35926096972E+03  0.00000000000E+00 0. -1.
         23    2    1    2    0    0  0.75250808777E+02 -0.49034780274E+02 -0.10405339502E+03  0.16441460410E+03  0.90210637554E+02 0.  0.
         24    2    1    2    0    0 -0.20415333143E+03 -0.19259091928E+03  0.10907948230E+04  0.11291775735E+04  0.80242143873E+02 0.  0.
        -11    1    4    4    0    0 -0.54423154484E+02 -0.16626793360E+02  0.15012618631E+03  0.16054968645E+03  0.00000000000E+00 0.  1.
         12    1    4    4    0    0 -0.14973017695E+03 -0.17596412592E+03  0.94066863673E+03  0.96862788708E+03  0.00000000000E+00 0. -1.
        -11    1    3    3    0    0  0.22009342436E+02  0.31106723200E+01  0.12926260521E+02  0.25713335991E+02  0.00000000000E+00 0.  1.
         11    1    3    3    0    0  0.53241466342E+02 -0.52145452594E+02 -0.11697965554E+03  0.13870126811E+03  0.00000000000E+00 0. -1.
         21    1    1    2  503  502  0.20821988992E+02 -0.10067074238E+02  0.26937242924E+02  0.35503750022E+02  0.00000000000E+00 0.  1.
          1    1    1    2  501    0  0.10808053366E+03  0.25169277379E+03 -0.10848637446E+03  0.29461830829E+03  0.00000000000E+00 0. -1.
<scales pt_clust_5="13000.00000" pt_clust_6="13000.00000" pt_clust_7="13000.00000" pt_clust_8="13000.00000" pt_clust_9="23.12793" pt_clust_10="272.78530"></scales>
<clustering>
<clus scale="   23.128">  1  9  2 -1</clus>
<clus scale="   80.242">  5  6 -1 -1</clus>
<clus scale="   90.211">  7  8 -1 -1</clus>
<clus scale="  127.696">  1  7  2 -1</clus>
<clus scale="  272.785">  2 10  1 -1</clus>
<clus scale="  272.785">  2  5  1 -1</clus>
</clustering>
</event>
<event>
10    4  0.2857708E-005  0.1492816E+03  0.7546771E-02  0.1205519E+00
          2   -1    0    0  503    0 -0.00000000000E+00  0.00000000000E+00  0.37530109222E+03  0.37530109222E+03  0.00000000000E+00 0. -1.
         21   -1    0    0  501  502  0.00000000000E+00 -0.00000000000E+00 -0.14916622790E+03  0.14916622790E+03  0.00000000000E+00 0. -1.
         23    2    1    2    0    0  0.10898208979E+03 -0.21036843955E+02  0.27850555620E+03  0.31355027554E+03  0.91808418788E+02 0.  0.
         24    2    1    2    0    0 -0.11600812479E+03 -0.28636659717E+02 -0.45790002085E+02  0.14539164406E+03  0.69022189003E+02 0.  0.
        -11    1    4    4    0    0 -0.86115143492E+02  0.82700900300E+01 -0.45822441452E+02  0.97897438518E+02  0.00000000000E+00 0.  1.
         12    1    4    4    0    0 -0.29892981294E+02 -0.36906749747E+02  0.32439366987E-01  0.47494205540E+02  0.00000000000E+00 0. -1.
        -11    1    3    3    0    0  0.42036574759E+02 -0.48054820568E+02  0.80183918748E+02  0.10249780594E+03  0.00000000000E+00 0.  1.
         11    1    3    3    0    0  0.66945515036E+02  0.27017976613E+02  0.19832163745E+03  0.21105246960E+03  0.00000000000E+00 0. -1.
         21    1    1    2  503  502  0.11378299821E+02  0.21833805914E+02  0.16045447591E+02  0.29387704502E+02  0.00000000000E+00 0. -1.
          1    1    1    2  501    0 -0.43522648292E+01  0.27839697758E+02 -0.22626137383E+02  0.36137696015E+02  0.00000000000E+00 0. -1.
<scales pt_clust_5="13000.00000" pt_clust_6="13000.00000" pt_clust_7="13000.00000" pt_clust_8="13000.00000" pt_clust_9="24.62074" pt_clust_10="28.55888"></scales>
<clustering>
<clus scale="   24.621">  1  9  2 -1</clus>
<clus scale="   28.559">  2 10  1 -1</clus>
<clus scale="   69.022">  5  6 -1 -1</clus>
<clus scale="   91.808">  7  8 -1 -1</clus>
<clus scale="  136.456">  2  5  1 -1</clus>
<clus scale="   28.559">  2  5  1 -1</clus>
</clustering>
</event>
<event>
10    4  0.2857708E-005  0.1156865E+03  0.7546771E-02  0.1250522E+00
         -1   -1    0    0    0  501 -0.00000000000E+00  0.00000000000E+00  0.13246469311E+03  0.13246469311E+03  0.00000000000E+00 0.  1.
         21   -1    0    0  503  502  0.00000000000E+00 -0.00000000000E+00 -0.39083459741E+03  0.39083459741E+03  0.00000000000E+00 0.  1.
         23    2    1    2    0    0  0.45009395619E+02 -0.22641792407E+02  0.29971890313E+02  0.10860021836E+03  0.91417704858E+02 0.  0.
         24    2    1    2    0    0 -0.73929258012E+02 -0.76487548182E+01 -0.11093963642E+03  0.16160889643E+03  0.91026335948E+02 0.  0.
        -13    1    4    4    0    0 -0.54001088555E+02 -0.48166950660E+02 -0.68188687416E+02  0.99427711391E+02  0.00000000000E+00 0.  1.
         14    1    4    4    0    0 -0.19928169457E+02  0.40518195842E+02 -0.42750949004E+02  0.62181185039E+02  0.00000000000E+00 0. -1.
        -13    1    3    3    0    0  0.39385903444E+02 -0.55723891691E+02  0.31175281635E+02  0.75021994644E+02  0.00000000000E+00 0.  1.
         13    1    3    3    0    0  0.56234921750E+01  0.33082099284E+02 -0.12033913216E+01  0.33578223716E+02  0.00000000000E+00 0. -1.
         21    1    1    2  503  501  0.37761395630E+02 -0.16918833772E+01  0.26719225665E+02  0.46289334511E+02  0.00000000000E+00 0.  1.
         -2    1    1    2    0  502 -0.88415332370E+01  0.31982430603E+02 -0.20412138386E+03  0.20680084122E+03  0.00000000000E+00 0.  1.
<scales pt_clust_5="13000.00000" pt_clust_6="13000.00000" pt_clust_7="13000.00000" pt_clust_8="13000.00000" pt_clust_9="37.29469" pt_clust_10="33.18205"></scales>
<clustering>
<clus scale="   33.182">  2 10  1 -1</clus>
<clus scale="   37.295">  1  9  2 -1</clus>
<clus scale="   91.026">  5  6 -1 -1</clus>
<clus scale="   91.418">  7  8 -1 -1</clus>
<clus scale="  115.377">  2  5  1 -1</clus>
<clus scale="   33.182">  2  5  1 -1</clus>
</clustering>
</event>
<event>
10    4  0.2857708E-005  0.2146837E+03  0.7546771E-02  0.1158314E+00
         21   -1    0    0  501  502  0.00000000000E+00  0.00000000000E+00  0.37098829126E+03  0.37098829126E+03  0.00000000000E+00 0.  1.
          2   -1    0    0  503    0 -0.00000000000E+00 -0.00000000000E+00 -0.52710956916E+03  0.52710956916E+03  0.00000000000E+00 0. -1.
         24    2    1    2    0    0 -0.13400030136E+03  0.44671630421E+02 -0.17853683261E+02  0.16387505338E+03  0.81145818026E+02 0.  0.
         23    2    1    2    0    0 -0.42314894191E+02  0.99135156901E+02  0.15997584943E+03  0.21402090094E+03  0.92705685018E+02 0.  0.
        -13    1    3    3    0    0 -0.14486002827E+03  0.39073747036E+02 -0.12566904777E+02  0.15056265338E+03  0.00000000000E+00 0.  1.
         14    1    3    3    0    0  0.10859726906E+02  0.55978833849E+01 -0.52867784840E+01  0.13312399994E+02  0.00000000000E+00 0. -1.
        -11    1    4    4    0    0 -0.66531522635E+02  0.59467890774E+02  0.13336872172E+03  0.16046834414E+03  0.00000000000E+00 0.  1.
         11    1    4    4    0    0  0.24216628444E+02  0.39667266127E+02  0.26607127711E+02  0.53552556804E+02  0.00000000000E+00 0. -1.
         21    1    1    2  503  502  0.19590687890E+03 -0.10863644715E+03 -0.37311278242E+03  0.43519481988E+03  0.00000000000E+00 0. -1.
          1    1    1    2  501    0 -0.19591683344E+02 -0.35170340167E+02  0.74869338349E+02  0.85007086225E+02  0.00000000000E+00 0. -1.
<scales pt_clust_5="13000.00000" pt_clust_6="13000.00000" pt_clust_7="13000.00000" pt_clust_8="13000.00000" pt_clust_9="198.75731" pt_clust_10="40.25900"></scales>
<clustering>
<clus scale="   40.259">  1 10  2 -1</clus>
<clus scale="   81.146">  5  6 -1 -1</clus>
<clus scale="   92.706">  7  8 -1 -1</clus>
<clus scale="  132.162">  1  7  2 -1</clus>
<clus scale="  198.757">  2  9  1 -1</clus>
<clus scale="   40.259">  1  5  2 -1</clus>
</clustering>
</event>
<event>
10    4  0.2857708E-005  0.1695694E+03  0.7546771E-02  0.1214818E+00
          2   -1    0    0  503    0 -0.00000000000E+00  0.00000000000E+00  0.15730371214E+03  0.15730371214E+03  0.00000000000E+00 0. -1.
         21   -1    0    0  501  502  0.00000000000E+00 -0.00000000000E+00 -0.62693190967E+03  0.62693190967E+03  0.00000000000E+00 0. -1.
         24    2    1    2    0    0  0.71343821877E+01 -0.68535297116E+01  0.51705576894E+02  0.92396444882E+02  0.75932641638E+02 0.  0.
         23    2    1    2    0    0  0.36069326216E+02 -0.16644273403E+03 -0.28267988890E+03  0.34257012619E+03  0.91881400535E+02 0.  0.
        -13    1    3    3    0    0  0.35352266724E+02  0.12671163705E+02  0.42810608583E+02  0.56948128674E+02  0.00000000000E+00 0.  1.
         14    1    3    3    0    0 -0.28217884536E+02 -0.19524693417E+02  0.88949683113E+01  0.35448316208E+02  0.00000000000E+00 0. -1.
        -11    1    4    4    0    0  0.27375266659E+01 -0.15917986518E+03 -0.23845446688E+03  0.28671633421E+03  0.00000000000E+00 0. -1.
         11    1    4    4    0    0  0.33331799550E+02 -0.72628688517E+01 -0.44225422025E+02  0.55853791979E+02  0.00000000000E+00 0.  1.
         21    1    1    2  503  502 -0.19688142747E+02  0.13688113717E+03 -0.37202226790E+02  0.14320640473E+03  0.00000000000E+00 0.  1.
          1    1    1    2  501    0 -0.23515565657E+02  0.36415126572E+02 -0.20145165873E+03  0.20606264600E+03  0.00000000000E+00 0. -1.
<scales pt_clust_5="13000.00000" pt_clust_6="13000.00000" pt_clust_7="13000.00000" pt_clust_8="13000.00000" pt_clust_9="142.51879" pt_clust_10="43.34793"></scales>
<clustering>
<clus scale="   43.348">  2 10  1 -1</clus>
<clus scale="   75.933">  5  6 -1 -1</clus>
<clus scale="   76.340">  1  5  2 -1</clus>
<clus scale="   91.881">  7  8 -1 -1</clus>
<clus scale="  142.519">  1  9  2 -1</clus>
<clus scale="   43.348">  2  5  1 -1</clus>
</clustering>
</event>
<event>
10    4  0.2857708E-005  0.9740106E+02  0.7546771E-02  0.1293139E+00
         21   -1    0    0  501  502  0.00000000000E+00  0.00000000000E+00  0.64119289398E+03  0.64119289398E+03  0.00000000000E+00 0. -1.
          2   -1    0    0  503    0 -0.00000000000E+00 -0.00000000000E+00 -0.62625623624E+02  0.62625623624E+02  0.00000000000E+00 0. -1.
         24    2    1    2    0    0 -0.71816717626E+01  0.18704528445E+02  0.29434248349E+02  0.88830452801E+02  0.81382053152E+02 0.  0.
         23    2    1    2    0    0 -0.65731100537E+01 -0.37881874209E+01  0.14383135247E+03  0.17214570972E+03  0.94282189629E+02 0.  0.
        -11    1    3    3    0    0 -0.23529605499E+02 -0.26508723150E+02  0.16149969629E+02  0.38950946805E+02  0.00000000000E+00 0.  1.
         12    1    3    3    0    0  0.16347933736E+02  0.45213251595E+02  0.13284278721E+02  0.49879505996E+02  0.00000000000E+00 0. -1.
        -11    1    4    4    0    0  0.15391062865E+02 -0.21479041602E+02  0.14138952374E+03  0.14383751760E+03  0.00000000000E+00 0.  1.
         11    1    4    4    0    0 -0.21964172918E+02  0.17690854181E+02  0.24418287273E+01  0.28308192121E+02  0.00000000000E+00 0. -1.
         21    1    1    2  503  502 -0.15551255215E+02  0.27899502050E+02 -0.22322698614E+01  0.32018850418E+02  0.00000000000E+00 0. -1.
          1    1    1    2  501    0  0.29306037031E+02 -0.42815843074E+02  0.40753393940E+03  0.41082350467E+03  0.00000000000E+00 0. -1.
<scales pt_clust_5="13000.00000" pt_clust_6="13000.00000" pt_clust_7="13000.00000" pt_clust_8="13000.00000" pt_clust_9="31.94094" pt_clust_10="50.73520"></scales>
<clustering>
<clus scale="   31.941">  2  9  1 -1</clus>
<clus scale="   50.735">  1 10  2 -1</clus>
<clus scale="   81.382">  5  6 -1 -1</clus>
<clus scale="   84.976">  2  5  1 -1</clus>
<clus scale="   94.282">  7  8 -1 -1</clus>
<clus scale="   50.735">  1  5  2 -1</clus>
</clustering>
</event>
<event>
10    4  0.2857708E-005  0.9387947E+02  0.7546771E-02  0.1298067E+00
         21   -1    0    0  501  502  0.00000000000E+00  0.00000000000E+00  0.40044346806E+02  0.40044346806E+02  0.00000000000E+00 0. -1.
          2   -1    0    0  503    0 -0.00000000000E+00 -0.00000000000E+00 -0.82532737301E+03  0.82532737301E+03  0.00000000000E+00 0. -1.
         23    2    1    2    0    0  0.14973915416E+02  0.20629088543E+02 -0.17879905056E+03  0.20122591961E+03  0.88729886757E+02 0.  0.
         24    2    1    2    0    0 -0.59781266928E+02 -0.12445874285E+02 -0.10188283588E+03  0.14376595728E+03  0.80992830317E+02 0.  0.
        -13    1    4    4    0    0 -0.24366074251E+02  0.13813817139E+02  0.47213316096E+01  0.28404543484E+02  0.00000000000E+00 0.  1.
         14    1    4    4    0    0 -0.35415192677E+02 -0.26259691424E+02 -0.10660416749E+03  0.11536141380E+03  0.00000000000E+00 0. -1.
        -11    1    3    3    0    0 -0.88738910245E+01  0.48999171241E+02 -0.67237274776E+02  0.83669085351E+02  0.00000000000E+00 0. -1.
         11    1    3    3    0    0  0.23847806441E+02 -0.28370082698E+02 -0.11156177579E+03  0.11755683426E+03  0.00000000000E+00 0.  1.
         21    1    1    2  503  502 -0.25860217763E+02 -0.34973953199E+02 -0.10428823769E+03  0.11299541931E+03  0.00000000000E+00 0.  1.
          1    1    1    2  501    0  0.70667569275E+02  0.26790738941E+02 -0.40031290208E+03  0.40738442362E+03  0.00000000000E+00 0. -1.
<scales pt_clust_5="13000.00000" pt_clust_6="13000.00000" pt_clust_7="13000.00000" pt_clust_8="13000.00000" pt_clust_9="43.49630" pt_clust_10="56.54091"></scales>
<clustering>
<clus scale="   43.496">  2  9  1 -1</clus>
<clus scale="   56.541">  1 10  2 -1</clus>
<clus scale="   80.993">  5  6 -1 -1</clus>
<clus scale="   86.604">  1  5  2 -1</clus>
<clus scale="   88.730">  7  8 -1 -1</clus>
<clus scale="   56.541">  1  5  2 -1</clus>
</clustering>
</event>
<event>
10    4  0.2857708E-005  0.1987692E+03  0.7546771E-02  0.1189895E+00
          2   -1    0    0  503    0 -0.00000000000E+00  0.00000000000E+00  0.35461027921E+03  0.35461027921E+03  0.00000000000E+00 0. -1.
         21   -1    0    0  501  502  0.00000000000E+00 -0.00000000000E+00 -0.55363144843E+03  0.55363144843E+03  0.00000000000E+00 0. -1.
         24    2    1    2    0    0 -0.43733198468E+01 -0.17371698647E+02 -0.59123193338E+02  0.10139828189E+03  0.80406204603E+02 0.  0.
         23    2    1    2    0    0 -0.21564588417E+03 -0.94825036132E+01  0.43396189203E+02  0.23887754745E+03  0.92661686839E+02 0.  0.
        -13    1    3    3    0    0 -0.28486263155E+02 -0.19636785675E+02 -0.67434831184E+02  0.75792657936E+02  0.00000000000E+00 0.  1.
         14    1    3    3    0    0  0.24112943308E+02  0.22650870277E+01  0.83116378461E+01  0.25605623951E+02  0.00000000000E+00 0. -1.
        -11    1    4    4    0    0 -0.12412927088E+03 -0.42615055726E+02 -0.25109617967E+01  0.13126470886E+03  0.00000000000E+00 0.  1.
         11    1    4    4    0    0 -0.91516613288E+02  0.33132552112E+02  0.45907150999E+02  0.10761283859E+03  0.00000000000E+00 0. -1.
         21    1    1    2  503  502  0.50798383989E+02  0.48751144717E+02  0.16539973647E+03  0.17976157196E+03  0.00000000000E+00 0.  1.
          1    1    1    2  501    0  0.16922082002E+03 -0.21896942457E+02 -0.34869390155E+03  0.38820432635E+03  0.00000000000E+00 0. -1.
<scales pt_clust_5="13000.00000" pt_clust_6="13000.00000" pt_clust_7="13000.00000" pt_clust_8="13000.00000" pt_clust_9="70.40703" pt_clust_10="175.84935"></scales>
<clustering>
<clus scale="   70.407">  1  9  2 -1</clus>
<clus scale="   80.406">  5  6 -1 -1</clus>
<clus scale="   81.269">  1  5  2 -1</clus>
<clus scale="   92.662">  7  8 -1 -1</clus>
<clus scale="  175.849">  2 10  1 -1</clus>
<clus scale="  175.849">  2  5  1 -1</clus>
</clustering>
</event>
<event>
10    4  0.2857708E-005  0.2947945E+03  0.7546771E-02  0.1131757E+00
         21   -1    0    0  501  502  0.00000000000E+00  0.00000000000E+00  0.85754093710E+02  0.85754093710E+02  0.00000000000E+00 0. -1.
          2   -1    0    0  503    0 -0.00000000000E+00 -0.00000000000E+00 -0.17768158403E+04  0.17768158403E+04  0.00000000000E+00 0. -1.
         24    2    1    2    0    0 -0.35321730941E+01 -0.54356456217E+02 -0.43217711902E+03  0.44334494927E+03  0.82526245878E+02 0.  0.
         23    2    1    2    0    0 -0.13332437778E+03 -0.23248673501E+03 -0.33912925821E+03  0.44213034113E+03  0.92979100401E+02 0.  0.
        -11    1    3    3    0    0  0.60848396923E+01  0.21470042780E+02 -0.10758615578E+03  0.10987615267E+03  0.00000000000E+00 0.  1.
         12    1    3    3    0    0 -0.96170127864E+01 -0.75826498997E+02 -0.32459096324E+03  0.33346879660E+03  0.00000000000E+00 0. -1.
        -11    1    4    4    0    0 -0.99976307868E+02 -0.13568577379E+03 -0.14361136651E+03  0.22142745072E+03  0.00000000000E+00 0. -1.
         11    1    4    4    0    0 -0.33348069909E+02 -0.96800961219E+02 -0.19551789170E+03  0.22070289041E+03  0.00000000000E+00 0.  1.
         21    1    1    2  503  502 -0.12320462727E+02  0.19943865780E+02 -0.82028845059E+02  0.85312853697E+02  0.00000000000E+00 0.  1.
          1    1    1    2  501    0  0.14917701360E+03  0.26689932544E+03 -0.83772652431E+03  0.89178178992E+03  0.00000000000E+00 0. -1.
<scales pt_clust_5="13000.00000" pt_clust_6="13000.00000" pt_clust_7="13000.00000" pt_clust_8="13000.00000" pt_clust_9="23.44252" pt_clust_10="279.74769"></scales>
<clustering>
<clus scale="   23.443">  2  9  1 -1</clus>
<clus scale="   82.526">  5  6 -1 -1</clus>
<clus scale="   92.979">  7  8 -1 -1</clus>
<clus scale="   96.314">  2  5  1 -1</clus>
<clus scale="  279.748">  1 10  2 -1</clus>
<clus scale="  279.748">  1  5  2 -1</clus>
</clustering>
</event>
<event>
10    4  0.2857708E-005  0.1876140E+03  0.7546771E-02  0.1185698E+00
         -3   -1    0    0    0  501 -0.00000000000E+00  0.00000000000E+00  0.26683017240E+03  0.26683017240E+03  0.00000000000E+00 0.  1.
         21   -1    0    0  503  502  0.00000000000E+00 -0.00000000000E+00 -0.32464064638E+03  0.32464064638E+03  0.00000000000E+00 0. -1.
         24    2    1    2    0    0  0.72257024962E+02 -0.19088071666E+02  0.22164952166E+02  0.11389648786E+03  0.83040307717E+02 0.  0.
         23    2    1    2    0    0  0.10595857872E+03 -0.10664153460E+03 -0.11980940667E+03  0.21293939055E+03  0.91592864437E+02 0.  0.
        -11    1    3    3    0    0  0.59154288573E+02  0.17434246659E+02 -0.11252598905E+02  0.62688147168E+02  0.00000000000E+00 0.  1.
         12    1    3    3    0    0  0.13102736389E+02 -0.36522318325E+02  0.33417551071E+02  0.51208340691E+02  0.00000000000E+00 0. -1.
        -11    1    4    4    0    0  0.66741520006E+02 -0.58262808651E+02 -0.13339602367E+02  0.89593137884E+02  0.00000000000E+00 0. -1.
         11    1    4    4    0    0  0.39217058709E+02 -0.48378725944E+02 -0.10646980430E+03  0.12334625266E+03  0.00000000000E+00 0.  1.
         21    1    1    2  503  501 -0.21451227736E+02  0.19475373864E+02  0.67301214061E+02  0.73272769653E+02  0.00000000000E+00 0.  1.
         -4    1    1    2    0  502 -0.15676437594E+03  0.10625423240E+03 -0.27467233535E+02  0.19136217072E+03  0.00000000000E+00 0.  1.
<scales pt_clust_5="13000.00000" pt_clust_6="13000.00000" pt_clust_7="13000.00000" pt_clust_8="13000.00000" pt_clust_9="28.97318" pt_clust_10="163.73698"></scales>
<clustering>
<clus scale="   28.973">  1  9  2 -1</clus>
<clus scale="   83.040">  5  6 -1 -1</clus>
<clus scale="   91.593">  7  8 -1 -1</clus>
<clus scale="  106.072">  1  5  2 -1</clus>
<clus scale="  163.737">  2 10  1 -1</clus>
<clus scale="  163.737">  2  5  1 -1</clus>
</clustering>
</event>
<event>
10    4  0.2857708E-005  0.9885241E+02  0.7546771E-02  0.1286926E+00
          2   -1    0    0  503    0 -0.00000000000E+00  0.00000000000E+00  0.69627010042E+03  0.69627010042E+03  0.00000000000E+00 0. -1.
         21   -1    0    0  501  502  0.00000000000E+00 -0.00000000000E+00 -0.71232179786E+02  0.71232179786E+02  0.00000000000E+00 0. -1.
         24    2    1    2    0    0  0.15471482537E+02 -0.33114584524E+02  0.50853772214E+03  0.51641521453E+03  0.82086030955E+02 0.  0.
         23    2    1    2    0    0 -0.24275186407E+00  0.56782330069E+02  0.62625679431E+02  0.12376273595E+03  0.90393291502E+02 0.  0.
        -11    1    3    3    0    0 -0.28818089727E+02  0.25797567802E+01  0.10598186745E+03  0.10986033711E+03  0.00000000000E+00 0.  1.
         12    1    3    3    0    0  0.44289572265E+02 -0.35694341304E+02  0.40255585469E+03  0.40655487742E+03  0.00000000000E+00 0. -1.
        -11    1    4    4    0    0 -0.44098710572E+02  0.37457146107E+02  0.25939745618E+02  0.63408236620E+02  0.00000000000E+00 0.  1.
         11    1    4    4    0    0  0.43855958708E+02  0.19325183962E+02  0.36685933813E+02  0.60354499328E+02  0.00000000000E+00 0. -1.
         21    1    1    2  503  502 -0.22257272047E+02 -0.47320182265E+01  0.86230103192E+02  0.89181886344E+02  0.00000000000E+00 0.  1.
          1    1    1    2  501    0  0.70285413739E+01 -0.18935727319E+02 -0.32355584129E+02  0.38142443384E+02  0.00000000000E+00 0. -1.
<scales pt_clust_5="13000.00000" pt_clust_6="13000.00000" pt_clust_7="13000.00000" pt_clust_8="13000.00000" pt_clust_9="22.64911" pt_clust_10="20.19807"></scales>
<clustering>
<clus scale="   20.198">  2 10  1 -1</clus>
<clus scale="   22.649">  1  9  2 -1</clus>
<clus scale="   82.086">  5  6 -1 -1</clus>
<clus scale="   90.393">  7  8 -1 -1</clus>
<clus scale="   91.318">  1  5  2 -1</clus>
<clus scale="   20.198">  2  5  1 -1</clus>
</clustering>
</event>
<event>
10    4  0.2857708E-005  0.1639595E+03  0.7546771E-02  0.1187863E+00
         21   -1    0    0  501  502  0.00000000000E+00  0.00000000000E+00  0.71432367413E+03  0.71432367413E+03  0.00000000000E+00 0.  1.
          2   -1    0    0  503    0 -0.00000000000E+00 -0.00000000000E+00 -0.48785398554E+03  0.48785398554E+03  0.00000000000E+00 0. -1.
         23    2    1    2    0    0  0.12052321494E+03  0.54853028933E+01  0.17369531651E+03  0.23045481156E+03  0.91561035946E+02 0.  0.
         24    2    1    2    0    0 -0.10977602196E+03 -0.88279997952E+02  0.38284086922E+03  0.41571909508E+03  0.80069356396E+02 0.  0.
        -11    1    4    4    0    0 -0.94492287214E+02 -0.31649245434E+02  0.28161357896E+03  0.29872508253E+03  0.00000000000E+00 0.  1.
         12    1    4    4    0    0 -0.15283734743E+02 -0.56630752518E+02  0.10122729026E+03  0.11699401254E+03  0.00000000000E+00 0. -1.
        -11    1    3    3    0    0  0.79544713141E+02  0.11880968770E+02  0.17090833738E+03  0.18888668188E+03  0.00000000000E+00 0.  1.
         11    1    3    3    0    0  0.40978501800E+02 -0.63956658769E+01  0.27869791343E+01  0.41568129673E+02  0.00000000000E+00 0. -1.
         21    1    1    2  503  502 -0.57702797868E+02 -0.15514154605E+03 -0.26787787137E+02  0.16767855478E+03  0.00000000000E+00 0.  1.
          1    1    1    2  501    0  0.46955604883E+02  0.23793624111E+03 -0.30327871000E+03  0.38832519826E+03  0.00000000000E+00 0. -1.
<scales pt_clust_5="13000.00000" pt_clust_6="13000.00000" pt_clust_7="13000.00000" pt_clust_8="13000.00000" pt_clust_9="157.31108" pt_clust_10="143.07908"></scales>
<clustering>
<clus scale="   80.069">  5  6 -1 -1</clus>
<clus scale="   91.561">  7  8 -1 -1</clus>
<clus scale="  151.458">  2  7  1 -1</clus>
<clus scale="  157.311">  2  9  1 -1</clus>
<clus scale="  143.079">  1 10  2 -1</clus>
<clus scale="  143.079">  1  5  2 -1</clus>
</clustering>
</event>
<event>
10    4  0.2857708E-005  0.9308540E+02  0.7546771E-02  0.1302019E+00
         21   -1    0    0  501  502  0.00000000000E+00  0.00000000000E+00  0.43407756911E+03  0.43407756911E+03  0.00000000000E+00 0.  1.
          2   -1    0    0  503    0 -0.00000000000E+00 -0.00000000000E+00 -0.18728095528E+03  0.18728095528E+03  0.00000000000E+00 0. -1.
         23    2    1    2    0    0  0.11798649383E+02  0.19837545353E+02 -0.56128330100E+02  0.11026985006E+03  0.92066899914E+02 0.  0.
         24    2    1    2    0    0  0.47523627273E+02  0.52774183322E+02  0.17666364655E+03  0.20709266833E+03  0.81447649995E+02 0.  0.
        -13    1    4    4    0    0  0.16848183917E+02  0.61998021939E+02  0.15667366343E+03  0.16933473607E+03  0.00000000000E+00 0.  1.
         14    1    4    4    0    0  0.30675443356E+02 -0.92238386168E+01  0.19989983122E+02  0.37757932268E+02  0.00000000000E+00 0. -1.
        -11    1    3    3    0    0  0.12356126556E+02  0.45562385758E+02 -0.67309838171E+02  0.82214470588E+02  0.00000000000E+00 0.  1.
         11    1    3    3    0    0 -0.55747717326E+00 -0.25724840405E+02  0.11181508070E+02  0.28055379473E+02  0.00000000000E+00 0. -1.
         21    1    1    2  503  502 -0.18267638523E+02 -0.29173554175E+02 -0.81148056307E+02  0.88146525302E+02  0.00000000000E+00 0. -1.
          1    1    1    2  501    0 -0.41054638133E+02 -0.43438174500E+02  0.20740935369E+03  0.21584948069E+03  0.00000000000E+00 0. -1.
<scales pt_clust_5="13000.00000" pt_clust_6="13000.00000" pt_clust_7="13000.00000" pt_clust_8="13000.00000" pt_clust_9="34.42097" pt_clust_10="61.15757"></scales>
<clustering>
<clus scale="   34.421">  2  9  1 -1</clus>
<clus scale="   61.158">  1 10  2 -1</clus>
<clus scale="   81.448">  5  6 -1 -1</clus>
<clus scale="   82.597">  1  5  2 -1</clus>
<clus scale="   92.067">  7  8 -1 -1</clus>
<clus scale="   61.158">  1  5  2 -1</clus>
</clustering>
</event>
<event>
10    4  0.2857708E-005  0.1078677E+03  0.7546771E-02  0.1269810E+00
          4   -1    0    0  503    0 -0.00000000000E+00  0.00000000000E+00  0.47096378042E+03  0.47096378042E+03  0.00000000000E+00 0. -1.
         21   -1    0    0  501  502  0.00000000000E+00 -0.00000000000E+00 -0.30056984425E+03  0.30056984425E+03  0.00000000000E+00 0. -1.
         23    2    1    2    0    0 -0.30998951183E+02 -0.62144902756E+01  0.77543613201E+02  0.12338062142E+03  0.90610214268E+02 0.  0.
         24    2    1    2    0    0 -0.70106875520E+02 -0.33094817245E+01 -0.23092108277E+03  0.26192337272E+03  0.10175156040E+03 0.  0.
        -11    1    4    4    0    0 -0.31450215322E+02 -0.71466672809E+01 -0.49405233760E+01  0.32628203571E+02  0.00000000000E+00 0.  1.
         12    1    4    4    0    0 -0.38656660199E+02  0.38371855564E+01 -0.22598055940E+03  0.22929516915E+03  0.00000000000E+00 0. -1.
        -11    1    3    3    0    0 -0.19508475698E+02  0.39946567444E+02  0.20074945920E+02  0.48778195214E+02  0.00000000000E+00 0.  1.
         11    1    3    3    0    0 -0.11490475485E+02 -0.46161057720E+02  0.57468667280E+02  0.74602426205E+02  0.00000000000E+00 0. -1.
         21    1    1    2  503  502  0.74151825312E+02 -0.22305227975E+02  0.33435060990E+03  0.34320015549E+03  0.00000000000E+00 0. -1.
          3    1    1    2  501    0  0.26954001391E+02  0.31829199975E+02 -0.10579204155E+02  0.43029475044E+02  0.00000000000E+00 0. -1.
<scales pt_clust_5="13000.00000" pt_clust_6="13000.00000" pt_clust_7="13000.00000" pt_clust_8="13000.00000" pt_clust_9="77.70540" pt_clust_10="41.70871"></scales>
<clustering>
<clus scale="   41.709">  2 10  1 -1</clus>
<clus scale="   77.705">  1  9  2 -1</clus>
<clus scale="   90.610">  7  8 -1 -1</clus>
<clus scale="   97.428">  1  7  2 -1</clus>
<clus scale="  101.752">  5  6 -1 -1</clus>
<clus scale="   41.709">  2  5  1 -1</clus>
</clustering>
</event>
<event>
10    4  0.2857708E-005  0.1806605E+03  0.7546771E-02  0.1168996E+00
          2   -1    0    0  503    0 -0.00000000000E+00  0.00000000000E+00  0.15694585385E+04  0.15694585385E+04  0.00000000000E+00 0. -1.
         21   -1    0    0  501  502  0.00000000000E+00 -0.00000000000E+00 -0.44962621729E+02  0.44962621729E+02  0.00000000000E+00 0. -1.
         23    2    1    2    0    0 -0.10394882350E+03  0.10173342126E+02  0.43199660547E+03  0.45319026954E+03  0.88608681685E+02 0.  0.
         24    2    1    2    0    0  0.20853410093E+03 -0.91304274639E+02  0.74299806784E+03  0.78380539556E+03  0.10238079644E+03 0.  0.
        -13    1    4    4    0    0  0.71598568357E+02 -0.47700651063E+02  0.14342121715E+03  0.16724638302E+03  0.00000000000E+00 0.  1.
         14    1    4    4    0    0  0.13693553257E+03 -0.43603623576E+02  0.59957685069E+03  0.61655901254E+03  0.00000000000E+00 0. -1.
        -11    1    3    3    0    0 -0.84346995355E+02 -0.28693487408E+02  0.33896638179E+03  0.35047958546E+03  0.00000000000E+00 0. -1.
         11    1    3    3    0    0 -0.19601828149E+02  0.38866829534E+02  0.93030223685E+02  0.10271068408E+03  0.00000000000E+00 0.  1.
         21    1    1    2  503  502 -0.13395407421E+02  0.16736051353E+02  0.12360929631E+03  0.12545433627E+03  0.00000000000E+00 0. -1.
          1    1    1    2  501    0 -0.91189870001E+02  0.64394881159E+02  0.22589194718E+03  0.25197115888E+03  0.00000000000E+00 0. -1.
<scales pt_clust_5="13000.00000" pt_clust_6="13000.00000" pt_clust_7="13000.00000" pt_clust_8="13000.00000" pt_clust_9="21.43671" pt_clust_10="115.04459"></scales>
<clustering>
<clus scale="   21.437">  1  9  2 -1</clus>
<clus scale="   88.609">  7  8 -1 -1</clus>
<clus scale="  102.381">  5  6 -1 -1</clus>
<clus scale="  115.045">  2 10  1 -1</clus>
<clus scale="  173.228">  1  7  2 -1</clus>
<clus scale="  115.045">  2  5  1 -1</clus>
</clustering>
</event>
<event>
10    4  0.2857708E-005  0.2846219E+03  0.7546771E-02  0.1093692E+00
         21   -1    0    0  501  502  0.00000000000E+00  0.00000000000E+00  0.10285820412E+04  0.10285820412E+04  0.00000000000E+00 0.  1.
          2   -1    0    0  503    0 -0.00000000000E+00 -0.00000000000E+00 -0.10057411862E+04  0.10057411862E+04  0.00000000000E+00 0. -1.
         24    2    1    2    0    0 -0.20749610601E+03 -0.22940307395E+03 -0.37665726932E+03  0.49397443384E+03  0.80371875725E+02 0.  0.
         23    2    1    2    0    0  0.13257604227E+03  0.27839153316E+03  0.92068367534E+03  0.97534618060E+03  0.92539122788E+02 0.  0.
        -11    1    3    3    0    0 -0.98673600640E+01 -0.39034076769E+02 -0.23075133906E+02  0.46405665049E+02  0.00000000000E+00 0.  1.
         12    1    3    3    0    0 -0.19762874595E+03 -0.19036899718E+03 -0.35358213541E+03  0.44756876879E+03  0.00000000000E+00 0. -1.
        -13    1    4    4    0    0  0.52521378555E+02  0.79029113725E+02  0.41878581693E+03  0.42940150964E+03  0.00000000000E+00 0. -1.
         13    1    4    4    0    0  0.80054663713E+02  0.19936241944E+03  0.50189785841E+03  0.54594467096E+03  0.00000000000E+00 0.  1.
         21    1    1    2  503  502  0.41999769477E+02  0.72755546004E+02 -0.13761124225E+03  0.16122718165E+03  0.00000000000E+00 0. -1.
          1    1    1    2  501    0  0.32920294269E+02 -0.12174400522E+03 -0.38357430875E+03  0.40377543129E+03  0.00000000000E+00 0. -1.
<scales pt_clust_5="13000.00000" pt_clust_6="13000.00000" pt_clust_7="13000.00000" pt_clust_8="13000.00000" pt_clust_9="84.00804" pt_clust_10="102.58696"></scales>
<clustering>
<clus scale="   80.372">  5  6 -1 -1</clus>
<clus scale="   84.008">  2  9  1 -1</clus>
<clus scale="   92.539">  7  8 -1 -1</clus>
<clus scale="  102.587">  1 10  2 -1</clus>
<clus scale="  280.902">  2  5  1 -1</clus>
<clus scale="  102.587">  1  5  2 -1</clus>
</clustering>
</event>
<event>
10    4  0.2857708E-005  0.1003762E+03  0.7546771E-02  0.1284671E+00
         21   -1    0    0  501  502  0.00000000000E+00  0.00000000000E+00  0.21413622970E+03  0.21413622970E+03  0.00000000000E+00 0.  1.
          2   -1    0    0  503    0 -0.00000000000E+00 -0.00000000000E+00 -0.13947483876E+03  0.13947483876E+03  0.00000000000E+00 0. -1.
         24    2    1    2    0    0 -0.42781070931E+02  0.55729115718E+02 -0.58978996181E+01  0.10681147361E+03  0.80236845069E+02 0.  0.
         23    2    1    2    0    0  0.19998096768E+02  0.28016201111E+02  0.93964564143E+02  0.13507225573E+03  0.90721240919E+02 0.  0.
        -13    1    3    3    0    0 -0.64106469099E+02  0.48368935335E+02  0.73615886168E+01  0.80643575521E+02  0.00000000000E+00 0.  1.
         14    1    3    3    0    0  0.21325398168E+02  0.73601803831E+01 -0.13259488235E+02  0.26167898092E+02  0.00000000000E+00 0. -1.
        -13    1    4    4    0    0  0.28851593846E+02  0.55843365827E+02  0.82462931286E+02  0.10368717862E+03  0.00000000000E+00 0.  1.
         13    1    4    4    0    0 -0.88534970776E+01 -0.27827164715E+02  0.11501632857E+02  0.31385077106E+02  0.00000000000E+00 0. -1.
         21    1    1    2  503  502  0.23964576395E+02  0.29996942272E+01 -0.36933272607E+01  0.24432350552E+02  0.00000000000E+00 0. -1.
          1    1    1    2  501    0 -0.11816022320E+01 -0.86745011056E+02 -0.97119463276E+01  0.87294988564E+02  0.00000000000E+00 0. -1.
<scales pt_clust_5="13000.00000" pt_clust_6="13000.00000" pt_clust_7="13000.00000" pt_clust_8="13000.00000" pt_clust_9="24.15159" pt_clust_10="85.96612"></scales>
<clustering>
<clus scale="   24.152">  2  9  1 -1</clus>
<clus scale="   80.237">  5  6 -1 -1</clus>
<clus scale="   85.966">  1 10  2 -1</clus>
<clus scale="   90.721">  7  8 -1 -1</clus>
<clus scale="   91.011">  2  5  1 -1</clus>
<clus scale="   85.966">  1  5  2 -1</clus>
</clustering>
</event>
<event>
10    4  0.2857708E-005  0.9960574E+02  0.7546771E-02  0.1283459E+00
          2   -1    0    0  503    0 -0.00000000000E+00  0.00000000000E+00  0.74582750920E+03  0.74582750920E+03  0.00000000000E+00 0. -1.
         21   -1    0    0  501  502  0.00000000000E+00 -0.00000000000E+00 -0.31876654438E+02  0.31876654438E+02  0.00000000000E+00 0.  1.
         24    2    1    2    0    0 -0.32022170977E+02  0.44772020219E+01  0.40939395584E+03  0.41862370128E+03  0.81221471405E+02 0.  0.
         23    2    1    2    0    0  0.65030733978E+02  0.17088607336E+02  0.15745442937E+03  0.19170127791E+03  0.86234945129E+02 0.  0.
        -11    1    3    3    0    0  0.22736530128E+02  0.12165968043E+02  0.66957089971E+02  0.71751045135E+02  0.00000000000E+00 0.  1.
         12    1    3    3    0    0 -0.54758701105E+02 -0.76887660210E+01  0.34243686587E+03  0.34687265614E+03  0.00000000000E+00 0. -1.
        -13    1    4    4    0    0  0.41432502774E+02  0.52442795425E+02  0.97439922570E+02  0.11815852736E+03  0.00000000000E+00 0. -1.
         13    1    4    4    0    0  0.23598231204E+02 -0.35354188090E+02  0.60014506796E+02  0.73542750543E+02  0.00000000000E+00 0.  1.
         21    1    1    2  503  502 -0.21028112325E+02 -0.14821473427E+01  0.14185415918E+03  0.14341192679E+03  0.00000000000E+00 0. -1.
          1    1    1    2  501    0 -0.11980450676E+02 -0.20083662015E+02  0.52483103742E+01  0.23967257668E+02  0.00000000000E+00 0. -1.
<scales pt_clust_5="13000.00000" pt_clust_6="13000.00000" pt_clust_7="13000.00000" pt_clust_8="13000.00000" pt_clust_9="21.08028" pt_clust_10="23.68098"></scales>
<clustering>
<clus scale="   21.080">  1  9  2 -1</clus>
<clus scale="   23.681">  2 10  1 -1</clus>
<clus scale="   81.221">  5  6 -1 -1</clus>
<clus scale="   86.235">  7  8 -1 -1</clus>
<clus scale="   95.298">  1  5  2 -1</clus>
<clus scale="   23.681">  2  5  1 -1</clus>
</clustering>
</event>
<event>
10    4  0.2857708E-005  0.1592268E+03  0.7546771E-02  0.1191286E+00
         21   -1    0    0  503  502  0.00000000000E+00  0.00000000000E+00  0.65815274500E+03  0.65815274500E+03  0.00000000000E+00 0.  1.
         -3   -1    0    0    0  501 -0.00000000000E+00 -0.00000000000E+00 -0.22576865522E+03  0.22576865522E+03  0.00000000000E+00 0.  1.
         23    2    1    2    0    0 -0.10540409553E+03 -0.10165460807E+03  0.27411604420E+03  0.32375037730E+03  0.90724960300E+02 0.  0.
         24    2    1    2    0    0  0.11026877090E+03  0.47198752112E+02  0.30825427051E+03  0.34028122661E+03  0.79898021597E+02 0.  0.
        -11    1    4    4    0    0  0.46333098525E+02  0.35798604769E+02  0.23588899971E+03  0.24304714832E+03  0.00000000000E+00 0.  1.
         12    1    4    4    0    0  0.63935672379E+02  0.11400147343E+02  0.72365270798E+02  0.97234078284E+02  0.00000000000E+00 0. -1.
        -11    1    3    3    0    0 -0.75046314488E+02 -0.88793260463E+02  0.12367955487E+03  0.16974340846E+03  0.00000000000E+00 0.  1.
         11    1    3    3    0    0 -0.30357781039E+02 -0.12861347606E+02  0.15043648933E+03  0.15400696884E+03  0.00000000000E+00 0. -1.
         21    1    1    2  503  501  0.58531424090E+02 -0.20134411289E+02 -0.46334091074E+02  0.77318627249E+02  0.00000000000E+00 0.  1.
         -4    1    1    2    0  502 -0.63396099467E+02  0.74590267246E+02 -0.10365213386E+03  0.14257116907E+03  0.00000000000E+00 0.  1.
<scales pt_clust_5="13000.00000" pt_clust_6="13000.00000" pt_clust_7="13000.00000" pt_clust_8="13000.00000" pt_clust_9="61.89767" pt_clust_10="62.56785"></scales>
<clustering>
<clus scale="   61.898">  2  9  1 -1</clus>
<clus scale="   62.568">  1 10  2 -1</clus>
<clus scale="   79.898">  5  6 -1 -1</clus>
<clus scale="   90.725">  7  8 -1 -1</clus>
<clus scale="  153.316">  1  5  2 -1</clus>
<clus scale="   62.568">  1  5  2 -1</clus>
</clustering>
</event>
<event>
10    4  0.2857708E-005  0.2617809E+03  0.7546771E-02  0.1131972E+00
          2   -1    0    0  503    0 -0.00000000000E+00  0.00000000000E+00  0.45014161222E+03  0.45014161222E+03  0.00000000000E+00 0. -1.
         21   -1    0    0  501  502  0.00000000000E+00 -0.00000000000E+00 -0.65843924158E+03  0.65843924158E+03  0.00000000000E+00 0.  1.
         23    2    1    2    0    0  0.86472228745E+02 -0.31562083111E+02  0.48210498477E+02  0.14325466909E+03  0.98610529960E+02 0.  0.
         24    2    1    2    0    0 -0.30167920386E+03 -0.17394793362E+02 -0.50531595436E+03  0.59433174281E+03  0.81074570030E+02 0.  0.
        -13    1    4    4    0    0 -0.29119812586E+03  0.62100219729E+00 -0.48126856165E+03  0.56250881112E+03  0.00000000000E+00 0.  1.
         14    1    4    4    0    0 -0.10481077999E+02 -0.18015795560E+02 -0.24047392706E+02  0.31822931695E+02  0.00000000000E+00 0. -1.
        -13    1    3    3    0    0  0.24154166047E+02 -0.41254749976E+02  0.62403255662E+02  0.78610078554E+02  0.00000000000E+00 0.  1.
         13    1    3    3    0    0  0.62318062698E+02  0.96926668651E+01 -0.14192757185E+02  0.64644590539E+02  0.00000000000E+00 0. -1.
         21    1    1    2  503  502  0.16967385755E+03  0.29748845113E+02  0.26749279914E+03  0.31816129449E+03  0.00000000000E+00 0. -1.
          1    1    1    2  501    0  0.45533117561E+02  0.19208031360E+02 -0.18684972614E+02  0.52833147409E+02  0.00000000000E+00 0. -1.
<scales pt_clust_5="13000.00000" pt_clust_6="13000.00000" pt_clust_7="13000.00000" pt_clust_8="13000.00000" pt_clust_9="248.90992" pt_clust_10="49.41875"></scales>
<clustering>
<clus scale="   49.419">  2 10  1 -1</clus>
<clus scale="   81.075">  5  6 -1 -1</clus>
<clus scale="   98.611">  7  8 -1 -1</clus>
<clus scale="  136.822">  1  7  2 -1</clus>
<clus scale="  248.910">  1  9  2 -1</clus>
<clus scale="   49.419">  2  5  1 -1</clus>
</clustering>
</event>
<event>
10    4  0.2857708E-005  0.9340495E+02  0.7546771E-02  0.1297446E+00
         21   -1    0    0  501  502  0.00000000000E+00  0.00000000000E+00  0.59956799641E+03  0.59956799641E+03  0.00000000000E+00 0. -1.
          2   -1    0    0  503    0 -0.00000000000E+00 -0.00000000000E+00 -0.61959980995E+02  0.61959980995E+02  0.00000000000E+00 0. -1.
         23    2    1    2    0    0 -0.77349514164E+01 -0.18189986497E+02  0.28142632400E+02  0.97242745494E+02  0.90958444966E+02 0.  0.
         24    2    1    2    0    0 -0.20552726949E+02 -0.56255258378E+02  0.16805404920E+03  0.19578155288E+03  0.80629921964E+02 0.  0.
        -11    1    4    4    0    0 -0.28884200820E+02  0.71330174254E+01  0.90540491715E+02  0.95303502740E+02  0.00000000000E+00 0.  1.
         12    1    4    4    0    0  0.83314738709E+01 -0.63388275803E+02  0.77513557485E+02  0.10047805014E+03  0.00000000000E+00 0. -1.
        -13    1    3    3    0    0 -0.36395114303E+02  0.17412124803E+02  0.31829367929E+02  0.51389639987E+02  0.00000000000E+00 0. -1.
         13    1    3    3    0    0  0.28660162887E+02 -0.35602111300E+02 -0.36867355285E+01  0.45853105506E+02  0.00000000000E+00 0.  1.
         21    1    1    2  503  502  0.93535330673E+01 -0.21997207289E+02  0.16480596785E+02  0.29034045184E+02  0.00000000000E+00 0. -1.
          1    1    1    2  501    0  0.18934145298E+02  0.96442452164E+02  0.32493073703E+03  0.33946963385E+03  0.00000000000E+00 0. -1.
<scales pt_clust_5="13000.00000" pt_clust_6="13000.00000" pt_clust_7="13000.00000" pt_clust_8="13000.00000" pt_clust_9="23.90326" pt_clust_10="95.71684"></scales>
<clustering>
<clus scale="   23.903">  2  9  1 -1</clus>
<clus scale="   80.630">  5  6 -1 -1</clus>
<clus scale="   90.958">  7  8 -1 -1</clus>
<clus scale="   95.717">  1 10  2 -1</clus>
<clus scale="   95.717">  1  5  2 -1</clus>
<clus scale="   93.405">  1  5  2 -1</clus>
</clustering>
</event>
<event>
10    4  0.2857708E-005  0.1338122E+03  0.7546771E-02  0.1223395E+00
          2   -1    0    0  503    0 -0.00000000000E+00  0.00000000000E+00  0.14916429681E+03  0.14916429681E+03  0.00000000000E+00 0. -1.
         21   -1    0    0  501  502  0.00000000000E+00 -0.00000000000E+00 -0.31838469141E+03  0.31838469141E+03  0.00000000000E+00 0. -1.
         23    2    1    2    0    0  0.87611603297E+02 -0.11339206079E+03  0.43806862560E+01  0.17014992802E+03  0.91641994255E+02 0.  0.
         24    2    1    2    0    0 -0.43304218428E+02  0.36024605909E+02 -0.41521531533E+02  0.11052161645E+03  0.85545090787E+02 0.  0.
        -11    1    4    4    0    0  0.94966007267E+01  0.24830851548E+02 -0.49279032411E+02  0.55992674962E+02  0.00000000000E+00 0.  1.
         12    1    4    4    0    0 -0.52800819155E+02  0.11193754361E+02  0.77575008788E+01  0.54528941490E+02  0.00000000000E+00 0. -1.
        -11    1    3    3    0    0  0.77302694704E+02 -0.38394200614E+02  0.28176576383E+02  0.90795047805E+02  0.00000000000E+00 0.  1.
         11    1    3    3    0    0  0.10308908593E+02 -0.74997860172E+02 -0.23795890127E+02  0.79354880213E+02  0.00000000000E+00 0. -1.
         21    1    1    2  503  502 -0.19014919689E+02 -0.15315602982E+02 -0.10991308291E+01  0.24440600525E+02  0.00000000000E+00 0.  1.
          1    1    1    2  501    0 -0.25292465180E+02  0.92683057858E+02 -0.13098041850E+03  0.16243684323E+03  0.00000000000E+00 0. -1.
<scales pt_clust_5="13000.00000" pt_clust_6="13000.00000" pt_clust_7="13000.00000" pt_clust_8="13000.00000" pt_clust_9="24.41587" pt_clust_10="94.98910"></scales>
<clustering>
<clus scale="   24.416">  1  9  2 -1</clus>
<clus scale="   85.545">  5  6 -1 -1</clus>
<clus scale="   91.642">  7  8 -1 -1</clus>
<clus scale="   94.989">  2 10  1 -1</clus>
<clus scale="  129.713">  2  5  1 -1</clus>
<clus scale="   94.989">  2  5  1 -1</clus>
</clustering>
</event>
<event>
10    4  0.2857708E-005  0.1058987E+03  0.7546771E-02  0.1273367E+00
         21   -1    0    0  501  502  0.00000000000E+00  0.00000000000E+00  0.27103684447E+02  0.27103684447E+02  0.00000000000E+00 0.  1.
          2   -1    0    0  503    0 -0.00000000000E+00 -0.00000000000E+00 -0.14930479327E+04  0.14930479327E+04  0.00000000000E+00 0. -1.
         24    2    1    2    0    0 -0.16875662753E+02 -0.75526881454E+02 -0.10836915131E+04  0.10894454520E+04  0.80715545948E+02 0.  0.
         23    2    1    2    0    0  0.18202525698E+02  0.27271643554E+02 -0.22350125484E+03  0.24395767253E+03  0.92127414961E+02 0.  0.
        -13    1    3    3    0    0  0.74095024969E+01 -0.55405670303E+02 -0.30274245672E+03  0.30785984494E+03  0.00000000000E+00 0.  1.
         14    1    3    3    0    0 -0.24285165250E+02 -0.20121211150E+02 -0.78094905643E+03  0.78158560704E+03  0.00000000000E+00 0. -1.
        -11    1    4    4    0    0  0.44398691953E+02 -0.13811957812E+02 -0.81519484180E+02  0.93847963892E+02  0.00000000000E+00 0.  1.
         11    1    4    4    0    0 -0.26196166255E+02  0.41083601366E+02 -0.14198177066E+03  0.15010970864E+03  0.00000000000E+00 0. -1.
         21    1    1    2  503  502  0.81400900428E+01  0.23571828585E+02 -0.15835740801E+03  0.16030895433E+03  0.00000000000E+00 0.  1.
          1    1    1    2  501    0 -0.94669529880E+01  0.24683409314E+02 -0.39407228654E+00  0.26439538332E+02  0.00000000000E+00 0. -1.
<scales pt_clust_5="13000.00000" pt_clust_6="13000.00000" pt_clust_7="13000.00000" pt_clust_8="13000.00000" pt_clust_9="24.93777" pt_clust_10="26.62917"></scales>
<clustering>
<clus scale="   24.938">  2  9  1 -1</clus>
<clus scale="   26.629">  1 10  2 -1</clus>
<clus scale="   80.716">  5  6 -1 -1</clus>
<clus scale="   92.127">  7  8 -1 -1</clus>
<clus scale="   96.136">  2  5  1 -1</clus>
<clus scale="   26.629">  1  5  2 -1</clus>
</clustering>
</event>
<event>
10    4  0.2857708E-005  0.1402984E+03  0.7546771E-02  0.1215433E+00
          2   -1    0    0  503    0 -0.00000000000E+00  0.00000000000E+00  0.11952326445E+03  0.11952326445E+03  0.00000000000E+00 0. -1.
         21   -1    0    0  501  502  0.00000000000E+00 -0.00000000000E+00 -0.46482992002E+03  0.46482992002E+03  0.00000000000E+00 0. -1.
         24    2    1    2    0    0  0.74540588257E+02  0.75948545161E+02 -0.18014729678E+02  0.13389370486E+03  0.79237067749E+02 0.  0.
         23    2    1    2    0    0  0.28461888570E+02 -0.12195730308E+03 -0.19435143289E+03  0.24843257548E+03  0.90898857073E+02 0.  0.
        -11    1    3    3    0    0  0.80119678575E+02  0.39493406960E+02  0.65778794190E+01  0.89566514870E+02  0.00000000000E+00 0.  1.
         12    1    3    3    0    0 -0.55790903187E+01  0.36455138201E+02 -0.24592609097E+02  0.44327189988E+02  0.00000000000E+00 0. -1.
        -13    1    4    4    0    0  0.10712490951E+02 -0.35588929927E+02 -0.24536779072E+01  0.37247146616E+02  0.00000000000E+00 0.  1.
         13    1    4    4    0    0  0.17749397620E+02 -0.86368373157E+02 -0.19189775498E+03  0.21118542887E+03  0.00000000000E+00 0. -1.
         21    1    1    2  503  502  0.88401605566E+01  0.21635288657E+02  0.38221458750E+01  0.23682123069E+02  0.00000000000E+00 0. -1.
          1    1    1    2  501    0 -0.11184263738E+03  0.24373469265E+02 -0.13676263887E+03  0.17834478106E+03  0.00000000000E+00 0. -1.
<scales pt_clust_5="13000.00000" pt_clust_6="13000.00000" pt_clust_7="13000.00000" pt_clust_8="13000.00000" pt_clust_9="23.37165" pt_clust_10="113.76539"></scales>
<clustering>
<clus scale="   23.372">  1  9  2 -1</clus>
<clus scale="   79.237">  5  6 -1 -1</clus>
<clus scale="   90.899">  7  8 -1 -1</clus>
<clus scale="  113.765">  2 10  1 -1</clus>
<clus scale="  133.040">  1  5  2 -1</clus>
<clus scale="  113.765">  2  5  1 -1</clus>
</clustering>
</event>
<event>
10    4  0.2857708E-005  0.1077367E+03  0.7546771E-02  0.1268495E+00
         21   -1    0    0  501  502  0.00000000000E+00  0.00000000000E+00  0.25074472687E+03  0.25074472687E+03  0.00000000000E+00 0.  1.
          4   -1    0    0  503    0 -0.00000000000E+00 -0.00000000000E+00 -0.22589610578E+03  0.22589610578E+03  0.00000000000E+00 0. -1.
         23    2    1    2    0    0  0.46695703521E+01 -0.49270354844E+02 -0.18266584666E+02  0.10767025879E+03  0.93860767947E+02 0.  0.
         24    2    1    2    0    0 -0.22382330404E+02 -0.68500320787E+02  0.15680984089E+03  0.19007565982E+03  0.79662836977E+02 0.  0.
        -11    1    4    4    0    0  0.18278398043E+02 -0.55791716344E+02  0.12073565297E+03  0.13425316884E+03  0.00000000000E+00 0.  1.
         12    1    4    4    0    0 -0.40660728448E+02 -0.12708604443E+02  0.36074187924E+02  0.55822490979E+02  0.00000000000E+00 0. -1.
        -13    1    3    3    0    0  0.27753513937E+02  0.15856391197E+02 -0.21460353045E+02  0.38499732862E+02  0.00000000000E+00 0. -1.
         13    1    3    3    0    0 -0.23083943584E+02 -0.65126746041E+02  0.31937683793E+01  0.69170525932E+02  0.00000000000E+00 0.  1.
         21    1    1    2  503  502 -0.40087793490E+01  0.44955787194E+02 -0.38071984024E+01  0.45294457428E+02  0.00000000000E+00 0. -1.
          3    1    1    2  501    0  0.21721539401E+02  0.72814888438E+02 -0.10988743673E+03  0.13360045660E+03  0.00000000000E+00 0. -1.
<scales pt_clust_5="13000.00000" pt_clust_6="13000.00000" pt_clust_7="13000.00000" pt_clust_8="13000.00000" pt_clust_9="45.13417" pt_clust_10="72.53301"></scales>
<clustering>
<clus scale="   45.134">  2  9  1 -1</clus>
<clus scale="   79.663">  5  6 -1 -1</clus>
<clus scale="   93.861">  7  8 -1 -1</clus>
<clus scale="  100.306">  2  7  1 -1</clus>
<clus scale="   72.533">  1 10  2 -1</clus>
<clus scale="   72.533">  1  5  2 -1</clus>
</clustering>
</event>
<event>
10    4  0.2857708E-005  0.1152617E+03  0.7546771E-02  0.1254538E+00
          2   -1    0    0  503    0 -0.00000000000E+00  0.00000000000E+00  0.37987081726E+03  0.37987081726E+03  0.00000000000E+00 0. -1.
         21   -1    0    0  501  502  0.00000000000E+00 -0.00000000000E+00 -0.30623710710E+03  0.30623710710E+03  0.00000000000E+00 0. -1.
         23    2    1    2    0    0 -0.80949733823E+02  0.32567552661E+02  0.91578489226E+02  0.15566117260E+03  0.90720869002E+02 0.  0.
         24    2    1    2    0    0  0.52742063509E+02 -0.49155419022E+02 -0.23340033240E+03  0.25732754424E+03  0.80893568227E+02 0.  0.
        -13    1    4    4    0    0 -0.21690356724E+02 -0.14253157197E+02 -0.49615462849E+02  0.55993912336E+02  0.00000000000E+00 0.  1.
         14    1    4    4    0    0  0.74432420233E+02 -0.34902261825E+02 -0.18378486955E+03  0.20133363191E+03  0.00000000000E+00 0. -1.
        -13    1    3    3    0    0 -0.91459395856E+02  0.50443799785E+02  0.70009590571E+02  0.12574076825E+03  0.00000000000E+00 0. -1.
         13    1    3    3    0    0  0.10509662033E+02 -0.17876247124E+02  0.21568898654E+02  0.29920404349E+02  0.00000000000E+00 0.  1.
         21    1    1    2  503  502  0.75002218283E+02  0.41923378547E+02  0.50213417233E+02  0.99520297862E+02  0.00000000000E+00 0. -1.
          1    1    1    2  501    0 -0.46794547970E+02 -0.25335512186E+02  0.16524213609E+03  0.17359890967E+03  0.00000000000E+00 0. -1.
<scales pt_clust_5="13000.00000" pt_clust_6="13000.00000" pt_clust_7="13000.00000" pt_clust_8="13000.00000" pt_clust_9="81.58110" pt_clust_10="53.21298"></scales>
<clustering>
<clus scale="   53.213">  2 10  1 -1</clus>
<clus scale="   80.894">  5  6 -1 -1</clus>
<clus scale="   81.581">  1  9  2 -1</clus>
<clus scale="   90.721">  7  8 -1 -1</clus>
<clus scale="  107.697">  2  5  1 -1</clus>
<clus scale="   53.213">  2  5  1 -1</clus>
</clustering>
</event>
<event>
10    4  0.2857708E-005  0.1185545E+03  0.7546771E-02  0.1248710E+00
         21   -1    0    0  503  502  0.00000000000E+00  0.00000000000E+00  0.12185386035E+03  0.12185386035E+03  0.00000000000E+00 0. -1.
         -1   -1    0    0    0  501 -0.00000000000E+00 -0.00000000000E+00 -0.71666795252E+03  0.71666795252E+03  0.00000000000E+00 0.  1.
         24    2    1    2    0    0  0.88521092331E+02 -0.20764727916E+02 -0.37431673456E+03  0.39804219374E+03  0.10028665174E+03 0.  0.
         23    2    1    2    0    0 -0.42477017957E+02  0.24711515639E+02  0.35404416544E+02  0.10966595673E+03  0.91423155137E+02 0.  0.
        -13    1    3    3    0    0  0.90541015342E+02 -0.36129931248E+02 -0.19453218115E+03  0.21759093937E+03  0.00000000000E+00 0.  1.
         14    1    3    3    0    0 -0.20199230106E+01  0.15365203332E+02 -0.17978455341E+03  0.18045125438E+03  0.00000000000E+00 0. -1.
        -13    1    4    4    0    0 -0.49136097282E+02  0.51692835390E+02  0.39574756152E+02  0.81563880555E+02  0.00000000000E+00 0. -1.
         13    1    4    4    0    0  0.66590793243E+01 -0.26981319751E+02 -0.41703396079E+01  0.28102076176E+02  0.00000000000E+00 0.  1.
         21    1    1    2  503  501 -0.42996940024E+02 -0.24244520376E+02 -0.28828132276E+03  0.29247675920E+03  0.00000000000E+00 0.  1.
         -2    1    1    2    0  502 -0.30471343499E+01  0.20297732653E+02  0.32379548609E+02  0.38336903197E+02  0.00000000000E+00 0.  1.
<scales pt_clust_5="13000.00000" pt_clust_6="13000.00000" pt_clust_7="13000.00000" pt_clust_8="13000.00000" pt_clust_9="49.18604" pt_clust_10="20.52518"></scales>
<clustering>
<clus scale="   20.525">  1 10  2 -1</clus>
<clus scale="   49.186">  2  9  1 -1</clus>
<clus scale="   91.423">  7  8 -1 -1</clus>
<clus scale="  100.287">  5  6 -1 -1</clus>
<clus scale="  111.157">  1  7  2 -1</clus>
<clus scale="   20.525">  1  5  2 -1</clus>
</clustering>
</event>
<event>
10    4  0.2857708E-005  0.2655597E+03  0.7546771E-02  0.1104227E+00
          2   -1    0    0  503    0 -0.00000000000E+00  0.00000000000E+00  0.88179070635E+03  0.88179070635E+03  0.00000000000E+00 0. -1.
         21   -1    0    0  501  502  0.00000000000E+00 -0.00000000000E+00 -0.37976722518E+03  0.37976722518E+03  0.00000000000E+00 0. -1.
         24    2    1    2    0    0 -0.12896349036E+03 -0.12551447585E+03  0.24493847644E+03  0.31492926606E+03  0.82462839408E+02 0.  0.
         23    2    1    2    0    0  0.28431458155E+03  0.27037927432E+03  0.31992036497E+03  0.51424872661E+03  0.90349209322E+02 0.  0.
        -13    1    3    3    0    0 -0.92325330738E+02 -0.10034393648E+03  0.23118048187E+03  0.26839762942E+03  0.00000000000E+00 0.  1.
         14    1    3    3    0    0 -0.36638159625E+02 -0.25170539371E+02  0.13757994572E+02  0.46531636632E+02  0.00000000000E+00 0. -1.
        -11    1    4    4    0    0  0.11564794787E+03  0.16286701887E+03  0.12930740128E+03  0.23795066234E+03  0.00000000000E+00 0. -1.
         11    1    4    4    0    0  0.16866663368E+03  0.10751225545E+03  0.19061296369E+03  0.27629806427E+03  0.00000000000E+00 0.  1.
         21    1    1    2  503  502  0.37761205418E+01 -0.48785056795E+02  0.14530274408E+03  0.15332034533E+03  0.00000000000E+00 0. -1.
          1    1    1    2  501    0 -0.15912721173E+03 -0.96079741679E+02 -0.20813810433E+03  0.27905959354E+03  0.00000000000E+00 0. -1.
<scales pt_clust_5="13000.00000" pt_clust_6="13000.00000" pt_clust_7="13000.00000" pt_clust_8="13000.00000" pt_clust_9="48.93098" pt_clust_10="186.96004"></scales>
<clustering>
<clus scale="   48.931">  1  9  2 -1</clus>
<clus scale="   82.463">  5  6 -1 -1</clus>
<clus scale="   90.349">  7  8 -1 -1</clus>
<clus scale="  186.960">  2 10  1 -1</clus>
<clus scale="  262.981">  1  5  2 -1</clus>
<clus scale="  186.960">  2  5  1 -1</clus>
</clustering>
</event>
<event>
10    4  0.2857708E-005  0.1440521E+03  0.7546771E-02  0.1224659E+00
          2   -1    0    0  503    0 -0.00000000000E+00  0.00000000000E+00  0.11841915089E+04  0.11841915089E+04  0.00000000000E+00 0. -1.
         21   -1    0    0  501  502  0.00000000000E+00 -0.00000000000E+00 -0.92805799023E+02  0.92805799023E+02  0.00000000000E+00 0.  1.
         23    2    1    2    0    0  0.81518101528E+02 -0.48953090900E+02  0.55181653187E+03  0.56762266427E+03  0.93018267914E+02 0.  0.
         24    2    1    2    0    0  0.37271872407E+02  0.43132137743E+02  0.60588422648E+01  0.98069650373E+02  0.79569925071E+02 0.  0.
        -11    1    4    4    0    0  0.15221466158E+01  0.45276768742E+02 -0.24041481753E+02  0.51286407195E+02  0.00000000000E+00 0.  1.
         12    1    4    4    0    0  0.35749725792E+02 -0.21446309994E+01  0.30100324018E+02  0.46783243179E+02  0.00000000000E+00 0. -1.
        -11    1    3    3    0    0  0.62437420621E+02  0.11308111595E+02  0.36306938452E+03  0.36857249335E+03  0.00000000000E+00 0. -1.
         11    1    3    3    0    0  0.19080680908E+02 -0.60261202494E+02  0.18874714735E+03  0.19905017091E+03  0.00000000000E+00 0.  1.
         21    1    1    2  503  502 -0.16524466275E+03  0.64690711060E+02  0.19113338268E+03  0.26081153472E+03  0.00000000000E+00 0.  1.
          1    1    1    2  501    0  0.46454688813E+02 -0.58869757903E+02  0.34237695305E+03  0.35049345856E+03  0.00000000000E+00 0. -1.
<scales pt_clust_5="13000.00000" pt_clust_6="13000.00000" pt_clust_7="13000.00000" pt_clust_8="13000.00000" pt_clust_9="109.99373" pt_clust_10="74.99128"></scales>
<clustering>
<clus scale="   74.991">  2 10  1 -1</clus>
<clus scale="   79.570">  5  6 -1 -1</clus>
<clus scale="   93.018">  7  8 -1 -1</clus>
<clus scale="  101.266">  2  5  1 -1</clus>
<clus scale="  109.994">  2  9  1 -1</clus>
<clus scale="   74.991">  2  5  1 -1</clus>
</clustering>
</event>
<event>
10    4  0.2857708E-005  0.1759502E+03  0.7546771E-02  0.1172591E+00
         21   -1    0    0  501  502  0.00000000000E+00  0.00000000000E+00  0.12831643061E+03  0.12831643061E+03  0.00000000000E+00 0. -1.
          2   -1    0    0  503    0 -0.00000000000E+00 -0.00000000000E+00 -0.14926699396E+04  0.14926699396E+04  0.00000000000E+00 0. -1.
         24    2    1    2    0    0  0.59218826778E+02  0.13701712171E+03 -0.27599342576E+03  0.32468560692E+03  0.83473416071E+02 0.  0.
         23    2    1    2    0    0 -0.74448773937E+02 -0.22405169399E+03 -0.93371970309E+02  0.26935158430E+03  0.89945370121E+02 0.  0.
        -11    1    3    3    0    0 -0.19284501663E+02  0.50715780951E+02 -0.82548789016E+02  0.98784032160E+02  0.00000000000E+00 0.  1.
         12    1    3    3    0    0  0.78503328441E+02  0.86301340756E+02 -0.19344463675E+03  0.22590157476E+03  0.00000000000E+00 0. -1.
        -11    1    4    4    0    0 -0.90001105841E+02 -0.18769065517E+03 -0.96985859056E+02  0.22963936497E+03  0.00000000000E+00 0. -1.
         11    1    4    4    0    0  0.15552331904E+02 -0.36361038827E+02  0.36138887476E+01  0.39712219330E+02  0.00000000000E+00 0.  1.
         21    1    1    2  503  502  0.13009597839E+02 -0.76203725948E+02 -0.49455430851E+03  0.50055990806E+03  0.00000000000E+00 0. -1.
          1    1    1    2  501    0  0.22203493204E+01  0.16323829823E+03 -0.50043380440E+03  0.52638927093E+03  0.00000000000E+00 0. -1.
<scales pt_clust_5="13000.00000" pt_clust_6="13000.00000" pt_clust_7="13000.00000" pt_clust_8="13000.00000" pt_clust_9="77.30626" pt_clust_10="124.24386"></scales>
<clustering>
<clus scale="   77.306">  2  9  1 -1</clus>
<clus scale="   83.473">  5  6 -1 -1</clus>
<clus scale="   89.945">  7  8 -1 -1</clus>
<clus scale="  124.244">  1 10  2 -1</clus>
<clus scale="  172.731">  2  5  1 -1</clus>
<clus scale="  124.244">  1  5  2 -1</clus>
</clustering>
</event>
<event>
10    4  0.2857708E-005  0.1044466E+03  0.7546771E-02  0.1280370E+00
         21   -1    0    0  501  502  0.00000000000E+00  0.00000000000E+00  0.56911222157E+02  0.56911222157E+02  0.00000000000E+00 0.  1.
          2   -1    0    0  503    0 -0.00000000000E+00 -0.00000000000E+00 -0.71710061921E+03  0.71710061921E+03  0.00000000000E+00 0. -1.
         24    2    1    2    0    0 -0.25271292246E+02  0.54306334631E+02 -0.48155606649E+03  0.49192626424E+03  0.80668383450E+02 0.  0.
         23    2    1    2    0    0 -0.20114689126E+02 -0.18436373647E+02 -0.88128168142E+02  0.13508004358E+03  0.98668858109E+02 0.  0.
        -11    1    3    3    0    0 -0.20635176175E+02  0.57343847396E+02 -0.17478566676E+03  0.18510579849E+03  0.00000000000E+00 0.  1.
         12    1    3    3    0    0 -0.46361160708E+01 -0.30375127650E+01 -0.30677039972E+03  0.30682046575E+03  0.00000000000E+00 0. -1.
        -11    1    4    4    0    0  0.36365235839E+02  0.50167173929E+01 -0.53250486315E+02  0.64677756021E+02  0.00000000000E+00 0. -1.
         11    1    4    4    0    0 -0.56479924965E+02 -0.23453091040E+02 -0.34877681827E+02  0.70402287555E+02  0.00000000000E+00 0.  1.
         21    1    1    2  503  502  0.27136526444E+02 -0.20863055639E+02 -0.11073265736E+03  0.11590245711E+03  0.00000000000E+00 0. -1.
          1    1    1    2  501    0  0.18249454928E+02 -0.15006905345E+02  0.20227494930E+02  0.31103076445E+02  0.00000000000E+00 0. -1.
<scales pt_clust_5="13000.00000" pt_clust_6="13000.00000" pt_clust_7="13000.00000" pt_clust_8="13000.00000" pt_clust_9="36.18313" pt_clust_10="23.62731"></scales>
<clustering>
<clus scale="   23.627">  1 10  2 -1</clus>
<clus scale="   36.183">  2  9  1 -1</clus>
<clus scale="   80.668">  5  6 -1 -1</clus>
<clus scale="   87.641">  2  5  1 -1</clus>
<clus scale="   98.669">  7  8 -1 -1</clus>
<clus scale="   23.627">  1  5  2 -1</clus>
</clustering>
</event>
<event>
10    4  0.2857708E-005  0.4692390E+03  0.7546771E-02  0.1022277E+00
         21   -1    0    0  501  502  0.00000000000E+00  0.00000000000E+00  0.61818731769E+03  0.61818731769E+03  0.00000000000E+00 0. -1.
          2   -1    0    0  503    0 -0.00000000000E+00 -0.00000000000E+00 -0.73618346984E+03  0.73618346984E+03  0.00000000000E+00 0. -1.
         24    2    1    2    0    0 -0.20139052076E+03  0.45044989012E+03 -0.44793435101E+03  0.67113926166E+03  0.79495159351E+02 0.  0.
         23    2    1    2    0    0  0.12650390629E+03 -0.36629980013E+03  0.34195547183E+03  0.52468961927E+03  0.90481323922E+02 0.  0.
        -11    1    3    3    0    0 -0.61704390979E+02  0.13676502678E+03 -0.89213398425E+02  0.17455983179E+03  0.00000000000E+00 0.  1.
         12    1    3    3    0    0 -0.13968612978E+03  0.31368486334E+03 -0.35872095259E+03  0.49657942987E+03  0.00000000000E+00 0. -1.
        -11    1    4    4    0    0  0.70690860482E+02 -0.12050589227E+03  0.79242071823E+02  0.16061809915E+03  0.00000000000E+00 0.  1.
         11    1    4    4    0    0  0.55813045808E+02 -0.24579390786E+03  0.26271340001E+03  0.36407152012E+03  0.00000000000E+00 0. -1.
         21    1    1    2  503  502 -0.27521253985E+02 -0.31787111724E+02 -0.11234594529E+02  0.43520753749E+02  0.00000000000E+00 0. -1.
          1    1    1    2  501    0  0.10240786846E+03 -0.52362978272E+02 -0.78267842986E+00  0.11502115284E+03  0.00000000000E+00 0. -1.
<scales pt_clust_5="13000.00000" pt_clust_6="13000.00000" pt_clust_7="13000.00000" pt_clust_8="13000.00000" pt_clust_9="42.04569" pt_clust_10="114.24764"></scales>
<clustering>
<clus scale="   42.046">  2  9  1 -1</clus>
<clus scale="   79.495">  5  6 -1 -1</clus>
<clus scale="   90.481">  7  8 -1 -1</clus>
<clus scale="  114.248">  1 10  2 -1</clus>
<clus scale="  467.245">  2  5  1 -1</clus>
<clus scale="  114.248">  1  5  2 -1</clus>
</clustering>
</event>
<event>
10    4  0.2857708E-005  0.1821734E+03  0.7546771E-02  0.1167124E+00
         -3   -1    0    0    0  501 -0.00000000000E+00  0.00000000000E+00  0.29184731348E+03  0.29184731348E+03  0.00000000000E+00 0.  1.
         21   -1    0    0  503  502  0.00000000000E+00 -0.00000000000E+00 -0.31023159119E+03  0.31023159119E+03  0.00000000000E+00 0.  1.
         24    2    1    2    0    0  0.13012467502E+03 -0.92995481841E+02 -0.24220674472E+02  0.17946026052E+03  0.77709416046E+02 0.  0.
         23    2    1    2    0    0 -0.11549651506E+03  0.99880879323E+02 -0.10164656894E+03  0.20437531897E+03  0.90119981030E+02 0.  0.
        -13    1    3    3    0    0  0.23100849537E+02 -0.10985115621E+02 -0.35946513023E+02  0.44118860061E+02  0.00000000000E+00 0.  1.
         14    1    3    3    0    0  0.10702382548E+03 -0.82010366221E+02  0.11725838551E+02  0.13534140046E+03  0.00000000000E+00 0. -1.
        -13    1    4    4    0    0 -0.90715796806E+02  0.56270088843E+02 -0.20084079117E+02  0.10862342713E+03  0.00000000000E+00 0.  1.
         13    1    4    4    0    0 -0.24780718253E+02  0.43610790480E+02 -0.81562489824E+02  0.95751891833E+02  0.00000000000E+00 0. -1.
         21    1    1    2  503  501  0.30143152288E+02  0.23676459592E+02  0.14651457787E+03  0.15144538916E+03  0.00000000000E+00 0.  1.
         -4    1    1    2    0  502 -0.44771312245E+02 -0.30561857074E+02 -0.39031612171E+02  0.66797936021E+02  0.00000000000E+00 0.  1.
<scales pt_clust_5="13000.00000" pt_clust_6="13000.00000" pt_clust_7="13000.00000" pt_clust_8="13000.00000" pt_clust_9="38.32994" pt_clust_10="50.49212"></scales>
<clustering>
<clus scale="   38.330">  1  9  2 -1</clus>
<clus scale="   50.492">  2 10  1 -1</clus>
<clus scale="   77.709">  5  6 -1 -1</clus>
<clus scale="   90.120">  7  8 -1 -1</clus>
<clus scale="  176.364">  1  5  2 -1</clus>
<clus scale="   50.492">  2  5  1 -1</clus>
</clustering>
</event>
<event>
10    4  0.2857708E-005  0.1640116E+03  0.7546771E-02  0.1186872E+00
         21   -1    0    0  503  502  0.00000000000E+00  0.00000000000E+00  0.59814320674E+02  0.59814320674E+02  0.00000000000E+00 0. -1.
          2   -1    0    0  502    0 -0.00000000000E+00 -0.00000000000E+00 -0.12474773930E+04  0.12474773930E+04  0.00000000000E+00 0. -1.
         24    2    1    2    0    0 -0.26769929879E+02  0.14668477870E+03 -0.89907554899E+03  0.91483014386E+03  0.79651088377E+02 0.  0.
         23    2    1    2    0    0 -0.60393881607E+02 -0.70945259863E+02 -0.10165945049E+03  0.16832724331E+03  0.96533756443E+02 0.  0.
        -11    1    3    3    0    0 -0.42190443270E+02  0.38054668977E+02 -0.23633372068E+03  0.24306751914E+03  0.00000000000E+00 0.  1.
         12    1    3    3    0    0  0.15420513391E+02  0.10863010972E+03 -0.66274182831E+03  0.67176262472E+03  0.00000000000E+00 0. -1.
        -13    1    4    4    0    0 -0.55518706270E+02 -0.57407718965E+01 -0.83551780177E+02  0.10047976502E+03  0.00000000000E+00 0. -1.
         13    1    4    4    0    0 -0.48751753364E+01 -0.65204487966E+02 -0.18107670309E+02  0.67847478284E+02  0.00000000000E+00 0.  1.
         21    1    1    2  503  501  0.36449730289E+02 -0.30344126436E+02 -0.11841428469E+03  0.12755897329E+03  0.00000000000E+00 0. -1.
          1    1    1    2  501    0  0.50714081196E+02 -0.45395392399E+02 -0.68513788180E+02  0.96575353240E+02  0.00000000000E+00 0. -1.
<scales pt_clust_5="13000.00000" pt_clust_6="13000.00000" pt_clust_7="13000.00000" pt_clust_8="13000.00000" pt_clust_9="36.95679" pt_clust_10="123.66928"></scales>
<clustering>
<clus scale="   36.957">  9 10 -1 -1</clus>
<clus scale="   79.651">  5  6 -1 -1</clus>
<clus scale="   96.534">  7  8 -1 -1</clus>
<clus scale="  123.669">  1  9  2 -1</clus>
<clus scale="  154.678">  2  5  1 -1</clus>
<clus scale="  123.669">  1  5  2 -1</clus>
</clustering>
</event>
<event>
10    4  0.2857708E-005  0.2187436E+03  0.7546771E-02  0.1135508E+00
         -3   -1    0    0    0  501 -0.00000000000E+00  0.00000000000E+00  0.32286997530E+03  0.32286997530E+03  0.00000000000E+00 0.  1.
         21   -1    0    0  503  502  0.00000000000E+00 -0.00000000000E+00 -0.30542082491E+03  0.30542082491E+03  0.00000000000E+00 0.  1.
         23    2    1    2    0    0 -0.13890627836E+02  0.22044467121E+03  0.14763507204E+03  0.27989041120E+03  0.88055239359E+02 0.  0.
         24    2    1    2    0    0  0.28072359334E+02 -0.18129868754E+03 -0.17430893309E+03  0.26500206844E+03  0.78646173832E+02 0.  0.
        -11    1    4    4    0    0  0.23370155739E+02 -0.11978430311E+03 -0.16076146249E+03  0.20183828000E+03  0.00000000000E+00 0.  1.
         12    1    4    4    0    0  0.47022035946E+01 -0.61514384424E+02 -0.13547470601E+02  0.63163788434E+02  0.00000000000E+00 0. -1.
        -13    1    3    3    0    0 -0.35364945136E+02  0.14155288253E+03  0.13177839421E+03  0.19660478905E+03  0.00000000000E+00 0.  1.
         13    1    3    3    0    0  0.21474317300E+02  0.78891788679E+02  0.15856677825E+02  0.83285622145E+02  0.00000000000E+00 0. -1.
         21    1    1    2  503  501 -0.33833271521E+02 -0.25848594687E+02  0.41617516938E+02  0.59538708629E+02  0.00000000000E+00 0.  1.
         -4    1    1    2    0  502  0.19651540023E+02 -0.13297388987E+02  0.25054945069E+01  0.23859611939E+02  0.00000000000E+00 0.  1.
<scales pt_clust_5="13000.00000" pt_clust_6="13000.00000" pt_clust_7="13000.00000" pt_clust_8="13000.00000" pt_clust_9="42.35367" pt_clust_10="23.72771"></scales>
<clustering>
<clus scale="   23.728">  2 10  1 -1</clus>
<clus scale="   42.354">  1  9  2 -1</clus>
<clus scale="   78.646">  5  6 -1 -1</clus>
<clus scale="   88.055">  7  8 -1 -1</clus>
<clus scale="  215.128">  2  5  1 -1</clus>
<clus scale="   23.728">  2  5  1 -1</clus>
</clustering>
</event>
<event>
10    4  0.2857708E-005  0.9799923E+02  0.7546771E-02  0.1288401E+00
         21   -1    0    0  501  502  0.00000000000E+00  0.00000000000E+00  0.10699086191E+04  0.10699086191E+04  0.00000000000E+00 0. -1.
          4   -1    0    0  503    0 -0.00000000000E+00 -0.00000000000E+00 -0.84084362866E+02  0.84084362866E+02  0.00000000000E+00 0. -1.
         24    2    1    2    0    0  0.30577110802E+02  0.31668386148E+02  0.30955684077E+02  0.96272431448E+02  0.79826563837E+02 0.  0.
         23    2    1    2    0    0 -0.61034075554E+01 -0.21474795093E+02  0.27351273244E+03  0.28883621538E+03  0.90103973812E+02 0.  0.
        -11    1    3    3    0    0  0.81254867126E+01 -0.18736035961E+02  0.35449365147E+02  0.40911124003E+02  0.00000000000E+00 0.  1.
         12    1    3    3    0    0  0.22451624089E+02  0.50404422109E+02 -0.44936810704E+01  0.55361307444E+02  0.00000000000E+00 0. -1.
        -11    1    4    4    0    0  0.36057787306E+02  0.12920915295E+02  0.12009938681E+03  0.12605941770E+03  0.00000000000E+00 0. -1.
         11    1    4    4    0    0 -0.42161194862E+02 -0.34395710388E+02  0.15341334563E+03  0.16277679768E+03  0.00000000000E+00 0.  1.
         21    1    1    2  503  502 -0.11649878762E+03  0.18173280432E+02  0.46466537260E+02  0.12673347909E+03  0.00000000000E+00 0. -1.
          3    1    1    2  501    0  0.92025084373E+02 -0.28366871487E+02  0.63488930250E+03  0.64215085609E+03  0.00000000000E+00 0. -1.
<scales pt_clust_5="13000.00000" pt_clust_6="13000.00000" pt_clust_7="13000.00000" pt_clust_8="13000.00000" pt_clust_9="13000.00000" pt_clust_10="97.99923"></scales>
<clustering>
<clus scale="   79.827">  5  6 -1 -1</clus>
<clus scale="   90.104">  7  8 -1 -1</clus>
<clus scale="   91.160">  2  5  1 -1</clus>
<clus scale="   91.662">  2  7  1 -1</clus>
<clus scale="   97.999">  1 10  2 -1</clus>
<clus scale="   97.999">  1  5  2 -1</clus>
</clustering>
</event>
<event>
10    4  0.2857708E-005  0.1520177E+03  0.7546771E-02  0.1199990E+00
         -3   -1    0    0    0  501 -0.00000000000E+00  0.00000000000E+00  0.13478768064E+03  0.13478768064E+03  0.00000000000E+00 0.  1.
         21   -1    0    0  503  502  0.00000000000E+00 -0.00000000000E+00 -0.97971164364E+03  0.97971164364E+03  0.00000000000E+00 0.  1.
         23    2    1    2    0    0  0.58583924894E+02  0.83483687565E+02  0.28551026836E+01  0.13693157323E+03  0.91326347735E+02 0.  0.
         24    2    1    2    0    0 -0.11221522621E+03 -0.13760069258E+03 -0.80114546258E+03  0.82449890790E+03  0.80238328361E+02 0.  0.
        -13    1    4    4    0    0 -0.11581888456E+03 -0.11646329537E+03 -0.76532061598E+03  0.78274731454E+03  0.00000000000E+00 0.  1.
         14    1    4    4    0    0  0.36036583435E+01 -0.21137397210E+02 -0.35824846600E+02  0.41751593361E+02  0.00000000000E+00 0. -1.
        -13    1    3    3    0    0  0.20434629719E+02  0.82563045887E+02  0.29902828518E+02  0.90157694022E+02  0.00000000000E+00 0.  1.
         13    1    3    3    0    0  0.38149295174E+02  0.92064167729E+00 -0.27047725834E+02  0.46773879208E+02  0.00000000000E+00 0. -1.
         21    1    1    2  503  501  0.54011076048E+02 -0.26223287408E+02  0.26484155525E+00  0.60041046621E+02  0.00000000000E+00 0.  1.
         -4    1    1    2    0  502 -0.37977472720E+00  0.80340292419E+02 -0.46898444668E+02  0.93027796529E+02  0.00000000000E+00 0.  1.
<scales pt_clust_5="13000.00000" pt_clust_6="13000.00000" pt_clust_7="13000.00000" pt_clust_8="13000.00000" pt_clust_9="60.04046" pt_clust_10="75.44553"></scales>
<clustering>
<clus scale="   60.040">  1  9  2 -1</clus>
<clus scale="   75.446">  2 10  1 -1</clus>
<clus scale="   80.238">  5  6 -1 -1</clus>
<clus scale="   91.326">  7  8 -1 -1</clus>
<clus scale="  145.626">  2  5  1 -1</clus>
<clus scale="   75.446">  2  5  1 -1</clus>
</clustering>
</event>
<event>
10    4  0.2857708E-005  0.2244381E+03  0.7546771E-02  0.1172082E+00
          2   -1    0    0  502    0 -0.00000000000E+00  0.00000000000E+00  0.14305607802E+04  0.14305607802E+04  0.00000000000E+00 0. -1.
         21   -1    0    0  503  502  0.00000000000E+00 -0.00000000000E+00 -0.60428350112E+02  0.60428350112E+02  0.00000000000E+00 0.  1.
         24    2    1    2    0    0  0.11148982743E+02 -0.93862874766E+01  0.34371768068E+03  0.35387978784E+03  0.82925617399E+02 0.  0.
         23    2    1    2    0    0 -0.17440472790E+03 -0.10927719419E+03  0.26485946344E+03  0.34788842862E+03  0.92289268668E+02 0.  0.
        -11    1    3    3    0    0  0.74459420557E+01 -0.46388385408E+02  0.19633367777E+03  0.20187678762E+03  0.00000000000E+00 0.  1.
         12    1    3    3    0    0  0.37030406873E+01  0.37002097931E+02  0.14738400291E+03  0.15200300022E+03  0.00000000000E+00 0. -1.
        -11    1    4    4    0    0 -0.11226424607E+03 -0.11391633070E+03  0.21565344747E+03  0.26848947978E+03  0.00000000000E+00 0.  1.
         11    1    4    4    0    0 -0.62140481829E+02  0.46391365129E+01  0.49206015966E+02  0.79398948839E+02  0.00000000000E+00 0. -1.
         21    1    1    2  503  501  0.77981946043E+02  0.28803564065E+02  0.29280847845E+03  0.30438073898E+03  0.00000000000E+00 0. -1.
          1    1    1    2  501    0  0.85273799117E+02  0.89859917601E+02  0.46874680755E+03  0.48484017490E+03  0.00000000000E+00 0. -1.
<scales pt_clust_5="13000.00000" pt_clust_6="13000.00000" pt_clust_7="13000.00000" pt_clust_8="13000.00000" pt_clust_9="38.15788" pt_clust_10="209.82119"></scales>
<clustering>
<clus scale="   38.158">  9 10 -1 -1</clus>
<clus scale="   82.926">  5  6 -1 -1</clus>
<clus scale="   84.197">  1  5  2 -1</clus>
<clus scale="   92.289">  7  8 -1 -1</clus>
<clus scale="  209.821">  2  9  1 -1</clus>
<clus scale="  209.821">  2  5  1 -1</clus>
</clustering>
</event>
<event>
10    4  0.2857708E-005  0.1030870E+03  0.7546771E-02  0.1278745E+00
         21   -1    0    0  501  502  0.00000000000E+00  0.00000000000E+00  0.14315108723E+03  0.14315108723E+03  0.00000000000E+00 0. -1.
          4   -1    0    0  503    0 -0.00000000000E+00 -0.00000000000E+00 -0.17315281489E+03  0.17315281489E+03  0.00000000000E+00 0. -1.
         23    2    1    2    0    0  0.39773071159E+01  0.68465360720E+01 -0.55298336506E+02  0.10641601100E+03  0.90574650700E+02 0.  0.
         24    2    1    2    0    0 -0.44418179685E+02 -0.70103699865E+02  0.36211245675E+02  0.12089331574E+03  0.80102659482E+02 0.  0.
        -11    1    4    4    0    0  0.18249047595E+02 -0.15400693291E+02  0.28752681610E+02  0.37375470455E+02  0.00000000000E+00 0.  1.
         12    1    4    4    0    0 -0.62667227280E+02 -0.54703006574E+02  0.74585640652E+01  0.83517845285E+02  0.00000000000E+00 0. -1.
        -13    1    3    3    0    0 -0.31802711208E+02 -0.19531182253E+02 -0.25117307365E+01  0.37405725654E+02  0.00000000000E+00 0.  1.
         13    1    3    3    0    0  0.35780018324E+02  0.26377718325E+02 -0.52786605769E+02  0.69010285349E+02  0.00000000000E+00 0. -1.
         21    1    1    2  503  502  0.27389448673E+02  0.40634276488E+02 -0.29263139278E+02  0.57075893727E+02  0.00000000000E+00 0. -1.
          3    1    1    2  501    0  0.13051423896E+02  0.22622887304E+02  0.18348502454E+02  0.31918681646E+02  0.00000000000E+00 0. -1.
<scales pt_clust_5="13000.00000" pt_clust_6="13000.00000" pt_clust_7="13000.00000" pt_clust_8="13000.00000" pt_clust_9="52.07381" pt_clust_10="26.11771"></scales>
<clustering>
<clus scale="   26.118">  1 10  2 -1</clus>
<clus scale="   52.074">  2  9  1 -1</clus>
<clus scale="   80.103">  5  6 -1 -1</clus>
<clus scale="   90.575">  7  8 -1 -1</clus>
<clus scale="   94.019">  1  5  2 -1</clus>
<clus scale="   26.118">  1  5  2 -1</clus>
</clustering>
</event>
<event>
10    4  0.2857708E-005  0.1772456E+03  0.7546771E-02  0.1172076E+00
         21   -1    0    0  501  502  0.00000000000E+00  0.00000000000E+00  0.19732641249E+03  0.19732641249E+03  0.00000000000E+00 0.  1.
         -1   -1    0    0    0  501 -0.00000000000E+00 -0.00000000000E+00 -0.35986351117E+03  0.35986351117E+03  0.00000000000E+00 0.  1.
         24    2    1    2    0    0  0.28545979223E+02 -0.12678661119E+03 -0.52410453387E+02  0.16068278805E+03  0.78628144097E+02 0.  0.
         23    2    1    2    0    0  0.35494192020E+02  0.20649599537E+03  0.11093498949E+02  0.22889318459E+03  0.91480000337E+02 0.  0.
        -11    1    3    3    0    0 -0.24388559954E+02 -0.43261533787E+02 -0.20342812373E+01  0.49704129229E+02  0.00000000000E+00 0.  1.
         12    1    3    3    0    0  0.52934539177E+02 -0.83525077399E+02 -0.50376172149E+02  0.11097865882E+03  0.00000000000E+00 0. -1.
        -13    1    4    4    0    0 -0.14234205633E+02  0.11487075030E+03 -0.25283627752E+02  0.11847853695E+03  0.00000000000E+00 0.  1.
         13    1    4    4    0    0  0.49728397652E+02  0.91625245065E+02  0.36377126701E+02  0.11041464764E+03  0.00000000000E+00 0. -1.
         21    1    1    2  503  502 -0.26712390429E+02 -0.20812375564E+02 -0.82447748786E+01  0.34852303968E+02  0.00000000000E+00 0. -1.
         -2    1    1    2    0  503 -0.37327780814E+02 -0.58897008618E+02 -0.11297536937E+03  0.13276164706E+03  0.00000000000E+00 0.  1.
<scales pt_clust_5="13000.00000" pt_clust_6="13000.00000" pt_clust_7="13000.00000" pt_clust_8="13000.00000" pt_clust_9="33.86306" pt_clust_10="71.44612"></scales>
<clustering>
<clus scale="   33.863">  1  9  2 -1</clus>
<clus scale="   71.446">  1 10  2 -1</clus>
<clus scale="   78.628">  5  6 -1 -1</clus>
<clus scale="   91.480">  7  8 -1 -1</clus>
<clus scale="  170.967">  2  5  1 -1</clus>
<clus scale="   33.863">  1  5  2 -1</clus>
</clustering>
</event>
<event>
10    4  0.2857708E-005  0.1956638E+03  0.7546771E-02  0.1180195E+00
         21   -1    0    0  503  502  0.00000000000E+00  0.00000000000E+00  0.41806051744E+02  0.41806051744E+02  0.00000000000E+00 0. -1.
          2   -1    0    0  502    0 -0.00000000000E+00 -0.00000000000E+00 -0.20061594565E+04  0.20061594565E+04  0.00000000000E+00 0. -1.
         24    2    1    2    0    0 -0.27373325213E+02 -0.63986839096E+02 -0.10386204199E+03  0.14822916144E+03  0.79630057298E+02 0.  0.
         23    2    1    2    0    0  0.16791625186E+03  0.11606685356E+03 -0.10966613252E+04  0.11195715531E+04  0.95430698657E+02 0.  0.
        -11    1    3    3    0    0 -0.53050734201E+02 -0.32843559517E+02 -0.79581908733E+02  0.10112546662E+03  0.00000000000E+00 0.  1.
         12    1    3    3    0    0  0.25677408988E+02 -0.31143279580E+02 -0.24280133256E+02  0.47103694826E+02  0.00000000000E+00 0. -1.
        -13    1    4    4    0    0  0.15229962247E+01  0.35634780899E+02 -0.10660658761E+03  0.11241495296E+03  0.00000000000E+00 0.  1.
         13    1    4    4    0    0  0.16639325563E+03  0.80432072663E+02 -0.99005473756E+03  0.10071566001E+04  0.00000000000E+00 0. -1.
         21    1    1    2  503  501 -0.11414116151E+03 -0.17971665894E+02 -0.56998655457E+03  0.58158048275E+03  0.00000000000E+00 0. -1.
          1    1    1    2  501    0 -0.26401765130E+02 -0.34108348573E+02 -0.19384348298E+03  0.19858431091E+03  0.00000000000E+00 0. -1.
<scales pt_clust_5="13000.00000" pt_clust_6="13000.00000" pt_clust_7="13000.00000" pt_clust_8="13000.00000" pt_clust_9="32.07554" pt_clust_10="178.69934"></scales>
<clustering>
<clus scale="   32.076">  9 10 -1 -1</clus>
<clus scale="   79.630">  5  6 -1 -1</clus>
<clus scale="   95.431">  7  8 -1 -1</clus>
<clus scale="  105.757">  2  5  1 -1</clus>
<clus scale="  178.699">  1  9  2 -1</clus>
<clus scale="  178.699">  1  5  2 -1</clus>
</clustering>
</event>
<event>
10    4  0.2857708E-005  0.2970407E+03  0.7546771E-02  0.1087167E+00
         21   -1    0    0  501  502  0.00000000000E+00  0.00000000000E+00  0.38298690730E+03  0.38298690730E+03  0.00000000000E+00 0.  1.
         -3   -1    0    0    0  501 -0.00000000000E+00 -0.00000000000E+00 -0.36978989832E+03  0.36978989832E+03  0.00000000000E+00 0.  1.
         24    2    1    2    0    0  0.25704493866E+03 -0.32793868202E+02 -0.25464071952E+01  0.27104412131E+03  0.79441130569E+02 0.  0.
         23    2    1    2    0    0 -0.28519859951E+03  0.16133651089E+03  0.26726093422E+02  0.34120793696E+03  0.91328315795E+02 0.  0.
        -13    1    3    3    0    0  0.19687909172E+03 -0.22059501796E+02  0.32246709132E+02  0.20071833156E+03  0.00000000000E+00 0.  1.
         14    1    3    3    0    0  0.60165846946E+02 -0.10734366407E+02 -0.34793116327E+02  0.70325789754E+02  0.00000000000E+00 0. -1.
        -13    1    4    4    0    0 -0.27660313728E+03  0.13254130005E+03  0.10145896875E+02  0.30688667451E+03  0.00000000000E+00 0.  1.
         13    1    4    4    0    0 -0.85954622351E+01  0.28795210845E+02  0.16580196546E+02  0.34321262450E+02  0.00000000000E+00 0. -1.
         21    1    1    2  503  502  0.17930066485E+01 -0.64909687109E+02  0.15454678887E+02  0.66748254306E+02  0.00000000000E+00 0.  1.
         -4    1    1    2    0  503  0.26360654205E+02 -0.63632955579E+02 -0.26437356129E+02  0.73776493038E+02  0.00000000000E+00 0.  1.
<scales pt_clust_5="13000.00000" pt_clust_6="13000.00000" pt_clust_7="13000.00000" pt_clust_8="13000.00000" pt_clust_9="46.67417" pt_clust_10="140.09499"></scales>
<clustering>
<clus scale="   46.674">  9 10 -1 -1</clus>
<clus scale="   79.441">  5  6 -1 -1</clus>
<clus scale="   91.328">  7  8 -1 -1</clus>
<clus scale="  140.095">  1  9  2 -1</clus>
<clus scale="  293.604">  2  5  1 -1</clus>
<clus scale="  140.095">  1  5  2 -1</clus>
</clustering>
</event>
<event>
10    4  0.2857708E-005  0.1016366E+03  0.7546771E-02  0.1281543E+00
         -3   -1    0    0    0  501 -0.00000000000E+00  0.00000000000E+00  0.95512100742E+02  0.95512100742E+02  0.00000000000E+00 0.  1.
         21   -1    0    0  503  502  0.00000000000E+00 -0.00000000000E+00 -0.53501560489E+03  0.53501560489E+03  0.00000000000E+00 0.  1.
         24    2    1    2    0    0 -0.15877705165E+02 -0.13795350023E+02 -0.30276562657E+01  0.83581340124E+02  0.80834772907E+02 0.  0.
         23    2    1    2    0    0 -0.33592406413E+02  0.98744596701E+02 -0.40524662805E+03  0.42815405867E+03  0.90620766185E+02 0.  0.
        -13    1    3    3    0    0 -0.35929910629E+02 -0.11131729158E+02 -0.31219705982E+02  0.48882961382E+02  0.00000000000E+00 0.  1.
         14    1    3    3    0    0  0.20052205465E+02 -0.26636208646E+01  0.28192049716E+02  0.34698378742E+02  0.00000000000E+00 0. -1.
        -11    1    4    4    0    0 -0.51229317507E+02  0.45163547432E+02 -0.31019694184E+03  0.31762608790E+03  0.00000000000E+00 0. -1.
         11    1    4    4    0    0  0.17636911095E+02  0.53581049269E+02 -0.95049686215E+02  0.11052797077E+03  0.00000000000E+00 0.  1.
         21    1    1    2  503  501  0.20086610449E+02 -0.39015473657E+02  0.15945602050E+02  0.46689841815E+02  0.00000000000E+00 0.  1.
         -4    1    1    2    0  502  0.29383501128E+02 -0.45933773022E+02 -0.47174821881E+02  0.72102465021E+02  0.00000000000E+00 0.  1.
<scales pt_clust_5="13000.00000" pt_clust_6="13000.00000" pt_clust_7="13000.00000" pt_clust_8="13000.00000" pt_clust_9="43.88256" pt_clust_10="63.01585"></scales>
<clustering>
<clus scale="   43.883">  1  9  2 -1</clus>
<clus scale="   63.016">  2 10  1 -1</clus>
<clus scale="   80.835">  5  6 -1 -1</clus>
<clus scale="   90.621">  7  8 -1 -1</clus>
<clus scale="   93.017">  1  5  2 -1</clus>
<clus scale="   63.016">  2  5  1 -1</clus>
</clustering>
</event>
<event>
10    4  0.2857708E-005  0.1085785E+03  0.7546771E-02  0.1266777E+00
         21   -1    0    0  501  502  0.00000000000E+00  0.00000000000E+00  0.22195922995E+03  0.22195922995E+03  0.00000000000E+00 0. -1.
          2   -1    0    0  503    0 -0.00000000000E+00 -0.00000000000E+00 -0.44299462699E+03  0.44299462699E+03  0.00000000000E+00 0. -1.
         24    2    1    2    0    0 -0.57873150830E+02 -0.49341643300E+02 -0.31449797753E+03  0.33355005928E+03  0.81010893251E+02 0.  0.
         23    2    1    2    0    0  0.13563502882E+02  0.85302824951E+02 -0.48268686110E+02  0.13370806651E+03  0.89930197583E+02 0.  0.
        -13    1    3    3    0    0  0.89416154879E+01 -0.37246431565E+02 -0.69958030677E+02  0.79758229721E+02  0.00000000000E+00 0.  1.
         14    1    3    3    0    0 -0.66814766318E+02 -0.12095211735E+02 -0.24453994685E+03  0.25379182956E+03  0.00000000000E+00 0. -1.
        -11    1    4    4    0    0  0.36571458084E+02  0.40969574158E+02 -0.61084696294E+02  0.82142057891E+02  0.00000000000E+00 0.  1.
         11    1    4    4    0    0 -0.23007955202E+02  0.44333250792E+02  0.12816010184E+02  0.51566008624E+02  0.00000000000E+00 0. -1.
         21    1    1    2  503  502  0.18553862542E+02  0.17907459029E+02 -0.15100448985E+02  0.29882209819E+02  0.00000000000E+00 0. -1.
          1    1    1    2  501    0  0.25755785406E+02 -0.53868640679E+02  0.15683171557E+03  0.16781352133E+03  0.00000000000E+00 0. -1.
<scales pt_clust_5="13000.00000" pt_clust_6="13000.00000" pt_clust_7="13000.00000" pt_clust_8="13000.00000" pt_clust_9="25.78610" pt_clust_10="59.60362"></scales>
<clustering>
<clus scale="   25.786">  2  9  1 -1</clus>
<clus scale="   59.604">  1 10  2 -1</clus>
<clus scale="   81.011">  5  6 -1 -1</clus>
<clus scale="   89.930">  7  8 -1 -1</clus>
<clus scale="  101.314">  2  5  1 -1</clus>
<clus scale="   59.604">  1  5  2 -1</clus>
</clustering>
</event>
<event>
10    4  0.2857708E-005  0.1382300E+03  0.7546771E-02  0.1216872E+00
         21   -1    0    0  501  502  0.00000000000E+00  0.00000000000E+00  0.87175962941E+02  0.87175962941E+02  0.00000000000E+00 0.  1.
          2   -1    0    0  503    0 -0.00000000000E+00 -0.00000000000E+00 -0.58394741571E+03  0.58394741571E+03  0.00000000000E+00 0. -1.
         23    2    1    2    0    0  0.10345387895E+03 -0.73527605019E+02 -0.87822711323E+02  0.17873254171E+03  0.90130344906E+02 0.  0.
         24    2    1    2    0    0 -0.64544777743E+02  0.57784326251E+02 -0.63765727107E+02  0.13709580127E+03  0.84994906185E+02 0.  0.
        -11    1    4    4    0    0 -0.83562528841E+02  0.49673054700E+02 -0.38770755575E+02  0.10465791932E+03  0.00000000000E+00 0.  1.
         12    1    4    4    0    0  0.19017751098E+02  0.81112715511E+01 -0.24994971532E+02  0.32437881942E+02  0.00000000000E+00 0. -1.
        -13    1    3    3    0    0  0.93585964842E+02 -0.94177494631E+02 -0.75687175281E+02  0.15282762124E+03  0.00000000000E+00 0. -1.
         13    1    3    3    0    0  0.98679141046E+01  0.20649889612E+02 -0.12135536043E+02  0.25904920475E+02  0.00000000000E+00 0.  1.
         21    1    1    2  503  502 -0.18810574847E+02  0.38363241551E+02 -0.28224713888E+03  0.28546282321E+03  0.00000000000E+00 0. -1.
          1    1    1    2  501    0 -0.20098526357E+02 -0.22619962783E+02 -0.62935875460E+02  0.69832212466E+02  0.00000000000E+00 0. -1.
<scales pt_clust_5="13000.00000" pt_clust_6="13000.00000" pt_clust_7="13000.00000" pt_clust_8="13000.00000" pt_clust_9="42.51007" pt_clust_10="30.25912"></scales>
<clustering>
<clus scale="   30.259">  1 10  2 -1</clus>
<clus scale="   42.510">  2  9  1 -1</clus>
<clus scale="   84.995">  5  6 -1 -1</clus>
<clus scale="   90.130">  7  8 -1 -1</clus>
<clus scale="  134.938">  1  5  2 -1</clus>
<clus scale="   30.259">  1  5  2 -1</clus>
</clustering>
</event>
<event>
10    4  0.2857708E-005  0.1327911E+03  0.7546771E-02  0.1244790E+00
          2   -1    0    0  503    0 -0.00000000000E+00  0.00000000000E+00  0.33940722087E+03  0.33940722087E+03  0.00000000000E+00 0. -1.
         21   -1    0    0  501  502  0.00000000000E+00 -0.00000000000E+00 -0.98606127087E+02  0.98606127087E+02  0.00000000000E+00 0.  1.
         24    2    1    2    0    0  0.47846151859E+01 -0.36553793750E+02  0.13562974867E+03  0.16162181806E+03  0.79794178796E+02 0.  0.
         23    2    1    2    0    0  0.80114827203E+02  0.42987419895E+02  0.45682660516E+02  0.13683855447E+03  0.91496342604E+02 0.  0.
        -11    1    3    3    0    0 -0.27401630763E+00 -0.55675584784E+02  0.12942406657E+03  0.14089157119E+03  0.00000000000E+00 0.  1.
         12    1    3    3    0    0  0.50586314935E+01  0.19121791034E+02  0.62056821001E+01  0.20730246869E+02  0.00000000000E+00 0. -1.
        -11    1    4    4    0    0  0.71837052574E+02  0.61454174524E+02  0.60071168684E+02  0.11200769168E+03  0.00000000000E+00 0.  1.
         11    1    4    4    0    0  0.82777746283E+01 -0.18466754629E+02 -0.14388508168E+02  0.24830862785E+02  0.00000000000E+00 0. -1.
         21    1    1    2  503  502  0.14475660594E+02  0.16644925602E+02  0.21170982353E+02  0.30574642953E+02  0.00000000000E+00 0. -1.
          1    1    1    2  501    0 -0.99375102982E+02 -0.23078551746E+02  0.38317702243E+02  0.10897833247E+03  0.00000000000E+00 0. -1.
<scales pt_clust_5="13000.00000" pt_clust_6="13000.00000" pt_clust_7="13000.00000" pt_clust_8="13000.00000" pt_clust_9="22.05897" pt_clust_10="96.23879"></scales>
<clustering>
<clus scale="   22.059">  1  9  2 -1</clus>
<clus scale="   79.794">  5  6 -1 -1</clus>
<clus scale="   85.582">  1  5  2 -1</clus>
<clus scale="   91.496">  7  8 -1 -1</clus>
<clus scale="   96.239">  2 10  1 -1</clus>
<clus scale="   96.239">  2  5  1 -1</clus>
</clustering>
</event>
<event>
10    4  0.2857708E-005  0.1599026E+03  0.7546771E-02  0.1190067E+00
         -1   -1    0    0    0  501 -0.00000000000E+00  0.00000000000E+00  0.61911009391E+03  0.61911009391E+03  0.00000000000E+00 0.  1.
         21   -1    0    0  503  502  0.00000000000E+00 -0.00000000000E+00 -0.18412421130E+03  0.18412421130E+03  0.00000000000E+00 0. -1.
         23    2    1    2    0    0 -0.60777621813E+02  0.12407017349E+03  0.34356851631E+03  0.38126177385E+03  0.90740771070E+02 0.  0.
         24    2    1    2    0    0 -0.27223026063E+02 -0.19934167808E+03 -0.11357200118E+02  0.21784217718E+03  0.82752827126E+02 0.  0.
        -11    1    4    4    0    0  0.16092966568E+02 -0.35970088004E+02  0.22631020478E+02  0.45442203862E+02  0.00000000000E+00 0.  1.
         12    1    4    4    0    0 -0.43315992631E+02 -0.16337159008E+03 -0.33988220596E+02  0.17239997332E+03  0.00000000000E+00 0. -1.
        -11    1    3    3    0    0 -0.17400482420E+02  0.10506723175E+03  0.16393433343E+03  0.19549006536E+03  0.00000000000E+00 0.  1.
         11    1    3    3    0    0 -0.43377139393E+02  0.19002941743E+02  0.17963418288E+03  0.18577170849E+03  0.00000000000E+00 0. -1.
         21    1    1    2  503  501  0.27482767123E+02 -0.11958698445E+02  0.92771306463E+02  0.97492708753E+02  0.00000000000E+00 0. -1.
         -2    1    1    2    0  502  0.60517880754E+02  0.87230203031E+02  0.10003259954E+02  0.10663764542E+03  0.00000000000E+00 0.  1.
<scales pt_clust_5="13000.00000" pt_clust_6="13000.00000" pt_clust_7="13000.00000" pt_clust_8="13000.00000" pt_clust_9="29.97187" pt_clust_10="106.86756"></scales>
<clustering>
<clus scale="   29.972">  1  9  2 -1</clus>
<clus scale="   82.753">  5  6 -1 -1</clus>
<clus scale="   90.741">  7  8 -1 -1</clus>
<clus scale="  106.868">  2 10  1 -1</clus>
<clus scale="  155.509">  2  5  1 -1</clus>
<clus scale="  106.868">  2  5  1 -1</clus>
</clustering>
</event>
<event>
10    4  0.2857708E-005  0.2050398E+03  0.7546771E-02  0.1158056E+00
          2   -1    0    0  503    0 -0.00000000000E+00  0.00000000000E+00  0.78640094065E+03  0.78640094065E+03  0.00000000000E+00 0. -1.
         21   -1    0    0  501  502  0.00000000000E+00 -0.00000000000E+00 -0.23031311595E+03  0.23031311595E+03  0.00000000000E+00 0.  1.
         23    2    1    2    0    0  0.12105580824E+03 -0.20161791517E+02 -0.88610418689E+02  0.17652220596E+03  0.90814516199E+02 0.  0.
         24    2    1    2    0    0  0.44662071487E+02  0.85666783945E+02  0.40567855078E+03  0.42464905759E+03  0.80113900450E+02 0.  0.
        -11    1    4    4    0    0  0.62910931909E+02  0.75488161673E+02  0.37404279830E+03  0.38673539128E+03  0.00000000000E+00 0.  1.
         12    1    4    4    0    0 -0.18248860421E+02  0.10178622272E+02  0.31635752479E+02  0.37913666309E+02  0.00000000000E+00 0. -1.
        -13    1    3    3    0    0 -0.82084731763E+01 -0.21198134619E+02 -0.19440783155E+02  0.29911268661E+02  0.00000000000E+00 0. -1.
         13    1    3    3    0    0  0.12926428142E+03  0.10363431022E+01 -0.69169635534E+02  0.14661093730E+03  0.00000000000E+00 0.  1.
         21    1    1    2  503  502  0.10486961009E+02  0.79844930759E+02  0.15027176036E+03  0.17048985683E+03  0.00000000000E+00 0.  1.
          1    1    1    2  501    0 -0.17620484074E+03 -0.14534992319E+03  0.88747932253E+02  0.24505293622E+03  0.00000000000E+00 0. -1.
<scales pt_clust_5="13000.00000" pt_clust_6="13000.00000" pt_clust_7="13000.00000" pt_clust_8="13000.00000" pt_clust_9="80.53067" pt_clust_10="188.74076"></scales>
<clustering>
<clus scale="   80.114">  5  6 -1 -1</clus>
<clus scale="   80.531">  1  9  2 -1</clus>
<clus scale="   90.815">  7  8 -1 -1</clus>
<clus scale="  152.619">  1  7  2 -1</clus>
<clus scale="  188.741">  2 10  1 -1</clus>
<clus scale="  188.741">  2  5  1 -1</clus>
</clustering>
</event>
<event>
10    4  0.2857708E-005  0.1177738E+03  0.7546771E-02  0.1250341E+00
         21   -1    0    0  503  502  0.00000000000E+00  0.00000000000E+00  0.72304191362E+02  0.72304191362E+02  0.00000000000E+00 0. -1.
         -3   -1    0    0    0  501 -0.00000000000E+00 -0.00000000000E+00 -0.93961011283E+03  0.93961011283E+03  0.00000000000E+00 0.  1.
         23    2    1    2    0    0  0.74820437649E+02  0.37484945364E+02 -0.17838264335E+03  0.21707384919E+03  0.91090446993E+02 0.  0.
         24    2    1    2    0    0  0.78638372040E+01 -0.72273495030E+02 -0.40718695766E+02  0.11582029149E+03  0.80442710767E+02 0.  0.
        -13    1    4    4    0    0  0.17250318735E+02 -0.19857252737E+02 -0.54760229655E+02  0.60750034852E+02  0.00000000000E+00 0.  1.
         14    1    4    4    0    0 -0.93864815312E+01 -0.52416242293E+02  0.14041533889E+02  0.55070256633E+02  0.00000000000E+00 0. -1.
        -11    1    3    3    0    0  0.17187804599E+02 -0.22071699821E+02 -0.96872753214E+02  0.10083110073E+03  0.00000000000E+00 0.  1.
         11    1    3    3    0    0  0.57632633050E+02  0.59556645185E+02 -0.81509890134E+02  0.11624274845E+03  0.00000000000E+00 0. -1.
         21    1    1    2  503  501  0.44820147089E+02  0.57150787160E+02 -0.24588028317E+03  0.25638286158E+03  0.00000000000E+00 0.  1.
         -4    1    1    2    0  502 -0.12750442194E+03 -0.22362237494E+02 -0.40232429918E+03  0.42263730194E+03  0.00000000000E+00 0.  1.
<scales pt_clust_5="13000.00000" pt_clust_6="13000.00000" pt_clust_7="13000.00000" pt_clust_8="13000.00000" pt_clust_9="72.62959" pt_clust_10="101.35029"></scales>
<clustering>
<clus scale="   72.630">  2  9  1 -1</clus>
<clus scale="   80.443">  5  6 -1 -1</clus>
<clus scale="   91.090">  7  8 -1 -1</clus>
<clus scale="  101.350">  1 10  2 -1</clus>
<clus scale="  109.746">  1  5  2 -1</clus>
<clus scale="  101.350">  1  5  2 -1</clus>
</clustering>
</event>
<event>
10    4  0.2938148E-005  0.1068544E+03  0.7546771E-02  0.1269638E+00
          4   -1    0    0  503    0 -0.00000000000E+00  0.00000000000E+00  0.49478537844E+03  0.49478537844E+03  0.00000000000E+00 0. -1.
         21   -1    0    0  501  502  0.00000000000E+00 -0.00000000000E+00 -0.20284691806E+03  0.20284691806E+03  0.00000000000E+00 0. -1.
         24    2    1    2    0    0 -0.35195690830E+02 -0.31731051592E+01  0.34236517450E+03  0.35409328435E+03  0.83182546600E+02 0.  0.
         23    2    1    2    0    0  0.37515809595E+02  0.74840848005E+02  0.49295613671E+02  0.13290401777E+03  0.90690859036E+02 0.  0.
        -11    1    3    3    0    0  0.26614401764E+02 -0.29399720225E+01  0.13846893975E+03  0.14103409904E+03  0.00000000000E+00 0.  1.
         12    1    3    3    0    0 -0.61810092594E+02 -0.23313313669E+00  0.20389623475E+03  0.21305918531E+03  0.00000000000E+00 0. -1.
        -13    1    4    4    0    0  0.36534664648E+02 -0.95391217749E+01  0.24266397281E+02  0.44884681153E+02  0.00000000000E+00 0.  1.
         13    1    4    4    0    0  0.98114494652E+00  0.84379969780E+02  0.25029216390E+02  0.88019336617E+02  0.00000000000E+00 0. -1.
         21    1    1    2  503  502 -0.24811218984E+02 -0.14265107447E+02  0.44998908060E+02  0.53329087790E+02  0.00000000000E+00 0. -1.
          3    1    1    2  501    0  0.22491100219E+02 -0.57402635398E+02 -0.14472123585E+03  0.15730590659E+03  0.00000000000E+00 0. -1.
<scales pt_clust_5="13000.00000" pt_clust_6="13000.00000" pt_clust_7="13000.00000" pt_clust_8="13000.00000" pt_clust_9="28.61975" pt_clust_10="61.71257"></scales>
<clustering>
<clus scale="   28.620">  1  9  2 -1</clus>
<clus scale="   61.713">  2 10  1 -1</clus>
<clus scale="   83.183">  5  6 -1 -1</clus>
<clus scale="   90.691">  7  8 -1 -1</clus>
<clus scale="  100.560">  1  5  2 -1</clus>
<clus scale="   61.713">  2  5  1 -1</clus>
</clustering>
</event>
<event>
10    4  0.2857708E-005  0.1489746E+03  0.7546771E-02  0.1203611E+00
          2   -1    0    0  503    0 -0.00000000000E+00  0.00000000000E+00  0.64377690611E+03  0.64377690611E+03  0.00000000000E+00 0. -1.
         21   -1    0    0  501  502  0.00000000000E+00 -0.00000000000E+00 -0.20576247651E+03  0.20576247651E+03  0.00000000000E+00 0. -1.
         23    2    1    2    0    0 -0.13543797799E+02 -0.10211259357E+03  0.43395366694E+03  0.45525562075E+03  0.91276935505E+02 0.  0.
         24    2    1    2    0    0  0.69154585671E+02  0.44346386412E+02 -0.46530880662E+02  0.12457652987E+03  0.81272567521E+02 0.  0.
        -11    1    4    4    0    0 -0.68691904608E+01  0.38618232443E+02 -0.13406716640E+02  0.41452306398E+02  0.00000000000E+00 0.  1.
         12    1    4    4    0    0  0.76023776132E+02  0.57281539694E+01 -0.33124164022E+02  0.83124223470E+02  0.00000000000E+00 0. -1.
        -13    1    3    3    0    0 -0.22709431504E+02  0.67402666160E+01  0.13292864029E+03  0.13502286060E+03  0.00000000000E+00 0.  1.
         13    1    3    3    0    0  0.91656337056E+01 -0.10885286019E+03  0.30102502664E+03  0.32023276016E+03  0.00000000000E+00 0. -1.
         21    1    1    2  503  502 -0.86883575393E+02  0.79941923004E+01  0.13865821362E+03  0.16382540398E+03  0.00000000000E+00 0. -1.
          1    1    1    2  501    0  0.31272787521E+02  0.49772014862E+02 -0.88066570298E+02  0.10588182803E+03  0.00000000000E+00 0. -1.
<scales pt_clust_5="13000.00000" pt_clust_6="13000.00000" pt_clust_7="13000.00000" pt_clust_8="13000.00000" pt_clust_9="84.39411" pt_clust_10="58.78130"></scales>
<clustering>
<clus scale="   58.781">  2 10  1 -1</clus>
<clus scale="   81.273">  5  6 -1 -1</clus>
<clus scale="   84.394">  1  9  2 -1</clus>
<clus scale="   91.277">  7  8 -1 -1</clus>
<clus scale="  143.064">  2  5  1 -1</clus>
<clus scale="   58.781">  2  5  1 -1</clus>
</clustering>
</event>
<event>
10    4  0.2857708E-005  0.9295459E+02  0.7546771E-02  0.1300025E+00
         21   -1    0    0  501  502  0.00000000000E+00  0.00000000000E+00  0.60784508246E+02  0.60784508246E+02  0.00000000000E+00 0.  1.
         -1   -1    0    0    0  501 -0.00000000000E+00 -0.00000000000E+00 -0.67289396144E+03  0.67289396144E+03  0.00000000000E+00 0.  1.
         23    2    1    2    0    0 -0.35844303126E+01  0.60596322846E+01 -0.44800812833E+03  0.45721120639E+03  0.91001301728E+02 0.  0.
         24    2    1    2    0    0  0.50233767244E+02 -0.65327340976E+02 -0.11714777084E+03  0.16601052910E+03  0.83933322989E+02 0.  0.
        -11    1    4    4    0    0  0.24692988539E+02 -0.62840101202E+02 -0.27741846508E+02  0.72994739877E+02  0.00000000000E+00 0.  1.
         12    1    4    4    0    0  0.25540778704E+02 -0.24872397742E+01 -0.89405924335E+02  0.93015789222E+02  0.00000000000E+00 0. -1.
        -11    1    3    3    0    0 -0.95424876697E+01  0.47347624280E+02 -0.20221549841E+03  0.20790373828E+03  0.00000000000E+00 0.  1.
         11    1    3    3    0    0  0.59580573572E+01 -0.41287991995E+02 -0.24579262992E+03  0.24930746811E+03  0.00000000000E+00 0. -1.
         21    1    1    2  503  502 -0.33968152457E+02  0.44199242079E+01 -0.41629403596E+02  0.53910837084E+02  0.00000000000E+00 0. -1.
         -2    1    1    2    0  503 -0.12681184474E+02  0.54847784484E+02 -0.53241504266E+01  0.56545897112E+02  0.00000000000E+00 0.  1.
<scales pt_clust_5="13000.00000" pt_clust_6="13000.00000" pt_clust_7="13000.00000" pt_clust_8="13000.00000" pt_clust_9="34.25450" pt_clust_10="63.70138"></scales>
<clustering>
<clus scale="   34.255">  1  9  2 -1</clus>
<clus scale="   63.701">  1 10  2 -1</clus>
<clus scale="   83.933">  5  6 -1 -1</clus>
<clus scale="   86.047">  1  5  2 -1</clus>
<clus scale="   91.001">  7  8 -1 -1</clus>
<clus scale="   34.255">  1  5  2 -1</clus>
</clustering>
</event>
<event>
10    4  0.2857708E-005  0.1569911E+03  0.7546771E-02  0.1194018E+00
         -1   -1    0    0    0  501 -0.00000000000E+00  0.00000000000E+00  0.66556986743E+03  0.66556986743E+03  0.00000000000E+00 0.  1.
         21   -1    0    0  503  502  0.00000000000E+00 -0.00000000000E+00 -0.84027747273E+02  0.84027747273E+02  0.00000000000E+00 0.  1.
         24    2    1    2    0    0  0.66946656083E+02  0.12608301931E+03  0.31389953807E+03  0.35409586204E+03  0.80449841497E+02 0.  0.
         23    2    1    2    0    0 -0.76163146876E+02 -0.11703146197E+03  0.77973491678E+02  0.18440637601E+03  0.91807723398E+02 0.  0.
        -13    1    3    3    0    0  0.26373385412E+02  0.11800357473E+03  0.25383437022E+03  0.28116238478E+03  0.00000000000E+00 0.  1.
         14    1    3    3    0    0  0.40573270671E+02  0.80794445791E+01  0.60065167848E+02  0.72933477267E+02  0.00000000000E+00 0. -1.
        -13    1    4    4    0    0  0.11452935785E+02 -0.63266336517E+02  0.28672144162E+02  0.70398088931E+02  0.00000000000E+00 0. -1.
         13    1    4    4    0    0 -0.87616082660E+02 -0.53765125458E+02  0.49301347516E+02  0.11400828708E+03  0.00000000000E+00 0.  1.
         21    1    1    2  503  501 -0.37035619880E+02 -0.23803500827E+02  0.85506407021E+02  0.96174785849E+02  0.00000000000E+00 0.  1.
         -2    1    1    2    0  502  0.46252110672E+02  0.14751943490E+02  0.10416268339E+03  0.11492059080E+03  0.00000000000E+00 0.  1.
<scales pt_clust_5="13000.00000" pt_clust_6="13000.00000" pt_clust_7="13000.00000" pt_clust_8="13000.00000" pt_clust_9="44.02549" pt_clust_10="40.50258"></scales>
<clustering>
<clus scale="   44.025">  1  9  2 -1</clus>
<clus scale="   40.503">  2 10  1 -1</clus>
<clus scale="   80.450">  5  6 -1 -1</clus>
<clus scale="   91.808">  7  8 -1 -1</clus>
<clus scale="  150.631">  1  5  2 -1</clus>
<clus scale="   40.503">  2  5  1 -1</clus>
</clustering>
</event>
<event>
10    4  0.2857708E-005  0.1765792E+03  0.7546771E-02  0.1172536E+00
         21   -1    0    0  503  502  0.00000000000E+00  0.00000000000E+00  0.87601971702E+02  0.87601971702E+02  0.00000000000E+00 0.  1.
         -1   -1    0    0    0  501 -0.00000000000E+00 -0.00000000000E+00 -0.75065402729E+03  0.75065402729E+03  0.00000000000E+00 0.  1.
         24    2    1    2    0    0 -0.15989930330E+03 -0.49055883353E+02 -0.39753148030E+03  0.43949598190E+03  0.84564610752E+02 0.  0.
         23    2    1    2    0    0  0.11450374873E+03  0.43272743138E+02 -0.19597435211E+03  0.24988647700E+03  0.95150753697E+02 0.  0.
        -11    1    3    3    0    0 -0.15891466990E+03 -0.22121683628E+02 -0.34250395883E+03  0.37822242531E+03  0.00000000000E+00 0.  1.
         12    1    3    3    0    0 -0.98463339596E+00 -0.26934199725E+02 -0.55027521477E+02  0.61273556594E+02  0.00000000000E+00 0. -1.
        -11    1    4    4    0    0  0.66928743733E+02 -0.25098800821E+02 -0.83257176000E+02  0.10973223727E+03  0.00000000000E+00 0.  1.
         11    1    4    4    0    0  0.47575004995E+02  0.68371543959E+02 -0.11271717611E+03  0.14015423973E+03  0.00000000000E+00 0. -1.
         21    1    1    2  503  501 -0.20547102458E+02 -0.14831281554E+02 -0.75392145046E+02  0.79536946551E+02  0.00000000000E+00 0.  1.
         -2    1    1    2    0  502  0.65942657026E+02  0.20614421770E+02  0.58459218772E+01  0.69336593536E+02  0.00000000000E+00 0.  1.
<scales pt_clust_5="13000.00000" pt_clust_6="13000.00000" pt_clust_7="13000.00000" pt_clust_8="13000.00000" pt_clust_9="25.34069" pt_clust_10="67.95729"></scales>
<clustering>
<clus scale="   25.341">  2  9  1 -1</clus>
<clus scale="   67.957">  1 10  2 -1</clus>
<clus scale="   84.565">  5  6 -1 -1</clus>
<clus scale="   95.151">  7  8 -1 -1</clus>
<clus scale="  171.107">  2  5  1 -1</clus>
<clus scale="   67.957">  1  5  2 -1</clus>
</clustering>
</event>
<event>
10    4  0.2857708E-005  0.1239681E+03  0.7546771E-02  0.1237365E+00
         -3   -1    0    0    0  501 -0.00000000000E+00  0.00000000000E+00  0.14201384782E+03  0.14201384782E+03  0.00000000000E+00 0.  1.
         21   -1    0    0  503  502  0.00000000000E+00 -0.00000000000E+00 -0.27853387983E+03  0.27853387983E+03  0.00000000000E+00 0.  1.
         23    2    1    2    0    0 -0.94267637419E+02 -0.53452495024E+02  0.85903922175E+01  0.14069760707E+03  0.89322254264E+02 0.  0.
         24    2    1    2    0    0  0.49930951215E+01  0.69019651385E+02 -0.64662534115E+02  0.13177753781E+03  0.91626594813E+02 0.  0.
        -11    1    4    4    0    0 -0.32804799220E+02  0.42132923709E+02 -0.66586210254E+02  0.85352571772E+02  0.00000000000E+00 0.  1.
         12    1    4    4    0    0  0.37797894342E+02  0.26886727676E+02  0.19236761391E+01  0.46424966038E+02  0.00000000000E+00 0. -1.
        -13    1    3    3    0    0 -0.32905724088E+02  0.18021080021E+02  0.24992617158E+02  0.45079672972E+02  0.00000000000E+00 0. -1.
         13    1    3    3    0    0 -0.61361913331E+02 -0.71473575045E+02 -0.16402224940E+02  0.95617934094E+02  0.00000000000E+00 0.  1.
         21    1    1    2  503  501  0.28963995890E+02 -0.45827788530E+02 -0.20981508038E+02  0.58131944222E+02  0.00000000000E+00 0.  1.
         -4    1    1    2    0  502  0.60310546408E+02  0.30260632169E+02 -0.59466382075E+02  0.89940638559E+02  0.00000000000E+00 0.  1.
<scales pt_clust_5="13000.00000" pt_clust_6="13000.00000" pt_clust_7="13000.00000" pt_clust_8="13000.00000" pt_clust_9="54.21346" pt_clust_10="71.17143"></scales>
<clustering>
<clus scale="   54.213">  2  9  1 -1</clus>
<clus scale="   71.171">  2 10  1 -1</clus>
<clus scale="   89.322">  7  8 -1 -1</clus>
<clus scale="   91.627">  5  6 -1 -1</clus>
<clus scale="  122.275">  1  7  2 -1</clus>
<clus scale="   54.213">  2  5  1 -1</clus>
</clustering>
</event>
<event>
10    4  0.2857708E-005  0.1217070E+03  0.7546771E-02  0.1254416E+00
         21   -1    0    0  501  502  0.00000000000E+00  0.00000000000E+00  0.41020307388E+02  0.41020307388E+02  0.00000000000E+00 0.  1.
          2   -1    0    0  503    0 -0.00000000000E+00 -0.00000000000E+00 -0.60605444357E+03  0.60605444357E+03  0.00000000000E+00 0. -1.
         24    2    1    2    0    0  0.52167914641E+02  0.15885090653E+02 -0.34808514119E+03  0.36026495924E+03  0.75191408507E+02 0.  0.
         23    2    1    2    0    0 -0.42945983421E+02 -0.16695325116E+02 -0.16329836062E+03  0.20210642840E+03  0.10980693260E+03 0.  0.
        -11    1    3    3    0    0  0.89267832770E+01  0.20945433012E+02 -0.23309239732E+02  0.32584034136E+02  0.00000000000E+00 0.  1.
         12    1    3    3    0    0  0.43241131364E+02 -0.50603423587E+01 -0.32477590146E+03  0.32768092510E+03  0.00000000000E+00 0. -1.
        -13    1    4    4    0    0 -0.64986927785E+01 -0.53937305612E+02 -0.37698581571E+02  0.66126008476E+02  0.00000000000E+00 0. -1.
         13    1    4    4    0    0 -0.36447290643E+02  0.37241980495E+02 -0.12559977905E+03  0.13598041993E+03  0.00000000000E+00 0.  1.
         21    1    1    2  503  502  0.81146902419E+01  0.27014364898E+02 -0.43195614981E+02  0.51589584822E+02  0.00000000000E+00 0. -1.
          1    1    1    2  501    0 -0.17336621462E+02 -0.26204130435E+02 -0.10455019386E+02  0.33113778490E+02  0.00000000000E+00 0. -1.
<scales pt_clust_5="13000.00000" pt_clust_6="13000.00000" pt_clust_7="13000.00000" pt_clust_8="13000.00000" pt_clust_9="28.20681" pt_clust_10="23.24591"></scales>
<clustering>
<clus scale="   28.207">  1  9  2 -1</clus>
<clus scale="   23.246">  1 10  2 -1</clus>
<clus scale="   75.191">  5  6 -1 -1</clus>
<clus scale="   91.699">  2  5  1 -1</clus>
<clus scale="  109.807">  7  8 -1 -1</clus>
<clus scale="   28.207">  1  5  2 -1</clus>
</clustering>
</event>
<event>
10    4  0.2857708E-005  0.9151991E+02  0.7546771E-02  0.1306071E+00
         21   -1    0    0  503  502  0.00000000000E+00  0.00000000000E+00  0.68985411715E+03  0.68985411715E+03  0.00000000000E+00 0.  1.
         -1   -1    0    0    0  501 -0.00000000000E+00 -0.00000000000E+00 -0.45491799142E+02  0.45491799142E+02  0.00000000000E+00 0.  1.
         23    2    1    2    0    0  0.92862684546E+01  0.52067702157E+01  0.37348326208E+02  0.98850913477E+02  0.90902477342E+02 0.  0.
         24    2    1    2    0    0 -0.30644234751E+01  0.42918098861E+02  0.18239442319E+03  0.20375866319E+03  0.79990707683E+02 0.  0.
        -11    1    4    4    0    0 -0.42571323840E+01  0.64785793387E+02  0.10614986955E+03  0.12443117377E+03  0.00000000000E+00 0.  1.
         12    1    4    4    0    0  0.11927089089E+01 -0.21867694526E+02  0.76244553641E+02  0.79327489424E+02  0.00000000000E+00 0. -1.
        -11    1    3    3    0    0 -0.30657892734E+02  0.27784859651E+02  0.29031283463E+01  0.41476896785E+02  0.00000000000E+00 0.  1.
         11    1    3    3    0    0  0.39944161189E+02 -0.22578089436E+02  0.34445197862E+02  0.57374016692E+02  0.00000000000E+00 0. -1.
         21    1    1    2  503  501  0.20960266634E+02 -0.34108206998E+01  0.47854071003E+02  0.52354355949E+02  0.00000000000E+00 0. -1.
         -2    1    1    2    0  502 -0.27182111614E+02 -0.44714048377E+02  0.37676549761E+03  0.38038198367E+03  0.00000000000E+00 0.  1.
<scales pt_clust_5="13000.00000" pt_clust_6="13000.00000" pt_clust_7="13000.00000" pt_clust_8="13000.00000" pt_clust_9="21.23597" pt_clust_10="49.01359"></scales>
<clustering>
<clus scale="   21.236">  1  9  2 -1</clus>
<clus scale="   49.014">  1 10  2 -1</clus>
<clus scale="   79.991">  5  6 -1 -1</clus>
<clus scale="   80.692">  1  5  2 -1</clus>
<clus scale="   90.902">  7  8 -1 -1</clus>
<clus scale="   21.236">  1  5  2 -1</clus>
</clustering>
</event>
<event>
10    4  0.2857708E-005  0.1410363E+03  0.7546771E-02  0.1231577E+00
          2   -1    0    0  503    0 -0.00000000000E+00  0.00000000000E+00  0.24690117425E+04  0.24690117425E+04  0.00000000000E+00 0. -1.
         21   -1    0    0  501  502  0.00000000000E+00 -0.00000000000E+00 -0.17253778791E+02  0.17253778791E+02  0.00000000000E+00 0. -1.
         24    2    1    2    0    0  0.30505928050E+02  0.10323996998E+03  0.10856620983E+04  0.10940180405E+04  0.81389054127E+02 0.  0.
         23    2    1    2    0    0  0.80600350792E+01 -0.12473500501E+02  0.26586854107E+03  0.28205305763E+03  0.92990826450E+02 0.  0.
        -13    1    3    3    0    0 -0.18395426011E+02  0.38666483813E+02  0.19322658240E+03  0.19791412485E+03  0.00000000000E+00 0.  1.
         14    1    3    3    0    0  0.48901354061E+02  0.64573486165E+02  0.89243551591E+03  0.89610391563E+03  0.00000000000E+00 0. -1.
        -13    1    4    4    0    0 -0.29198898029E+02  0.26998444610E+02  0.11955984839E+03  0.12600019446E+03  0.00000000000E+00 0.  1.
         13    1    4    4    0    0  0.37258933108E+02 -0.39471945111E+02  0.14630869269E+03  0.15605286317E+03  0.00000000000E+00 0. -1.
         21    1    1    2  503  502 -0.41822922860E+02 -0.11475209646E+03  0.97768447737E+03  0.98528378541E+03  0.00000000000E+00 0. -1.
          1    1    1    2  501    0  0.32569597303E+01  0.23985626983E+02  0.12254284697E+03  0.12491063778E+03  0.00000000000E+00 0. -1.
<scales pt_clust_5="13000.00000" pt_clust_6="13000.00000" pt_clust_7="13000.00000" pt_clust_8="13000.00000" pt_clust_9="115.18273" pt_clust_10="24.20574"></scales>
<clustering>
<clus scale="   24.206">  2 10  1 -1</clus>
<clus scale="   81.389">  5  6 -1 -1</clus>
<clus scale="   92.991">  7  8 -1 -1</clus>
<clus scale="   93.496">  2  7  1 -1</clus>
<clus scale="  115.183">  2  9  1 -1</clus>
<clus scale="   24.206">  2  5  1 -1</clus>
</clustering>
</event>
<event>
10    4  0.2857708E-005  0.2235210E+03  0.7546771E-02  0.1155043E+00
          2   -1    0    0  503    0 -0.00000000000E+00  0.00000000000E+00  0.14992659366E+04  0.14992659366E+04  0.00000000000E+00 0. -1.
         21   -1    0    0  501  502  0.00000000000E+00 -0.00000000000E+00 -0.33740904969E+03  0.33740904969E+03  0.00000000000E+00 0.  1.
         24    2    1    2    0    0 -0.14589292276E+03  0.27501067908E+02  0.91466654318E+03  0.93016355830E+03  0.80921606031E+02 0.  0.
         23    2    1    2    0    0  0.63331790765E+02 -0.20453770381E+03  0.97903160949E+02  0.25102372367E+03  0.87070620302E+02 0.  0.
        -11    1    3    3    0    0 -0.89734810458E+02  0.54507165813E+02  0.50647356946E+03  0.51724157208E+03  0.00000000000E+00 0.  1.
         12    1    3    3    0    0 -0.56158112299E+02 -0.27006097904E+02  0.40819297373E+03  0.41292198622E+03  0.00000000000E+00 0. -1.
        -13    1    4    4    0    0  0.81689261445E+02 -0.18195488887E+03  0.97289530895E+02  0.22191432996E+03  0.00000000000E+00 0.  1.
         13    1    4    4    0    0 -0.18357470680E+02 -0.22582814932E+02  0.61363005450E+00  0.29109393705E+02  0.00000000000E+00 0. -1.
         21    1    1    2  503  502  0.12437352328E+03 -0.22647974547E+02  0.34826888514E+03  0.37050360376E+03  0.00000000000E+00 0.  1.
          1    1    1    2  501    0 -0.41812391289E+02  0.19968461044E+03 -0.19898170234E+03  0.28498410058E+03  0.00000000000E+00 0. -1.
<scales pt_clust_5="13000.00000" pt_clust_6="13000.00000" pt_clust_7="13000.00000" pt_clust_8="13000.00000" pt_clust_9="126.41876" pt_clust_10="205.86486"></scales>
<clustering>
<clus scale="   80.922">  5  6 -1 -1</clus>
<clus scale="   87.071">  7  8 -1 -1</clus>
<clus scale="  126.419">  1  9  2 -1</clus>
<clus scale="  126.419">  1  5  2 -1</clus>
<clus scale="  205.865">  2 10  1 -1</clus>
<clus scale="  205.865">  2  5  1 -1</clus>
</clustering>
</event>
<event>
10    4  0.2857708E-005  0.1209364E+03  0.7546771E-02  0.1245959E+00
         21   -1    0    0  503  502  0.00000000000E+00  0.00000000000E+00  0.83940873414E+02  0.83940873414E+02  0.00000000000E+00 0. -1.
         -1   -1    0    0    0  501 -0.00000000000E+00 -0.00000000000E+00 -0.31588082450E+03  0.31588082450E+03  0.00000000000E+00 0.  1.
         23    2    1    2    0    0 -0.48465613410E+02  0.66267588207E+02 -0.18502720621E+03  0.22322227363E+03  0.94089358994E+02 0.  0.
         24    2    1    2    0    0  0.49497896809E+02 -0.22938620382E+02 -0.83999313796E+01  0.97570359358E+02  0.80456162501E+02 0.  0.
        -13    1    4    4    0    0  0.27347941780E+02  0.76707656898E+01 -0.39487666135E+02  0.48641816811E+02  0.00000000000E+00 0.  1.
         14    1    4    4    0    0  0.22149955028E+02 -0.30609386072E+02  0.31087734756E+02  0.48928542546E+02  0.00000000000E+00 0. -1.
        -13    1    3    3    0    0 -0.42496055877E+02 -0.92881284098E+01 -0.37784428955E+02  0.57618114911E+02  0.00000000000E+00 0. -1.
         13    1    3    3    0    0 -0.59695575334E+01  0.75555716616E+02 -0.14724277725E+03  0.16560415872E+03  0.00000000000E+00 0.  1.
         21    1    1    2  503  501 -0.20062783079E+02 -0.21379306590E+01 -0.24077413168E+02  0.31413497692E+02  0.00000000000E+00 0.  1.
         -2    1    1    2    0  502  0.19030499681E+02 -0.41191037165E+02 -0.14435400332E+02  0.47615567240E+02  0.00000000000E+00 0.  1.
<scales pt_clust_5="13000.00000" pt_clust_6="13000.00000" pt_clust_7="13000.00000" pt_clust_8="13000.00000" pt_clust_9="20.17637" pt_clust_10="44.72497"></scales>
<clustering>
<clus scale="   20.176">  2  9  1 -1</clus>
<clus scale="   44.725">  1 10  2 -1</clus>
<clus scale="   80.456">  5  6 -1 -1</clus>
<clus scale="   94.089">  7  8 -1 -1</clus>
<clus scale="  110.662">  1  5  2 -1</clus>
<clus scale="   44.725">  1  5  2 -1</clus>
</clustering>
</event>
<event>
10    4  0.2857708E-005  0.1155051E+03  0.7546771E-02  0.1253760E+00
         21   -1    0    0  501  502  0.00000000000E+00  0.00000000000E+00  0.33879195270E+03  0.33879195270E+03  0.00000000000E+00 0.  1.
         -3   -1    0    0    0  501 -0.00000000000E+00 -0.00000000000E+00 -0.13572027720E+03  0.13572027720E+03  0.00000000000E+00 0.  1.
         24    2    1    2    0    0  0.73028469702E+02 -0.37446930360E+02 -0.47873459722E+02  0.12540062391E+03  0.81841421982E+02 0.  0.
         23    2    1    2    0    0 -0.16107286644E+02  0.47843050123E+02  0.10005446580E+03  0.14417522989E+03  0.90703906526E+02 0.  0.
        -13    1    3    3    0    0  0.46548627906E+02 -0.44494546915E+02 -0.66265027718E+02  0.92399098283E+02  0.00000000000E+00 0.  1.
         14    1    3    3    0    0  0.26479841796E+02  0.70476165548E+01  0.18391567996E+02  0.33001525631E+02  0.00000000000E+00 0. -1.
        -11    1    4    4    0    0 -0.13460999566E+02 -0.23401275704E+02  0.50781694359E+02  0.57511726595E+02  0.00000000000E+00 0.  1.
         11    1    4    4    0    0 -0.26462870787E+01  0.71244325828E+02  0.49272771442E+02  0.86663503296E+02  0.00000000000E+00 0. -1.
         21    1    1    2  503  502  0.13538425054E+02 -0.53308064518E+02  0.47555709429E+02  0.72708900382E+02  0.00000000000E+00 0.  1.
         -4    1    1    2    0  503 -0.70459608111E+02  0.42911944754E+02  0.10333495999E+03  0.13222747572E+03  0.00000000000E+00 0.  1.
<scales pt_clust_5="13000.00000" pt_clust_6="13000.00000" pt_clust_7="13000.00000" pt_clust_8="13000.00000" pt_clust_9="55.00035" pt_clust_10="67.86952"></scales>
<clustering>
<clus scale="   55.000">  1  9  2 -1</clus>
<clus scale="   67.870">  1 10  2 -1</clus>
<clus scale="   81.841">  5  6 -1 -1</clus>
<clus scale="   90.704">  7  8 -1 -1</clus>
<clus scale="  108.684">  2  5  1 -1</clus>
<clus scale="   55.000">  1  5  2 -1</clus>
</clustering>
</event>
<event>
10    4  0.2857708E-005  0.1218022E+03  0.7546771E-02  0.1243922E+00
         -1   -1    0    0    0  501 -0.00000000000E+00  0.00000000000E+00  0.60014507772E+03  0.60014507772E+03  0.00000000000E+00 0.  1.
         21   -1    0    0  503  502  0.00000000000E+00 -0.00000000000E+00 -0.55647208895E+02  0.55647208895E+02  0.00000000000E+00 0.  1.
         23    2    1    2    0    0  0.55192581679E+02  0.31069050367E+02  0.21573776826E+03  0.24276678564E+03  0.91550098815E+02 0.  0.
         24    2    1    2    0    0 -0.83118562606E+02 -0.88395763594E+02  0.14367291041E+03  0.20407439809E+03  0.79258742732E+02 0.  0.
        -11    1    4    4    0    0 -0.32282416510E+02 -0.15630584129E+02  0.80415706026E+00  0.35876402336E+02  0.00000000000E+00 0.  1.
         12    1    4    4    0    0 -0.50836146096E+02 -0.72765179465E+02  0.14286875335E+03  0.16819799576E+03  0.00000000000E+00 0. -1.
        -13    1    3    3    0    0  0.70267621651E+02  0.50548627162E+02  0.16290133397E+03  0.18447099221E+03  0.00000000000E+00 0.  1.
         13    1    3    3    0    0 -0.15075039972E+02 -0.19479576795E+02  0.52836434294E+02  0.58295793426E+02  0.00000000000E+00 0. -1.
         21    1    1    2  503  501 -0.15562861473E+02  0.28799040479E+02  0.26700405399E+02  0.42243331287E+02  0.00000000000E+00 0.  1.
         -2    1    1    2    0  502  0.43488842400E+02  0.28527672747E+02  0.15838678475E+03  0.16670777159E+03  0.00000000000E+00 0.  1.
<scales pt_clust_5="13000.00000" pt_clust_6="13000.00000" pt_clust_7="13000.00000" pt_clust_8="13000.00000" pt_clust_9="32.73511" pt_clust_10="52.32937"></scales>
<clustering>
<clus scale="   32.735">  2  9  1 -1</clus>
<clus scale="   52.329">  2 10  1 -1</clus>
<clus scale="   79.259">  5  6 -1 -1</clus>
<clus scale="   91.550">  7  8 -1 -1</clus>
<clus scale="  112.855">  2  5  1 -1</clus>
<clus scale="   32.735">  2  5  1 -1</clus>
</clustering>
</event>
<event>
10    4  0.2857708E-005  0.2313556E+03  0.7546771E-02  0.1133711E+00
         -1   -1    0    0    0  501 -0.00000000000E+00  0.00000000000E+00  0.62804176702E+03  0.62804176702E+03  0.00000000000E+00 0.  1.
         21   -1    0    0  503  502  0.00000000000E+00 -0.00000000000E+00 -0.30768337154E+03  0.30768337154E+03  0.00000000000E+00 0.  1.
         24    2    1    2    0    0  0.42084344546E+02  0.16402599163E+03  0.88996767158E+02  0.20780409719E+03  0.81157256364E+02 0.  0.
         23    2    1    2    0    0  0.83353337194E+01  0.18548239854E+03 -0.88040172085E+02  0.22470113638E+03  0.90919364467E+02 0.  0.
        -13    1    3    3    0    0  0.56582824893E+02  0.61059452189E+02  0.47525287181E+02  0.95856797861E+02  0.00000000000E+00 0.  1.
         14    1    3    3    0    0 -0.14498480347E+02  0.10296653944E+03  0.41471479977E+02  0.11194729933E+03  0.00000000000E+00 0. -1.
        -11    1    4    4    0    0 -0.18825743218E+02  0.16412678901E+03 -0.93336347547E+02  0.18974637085E+03  0.00000000000E+00 0.  1.
         11    1    4    4    0    0  0.27161076938E+02  0.21355609529E+02  0.52961754618E+01  0.34954765531E+02  0.00000000000E+00 0. -1.
         21    1    1    2  503  501 -0.18372980787E+02  0.14482490866E+02  0.21495814456E+02  0.31770725579E+02  0.00000000000E+00 0. -1.
         -2    1    1    2    0  502 -0.32046697478E+02 -0.36399088103E+03  0.29790598596E+03  0.47144917940E+03  0.00000000000E+00 0.  1.
<scales pt_clust_5="13000.00000" pt_clust_6="13000.00000" pt_clust_7="13000.00000" pt_clust_8="13000.00000" pt_clust_9="23.39464" pt_clust_10="212.74198"></scales>
<clustering>
<clus scale="   23.395">  1  9  2 -1</clus>
<clus scale="   81.157">  5  6 -1 -1</clus>
<clus scale="   90.919">  7  8 -1 -1</clus>
<clus scale="  189.964">  1  5  2 -1</clus>
<clus scale="  212.742">  2 10  1 -1</clus>
<clus scale="  212.742">  2  5  1 -1</clus>
</clustering>
</event>
<event>
10    4  0.2857708E-005  0.1814531E+03  0.7546771E-02  0.1192450E+00
          2   -1    0    0  503    0 -0.00000000000E+00  0.00000000000E+00  0.76268823170E+02  0.76268823170E+02  0.00000000000E+00 0. -1.
         21   -1    0    0  501  502  0.00000000000E+00 -0.00000000000E+00 -0.13109466357E+04  0.13109466357E+04  0.00000000000E+00 0. -1.
         23    2    1    2    0    0 -0.33687671292E+01 -0.19933632854E+02 -0.23696844771E+02  0.95989409065E+02  0.90794977228E+02 0.  0.
         24    2    1    2    0    0 -0.10690241065E+03 -0.74706005581E+02 -0.34956335669E+03  0.38182343718E+03  0.81150996120E+02 0.  0.
        -11    1    4    4    0    0 -0.32696565200E+02  0.12243199117E+02 -0.12577626777E+03  0.13053210652E+03  0.00000000000E+00 0.  1.
         12    1    4    4    0    0 -0.74205845448E+02 -0.86949204698E+02 -0.22378708892E+03  0.25129133066E+03  0.00000000000E+00 0. -1.
        -13    1    3    3    0    0  0.13758766083E+02 -0.47892545165E+02  0.79030614357E+01  0.50452531221E+02  0.00000000000E+00 0. -1.
         13    1    3    3    0    0 -0.17127533212E+02  0.27958912311E+02 -0.31599906207E+02  0.45536877844E+02  0.00000000000E+00 0.  1.
         21    1    1    2  503  502 -0.72658751645E+02  0.42361438450E+02 -0.14001303062E+03  0.16333228218E+03  0.00000000000E+00 0. -1.
          1    1    1    2  501    0  0.18292992942E+03  0.52278199985E+02 -0.72140458044E+03  0.74607033043E+03  0.00000000000E+00 0. -1.
<scales pt_clust_5="13000.00000" pt_clust_6="13000.00000" pt_clust_7="13000.00000" pt_clust_8="13000.00000" pt_clust_9="84.10580" pt_clust_10="162.29529"></scales>
<clustering>
<clus scale="   81.151">  5  6 -1 -1</clus>
<clus scale="   84.106">  1  9  2 -1</clus>
<clus scale="   90.795">  7  8 -1 -1</clus>
<clus scale="  100.973">  1  7  2 -1</clus>
<clus scale="  162.295">  2 10  1 -1</clus>
<clus scale="  162.295">  2  5  1 -1</clus>
</clustering>
</event>
<event>
10    4  0.2857708E-005  0.1098136E+03  0.7546771E-02  0.1265961E+00
         21   -1    0    0  501  502  0.00000000000E+00  0.00000000000E+00  0.22766377027E+03  0.22766377027E+03  0.00000000000E+00 0.  1.
          2   -1    0    0  503    0 -0.00000000000E+00 -0.00000000000E+00 -0.20429864484E+03  0.20429864484E+03  0.00000000000E+00 0. -1.
         23    2    1    2    0    0 -0.12389383728E+02 -0.67155496017E+02 -0.12961221151E+03  0.17289828885E+03  0.91821214552E+02 0.  0.
         24    2    1    2    0    0  0.98535759960E+01  0.39959139690E+02  0.12650419525E+02  0.90146103739E+02  0.79198870575E+02 0.  0.
        -13    1    4    4    0    0  0.15924647729E+02 -0.18715798399E+02  0.18655659709E+02  0.30853025041E+02  0.00000000000E+00 0.  1.
         14    1    4    4    0    0 -0.60710717331E+01  0.58674938089E+02 -0.60052401837E+01  0.59293078698E+02  0.00000000000E+00 0. -1.
        -11    1    3    3    0    0  0.18093327537E+02 -0.79277775533E+02 -0.86443634097E+02  0.11867955203E+03  0.00000000000E+00 0.  1.
         11    1    3    3    0    0 -0.30482711264E+02  0.12122279516E+02 -0.43168577409E+02  0.54218736819E+02  0.00000000000E+00 0. -1.
         21    1    1    2  503  502 -0.15982259673E+02 -0.15937865130E+02  0.17869744079E+01  0.22641586664E+02  0.00000000000E+00 0. -1.
          1    1    1    2  501    0  0.18518067404E+02  0.43134221456E+02  0.13853994300E+03  0.14627643586E+03  0.00000000000E+00 0. -1.
<scales pt_clust_5="13000.00000" pt_clust_6="13000.00000" pt_clust_7="13000.00000" pt_clust_8="13000.00000" pt_clust_9="22.57096" pt_clust_10="33.55593"></scales>
<clustering>
<clus scale="   22.571">  1  9  2 -1</clus>
<clus scale="   33.556">  1 10  2 -1</clus>
<clus scale="   79.199">  5  6 -1 -1</clus>
<clus scale="   91.821">  7  8 -1 -1</clus>
<clus scale="   99.500">  1  5  2 -1</clus>
<clus scale="   22.571">  1  5  2 -1</clus>
</clustering>
</event>
<event>
10    4  0.2857708E-005  0.1679844E+03  0.7546771E-02  0.1181735E+00
         21   -1    0    0  501  502  0.00000000000E+00  0.00000000000E+00  0.17155152632E+03  0.17155152632E+03  0.00000000000E+00 0.  1.
          4   -1    0    0  503    0 -0.00000000000E+00 -0.00000000000E+00 -0.16185443572E+04  0.16185443572E+04  0.00000000000E+00 0. -1.
         24    2    1    2    0    0 -0.14844366013E+03 -0.47235567802E+01 -0.14970987182E+04  0.15062532177E+04  0.73731617657E+02 0.  0.
         23    2    1    2    0    0  0.61275474813E+02  0.81531091344E+02  0.12234469149E+02  0.13469037686E+03  0.87119531189E+02 0.  0.
        -11    1    3    3    0    0 -0.32902201217E+02 -0.15527741287E+02 -0.15795533109E+03  0.16209118488E+03  0.00000000000E+00 0.  1.
         12    1    3    3    0    0 -0.11554145891E+03  0.10804184506E+02 -0.13391433871E+04  0.13441620328E+04  0.00000000000E+00 0. -1.
        -13    1    4    4    0    0  0.66104164909E+02  0.24891529612E+02  0.27550665525E+02  0.75818124717E+02  0.00000000000E+00 0.  1.
         13    1    4    4    0    0 -0.48286900961E+01  0.56639561731E+02 -0.15316196376E+02  0.58872252145E+02  0.00000000000E+00 0. -1.
         21    1    1    2  503  502  0.20438219853E+02 -0.28580986280E+02 -0.27017091765E+02  0.44322870564E+02  0.00000000000E+00 0.  1.
          3    1    1    2  501    0  0.66729965462E+02 -0.48226548283E+02  0.64888509928E+02  0.10482941844E+03  0.00000000000E+00 0. -1.
<scales pt_clust_5="13000.00000" pt_clust_6="13000.00000" pt_clust_7="13000.00000" pt_clust_8="13000.00000" pt_clust_9="35.13678" pt_clust_10="99.85348"></scales>
<clustering>
<clus scale="   35.137">  1  9  2 -1</clus>
<clus scale="   73.732">  5  6 -1 -1</clus>
<clus scale="   87.120">  7  8 -1 -1</clus>
<clus scale="   99.853">  1 10  2 -1</clus>
<clus scale="  161.447">  2  5  1 -1</clus>
<clus scale="   35.137">  1  5  2 -1</clus>
</clustering>
</event>
<event>
10    4  0.2857708E-005  0.1143488E+03  0.7546771E-02  0.1256554E+00
         21   -1    0    0  501  502  0.00000000000E+00  0.00000000000E+00  0.34180965515E+03  0.34180965515E+03  0.00000000000E+00 0. -1.
          2   -1    0    0  503    0 -0.00000000000E+00 -0.00000000000E+00 -0.18713103271E+03  0.18713103271E+03  0.00000000000E+00 0. -1.
         24    2    1    2    0    0 -0.72254675859E+02  0.89218649167E+02 -0.18495773849E+01  0.13749906172E+03  0.75643013526E+02 0.  0.
         23    2    1    2    0    0  0.64442248862E+02  0.20791169934E+02  0.14594042818E+02  0.11119005079E+03  0.86977957687E+02 0.  0.
        -11    1    3    3    0    0 -0.38587994895E+02  0.32148966582E+02  0.35436820980E+02  0.61468347004E+02  0.00000000000E+00 0.  1.
         12    1    3    3    0    0 -0.33666680964E+02  0.57069682586E+02 -0.37286398365E+02  0.76030714718E+02  0.00000000000E+00 0. -1.
        -13    1    4    4    0    0  0.49918584504E+02  0.53450674929E+02  0.15847184649E+01  0.73152929278E+02  0.00000000000E+00 0. -1.
         13    1    4    4    0    0  0.14523664358E+02 -0.32659504995E+02  0.13009324353E+02  0.38037121513E+02  0.00000000000E+00 0.  1.
         21    1    1    2  503  502  0.37507462983E+02 -0.23080055793E+02 -0.50506183727E+02  0.67010248093E+02  0.00000000000E+00 0.  1.
          1    1    1    2  501    0 -0.29695035986E+02 -0.86929763309E+02  0.19244034072E+03  0.21324132725E+03  0.00000000000E+00 0. -1.
<scales pt_clust_5="13000.00000" pt_clust_6="13000.00000" pt_clust_7="13000.00000" pt_clust_8="13000.00000" pt_clust_9="44.03974" pt_clust_10="92.71427"></scales>
<clustering>
<clus scale="   44.040">  2  9  1 -1</clus>
<clus scale="   75.643">  5  6 -1 -1</clus>
<clus scale="   86.978">  7  8 -1 -1</clus>
<clus scale="   92.714">  1 10  2 -1</clus>
<clus scale="  105.983">  2  5  1 -1</clus>
<clus scale="   92.714">  1  5  2 -1</clus>
</clustering>
</event>
<event>
10    4  0.2857708E-005  0.4667184E+03  0.7546771E-02  0.1022851E+00
         21   -1    0    0  501  502  0.00000000000E+00  0.00000000000E+00  0.22450240763E+03  0.22450240763E+03  0.00000000000E+00 0. -1.
          2   -1    0    0  503    0 -0.00000000000E+00 -0.00000000000E+00 -0.11537395813E+04  0.11537395813E+04  0.00000000000E+00 0. -1.
         24    2    1    2    0    0  0.45948660404E+02  0.31198203983E+03 -0.12114297233E+03  0.34713031950E+03  0.79873439903E+02 0.  0.
         23    2    1    2    0    0  0.10586858617E+03  0.52239457369E+02 -0.43184149094E+02  0.15347771804E+03  0.88053510764E+02 0.  0.
        -13    1    3    3    0    0  0.41792073855E+02  0.18177881461E+03 -0.31913820317E+02  0.18923162211E+03  0.00000000000E+00 0.  1.
         14    1    3    3    0    0  0.41565865491E+01  0.13020322522E+03 -0.89229152013E+02  0.15789869739E+03  0.00000000000E+00 0. -1.
        -11    1    4    4    0    0  0.41576306331E+02  0.25614016610E+02 -0.64314525680E+02  0.80752865636E+02  0.00000000000E+00 0. -1.
         11    1    4    4    0    0  0.64292279837E+02  0.26625440760E+02  0.21130376586E+02  0.72724852402E+02  0.00000000000E+00 0.  1.
         21    1    1    2  503  502 -0.19530392622E+02 -0.15046046302E+02 -0.19335150449E+03  0.19491696702E+03  0.00000000000E+00 0. -1.
          1    1    1    2  501    0 -0.13228685395E+03 -0.34917545090E+03 -0.57155854775E+03  0.68271698437E+03  0.00000000000E+00 0. -1.
<scales pt_clust_5="13000.00000" pt_clust_6="13000.00000" pt_clust_7="13000.00000" pt_clust_8="13000.00000" pt_clust_9="24.65400" pt_clust_10="387.20412"></scales>
<clustering>
<clus scale="   24.654">  2  9  1 -1</clus>
<clus scale="   79.873">  5  6 -1 -1</clus>
<clus scale="   88.054">  7  8 -1 -1</clus>
<clus scale="  141.558">  5  7 -1 -1</clus>
<clus scale="  387.204">  1 10  2 -1</clus>
<clus scale="  387.204">  1  5  2 -1</clus>
</clustering>
</event>
<event>
10    4  0.2857708E-005  0.1115808E+03  0.7546771E-02  0.1262736E+00
         -1   -1    0    0    0  501 -0.00000000000E+00  0.00000000000E+00  0.19534400611E+03  0.19534400611E+03  0.00000000000E+00 0.  1.
         21   -1    0    0  503  502  0.00000000000E+00 -0.00000000000E+00 -0.26985830509E+03  0.26985830509E+03  0.00000000000E+00 0. -1.
         23    2    1    2    0    0  0.92918517247E+02  0.34232275226E+02 -0.48580878361E+02  0.14381815581E+03  0.92292256896E+02 0.  0.
         24    2    1    2    0    0 -0.37372196154E+02 -0.22746279950E+01 -0.48239204253E+02  0.99996999397E+02  0.79186640814E+02 0.  0.
        -11    1    4    4    0    0 -0.34094995138E+02  0.28179970557E+02 -0.52962670015E+02  0.69004520498E+02  0.00000000000E+00 0.  1.
         12    1    4    4    0    0 -0.32772010156E+01 -0.30454598552E+02  0.47234657618E+01  0.30992478898E+02  0.00000000000E+00 0. -1.
        -11    1    3    3    0    0  0.31703842367E+02 -0.28699488321E+02 -0.34408470565E+02  0.54888405855E+02  0.00000000000E+00 0. -1.
         11    1    3    3    0    0  0.61214674880E+02  0.62931763547E+02 -0.14172407796E+02  0.88929749952E+02  0.00000000000E+00 0.  1.
         21    1    1    2  503  501 -0.37977868273E+02 -0.10678050289E+02  0.11662363865E+03  0.12311544310E+03  0.00000000000E+00 0. -1.
         -2    1    1    2    0  502 -0.17568452821E+02 -0.21279596942E+02 -0.94317855023E+02  0.98271712902E+02  0.00000000000E+00 0.  1.
<scales pt_clust_5="13000.00000" pt_clust_6="13000.00000" pt_clust_7="13000.00000" pt_clust_8="13000.00000" pt_clust_9="39.87556" pt_clust_10="27.59478"></scales>
<clustering>
<clus scale="   27.595">  2 10  1 -1</clus>
<clus scale="   39.876">  1  9  2 -1</clus>
<clus scale="   79.187">  5  6 -1 -1</clus>
<clus scale="   92.292">  7  8 -1 -1</clus>
<clus scale="  101.010">  2  5  1 -1</clus>
<clus scale="   27.595">  2  5  1 -1</clus>
</clustering>
</event>
<event>
10    4  0.2857708E-005  0.1215236E+03  0.7546771E-02  0.1243742E+00
          2   -1    0    0  503    0 -0.00000000000E+00  0.00000000000E+00  0.97341217676E+03  0.97341217676E+03  0.00000000000E+00 0. -1.
         21   -1    0    0  501  502  0.00000000000E+00 -0.00000000000E+00 -0.20817994639E+03  0.20817994639E+03  0.00000000000E+00 0. -1.
         23    2    1    2    0    0  0.16686979664E+02  0.89544485622E+02  0.57155277796E+03  0.58581841236E+03  0.90630922247E+02 0.  0.
         24    2    1    2    0    0  0.71069686656E+01 -0.69224674915E+02  0.29536535310E+03  0.31390482192E+03  0.80330447492E+02 0.  0.
        -13    1    4    4    0    0 -0.12681501919E+02 -0.64060831244E+02  0.11391741009E+03  0.13130798495E+03  0.00000000000E+00 0.  1.
         14    1    4    4    0    0  0.19788470585E+02 -0.51638436711E+01  0.18144794300E+03  0.18259683696E+03  0.00000000000E+00 0. -1.
        -13    1    3    3    0    0 -0.37119939518E+02  0.26582920960E+02  0.20752541470E+03  0.21248844520E+03  0.00000000000E+00 0.  1.
         13    1    3    3    0    0  0.53806919182E+02  0.62961564662E+02  0.36402736326E+03  0.37332996716E+03  0.00000000000E+00 0. -1.
         21    1    1    2  503  502 -0.18943974290E+02 -0.43509743132E+02  0.83032883510E+02  0.95636978483E+02  0.00000000000E+00 0.  1.
          1    1    1    2  501    0 -0.48499740392E+01  0.23189932425E+02 -0.18471878419E+03  0.18623191039E+03  0.00000000000E+00 0. -1.
<scales pt_clust_5="13000.00000" pt_clust_6="13000.00000" pt_clust_7="13000.00000" pt_clust_8="13000.00000" pt_clust_9="42.26224" pt_clust_10="23.69167"></scales>
<clustering>
<clus scale="   23.692">  2 10  1 -1</clus>
<clus scale="   42.262">  2  9  1 -1</clus>
<clus scale="   80.330">  5  6 -1 -1</clus>
<clus scale="   90.631">  7  8 -1 -1</clus>
<clus scale="  114.048">  2  5  1 -1</clus>
<clus scale="   23.692">  2  5  1 -1</clus>
</clustering>
</event>
<event>
10    4  0.2857708E-005  0.1311350E+03  0.7546771E-02  0.1229382E+00
          2   -1    0    0  503    0 -0.00000000000E+00  0.00000000000E+00  0.11752645137E+03  0.11752645137E+03  0.00000000000E+00 0. -1.
         21   -1    0    0  501  502  0.00000000000E+00 -0.00000000000E+00 -0.49480938898E+03  0.49480938898E+03  0.00000000000E+00 0. -1.
         23    2    1    2    0    0 -0.23717469839E+02 -0.10506489345E+03  0.21148512776E+02  0.14485175304E+03  0.94517831952E+02 0.  0.
         24    2    1    2    0    0  0.35091080601E+02  0.53852309239E+02 -0.38625126902E+03  0.39983750501E+03  0.80923003192E+02 0.  0.
        -11    1    4    4    0    0  0.92015239937E+01  0.40553661947E+02 -0.64311973063E+02  0.76585229780E+02  0.00000000000E+00 0.  1.
         12    1    4    4    0    0  0.25889556607E+02  0.13298647293E+02 -0.32193929596E+03  0.32325227523E+03  0.00000000000E+00 0. -1.
        -13    1    3    3    0    0 -0.24371941787E+02 -0.50240262500E+02 -0.35377318117E+02  0.66103178136E+02  0.00000000000E+00 0.  1.
         13    1    3    3    0    0  0.65447194823E+00 -0.54824630947E+02  0.56525830893E+02  0.78748574909E+02  0.00000000000E+00 0. -1.
         21    1    1    2  503  502 -0.99757221960E+01  0.18470784300E+02  0.14395027536E+02  0.25453913722E+02  0.00000000000E+00 0. -1.
          1    1    1    2  501    0 -0.13978885664E+01  0.32741799908E+02 -0.26575208899E+02  0.42192668577E+02  0.00000000000E+00 0. -1.
<scales pt_clust_5="13000.00000" pt_clust_6="13000.00000" pt_clust_7="13000.00000" pt_clust_8="13000.00000" pt_clust_9="20.99250" pt_clust_10="34.28998"></scales>
<clustering>
<clus scale="   20.992">  1  9  2 -1</clus>
<clus scale="   34.290">  2 10  1 -1</clus>
<clus scale="   80.923">  5  6 -1 -1</clus>
<clus scale="   94.518">  7  8 -1 -1</clus>
<clus scale="  121.702">  2  5  1 -1</clus>
<clus scale="   34.290">  2  5  1 -1</clus>
</clustering>
</event>
<event>
10    4  0.2857708E-005  0.9318439E+02  0.7546771E-02  0.1301312E+00
          2   -1    0    0  503    0 -0.00000000000E+00  0.00000000000E+00  0.24828458817E+03  0.24828458817E+03  0.00000000000E+00 0. -1.
         21   -1    0    0  501  502  0.00000000000E+00 -0.00000000000E+00 -0.88401091685E+02  0.88401091685E+02  0.00000000000E+00 0.  1.
         24    2    1    2    0    0  0.27219215457E+01  0.41661864361E+02  0.13017105070E+03  0.15842976885E+03  0.80077271542E+02 0.  0.
         23    2    1    2    0    0 -0.16276543024E+02 -0.22006486753E+02 -0.29044891025E+02  0.98646139613E+02  0.90212215658E+02 0.  0.
        -11    1    3    3    0    0 -0.23575374167E+02  0.30708409783E+02  0.12314731766E+03  0.12908937426E+03  0.00000000000E+00 0.  1.
         12    1    3    3    0    0  0.26297295713E+02  0.10953454578E+02  0.70237330406E+01  0.29340394593E+02  0.00000000000E+00 0. -1.
        -11    1    4    4    0    0  0.20621559174E+02  0.72713931370E+01  0.20720564639E+02  0.30124137496E+02  0.00000000000E+00 0. -1.
         11    1    4    4    0    0 -0.36898102198E+02 -0.29277879890E+02 -0.49765455664E+02  0.68522002117E+02  0.00000000000E+00 0.  1.
         21    1    1    2  503  502 -0.87591333424E+01 -0.26542798767E+02  0.43530610157E+02  0.51731582268E+02  0.00000000000E+00 0.  1.
          1    1    1    2  501    0  0.22313754820E+02  0.68874211580E+01  0.15226726648E+02  0.27878189124E+02  0.00000000000E+00 0. -1.
<scales pt_clust_5="13000.00000" pt_clust_6="13000.00000" pt_clust_7="13000.00000" pt_clust_8="13000.00000" pt_clust_9="27.29117" pt_clust_10="23.35253"></scales>
<clustering>
<clus scale="   23.353">  2 10  1 -1</clus>
<clus scale="   27.291">  1  9  2 -1</clus>
<clus scale="   80.077">  5  6 -1 -1</clus>
<clus scale="   83.411">  1  5  2 -1</clus>
<clus scale="   90.212">  7  8 -1 -1</clus>
<clus scale="   23.353">  2  5  1 -1</clus>
</clustering>
</event>
<event>
10    4  0.2857708E-005  0.1410717E+03  0.7546771E-02  0.1214372E+00
          2   -1    0    0  503    0 -0.00000000000E+00  0.00000000000E+00  0.73200672821E+02  0.73200672821E+02  0.00000000000E+00 0. -1.
         21   -1    0    0  501  502  0.00000000000E+00 -0.00000000000E+00 -0.62586193946E+03  0.62586193946E+03  0.00000000000E+00 0. -1.
         24    2    1    2    0    0  0.10929386954E+03 -0.38288965790E+02 -0.56310382824E+02  0.15193483846E+03  0.80635854953E+02 0.  0.
         23    2    1    2    0    0 -0.54277695761E+02  0.70457016210E+02 -0.33264474487E+03  0.35644528488E+03  0.92143667373E+02 0.  0.
        -13    1    3    3    0    0  0.25511884317E+02 -0.22002980892E+02 -0.57424388498E+02  0.66577382075E+02  0.00000000000E+00 0.  1.
         14    1    3    3    0    0  0.83781985223E+02 -0.16285984898E+02  0.11140056744E+01  0.85357456386E+02  0.00000000000E+00 0. -1.
        -11    1    4    4    0    0 -0.25016841840E+02  0.87915503652E+02 -0.20741152386E+03  0.22665947672E+03  0.00000000000E+00 0. -1.
         11    1    4    4    0    0 -0.29260853921E+02 -0.17458487442E+02 -0.12523322101E+03  0.12978580817E+03  0.00000000000E+00 0.  1.
         21    1    1    2  503  502 -0.25766547996E+02  0.23472863797E+02 -0.55223931157E+02  0.65303697467E+02  0.00000000000E+00 0. -1.
          1    1    1    2  501    0 -0.29249625783E+02 -0.55640914217E+02 -0.10848220779E+03  0.12537879147E+03  0.00000000000E+00 0. -1.
<scales pt_clust_5="13000.00000" pt_clust_6="13000.00000" pt_clust_7="13000.00000" pt_clust_8="13000.00000" pt_clust_9="34.85528" pt_clust_10="61.44084"></scales>
<clustering>
<clus scale="   34.855">  2  9  1 -1</clus>
<clus scale="   61.441">  2 10  1 -1</clus>
<clus scale="   80.636">  5  6 -1 -1</clus>
<clus scale="   92.144">  7  8 -1 -1</clus>
<clus scale="  133.839">  1  5  2 -1</clus>
<clus scale="   34.855">  2  5  1 -1</clus>
</clustering>
</event>
<event>
10    4  0.2857708E-005  0.2890103E+03  0.7546771E-02  0.1091081E+00
         -1   -1    0    0    0  501 -0.00000000000E+00  0.00000000000E+00  0.18012717812E+03  0.18012717812E+03  0.00000000000E+00 0.  1.
         21   -1    0    0  503  502  0.00000000000E+00 -0.00000000000E+00 -0.12439405692E+04  0.12439405692E+04  0.00000000000E+00 0.  1.
         23    2    1    2    0    0  0.29882279499E+03  0.12211239196E+02 -0.56308178331E+02  0.31716368121E+03  0.89319721047E+02 0.  0.
         24    2    1    2    0    0 -0.19247531525E+03  0.13702500270E+02 -0.38691329198E+03  0.44042844826E+03  0.83909576509E+02 0.  0.
        -13    1    4    4    0    0 -0.46584883335E+02 -0.32199572383E+02 -0.87727629436E+02  0.10441791409E+03  0.00000000000E+00 0.  1.
         14    1    4    4    0    0 -0.14589043191E+03  0.45902072653E+02 -0.29918566255E+03  0.33601053417E+03  0.00000000000E+00 0. -1.
        -13    1    3    3    0    0  0.42664605195E+02 -0.30208657826E+02 -0.13724322931E+02  0.54048021093E+02  0.00000000000E+00 0. -1.
         13    1    3    3    0    0  0.25615818979E+03  0.42419897022E+02 -0.42583855400E+02  0.26311566012E+03  0.00000000000E+00 0.  1.
         21    1    1    2  503  501  0.37735280305E+02 -0.26555629956E+02 -0.22618441474E+02  0.51388196668E+02  0.00000000000E+00 0. -1.
         -2    1    1    2    0  502 -0.14408276005E+03  0.64189048982E+00 -0.59797347934E+03  0.61508742123E+03  0.00000000000E+00 0.  1.
<scales pt_clust_5="13000.00000" pt_clust_6="13000.00000" pt_clust_7="13000.00000" pt_clust_8="13000.00000" pt_clust_9="46.14274" pt_clust_10="142.13643"></scales>
<clustering>
<clus scale="   46.143">  1  9  2 -1</clus>
<clus scale="   83.910">  5  6 -1 -1</clus>
<clus scale="   89.320">  7  8 -1 -1</clus>
<clus scale="  142.136">  2 10  1 -1</clus>
<clus scale="  287.384">  2  5  1 -1</clus>
<clus scale="  142.136">  2  5  1 -1</clus>
</clustering>
</event>
<event>
10    4  0.2857708E-005  0.2648345E+03  0.7546771E-02  0.1104875E+00
         21   -1    0    0  501  502  0.00000000000E+00  0.00000000000E+00  0.21571120049E+03  0.21571120049E+03  0.00000000000E+00 0. -1.
          2   -1    0    0  503    0 -0.00000000000E+00 -0.00000000000E+00 -0.47161266804E+03  0.47161266804E+03  0.00000000000E+00 0. -1.
         24    2    1    2    0    0 -0.16320386628E+03  0.18778842275E+03 -0.19736451711E+03  0.32740911055E+03  0.79649101516E+02 0.  0.
         23    2    1    2    0    0  0.18327713658E+03 -0.16782467700E+03 -0.64950242644E+02  0.27286763535E+03  0.92100930497E+02 0.  0.
        -11    1    3    3    0    0 -0.10343627321E+03  0.86724796218E+02 -0.62965764356E+02  0.14894609889E+03  0.00000000000E+00 0.  1.
         12    1    3    3    0    0 -0.59767593068E+02  0.10106362653E+03 -0.13439875275E+03  0.17846301166E+03  0.00000000000E+00 0. -1.
        -13    1    4    4    0    0  0.24624954606E+02  0.70342979370E+01  0.60541386606E+01  0.26315819040E+02  0.00000000000E+00 0.  1.
         13    1    4    4    0    0  0.15865218197E+03 -0.17485897493E+03 -0.71004381305E+02  0.24655181631E+03  0.00000000000E+00 0. -1.
         21    1    1    2  503  502  0.15051976453E+02  0.23870984762E+02 -0.74556147744E+01  0.29188561121E+02  0.00000000000E+00 0.  1.
          1    1    1    2  501    0 -0.35125246754E+02 -0.43834730517E+02  0.13868906986E+02  0.57858561510E+02  0.00000000000E+00 0. -1.
<scales pt_clust_5="13000.00000" pt_clust_6="13000.00000" pt_clust_7="13000.00000" pt_clust_8="13000.00000" pt_clust_9="28.22031" pt_clust_10="51.26552"></scales>
<clustering>
<clus scale="   28.220">  1  9  2 -1</clus>
<clus scale="   51.266">  1 10  2 -1</clus>
<clus scale="   79.649">  5  6 -1 -1</clus>
<clus scale="   92.101">  7  8 -1 -1</clus>
<clus scale="  260.766">  2  5  1 -1</clus>
<clus scale="   28.220">  1  5  2 -1</clus>
</clustering>
</event>
<event>
10    4  0.2857708E-005  0.1604880E+03  0.7546771E-02  0.1189571E+00
          2   -1    0    0  503    0 -0.00000000000E+00  0.00000000000E+00  0.73596841796E+03  0.73596841796E+03  0.00000000000E+00 0. -1.
         21   -1    0    0  501  502  0.00000000000E+00 -0.00000000000E+00 -0.68275545129E+02  0.68275545129E+02  0.00000000000E+00 0. -1.
         23    2    1    2    0    0 -0.12805474335E+03 -0.10304533726E+03  0.36077302854E+03  0.40750041668E+03  0.94249947768E+02 0.  0.
         24    2    1    2    0    0  0.10357346330E+03  0.30835208640E+02  0.11833756104E+03  0.18163519958E+03  0.85494414926E+02 0.  0.
        -13    1    4    4    0    0  0.98342407005E+02  0.43347568776E+02  0.12635642110E+03  0.16588003463E+03  0.00000000000E+00 0.  1.
         14    1    4    4    0    0  0.52310562954E+01 -0.12512360135E+02 -0.80188600627E+01  0.15755164957E+02  0.00000000000E+00 0. -1.
        -11    1    3    3    0    0 -0.11179901871E+03 -0.83424652179E+02  0.35493162363E+03  0.38135960802E+03  0.00000000000E+00 0. -1.
         11    1    3    3    0    0 -0.16255724635E+02 -0.19620685078E+02  0.58414049054E+01  0.26140808663E+02  0.00000000000E+00 0.  1.
         21    1    1    2  503  502  0.15378626038E+02  0.41696837075E+02  0.17488776543E+03  0.18044627693E+03  0.00000000000E+00 0.  1.
          1    1    1    2  501    0  0.91026540071E+01  0.30513291542E+02  0.13694517829E+02  0.34662069893E+02  0.00000000000E+00 0. -1.
<scales pt_clust_5="13000.00000" pt_clust_6="13000.00000" pt_clust_7="13000.00000" pt_clust_8="13000.00000" pt_clust_9="45.97075" pt_clust_10="31.84210"></scales>
<clustering>
<clus scale="   31.842">  2 10  1 -1</clus>
<clus scale="   45.971">  1  9  2 -1</clus>
<clus scale="   85.494">  5  6 -1 -1</clus>
<clus scale="   94.250">  7  8 -1 -1</clus>
<clus scale="  155.508">  2  5  1 -1</clus>
<clus scale="   31.842">  2  5  1 -1</clus>
</clustering>
</event>
<event>
10    4  0.2857708E-005  0.2428216E+03  0.7546771E-02  0.1162141E+00
          2   -1    0    0  502    0 -0.00000000000E+00  0.00000000000E+00  0.17250795196E+03  0.17250795196E+03  0.00000000000E+00 0. -1.
         21   -1    0    0  503  502  0.00000000000E+00 -0.00000000000E+00 -0.77460537597E+03  0.77460537597E+03  0.00000000000E+00 0. -1.
         24    2    1    2    0    0  0.14411299345E+02 -0.14806654174E+02  0.63327652243E+02  0.10484140560E+03  0.80959287502E+02 0.  0.
         23    2    1    2    0    0 -0.18002451303E+03 -0.13590048581E+03 -0.49841472198E+03  0.55471338834E+03  0.91716633075E+02 0.  0.
        -11    1    3    3    0    0  0.33515366571E+02  0.16628775910E+02  0.77741365414E+01  0.38212997575E+02  0.00000000000E+00 0.  1.
         12    1    3    3    0    0 -0.19104067226E+02 -0.31435430085E+02  0.55553515701E+02  0.66628408025E+02  0.00000000000E+00 0. -1.
        -11    1    4    4    0    0 -0.12732891215E+03 -0.89523998529E+02 -0.42739844746E+03  0.45485891338E+03  0.00000000000E+00 0.  1.
         11    1    4    4    0    0 -0.52695600873E+02 -0.46376487283E+02 -0.71016274513E+02  0.99854474962E+02  0.00000000000E+00 0. -1.
         21    1    1    2  503  501  0.23260662658E+02 -0.42752272896E+01 -0.16602709905E+02  0.28896123821E+02  0.00000000000E+00 0.  1.
          1    1    1    2  501    0  0.14235255102E+03  0.15498236728E+03 -0.15040764437E+03  0.25866241017E+03  0.00000000000E+00 0. -1.
<scales pt_clust_5="13000.00000" pt_clust_6="13000.00000" pt_clust_7="13000.00000" pt_clust_8="13000.00000" pt_clust_9="22.87776" pt_clust_10="234.96278"></scales>
<clustering>
<clus scale="   22.878">  9 10 -1 -1</clus>
<clus scale="   80.959">  5  6 -1 -1</clus>
<clus scale="   83.554">  1  5  2 -1</clus>
<clus scale="   91.717">  7  8 -1 -1</clus>
<clus scale="  234.963">  2  9  1 -1</clus>
<clus scale="  234.963">  2  5  1 -1</clus>
</clustering>
</event>
<event>
10    4  0.2857708E-005  0.1601491E+03  0.7546771E-02  0.1210038E+00
         -3   -1    0    0    0  501 -0.00000000000E+00  0.00000000000E+00  0.21469790530E+03  0.21469790530E+03  0.00000000000E+00 0.  1.
         21   -1    0    0  503  502  0.00000000000E+00 -0.00000000000E+00 -0.46191841616E+03  0.46191841616E+03  0.00000000000E+00 0.  1.
         24    2    1    2    0    0  0.31918709198E+02 -0.60694130730E+02  0.78122683335E+02  0.13005898638E+03  0.78163960907E+02 0.  0.
         23    2    1    2    0    0  0.30267390705E+01 -0.10645725565E+03 -0.56576323501E+02  0.15172794641E+03  0.92077037914E+02 0.  0.
        -11    1    3    3    0    0  0.33101069713E+02 -0.37737092763E+02  0.90841126519E+02  0.10378766427E+03  0.00000000000E+00 0.  1.
         12    1    3    3    0    0 -0.11823605151E+01 -0.22957037967E+02 -0.12718443184E+02  0.26271322115E+02  0.00000000000E+00 0. -1.
        -11    1    4    4    0    0  0.24193826244E+02 -0.72665694514E+02 -0.75541290449E+02  0.10757383953E+03  0.00000000000E+00 0.  1.
         11    1    4    4    0    0 -0.21167087174E+02 -0.33791561131E+02  0.18964966949E+02  0.44154106881E+02  0.00000000000E+00 0. -1.
         21    1    1    2  503  501  0.33179975891E+02  0.42066975828E+02  0.31742088350E+02  0.62274404279E+02  0.00000000000E+00 0. -1.
         -4    1    1    2    0  502 -0.68125424159E+02  0.12508441055E+03 -0.30050895905E+03  0.33255498440E+03  0.00000000000E+00 0.  1.
<scales pt_clust_5="13000.00000" pt_clust_6="13000.00000" pt_clust_7="13000.00000" pt_clust_8="13000.00000" pt_clust_9="53.57743" pt_clust_10="131.03260"></scales>
<clustering>
<clus scale="   53.577">  1  9  2 -1</clus>
<clus scale="   78.164">  5  6 -1 -1</clus>
<clus scale="   92.077">  7  8 -1 -1</clus>
<clus scale="  100.316">  1  5  2 -1</clus>
<clus scale="  131.033">  2 10  1 -1</clus>
<clus scale="  131.033">  2  5  1 -1</clus>
</clustering>
</event>
<event>
10    4  0.2857708E-005  0.9542315E+02  0.7546771E-02  0.1298071E+00
         21   -1    0    0  501  502  0.00000000000E+00  0.00000000000E+00  0.20409739418E+02  0.20409739418E+02  0.00000000000E+00 0. -1.
          2   -1    0    0  503    0 -0.00000000000E+00 -0.00000000000E+00 -0.10747936469E+04  0.10747936469E+04  0.00000000000E+00 0. -1.
         23    2    1    2    0    0  0.29058625611E+02 -0.36837908302E+02 -0.35333894312E+03  0.36813448607E+03  0.92049746887E+02 0.  0.
         24    2    1    2    0    0  0.22944473124E+02  0.14959593631E+02 -0.30723825540E+03  0.31829740579E+03  0.78534417082E+02 0.  0.
        -11    1    4    4    0    0  0.39534310497E+02 -0.11774645560E+02 -0.24615153269E+03  0.24958401597E+03  0.00000000000E+00 0.  1.
         12    1    4    4    0    0 -0.16589837373E+02  0.26734239191E+02 -0.61086722708E+02  0.68713389819E+02  0.00000000000E+00 0. -1.
        -11    1    3    3    0    0 -0.20471666464E+02  0.93582641639E+01 -0.28536940040E+02  0.36345882611E+02  0.00000000000E+00 0.  1.
         11    1    3    3    0    0  0.49530292075E+02 -0.46196172466E+02 -0.32480200308E+03  0.33178860346E+03  0.00000000000E+00 0. -1.
         21    1    1    2  503  502  0.16262608289E+02  0.35629666352E+02 -0.16607238286E+03  0.17062819785E+03  0.00000000000E+00 0.  1.
          1    1    1    2  501    0 -0.68265707024E+02 -0.13751351681E+02 -0.22773432608E+03  0.23814329657E+03  0.00000000000E+00 0. -1.
<scales pt_clust_5="13000.00000" pt_clust_6="13000.00000" pt_clust_7="13000.00000" pt_clust_8="13000.00000" pt_clust_9="39.16562" pt_clust_10="64.25109"></scales>
<clustering>
<clus scale="   39.166">  2  9  1 -1</clus>
<clus scale="   64.251">  1 10  2 -1</clus>
<clus scale="   78.534">  5  6 -1 -1</clus>
<clus scale="   82.463">  1  5  2 -1</clus>
<clus scale="   92.050">  7  8 -1 -1</clus>
<clus scale="   64.251">  1  5  2 -1</clus>
</clustering>
</event>
<event>
10    4  0.2857708E-005  0.9315869E+02  0.7546771E-02  0.1297633E+00
          2   -1    0    0  503    0 -0.00000000000E+00  0.00000000000E+00  0.19815763704E+03  0.19815763704E+03  0.00000000000E+00 0. -1.
         21   -1    0    0  501  502  0.00000000000E+00 -0.00000000000E+00 -0.15413627591E+03  0.15413627591E+03  0.00000000000E+00 0.  1.
         24    2    1    2    0    0  0.19874601142E+02  0.29660650109E+02  0.81209631531E+02  0.12425093624E+03  0.86997338858E+02 0.  0.
         23    2    1    2    0    0  0.20126465262E+01  0.21244498925E+02 -0.66116264181E+02  0.11441803263E+03  0.90910650201E+02 0.  0.
        -13    1    3    3    0    0  0.46154478597E+02  0.32407103080E+02  0.24108268576E+02  0.61332412625E+02  0.00000000000E+00 0.  1.
         14    1    3    3    0    0 -0.26279877456E+02 -0.27464529712E+01  0.57101362955E+02  0.62918523618E+02  0.00000000000E+00 0. -1.
        -11    1    4    4    0    0  0.41137251156E+02  0.16115622534E+02 -0.91478614513E+01  0.45118400808E+02  0.00000000000E+00 0.  1.
         11    1    4    4    0    0 -0.39124604630E+02  0.51288763907E+01 -0.56968402729E+02  0.69299631817E+02  0.00000000000E+00 0. -1.
         21    1    1    2  503  502  0.94654137939E+01 -0.31863649763E+02  0.57979692595E+02  0.66832110455E+02  0.00000000000E+00 0. -1.
          1    1    1    2  501    0 -0.31352661462E+02 -0.19041499270E+02 -0.29051698817E+02  0.46792833632E+02  0.00000000000E+00 0. -1.
<scales pt_clust_5="13000.00000" pt_clust_6="13000.00000" pt_clust_7="13000.00000" pt_clust_8="13000.00000" pt_clust_9="33.23983" pt_clust_10="37.29336"></scales>
<clustering>
<clus scale="   33.240">  1  9  2 -1</clus>
<clus scale="   37.293">  2 10  1 -1</clus>
<clus scale="   86.997">  5  6 -1 -1</clus>
<clus scale="   89.344">  1  5  2 -1</clus>
<clus scale="   90.911">  7  8 -1 -1</clus>
<clus scale="   37.293">  2  5  1 -1</clus>
</clustering>
</event>
<event>
10    4  0.2857708E-005  0.2755449E+03  0.7546771E-02  0.1125619E+00
         21   -1    0    0  501  502  0.00000000000E+00  0.00000000000E+00  0.59731536750E+03  0.59731536750E+03  0.00000000000E+00 0. -1.
          2   -1    0    0  503    0 -0.00000000000E+00 -0.00000000000E+00 -0.51682534670E+03  0.51682534670E+03  0.00000000000E+00 0. -1.
         23    2    1    2    0    0  0.55263771377E+01  0.10440900301E+03  0.18516836747E+03  0.23101268070E+03  0.90264907776E+02 0.  0.
         24    2    1    2    0    0  0.11327847263E+03 -0.30875478515E+03 -0.35422360795E+03  0.48961682322E+03  0.78030375080E+02 0.  0.
        -13    1    4    4    0    0  0.24080729239E+02 -0.11962396151E+03 -0.84938511479E+02  0.14867523136E+03  0.00000000000E+00 0.  1.
         14    1    4    4    0    0  0.89197743390E+02 -0.18913082364E+03 -0.26928509647E+03  0.34094159185E+03  0.00000000000E+00 0. -1.
        -11    1    3    3    0    0 -0.14326492838E+02  0.56898908243E+02  0.26840850077E+02  0.64522595958E+02  0.00000000000E+00 0.  1.
         11    1    3    3    0    0  0.19852869976E+02  0.47510094765E+02  0.15832751740E+03  0.16649008474E+03  0.00000000000E+00 0. -1.
         21    1    1    2  503  502 -0.81438026505E+01 -0.26879888317E+02 -0.89353643986E+01  0.29473558565E+02  0.00000000000E+00 0.  1.
          1    1    1    2  501    0 -0.11066104712E+03  0.23122567046E+03  0.25848062567E+03  0.36403765173E+03  0.00000000000E+00 0. -1.
<scales pt_clust_5="13000.00000" pt_clust_6="13000.00000" pt_clust_7="13000.00000" pt_clust_8="13000.00000" pt_clust_9="28.08647" pt_clust_10="264.26554"></scales>
<clustering>
<clus scale="   28.086">  2  9  1 -1</clus>
<clus scale="   78.030">  5  6 -1 -1</clus>
<clus scale="   90.265">  7  8 -1 -1</clus>
<clus scale="  137.181">  2  7  1 -1</clus>
<clus scale="  264.266">  1 10  2 -1</clus>
<clus scale="  264.266">  1  5  2 -1</clus>
</clustering>
</event>
<event>
10    4  0.2857708E-005  0.1251052E+03  0.7546771E-02  0.1242192E+00
         21   -1    0    0  501  502  0.00000000000E+00  0.00000000000E+00  0.79540303668E+02  0.79540303668E+02  0.00000000000E+00 0. -1.
          2   -1    0    0  503    0 -0.00000000000E+00 -0.00000000000E+00 -0.75180764245E+03  0.75180764245E+03  0.00000000000E+00 0. -1.
         24    2    1    2    0    0  0.27895654993E+02 -0.36012157728E+02 -0.57639848890E+03  0.58876632126E+03  0.11106538603E+03 0.  0.
         23    2    1    2    0    0 -0.83976329097E-01  0.25506564958E+02  0.70679461344E+01  0.94961505880E+02  0.91198354308E+02 0.  0.
        -11    1    3    3    0    0 -0.42904846039E+02 -0.82558134054E+01 -0.19051700951E+03  0.19546282302E+03  0.00000000000E+00 0.  1.
         12    1    3    3    0    0  0.70800501031E+02 -0.27756344322E+02 -0.38588147938E+03  0.39330349824E+03  0.00000000000E+00 0. -1.
        -11    1    4    4    0    0 -0.13768377452E+02 -0.29162455580E+02  0.18896644690E+02  0.37377803757E+02  0.00000000000E+00 0. -1.
         11    1    4    4    0    0  0.13684401123E+02  0.54669020538E+02 -0.11828698556E+02  0.57583702124E+02  0.00000000000E+00 0.  1.
         21    1    1    2  503  502 -0.11990878207E+02 -0.28544790968E+02 -0.10078314771E+03  0.10543163241E+03  0.00000000000E+00 0. -1.
          1    1    1    2  501    0 -0.15820800457E+02  0.39050383737E+02 -0.21536483057E+01  0.42188486559E+02  0.00000000000E+00 0. -1.
<scales pt_clust_5="13000.00000" pt_clust_6="13000.00000" pt_clust_7="13000.00000" pt_clust_8="13000.00000" pt_clust_9="30.96104" pt_clust_10="41.38989"></scales>
<clustering>
<clus scale="   30.961">  2  9  1 -1</clus>
<clus scale="   41.390">  1 10  2 -1</clus>
<clus scale="   91.198">  7  8 -1 -1</clus>
<clus scale="  107.856">  1  7  2 -1</clus>
<clus scale="  111.065">  5  6 -1 -1</clus>
<clus scale="   41.390">  1  5  2 -1</clus>
</clustering>
</event>
<event>
10    4  0.2857708E-005  0.1717850E+03  0.7546771E-02  0.1196969E+00
         21   -1    0    0  501  502  0.00000000000E+00  0.00000000000E+00  0.22829494089E+03  0.22829494089E+03  0.00000000000E+00 0. -1.
          2   -1    0    0  503    0 -0.00000000000E+00 -0.00000000000E+00 -0.59250807931E+03  0.59250807931E+03  0.00000000000E+00 0. -1.
         23    2    1    2    0    0  0.10075982292E+02  0.54674345520E+02  0.65172272555E+02  0.12595768875E+03  0.92342323824E+02 0.  0.
         24    2    1    2    0    0 -0.35676247396E+01 -0.20355049869E+03 -0.39428086473E+03  0.45084286320E+03  0.79726742973E+02 0.  0.
        -13    1    4    4    0    0  0.49881686141E+01 -0.10705531220E+03 -0.12492568144E+03  0.16459692457E+03  0.00000000000E+00 0.  1.
         14    1    4    4    0    0 -0.85557933537E+01 -0.96495186490E+02 -0.26935518329E+03  0.28624593863E+03  0.00000000000E+00 0. -1.
        -11    1    3    3    0    0  0.51392604032E+02  0.33552179766E+02  0.37885090791E+02  0.72126476556E+02  0.00000000000E+00 0. -1.
         11    1    3    3    0    0 -0.41316621740E+02  0.21122165754E+02  0.27287181765E+02  0.53831212199E+02  0.00000000000E+00 0.  1.
         21    1    1    2  503  502 -0.32832988698E+02  0.52226149190E+01 -0.83718663173E+02  0.90078273834E+02  0.00000000000E+00 0.  1.
          1    1    1    2  501    0  0.26324631146E+02  0.14365353825E+03  0.48614116930E+02  0.15392419440E+03  0.00000000000E+00 0. -1.
<scales pt_clust_5="13000.00000" pt_clust_6="13000.00000" pt_clust_7="13000.00000" pt_clust_8="13000.00000" pt_clust_9="33.24576" pt_clust_10="152.16355"></scales>
<clustering>
<clus scale="   33.246">  2  9  1 -1</clus>
<clus scale="   79.727">  5  6 -1 -1</clus>
<clus scale="   92.342">  7  8 -1 -1</clus>
<clus scale="  107.780">  2  7  1 -1</clus>
<clus scale="  152.164">  1 10  2 -1</clus>
<clus scale="  152.164">  1  5  2 -1</clus>
</clustering>
</event>
<event>
10    4  0.2857708E-005  0.3803719E+03  0.7546771E-02  0.1050796E+00
         21   -1    0    0  501  502  0.00000000000E+00  0.00000000000E+00  0.16077971269E+04  0.16077971269E+04  0.00000000000E+00 0. -1.
          2   -1    0    0  503    0 -0.00000000000E+00 -0.00000000000E+00 -0.21266763975E+03  0.21266763975E+03  0.00000000000E+00 0. -1.
         24    2    1    2    0    0  0.14107377086E+03  0.18607631628E+03  0.57718989900E+02  0.25430182786E+03  0.82533226959E+02 0.  0.
         23    2    1    2    0    0  0.69135580245E+02  0.42059769241E+02  0.11694053509E+03  0.16770740653E+03  0.88892816429E+02 0.  0.
        -13    1    3    3    0    0  0.10532415912E+03  0.17583166342E+03  0.28349588220E+02  0.20691459955E+03  0.00000000000E+00 0.  1.
         14    1    3    3    0    0  0.35749611738E+02  0.10244652862E+02  0.29369401680E+02  0.47387228308E+02  0.00000000000E+00 0. -1.
        -13    1    4    4    0    0  0.13667593416E+02 -0.27345285444E+02  0.38724828215E+02  0.49337410411E+02  0.00000000000E+00 0.  1.
         13    1    4    4    0    0  0.55467986829E+02  0.69405054684E+02  0.78215706876E+02  0.11836999612E+03  0.00000000000E+00 0. -1.
         21    1    1    2  503  502 -0.12247024365E+03  0.68226095708E+02  0.75951694888E+00  0.14019392847E+03  0.00000000000E+00 0.  1.
          1    1    1    2  501    0 -0.87739107460E+02 -0.29636218123E+03  0.12197104452E+04  0.12582616038E+04  0.00000000000E+00 0. -1.
<scales pt_clust_5="13000.00000" pt_clust_6="13000.00000" pt_clust_7="13000.00000" pt_clust_8="13000.00000" pt_clust_9="140.19187" pt_clust_10="305.50126"></scales>
<clustering>
<clus scale="   82.533">  5  6 -1 -1</clus>
<clus scale="   88.893">  7  8 -1 -1</clus>
<clus scale="  105.979">  5  7 -1 -1</clus>
<clus scale="  140.192">  2  9  1 -1</clus>
<clus scale="  305.501">  1 10  2 -1</clus>
<clus scale="  305.501">  1  5  2 -1</clus>
</clustering>
</event>
<event>
10    4  0.2857708E-005  0.1657303E+03  0.7546771E-02  0.1203431E+00
         21   -1    0    0  503  502  0.00000000000E+00  0.00000000000E+00  0.48624789353E+03  0.48624789353E+03  0.00000000000E+00 0.  1.
         -3   -1    0    0    0  501 -0.00000000000E+00 -0.00000000000E+00 -0.16499765832E+03  0.16499765832E+03  0.00000000000E+00 0.  1.
         23    2    1    2    0    0  0.25890887181E+02  0.52241185107E+02  0.61465741155E+02  0.12428896007E+03  0.90940798317E+02 0.  0.
         24    2    1    2    0    0 -0.82650525435E+02 -0.89247211791E+02  0.29088023565E+03  0.32474023216E+03  0.77773599135E+02 0.  0.
        -11    1    4    4    0    0 -0.73468360046E+02 -0.10341055797E+03  0.26567145497E+03  0.29440221706E+03  0.00000000000E+00 0.  1.
         12    1    4    4    0    0 -0.91821653889E+01  0.14163346181E+02  0.25208780686E+02  0.30338015096E+02  0.00000000000E+00 0. -1.
        -13    1    3    3    0    0  0.20443605981E+01 -0.24193360270E+02  0.29171245641E+02  0.37953388039E+02  0.00000000000E+00 0. -1.
         13    1    3    3    0    0  0.23846526583E+02  0.76434545377E+02  0.32294495514E+02  0.86335572029E+02  0.00000000000E+00 0.  1.
         21    1    1    2  503  501  0.11850090251E+03  0.50582911225E+02 -0.46794887081E+02  0.13707974416E+03  0.00000000000E+00 0.  1.
         -4    1    1    2    0  502 -0.61741264253E+02 -0.13576884540E+02  0.15699145485E+02  0.65136615466E+02  0.00000000000E+00 0.  1.
<scales pt_clust_5="13000.00000" pt_clust_6="13000.00000" pt_clust_7="13000.00000" pt_clust_8="13000.00000" pt_clust_9="146.34825" pt_clust_10="63.21645"></scales>
<clustering>
<clus scale="   63.216">  1 10  2 -1</clus>
<clus scale="   77.774">  5  6 -1 -1</clus>
<clus scale="   90.941">  7  8 -1 -1</clus>
<clus scale="  104.315">  2  7  1 -1</clus>
<clus scale="  146.348">  2  9  1 -1</clus>
<clus scale="   63.216">  1  5  2 -1</clus>
</clustering>
</event>
<event>
10    4  0.2857708E-005  0.1179782E+03  0.7546771E-02  0.1259281E+00
         21   -1    0    0  501  502  0.00000000000E+00  0.00000000000E+00  0.46506961122E+03  0.46506961122E+03  0.00000000000E+00 0. -1.
          2   -1    0    0  503    0 -0.00000000000E+00 -0.00000000000E+00 -0.19349645687E+03  0.19349645687E+03  0.00000000000E+00 0. -1.
         24    2    1    2    0    0  0.39415953355E+02  0.19164146879E+02 -0.12778190609E+03  0.15677612029E+03  0.79559125595E+02 0.  0.
         23    2    1    2    0    0  0.17071482746E+02  0.33735764726E+02  0.23934319892E+03  0.25841407883E+03  0.89794943772E+02 0.  0.
        -13    1    3    3    0    0  0.52464323686E+02 -0.49102366449E+01 -0.44050712558E+02  0.68681008733E+02  0.00000000000E+00 0.  1.
         14    1    3    3    0    0 -0.13048370331E+02  0.24074383524E+02 -0.83731193532E+02  0.88095111559E+02  0.00000000000E+00 0. -1.
        -13    1    4    4    0    0  0.42837853833E+02  0.49991581374E+02  0.14433066711E+03  0.15863663321E+03  0.00000000000E+00 0. -1.
         13    1    4    4    0    0 -0.25766371087E+02 -0.16255816648E+02  0.95012531810E+02  0.99777445622E+02  0.00000000000E+00 0.  1.
         21    1    1    2  503  502  0.55956706267E+02 -0.37531145584E+02  0.40734807471E+02  0.78734137480E+02  0.00000000000E+00 0. -1.
          1    1    1    2  501    0 -0.11244414237E+03 -0.15368766022E+02  0.11927705406E+03  0.16464173149E+03  0.00000000000E+00 0. -1.
<scales pt_clust_5="13000.00000" pt_clust_6="13000.00000" pt_clust_7="13000.00000" pt_clust_8="13000.00000" pt_clust_9="67.37759" pt_clust_10="76.52276"></scales>
<clustering>
<clus scale="   67.378">  1  9  2 -1</clus>
<clus scale="   79.559">  5  6 -1 -1</clus>
<clus scale="   89.795">  7  8 -1 -1</clus>
<clus scale="   91.448">  2  5  1 -1</clus>
<clus scale="   76.523">  1 10  2 -1</clus>
<clus scale="   67.378">  1  5  2 -1</clus>
</clustering>
</event>
<event>
10    4  0.2857708E-005  0.1496504E+03  0.7546771E-02  0.1219791E+00
         21   -1    0    0  503  502  0.00000000000E+00  0.00000000000E+00  0.48547814587E+03  0.48547814587E+03  0.00000000000E+00 0.  1.
         -3   -1    0    0    0  501 -0.00000000000E+00 -0.00000000000E+00 -0.14721040108E+03  0.14721040108E+03  0.00000000000E+00 0.  1.
         23    2    1    2    0    0  0.12701522423E+02  0.32193961708E+02 -0.13883487444E+02  0.98815503931E+02  0.91509413457E+02 0.  0.
         24    2    1    2    0    0 -0.63375494442E+02  0.92057742442E+02  0.28346217415E+02  0.14016165066E+03  0.79691273258E+02 0.  0.
        -11    1    4    4    0    0 -0.32063839509E+02  0.74336847159E+02  0.52805421677E+02  0.96656449387E+02  0.00000000000E+00 0.  1.
         12    1    4    4    0    0 -0.31311654933E+02  0.17720895283E+02 -0.24459204262E+02  0.43505201269E+02  0.00000000000E+00 0. -1.
        -13    1    3    3    0    0  0.16944066629E+00  0.59108120070E+02 -0.28617531367E+02  0.65671619973E+02  0.00000000000E+00 0.  1.
         13    1    3    3    0    0  0.12532081756E+02 -0.26914158362E+02  0.14734043923E+02  0.33143883958E+02  0.00000000000E+00 0. -1.
         21    1    1    2  503  501  0.29347558446E+01 -0.14575978436E+03  0.13827427377E+03  0.20093357687E+03  0.00000000000E+00 0.  1.
         -4    1    1    2    0  502  0.47739216175E+02  0.21508080208E+02  0.18553074104E+03  0.19277781550E+03  0.00000000000E+00 0.  1.
<scales pt_clust_5="13000.00000" pt_clust_6="13000.00000" pt_clust_7="13000.00000" pt_clust_8="13000.00000" pt_clust_9="126.66711" pt_clust_10="52.36058"></scales>
<clustering>
<clus scale="   52.361">  1 10  2 -1</clus>
<clus scale="   79.691">  5  6 -1 -1</clus>
<clus scale="   91.509">  7  8 -1 -1</clus>
<clus scale="  100.002">  2  7  1 -1</clus>
<clus scale="  126.667">  1  9  2 -1</clus>
<clus scale="   52.361">  1  5  2 -1</clus>
</clustering>
</event>
<event>
10    4  0.2857708E-005  0.1447785E+03  0.7546771E-02  0.1227603E+00
          2   -1    0    0  503    0 -0.00000000000E+00  0.00000000000E+00  0.17544261537E+03  0.17544261537E+03  0.00000000000E+00 0. -1.
         21   -1    0    0  501  502  0.00000000000E+00 -0.00000000000E+00 -0.57763531824E+03  0.57763531824E+03  0.00000000000E+00 0.  1.
         23    2    1    2    0    0  0.81138388880E+01 -0.44668870642E+02  0.73556164612E+02  0.12600844725E+03  0.91686842245E+02 0.  0.
         24    2    1    2    0    0  0.73994003551E+02 -0.99221269941E+02 -0.31277366171E+03  0.34606656155E+03  0.81330981779E+02 0.  0.
        -13    1    4    4    0    0  0.82435440581E+02 -0.80192512599E+02 -0.30083606892E+03  0.32206952868E+03  0.00000000000E+00 0.  1.
         14    1    4    4    0    0 -0.84414370307E+01 -0.19028757342E+02 -0.11937592785E+02  0.23997032871E+02  0.00000000000E+00 0. -1.
        -11    1    3    3    0    0 -0.32652649169E+02  0.56416027792E+01  0.84794627698E+01  0.34204158644E+02  0.00000000000E+00 0.  1.
         11    1    3    3    0    0  0.40766488057E+02 -0.50310473421E+02  0.65076701842E+02  0.91804288609E+02  0.00000000000E+00 0. -1.
         21    1    1    2  503  502 -0.28904365808E+02  0.40054681053E+02  0.28318533155E+02  0.56936624040E+02  0.00000000000E+00 0.  1.
          1    1    1    2  501    0 -0.53203476631E+02  0.10383545953E+03 -0.19129373894E+03  0.22406630076E+03  0.00000000000E+00 0. -1.
<scales pt_clust_5="13000.00000" pt_clust_6="13000.00000" pt_clust_7="13000.00000" pt_clust_8="13000.00000" pt_clust_9="49.39473" pt_clust_10="119.77523"></scales>
<clustering>
<clus scale="   49.395">  1  9  2 -1</clus>
<clus scale="   81.331">  5  6 -1 -1</clus>
<clus scale="   91.687">  7  8 -1 -1</clus>
<clus scale="   93.829">  1  7  2 -1</clus>
<clus scale="  119.775">  2 10  1 -1</clus>
<clus scale="  119.775">  2  5  1 -1</clus>
</clustering>
</event>
<event>
10    4  0.2857708E-005  0.1244297E+03  0.7546771E-02  0.1256134E+00
          2   -1    0    0  503    0 -0.00000000000E+00  0.00000000000E+00  0.49782029589E+03  0.49782029589E+03  0.00000000000E+00 0. -1.
         21   -1    0    0  501  502  0.00000000000E+00 -0.00000000000E+00 -0.20954938806E+03  0.20954938806E+03  0.00000000000E+00 0.  1.
         24    2    1    2    0    0  0.10280111923E+02  0.15406128308E+02  0.17997822789E+03  0.19816950488E+03  0.80845288424E+02 0.  0.
         23    2    1    2    0    0  0.17707581801E+02 -0.77889584622E+02 -0.11548938293E+03  0.16676459812E+03  0.89957144079E+02 0.  0.
        -11    1    3    3    0    0  0.24077052589E+01 -0.29521024560E+02  0.33316628273E+02  0.44578982213E+02  0.00000000000E+00 0.  1.
         12    1    3    3    0    0  0.78724066642E+01  0.44927152868E+02  0.14666159962E+03  0.15359052267E+03  0.00000000000E+00 0. -1.
        -11    1    4    4    0    0 -0.69726809140E+01 -0.86218489646E+02 -0.11035469692E+03  0.14021556750E+03  0.00000000000E+00 0.  1.
         11    1    4    4    0    0  0.24680262715E+02  0.83289050245E+01 -0.51346860085E+01  0.26549030623E+02  0.00000000000E+00 0. -1.
         21    1    1    2  503  502 -0.79348428747E+02 -0.46873175213E+02  0.19871478885E+03  0.21904528072E+03  0.00000000000E+00 0. -1.
          1    1    1    2  501    0  0.51360735023E+02  0.10935663153E+03  0.25067274025E+02  0.12339030022E+03  0.00000000000E+00 0. -1.
<scales pt_clust_5="13000.00000" pt_clust_6="13000.00000" pt_clust_7="13000.00000" pt_clust_8="13000.00000" pt_clust_9="81.05209" pt_clust_10="85.96782"></scales>
<clustering>
<clus scale="   80.845">  5  6 -1 -1</clus>
<clus scale="   82.940">  1  5  2 -1</clus>
<clus scale="   81.052">  1  9  2 -1</clus>
<clus scale="   85.968">  2 10  1 -1</clus>
<clus scale="   89.957">  7  8 -1 -1</clus>
<clus scale="   85.968">  2  5  1 -1</clus>
</clustering>
</event>
<event>
10    4  0.2857708E-005  0.1910672E+03  0.7546771E-02  0.1158601E+00
         -1   -1    0    0    0  501 -0.00000000000E+00  0.00000000000E+00  0.12921709389E+03  0.12921709389E+03  0.00000000000E+00 0.  1.
         21   -1    0    0  503  502  0.00000000000E+00 -0.00000000000E+00 -0.12764289868E+04  0.12764289868E+04  0.00000000000E+00 0.  1.
         23    2    1    2    0    0 -0.16148823812E+02  0.12855073321E+03  0.43786913493E+02  0.16424155654E+03  0.90950093908E+02 0.  0.
         24    2    1    2    0    0 -0.30730375624E+02 -0.17086528715E+03 -0.85402687885E+03  0.87518330445E+03  0.80278292529E+02 0.  0.
        -11    1    4    4    0    0  0.50907917210E+01 -0.13555675595E+03 -0.70398234542E+03  0.71693283709E+03  0.00000000000E+00 0.  1.
         12    1    4    4    0    0 -0.35821167345E+02 -0.35308531207E+02 -0.15004453344E+03  0.15825046736E+03  0.00000000000E+00 0. -1.
        -13    1    3    3    0    0 -0.29094630382E+02  0.88501865214E+02  0.68316629279E+02  0.11552592566E+03  0.00000000000E+00 0.  1.
         13    1    3    3    0    0  0.12945806569E+02  0.40048867998E+02 -0.24529715786E+02  0.48715630882E+02  0.00000000000E+00 0. -1.
         21    1    1    2  503  501  0.42111712187E+01  0.44067531752E+02 -0.24012128281E+02  0.50361330625E+02  0.00000000000E+00 0.  1.
         -2    1    1    2    0  502  0.42668028218E+02 -0.17529778097E+01 -0.31295979930E+03  0.31585988910E+03  0.00000000000E+00 0.  1.
<scales pt_clust_5="13000.00000" pt_clust_6="13000.00000" pt_clust_7="13000.00000" pt_clust_8="13000.00000" pt_clust_9="44.38835" pt_clust_10="42.70402"></scales>
<clustering>
<clus scale="   42.704">  2 10  1 -1</clus>
<clus scale="   44.388">  1  9  2 -1</clus>
<clus scale="   80.278">  5  6 -1 -1</clus>
<clus scale="   90.950">  7  8 -1 -1</clus>
<clus scale="  186.224">  2  5  1 -1</clus>
<clus scale="   42.704">  2  5  1 -1</clus>
</clustering>
</event>
<event>
10    4  0.2857708E-005  0.9979391E+02  0.7546771E-02  0.1281170E+00
         21   -1    0    0  501  502  0.00000000000E+00  0.00000000000E+00  0.30004368130E+02  0.30004368130E+02  0.00000000000E+00 0.  1.
          2   -1    0    0  503    0 -0.00000000000E+00 -0.00000000000E+00 -0.73382814509E+03  0.73382814509E+03  0.00000000000E+00 0. -1.
         24    2    1    2    0    0  0.32784817260E+02  0.21780024818E+02 -0.43224409993E+03  0.44197239071E+03  0.83399151664E+02 0.  0.
         23    2    1    2    0    0 -0.40145753589E+02 -0.47362122390E+02 -0.14820902500E+03  0.18058497512E+03  0.82402463426E+02 0.  0.
        -13    1    3    3    0    0 -0.12991759137E+02 -0.18288218732E+02 -0.48509824472E+02  0.53445746512E+02  0.00000000000E+00 0.  1.
         14    1    3    3    0    0  0.45776576397E+02  0.40068243551E+02 -0.38373427546E+03  0.38852664420E+03  0.00000000000E+00 0. -1.
        -11    1    4    4    0    0 -0.65275795009E+02 -0.26349193343E+02 -0.99323321095E+02  0.12173878395E+03  0.00000000000E+00 0.  1.
         11    1    4    4    0    0  0.25130041421E+02 -0.21012929048E+02 -0.48885703909E+02  0.58846191174E+02  0.00000000000E+00 0. -1.
         21    1    1    2  503  502 -0.94390793632E+01  0.37874515672E+02 -0.10952936949E+03  0.11627664399E+03  0.00000000000E+00 0. -1.
          1    1    1    2  501    0  0.16800015692E+02 -0.12292418100E+02 -0.13841282531E+02  0.24998503398E+02  0.00000000000E+00 0. -1.
<scales pt_clust_5="13000.00000" pt_clust_6="13000.00000" pt_clust_7="13000.00000" pt_clust_8="13000.00000" pt_clust_9="36.87045" pt_clust_10="20.81692"></scales>
<clustering>
<clus scale="   20.817">  1 10  2 -1</clus>
<clus scale="   36.870">  2  9  1 -1</clus>
<clus scale="   82.402">  7  8 -1 -1</clus>
<clus scale="   83.399">  5  6 -1 -1</clus>
<clus scale="   98.962">  1  7  2 -1</clus>
<clus scale="   20.817">  1  5  2 -1</clus>
</clustering>
</event>
<event>
10    4  0.2857708E-005  0.2156219E+03  0.7546771E-02  0.1149502E+00
          2   -1    0    0  503    0 -0.00000000000E+00  0.00000000000E+00  0.83435810918E+02  0.83435810918E+02  0.00000000000E+00 0. -1.
         21   -1    0    0  501  502  0.00000000000E+00 -0.00000000000E+00 -0.15396453345E+04  0.15396453345E+04  0.00000000000E+00 0. -1.
         23    2    1    2    0    0 -0.66017935838E+02  0.12002188333E+03 -0.14861851845E+03  0.22215525701E+03  0.92205606449E+02 0.  0.
         24    2    1    2    0    0 -0.14933704230E+03  0.20403998698E+02 -0.31032120708E+03  0.35458793690E+03  0.81948020537E+02 0.  0.
        -11    1    4    4    0    0 -0.14330057479E+03  0.25188130361E+02 -0.31398548800E+03  0.34605835248E+03  0.00000000000E+00 0.  1.
         12    1    4    4    0    0 -0.60364675023E+01 -0.47841316627E+01  0.36642809245E+01  0.85295844193E+01  0.00000000000E+00 0. -1.
        -11    1    3    3    0    0 -0.75490995319E+02  0.42342640698E+02 -0.71212299705E+02  0.11208470558E+03  0.00000000000E+00 0. -1.
         11    1    3    3    0    0  0.94730594804E+01  0.77679242636E+02 -0.77406218748E+02  0.11007055144E+03  0.00000000000E+00 0.  1.
         21    1    1    2  503  502  0.21589606829E+02 -0.15470960635E+01 -0.70580220448E+00  0.21656472151E+02  0.00000000000E+00 0.  1.
          1    1    1    2  501    0  0.19376537131E+03 -0.13887878597E+03 -0.99656399589E+03  0.10246814794E+04  0.00000000000E+00 0. -1.
<scales pt_clust_5="13000.00000" pt_clust_6="13000.00000" pt_clust_7="13000.00000" pt_clust_8="13000.00000" pt_clust_9="21.64497" pt_clust_10="199.44258"></scales>
<clustering>
<clus scale="   21.645">  1  9  2 -1</clus>
<clus scale="   81.948">  5  6 -1 -1</clus>
<clus scale="   92.206">  7  8 -1 -1</clus>
<clus scale="  160.502">  1  7  2 -1</clus>
<clus scale="  199.443">  2 10  1 -1</clus>
<clus scale="  199.443">  2  5  1 -1</clus>
</clustering>
</event>
<event>
10    4  0.2857708E-005  0.1348472E+03  0.7546771E-02  0.1220997E+00
         21   -1    0    0  501  502  0.00000000000E+00  0.00000000000E+00  0.20473249261E+02  0.20473249261E+02  0.00000000000E+00 0. -1.
          2   -1    0    0  503    0 -0.00000000000E+00 -0.00000000000E+00 -0.16783858660E+04  0.16783858660E+04  0.00000000000E+00 0. -1.
         24    2    1    2    0    0 -0.12257529789E+03  0.62606822552E+01 -0.10001075745E+04  0.10108410687E+04  0.80750267568E+02 0.  0.
         23    2    1    2    0    0  0.67682901223E+02 -0.42811569799E+02 -0.30004208236E+03  0.32153204784E+03  0.83329472438E+02 0.  0.
        -11    1    3    3    0    0 -0.11593002370E+02  0.29720589016E+02 -0.16402510859E+03  0.16709861569E+03  0.00000000000E+00 0.  1.
         12    1    3    3    0    0 -0.11098229552E+03 -0.23459906761E+02 -0.83608246593E+03  0.84374245299E+03  0.00000000000E+00 0. -1.
        -11    1    4    4    0    0  0.51120307801E+02 -0.67252651156E+02 -0.24364602815E+03  0.25787514806E+03  0.00000000000E+00 0. -1.
         11    1    4    4    0    0  0.16562593421E+02  0.24441081357E+02 -0.56396054210E+02  0.63656899777E+02  0.00000000000E+00 0.  1.
         21    1    1    2  503  502  0.11495250903E+01  0.24068218536E+02 -0.12151096998E+03  0.12387702118E+03  0.00000000000E+00 0. -1.
          1    1    1    2  501    0  0.53742871577E+02  0.12482669008E+02 -0.23625198988E+03  0.24260897756E+03  0.00000000000E+00 0. -1.
<scales pt_clust_5="13000.00000" pt_clust_6="13000.00000" pt_clust_7="13000.00000" pt_clust_8="13000.00000" pt_clust_9="24.09565" pt_clust_10="56.29707"></scales>
<clustering>
<clus scale="   24.096">  2  9  1 -1</clus>
<clus scale="   56.297">  1 10  2 -1</clus>
<clus scale="   80.750">  5  6 -1 -1</clus>
<clus scale="   83.329">  7  8 -1 -1</clus>
<clus scale="  133.269">  2  5  1 -1</clus>
<clus scale="   56.297">  1  5  2 -1</clus>
</clustering>
</event>
<event>
10    4  0.2857708E-005  0.1434884E+03  0.7546771E-02  0.1210697E+00
          2   -1    0    0  503    0 -0.00000000000E+00  0.00000000000E+00  0.18060246679E+04  0.18060246679E+04  0.00000000000E+00 0. -1.
         21   -1    0    0  501  502  0.00000000000E+00 -0.00000000000E+00 -0.23816113820E+02  0.23816113820E+02  0.00000000000E+00 0. -1.
         24    2    1    2    0    0  0.29649463915E+02  0.12889386353E+03  0.71694313278E+03  0.73340679967E+03  0.79908443782E+02 0.  0.
         23    2    1    2    0    0 -0.51603545109E+02 -0.10092742661E+03  0.48568144884E+03  0.50675050870E+03  0.89779379640E+02 0.  0.
        -13    1    3    3    0    0  0.39252545429E+00  0.12243983705E+03  0.61860732196E+03  0.63060818783E+03  0.00000000000E+00 0.  1.
         14    1    3    3    0    0  0.29256938461E+02  0.64540264809E+01  0.98335810816E+02  0.10279861183E+03  0.00000000000E+00 0. -1.
        -11    1    4    4    0    0 -0.74451464002E+02 -0.87018124747E+02  0.42982081961E+03  0.44481581750E+03  0.00000000000E+00 0. -1.
         11    1    4    4    0    0  0.22847918893E+02 -0.13909301860E+02  0.55860629234E+02  0.61934691203E+02  0.00000000000E+00 0.  1.
         21    1    1    2  503  502  0.32231925797E+01 -0.65058755558E+02  0.40619769947E+03  0.41138741072E+03  0.00000000000E+00 0.  1.
          1    1    1    2  501    0  0.18730888614E+02  0.37092318631E+02  0.17338627296E+03  0.17829606260E+03  0.00000000000E+00 0. -1.
<scales pt_clust_5="13000.00000" pt_clust_6="13000.00000" pt_clust_7="13000.00000" pt_clust_8="13000.00000" pt_clust_9="60.80210" pt_clust_10="41.55341"></scales>
<clustering>
<clus scale="   41.553">  2 10  1 -1</clus>
<clus scale="   60.802">  1  9  2 -1</clus>
<clus scale="   79.908">  5  6 -1 -1</clus>
<clus scale="   89.779">  7  8 -1 -1</clus>
<clus scale="  137.528">  1  5  2 -1</clus>
<clus scale="   41.553">  2  5  1 -1</clus>
</clustering>
</event>
<event>
10    4  0.2857708E-005  0.1382412E+03  0.7546771E-02  0.1236827E+00
         21   -1    0    0  503  502  0.00000000000E+00  0.00000000000E+00  0.21013876529E+03  0.21013876529E+03  0.00000000000E+00 0.  1.
         -3   -1    0    0    0  501 -0.00000000000E+00 -0.00000000000E+00 -0.22857874274E+03  0.22857874274E+03  0.00000000000E+00 0.  1.
         24    2    1    2    0    0 -0.27368349032E+02  0.26154145122E+02 -0.21039840237E+02  0.91324950399E+02  0.80402150794E+02 0.  0.
         23    2    1    2    0    0  0.31016171807E+02 -0.11028120120E+03 -0.60788038264E+02  0.15870232235E+03  0.91472920970E+02 0.  0.
        -11    1    3    3    0    0 -0.53715817065E+02  0.30679442468E+01 -0.11505772949E+02  0.55019851836E+02  0.00000000000E+00 0.  1.
         12    1    3    3    0    0  0.26347468033E+02  0.23086200875E+02 -0.95340672882E+01  0.36305098563E+02  0.00000000000E+00 0. -1.
        -13    1    4    4    0    0  0.24332234680E+02 -0.60966414247E+02  0.15658526772E+02  0.67484448366E+02  0.00000000000E+00 0.  1.
         13    1    4    4    0    0  0.66839371270E+01 -0.49314786950E+02 -0.76446565036E+02  0.91217873979E+02  0.00000000000E+00 0. -1.
         21    1    1    2  503  501 -0.16919139968E+02 -0.18007299596E+02 -0.37244719550E+02  0.44695517341E+02  0.00000000000E+00 0. -1.
         -4    1    1    2    0  502  0.13271317194E+02  0.10213435567E+03  0.10063262060E+03  0.14399471795E+03  0.00000000000E+00 0.  1.
<scales pt_clust_5="13000.00000" pt_clust_6="13000.00000" pt_clust_7="13000.00000" pt_clust_8="13000.00000" pt_clust_9="24.70871" pt_clust_10="103.65012"></scales>
<clustering>
<clus scale="   24.709">  2  9  1 -1</clus>
<clus scale="   80.402">  5  6 -1 -1</clus>
<clus scale="   89.149">  2  5  1 -1</clus>
<clus scale="   91.473">  7  8 -1 -1</clus>
<clus scale="  103.650">  1 10  2 -1</clus>
<clus scale="  103.650">  1  5  2 -1</clus>
</clustering>
</event>
<event>
10    4  0.2857708E-005  0.9112001E+02  0.7546771E-02  0.1303398E+00
         21   -1    0    0  501  502  0.00000000000E+00  0.00000000000E+00  0.43625816696E+02  0.43625816696E+02  0.00000000000E+00 0.  1.
          2   -1    0    0  503    0 -0.00000000000E+00 -0.00000000000E+00 -0.58886313194E+03  0.58886313194E+03  0.00000000000E+00 0. -1.
         24    2    1    2    0    0  0.31579634844E+02 -0.39598848852E+02 -0.19976988291E+03  0.22139778048E+03  0.80892700039E+02 0.  0.
         23    2    1    2    0    0  0.50451083647E+02  0.18186361776E+02 -0.15331739362E+03  0.18365480971E+03  0.85713536561E+02 0.  0.
        -11    1    3    3    0    0  0.38144514342E+02  0.10743235870E+02 -0.53574080964E+02  0.66637851424E+02  0.00000000000E+00 0.  1.
         12    1    3    3    0    0 -0.65648794976E+01 -0.50342084722E+02 -0.14619580194E+03  0.15475992906E+03  0.00000000000E+00 0. -1.
        -13    1    4    4    0    0  0.60677507841E+02 -0.49331744087E+01 -0.54679169558E+02  0.81828526512E+02  0.00000000000E+00 0.  1.
         13    1    4    4    0    0 -0.10226424194E+02  0.23119536185E+02 -0.98638224059E+02  0.10182628320E+03  0.00000000000E+00 0. -1.
         21    1    1    2  503  502  0.12112068130E+02  0.19808971462E+02 -0.66399875455E+02  0.70342313050E+02  0.00000000000E+00 0. -1.
          1    1    1    2  501    0 -0.94142786621E+02  0.16035156142E+01 -0.12575016327E+03  0.15709404539E+03  0.00000000000E+00 0. -1.
<scales pt_clust_5="13000.00000" pt_clust_6="13000.00000" pt_clust_7="13000.00000" pt_clust_8="13000.00000" pt_clust_9="23.21847" pt_clust_10="91.12001"></scales>
<clustering>
<clus scale="   23.218">  2  9  1 -1</clus>
<clus scale="   80.893">  5  6 -1 -1</clus>
<clus scale="   85.714">  7  8 -1 -1</clus>
<clus scale="   91.120">  1 10  2 -1</clus>
<clus scale="   85.856">  2  5  1 -1</clus>
<clus scale="   91.120">  1  5  2 -1</clus>
</clustering>
</event>
<event>
10    4  0.2857708E-005  0.2131716E+03  0.7546771E-02  0.1140964E+00
          2   -1    0    0  503    0 -0.00000000000E+00  0.00000000000E+00  0.58862571677E+03  0.58862571677E+03  0.00000000000E+00 0. -1.
         21   -1    0    0  501  502  0.00000000000E+00 -0.00000000000E+00 -0.38216326957E+03  0.38216326957E+03  0.00000000000E+00 0.  1.
         23    2    1    2    0    0 -0.16368821366E+03  0.31741460371E+01  0.49434963237E+03  0.53036695339E+03  0.10051686292E+03 0.  0.
         24    2    1    2    0    0  0.18286520904E+03 -0.74799257720E+02 -0.23358605890E+03  0.31583236924E+03  0.78441219474E+02 0.  0.
        -13    1    4    4    0    0  0.11474373525E+03 -0.35061825710E+02 -0.19270029775E+03  0.22699969418E+03  0.00000000000E+00 0.  1.
         14    1    4    4    0    0  0.68121473788E+02 -0.39737432010E+02 -0.40885761144E+02  0.88832675059E+02  0.00000000000E+00 0. -1.
        -13    1    3    3    0    0 -0.11635225934E+03 -0.11685732605E+02  0.44605733489E+03  0.46113073050E+03  0.00000000000E+00 0. -1.
         13    1    3    3    0    0 -0.47335954317E+02  0.14859878642E+02  0.48292297474E+02  0.69236222887E+02  0.00000000000E+00 0.  1.
         21    1    1    2  503  502 -0.26989533168E+02  0.61915864775E+01  0.12830991739E+02  0.30518928434E+02  0.00000000000E+00 0. -1.
          1    1    1    2  501    0  0.78125377827E+01  0.65433525205E+02 -0.67132118008E+02  0.94070735277E+02  0.00000000000E+00 0. -1.
<scales pt_clust_5="13000.00000" pt_clust_6="13000.00000" pt_clust_7="13000.00000" pt_clust_8="13000.00000" pt_clust_9="27.69062" pt_clust_10="65.97155"></scales>
<clustering>
<clus scale="   27.691">  1  9  2 -1</clus>
<clus scale="   65.972">  2 10  1 -1</clus>
<clus scale="   78.441">  5  6 -1 -1</clus>
<clus scale="  100.517">  7  8 -1 -1</clus>
<clus scale="  203.695">  2  5  1 -1</clus>
<clus scale="   65.972">  2  5  1 -1</clus>
</clustering>
</event>
<event>
10    4  0.2857708E-005  0.2010619E+03  0.7546771E-02  0.1150343E+00
          4   -1    0    0  503    0 -0.00000000000E+00  0.00000000000E+00  0.13108191941E+03  0.13108191941E+03  0.00000000000E+00 0. -1.
         21   -1    0    0  501  502  0.00000000000E+00 -0.00000000000E+00 -0.11091741452E+04  0.11091741452E+04  0.00000000000E+00 0. -1.
         23    2    1    2    0    0 -0.11367997277E+03  0.16446811637E+03 -0.11818473012E+03  0.25025537796E+03  0.93205290906E+02 0.  0.
         24    2    1    2    0    0  0.47225822660E+02 -0.14836256261E+03 -0.87376501544E+03  0.89085626803E+03  0.76927626859E+02 0.  0.
        -11    1    4    4    0    0  0.19386239977E+02 -0.70740290450E+02 -0.21986789145E+03  0.23177986255E+03  0.00000000000E+00 0.  1.
         12    1    4    4    0    0  0.27839582684E+02 -0.77622272161E+02 -0.65389712399E+03  0.65907640548E+03  0.00000000000E+00 0. -1.
        -11    1    3    3    0    0 -0.21621074807E+02 -0.41704634774E+01 -0.33963306961E+02  0.40476781754E+02  0.00000000000E+00 0.  1.
         11    1    3    3    0    0 -0.92058897966E+02  0.16863857985E+03 -0.84221423159E+02  0.20977859621E+03  0.00000000000E+00 0. -1.
         21    1    1    2  503  502  0.48457386406E+02  0.27670973201E+01  0.39494813226E+02  0.62574878319E+02  0.00000000000E+00 0. -1.
          3    1    1    2  501    0  0.17996763707E+02 -0.18872651079E+02 -0.25637293476E+02  0.36569540324E+02  0.00000000000E+00 0. -1.
<scales pt_clust_5="13000.00000" pt_clust_6="13000.00000" pt_clust_7="13000.00000" pt_clust_8="13000.00000" pt_clust_9="48.71760" pt_clust_10="26.07798"></scales>
<clustering>
<clus scale="   26.078">  2 10  1 -1</clus>
<clus scale="   48.718">  1  9  2 -1</clus>
<clus scale="   76.928">  5  6 -1 -1</clus>
<clus scale="   93.205">  7  8 -1 -1</clus>
<clus scale="  194.053">  2  5  1 -1</clus>
<clus scale="   26.078">  2  5  1 -1</clus>
</clustering>
</event>
<event>
10    4  0.2857708E-005  0.1973613E+03  0.7546771E-02  0.1152855E+00
         21   -1    0    0  501  502  0.00000000000E+00  0.00000000000E+00  0.31631172081E+03  0.31631172081E+03  0.00000000000E+00 0. -1.
          2   -1    0    0  503    0 -0.00000000000E+00 -0.00000000000E+00 -0.53246324671E+03  0.53246324671E+03  0.00000000000E+00 0. -1.
         23    2    1    2    0    0  0.19735122559E+03 -0.77546622940E+02 -0.27564379935E+03  0.35920945114E+03  0.89949656463E+02 0.  0.
         24    2    1    2    0    0 -0.12221084710E+03 -0.30872784175E+02  0.34281608838E+02  0.15358040864E+03  0.80765668840E+02 0.  0.
        -11    1    4    4    0    0 -0.62806764994E+02  0.21016271382E+02 -0.30852790803E+01  0.66301525916E+02  0.00000000000E+00 0.  1.
         12    1    4    4    0    0 -0.59404082103E+02 -0.51889055557E+02  0.37366887918E+02  0.87278882725E+02  0.00000000000E+00 0. -1.
        -13    1    3    3    0    0  0.84236593529E+02  0.22706366963E+01 -0.61941609092E+02  0.10458356667E+03  0.00000000000E+00 0.  1.
         13    1    3    3    0    0  0.11311463206E+03 -0.79817259636E+02 -0.21370219026E+03  0.25462588447E+03  0.00000000000E+00 0. -1.
         21    1    1    2  503  502 -0.17130386556E+02 -0.21563657599E+02 -0.12561510604E+03  0.12859858607E+03  0.00000000000E+00 0. -1.
          1    1    1    2  501    0 -0.58009991938E+02  0.12998306471E+03  0.15082577066E+03  0.20738652167E+03  0.00000000000E+00 0. -1.
<scales pt_clust_5="13000.00000" pt_clust_6="13000.00000" pt_clust_7="13000.00000" pt_clust_8="13000.00000" pt_clust_9="27.53982" pt_clust_10="141.46380"></scales>
<clustering>
<clus scale="   27.540">  2  9  1 -1</clus>
<clus scale="   80.766">  5  6 -1 -1</clus>
<clus scale="   89.950">  7  8 -1 -1</clus>
<clus scale="  141.464">  1 10  2 -1</clus>
<clus scale="  193.348">  1  5  2 -1</clus>
<clus scale="  141.464">  1  5  2 -1</clus>
</clustering>
</event>
<event>
10    4  0.2857708E-005  0.2858556E+03  0.7546771E-02  0.1092807E+00
         21   -1    0    0  501  502  0.00000000000E+00  0.00000000000E+00  0.82154559435E+03  0.82154559435E+03  0.00000000000E+00 0. -1.
          2   -1    0    0  503    0 -0.00000000000E+00 -0.00000000000E+00 -0.13419658556E+03  0.13419658556E+03  0.00000000000E+00 0. -1.
         24    2    1    2    0    0  0.25478136228E+03  0.53705518731E+02  0.28045380300E+03  0.39144019551E+03  0.82299852598E+02 0.  0.
         23    2    1    2    0    0 -0.26857315809E+03 -0.99595451488E+02  0.36618391246E+03  0.47337277078E+03  0.89108513424E+02 0.  0.
        -11    1    3    3    0    0  0.60702246626E+02 -0.18495605919E+02  0.44490131118E+02  0.77499819036E+02  0.00000000000E+00 0.  1.
         12    1    3    3    0    0  0.19407911566E+03  0.72201124649E+02  0.23596367188E+03  0.31394037648E+03  0.00000000000E+00 0. -1.
        -11    1    4    4    0    0 -0.15989958160E+03 -0.52545455932E+02  0.28079853493E+03  0.32737855512E+03  0.00000000000E+00 0.  1.
         11    1    4    4    0    0 -0.10867357649E+03 -0.47049995556E+02  0.85385377533E+02  0.14599421566E+03  0.00000000000E+00 0. -1.
         21    1    1    2  503  502 -0.11784521791E+02  0.49589947724E+02  0.40473342362E+02  0.65085553782E+02  0.00000000000E+00 0. -1.
          1    1    1    2  501    0  0.25576317602E+02 -0.37000149666E+01  0.23795097024E+00  0.25843659832E+02  0.00000000000E+00 0. -1.
<scales pt_clust_5="13000.00000" pt_clust_6="13000.00000" pt_clust_7="13000.00000" pt_clust_8="13000.00000" pt_clust_9="50.37436" pt_clust_10="25.84258"></scales>
<clustering>
<clus scale="   25.843">  1 10  2 -1</clus>
<clus scale="   50.374">  2  9  1 -1</clus>
<clus scale="   82.300">  5  6 -1 -1</clus>
<clus scale="   89.109">  7  8 -1 -1</clus>
<clus scale="  283.807">  2  5  1 -1</clus>
<clus scale="   25.843">  1  5  2 -1</clus>
</clustering>
</event>
<event>
10    4  0.2857708E-005  0.1367955E+03  0.7546771E-02  0.1222808E+00
         21   -1    0    0  501  502  0.00000000000E+00  0.00000000000E+00  0.74068581615E+02  0.74068581615E+02  0.00000000000E+00 0. -1.
          2   -1    0    0  503    0 -0.00000000000E+00 -0.00000000000E+00 -0.97919484190E+03  0.97919484190E+03  0.00000000000E+00 0. -1.
         23    2    1    2    0    0  0.74288970209E+02 -0.77286712357E+02 -0.58242520302E+03  0.59922481919E+03  0.91428550391E+02 0.  0.
         24    2    1    2    0    0 -0.67996945246E+02  0.82324581094E+02 -0.32788252754E+03  0.35165394604E+03  0.68939282562E+02 0.  0.
        -13    1    4    4    0    0 -0.11768981395E+02  0.47395646093E+02 -0.21775573740E+03  0.22316455221E+03  0.00000000000E+00 0.  1.
         14    1    4    4    0    0 -0.56227963851E+02  0.34928935001E+02 -0.11012679014E+03  0.12848939383E+03  0.00000000000E+00 0. -1.
        -11    1    3    3    0    0 -0.36385176472E+01 -0.40780108647E+02 -0.84245752283E+02  0.93667512242E+02  0.00000000000E+00 0.  1.
         11    1    3    3    0    0  0.77927487856E+02 -0.36506603709E+02 -0.49817945073E+03  0.50555730695E+03  0.00000000000E+00 0. -1.
         21    1    1    2  503  502 -0.15474370623E+02  0.15073109453E+02 -0.43693559749E+02  0.48741993581E+02  0.00000000000E+00 0. -1.
          1    1    1    2  501    0  0.91823456597E+01 -0.20110978189E+02  0.48875030029E+02  0.53642664698E+02  0.00000000000E+00 0. -1.
<scales pt_clust_5="13000.00000" pt_clust_6="13000.00000" pt_clust_7="13000.00000" pt_clust_8="13000.00000" pt_clust_9="21.60219" pt_clust_10="22.05663"></scales>
<clustering>
<clus scale="   21.602">  2  9  1 -1</clus>
<clus scale="   22.057">  1 10  2 -1</clus>
<clus scale="   68.939">  5  6 -1 -1</clus>
<clus scale="   91.429">  7  8 -1 -1</clus>
<clus scale="  122.908">  1  5  2 -1</clus>
<clus scale="   22.057">  1  5  2 -1</clus>
</clustering>
</event>
<event>
10    4  0.2857708E-005  0.1498002E+03  0.7546771E-02  0.1242868E+00
         21   -1    0    0  501  502  0.00000000000E+00  0.00000000000E+00  0.24474488937E+03  0.24474488937E+03  0.00000000000E+00 0. -1.
          2   -1    0    0  503    0 -0.00000000000E+00 -0.00000000000E+00 -0.35967587304E+03  0.35967587304E+03  0.00000000000E+00 0. -1.
         23    2    1    2    0    0 -0.11888217055E+01  0.11490978898E+01 -0.23368440211E+02  0.66231605605E+02  0.61950043261E+02 0.  0.
         24    2    1    2    0    0 -0.13457678926E+03 -0.33930066593E+02  0.16001595632E+03  0.22670228877E+03  0.80787745535E+02 0.  0.
        -11    1    4    4    0    0 -0.21030538435E+02  0.24519644620E+02  0.24914238865E+02  0.40794801352E+02  0.00000000000E+00 0.  1.
         12    1    4    4    0    0 -0.11354625083E+03 -0.58449711214E+02  0.13510171746E+03  0.18590748742E+03  0.00000000000E+00 0. -1.
        -11    1    3    3    0    0 -0.14461713564E+02 -0.26027101004E+02 -0.19846058145E+02  0.35782917291E+02  0.00000000000E+00 0.  1.
         11    1    3    3    0    0  0.13272891859E+02  0.27176198894E+02 -0.35223820654E+01  0.30448688314E+02  0.00000000000E+00 0. -1.
         21    1    1    2  503  502  0.45925217888E+02  0.67929359767E+02 -0.15282308210E+03  0.17343130623E+03  0.00000000000E+00 0. -1.
          1    1    1    2  501    0  0.89840393079E+02 -0.35148391064E+02 -0.98755417689E+02  0.13805556181E+03  0.00000000000E+00 0. -1.
<scales pt_clust_5="13000.00000" pt_clust_6="13000.00000" pt_clust_7="13000.00000" pt_clust_8="13000.00000" pt_clust_9="82.14965" pt_clust_10="126.14858"></scales>
<clustering>
<clus scale="   61.950">  7  8 -1 -1</clus>
<clus scale="   61.972">  2  7  1 -1</clus>
<clus scale="   80.788">  5  6 -1 -1</clus>
<clus scale="   82.150">  2  9  1 -1</clus>
<clus scale="  126.149">  1 10  2 -1</clus>
<clus scale="  126.149">  1  5  2 -1</clus>
</clustering>
</event>
<event>
10    4  0.2857708E-005  0.3517890E+03  0.7546771E-02  0.1109672E+00
         21   -1    0    0  503  502  0.00000000000E+00  0.00000000000E+00  0.93753870216E+03  0.93753870216E+03  0.00000000000E+00 0. -1.
          2   -1    0    0  502    0 -0.00000000000E+00 -0.00000000000E+00 -0.17399952152E+03  0.17399952152E+03  0.00000000000E+00 0. -1.
         24    2    1    2    0    0 -0.13716567373E+02 -0.54495103140E+02  0.18717144829E+03  0.21146020586E+03  0.80773802183E+02 0.  0.
         23    2    1    2    0    0 -0.11026735298E+03 -0.26258209187E+03  0.13600039394E+03  0.32287769101E+03  0.68159020658E+02 0.  0.
        -13    1    3    3    0    0  0.22854677941E+02 -0.53972020853E+02  0.87747254083E+02  0.10552201637E+03  0.00000000000E+00 0.  1.
         14    1    3    3    0    0 -0.36571245314E+02 -0.52308228682E+00  0.99424194208E+02  0.10593818949E+03  0.00000000000E+00 0. -1.
        -13    1    4    4    0    0 -0.56839911307E+02 -0.58771630038E+02  0.45476796791E+02  0.93557570838E+02  0.00000000000E+00 0.  1.
         13    1    4    4    0    0 -0.53427441675E+02 -0.20381046183E+03  0.90523597147E+02  0.22932012017E+03  0.00000000000E+00 0. -1.
         21    1    1    2  503  501 -0.12778109875E+02  0.13734255329E+03  0.23202970308E+03  0.26993339947E+03  0.00000000000E+00 0. -1.
          1    1    1    2  501    0  0.13676203023E+03  0.17973464171E+03  0.20833763533E+03  0.30726692735E+03  0.00000000000E+00 0. -1.
<scales pt_clust_5="13000.00000" pt_clust_6="13000.00000" pt_clust_7="13000.00000" pt_clust_8="13000.00000" pt_clust_9="120.92616" pt_clust_10="120.92616"></scales>
<clustering>
<clus scale="   68.159">  7  8 -1 -1</clus>
<clus scale="   80.774">  5  6 -1 -1</clus>
<clus scale="   98.399">  2  5  1 -1</clus>
<clus scale="  120.926">  9 10 -1 -1</clus>
<clus scale="  324.152">  2  7  1 -1</clus>
<clus scale="  351.789">  1  5  2 -1</clus>
</clustering>
</event>
<event>
10    4  0.2857708E-005  0.2027636E+03  0.7546771E-02  0.1155053E+00
         21   -1    0    0  501  502  0.00000000000E+00  0.00000000000E+00  0.12028449080E+03  0.12028449080E+03  0.00000000000E+00 0.  1.
          4   -1    0    0  503    0 -0.00000000000E+00 -0.00000000000E+00 -0.11352232984E+04  0.11352232984E+04  0.00000000000E+00 0. -1.
         23    2    1    2    0    0 -0.13868255294E+03 -0.18784150977E+02 -0.53908179463E+02  0.17448015150E+03  0.89171389103E+02 0.  0.
         24    2    1    2    0    0  0.78305670987E+02  0.18558547636E+03 -0.28029746215E+03  0.35551886352E+03  0.85166001938E+02 0.  0.
        -11    1    4    4    0    0 -0.26894523672E+01  0.98954826815E+02 -0.10986410741E+03  0.14788310586E+03  0.00000000000E+00 0.  1.
         12    1    4    4    0    0  0.80995123354E+02  0.86630649546E+02 -0.17043335474E+03  0.20763575766E+03  0.00000000000E+00 0. -1.
        -11    1    3    3    0    0 -0.80026547800E+02  0.36815858731E+01  0.14714812970E+02  0.81451385182E+02  0.00000000000E+00 0.  1.
         11    1    3    3    0    0 -0.58656005141E+02 -0.22465736850E+02 -0.68622992433E+02  0.93028766313E+02  0.00000000000E+00 0. -1.
         21    1    1    2  503  502 -0.38989361134E+02  0.11101138951E+02 -0.61934400372E+02  0.74022128564E+02  0.00000000000E+00 0. -1.
          3    1    1    2  501    0  0.99366243088E+02 -0.17790246433E+03 -0.61879876559E+03  0.65148664559E+03  0.00000000000E+00 0. -1.
<scales pt_clust_5="13000.00000" pt_clust_6="13000.00000" pt_clust_7="13000.00000" pt_clust_8="13000.00000" pt_clust_9="40.53894" pt_clust_10="184.01045"></scales>
<clustering>
<clus scale="   40.539">  2  9  1 -1</clus>
<clus scale="   85.166">  5  6 -1 -1</clus>
<clus scale="   89.171">  7  8 -1 -1</clus>
<clus scale="  169.318">  2  7  1 -1</clus>
<clus scale="  184.010">  1 10  2 -1</clus>
<clus scale="  184.010">  1  5  2 -1</clus>
</clustering>
</event>
<event>
10    4  0.2857708E-005  0.1151141E+03  0.7546771E-02  0.1254033E+00
         21   -1    0    0  501  502  0.00000000000E+00  0.00000000000E+00  0.59460282137E+02  0.59460282137E+02  0.00000000000E+00 0.  1.
          2   -1    0    0  503    0 -0.00000000000E+00 -0.00000000000E+00 -0.84790057984E+03  0.84790057984E+03  0.00000000000E+00 0. -1.
         24    2    1    2    0    0 -0.72743886134E+01 -0.43923948988E+02 -0.19756231943E+03  0.21798392345E+03  0.80646703577E+02 0.  0.
         23    2    1    2    0    0 -0.84331183111E+02  0.84974766174E+02 -0.13644647527E+03  0.20194118902E+03  0.88488100218E+02 0.  0.
        -13    1    3    3    0    0  0.30725441804E+02 -0.37411200193E+02 -0.14450210614E+03  0.15239589677E+03  0.00000000000E+00 0.  1.
         14    1    3    3    0    0 -0.37999830418E+02 -0.65127487950E+01 -0.53060213292E+02  0.65588026676E+02  0.00000000000E+00 0. -1.
        -13    1    4    4    0    0 -0.50767876382E+02  0.70105940201E+02 -0.33791134658E+02  0.92919647574E+02  0.00000000000E+00 0.  1.
         13    1    4    4    0    0 -0.33563306729E+02  0.14868825974E+02 -0.10265534061E+03  0.10902154145E+03  0.00000000000E+00 0. -1.
         21    1    1    2  503  502  0.22503588381E+02 -0.83152885254E+02 -0.15573060373E+03  0.17796863419E+03  0.00000000000E+00 0.  1.
          1    1    1    2  501    0  0.69101983344E+02  0.42102068067E+02 -0.29870089927E+03  0.30946711532E+03  0.00000000000E+00 0. -1.
<scales pt_clust_5="13000.00000" pt_clust_6="13000.00000" pt_clust_7="13000.00000" pt_clust_8="13000.00000" pt_clust_9="83.05080" pt_clust_10="80.91770"></scales>
<clustering>
<clus scale="   80.647">  5  6 -1 -1</clus>
<clus scale="   80.918">  1 10  2 -1</clus>
<clus scale="   83.051">  2  9  1 -1</clus>
<clus scale="   88.488">  7  8 -1 -1</clus>
<clus scale="  109.202">  2  5  1 -1</clus>
<clus scale="   80.918">  1  5  2 -1</clus>
</clustering>
</event>
<event>
10    4  0.2857708E-005  0.2510352E+03  0.7546771E-02  0.1113254E+00
         -1   -1    0    0    0  501 -0.00000000000E+00  0.00000000000E+00  0.54702149281E+03  0.54702149281E+03  0.00000000000E+00 0.  1.
         21   -1    0    0  503  502  0.00000000000E+00 -0.00000000000E+00 -0.45458635390E+03  0.45458635390E+03  0.00000000000E+00 0.  1.
         24    2    1    2    0    0 -0.17185849331E+03 -0.14552535061E+03  0.23565466987E+03  0.33548746707E+03  0.79408738409E+02 0.  0.
         23    2    1    2    0    0  0.20961811589E+03  0.11330468001E+03 -0.26257302713E+03  0.36595148971E+03  0.90543874576E+02 0.  0.
        -11    1    3    3    0    0 -0.12735629632E+03 -0.11804226196E+03  0.12776067429E+03  0.21558383918E+03  0.00000000000E+00 0.  1.
         12    1    3    3    0    0 -0.44502196994E+02 -0.27483088648E+02  0.10789399558E+03  0.11990362789E+03  0.00000000000E+00 0. -1.
        -13    1    4    4    0    0  0.63743698428E+02 -0.58860758611E+00 -0.35334748955E+02  0.72884497885E+02  0.00000000000E+00 0.  1.
         13    1    4    4    0    0  0.14587441746E+03  0.11389328760E+03 -0.22723827818E+03  0.29306699183E+03  0.00000000000E+00 0. -1.
         21    1    1    2  503  501 -0.23525526745E+02  0.13502310277E+02  0.20733354827E+03  0.20910036592E+03  0.00000000000E+00 0.  1.
         -2    1    1    2    0  502 -0.14234095833E+02  0.18718360316E+02 -0.87980052099E+02  0.91068524005E+02  0.00000000000E+00 0.  1.
<scales pt_clust_5="13000.00000" pt_clust_6="13000.00000" pt_clust_7="13000.00000" pt_clust_8="13000.00000" pt_clust_9="27.17738" pt_clust_10="23.51566"></scales>
<clustering>
<clus scale="   23.516">  2 10  1 -1</clus>
<clus scale="   27.177">  1  9  2 -1</clus>
<clus scale="   79.409">  5  6 -1 -1</clus>
<clus scale="   90.544">  7  8 -1 -1</clus>
<clus scale="  247.237">  1  5  2 -1</clus>
<clus scale="   23.516">  2  5  1 -1</clus>
</clustering>
</event>
<event>
10    4  0.2857708E-005  0.1223444E+03  0.7546771E-02  0.1242422E+00
         21   -1    0    0  501  502  0.00000000000E+00  0.00000000000E+00  0.18841212070E+03  0.18841212070E+03  0.00000000000E+00 0.  1.
          2   -1    0    0  503    0 -0.00000000000E+00 -0.00000000000E+00 -0.15628149622E+04  0.15628149622E+04  0.00000000000E+00 0. -1.
         24    2    1    2    0    0 -0.38696463954E+02  0.11007737054E+02 -0.11767663558E+04  0.11802004981E+04  0.80470945148E+02 0.  0.
         23    2    1    2    0    0  0.72858574447E+02 -0.34834870382E+02  0.14809972438E+03  0.19163169022E+03  0.90924893558E+02 0.  0.
        -11    1    3    3    0    0 -0.22428350293E+02  0.14365914108E+01 -0.75538783873E+02  0.78811182967E+02  0.00000000000E+00 0.  1.
         12    1    3    3    0    0 -0.16268113661E+02  0.95711456432E+01 -0.11012275719E+04  0.11013893152E+04  0.00000000000E+00 0. -1.
        -13    1    4    4    0    0  0.27815324799E+02 -0.24911961874E+02  0.87433302608E+00  0.37350536761E+02  0.00000000000E+00 0. -1.
         13    1    4    4    0    0  0.45043249648E+02 -0.99229085081E+01  0.14722539135E+03  0.15428115346E+03  0.00000000000E+00 0.  1.
         21    1    1    2  503  502 -0.44514089001E+02 -0.52673851847E+01 -0.34561875371E+03  0.34851337476E+03  0.00000000000E+00 0. -1.
          1    1    1    2  501    0  0.10351978508E+02  0.29094518513E+02 -0.11745632017E+00  0.30881519757E+02  0.00000000000E+00 0. -1.
<scales pt_clust_5="13000.00000" pt_clust_6="13000.00000" pt_clust_7="13000.00000" pt_clust_8="13000.00000" pt_clust_9="44.71066" pt_clust_10="30.88130"></scales>
<clustering>
<clus scale="   30.881">  1 10  2 -1</clus>
<clus scale="   44.711">  2  9  1 -1</clus>
<clus scale="   80.471">  5  6 -1 -1</clus>
<clus scale="   90.925">  7  8 -1 -1</clus>
<clus scale="  114.789">  2  5  1 -1</clus>
<clus scale="   30.881">  1  5  2 -1</clus>
</clustering>
</event>
<event>
10    4  0.2857708E-005  0.2176861E+03  0.7546771E-02  0.1163457E+00
         21   -1    0    0  503  502  0.00000000000E+00  0.00000000000E+00  0.16361353268E+03  0.16361353268E+03  0.00000000000E+00 0.  1.
         -3   -1    0    0    0  501 -0.00000000000E+00 -0.00000000000E+00 -0.70236327709E+03  0.70236327709E+03  0.00000000000E+00 0.  1.
         24    2    1    2    0    0  0.65442970098E+02 -0.57685765020E+02 -0.26552620939E+02  0.11933710326E+03  0.76979690280E+02 0.  0.
         23    2    1    2    0    0 -0.18496128389E+03  0.13744062737E+03 -0.38670445250E+03  0.45938251637E+03  0.91604367619E+02 0.  0.
        -11    1    3    3    0    0  0.29709592194E+02 -0.56182905911E+02  0.14194437194E+02  0.65120356512E+02  0.00000000000E+00 0.  1.
         12    1    3    3    0    0  0.35733377904E+02 -0.15028591086E+01 -0.40747058133E+02  0.54216746753E+02  0.00000000000E+00 0. -1.
        -13    1    4    4    0    0 -0.92014418994E+02  0.13554382386E+02 -0.15116145300E+03  0.17748284272E+03  0.00000000000E+00 0. -1.
         13    1    4    4    0    0 -0.92946864898E+02  0.12388624499E+03 -0.23554299950E+03  0.28189967365E+03  0.00000000000E+00 0.  1.
         21    1    1    2  503  501 -0.38474467209E+02  0.22837823806E+02 -0.82776989322E+02  0.94095062487E+02  0.00000000000E+00 0. -1.
         -4    1    1    2    0  502  0.15799278100E+03 -0.10259268616E+03 -0.42715681647E+02  0.19316212766E+03  0.00000000000E+00 0.  1.
<scales pt_clust_5="13000.00000" pt_clust_6="13000.00000" pt_clust_7="13000.00000" pt_clust_8="13000.00000" pt_clust_9="44.74205" pt_clust_10="197.47375"></scales>
<clustering>
<clus scale="   44.742">  2  9  1 -1</clus>
<clus scale="   76.980">  5  6 -1 -1</clus>
<clus scale="   91.604">  7  8 -1 -1</clus>
<clus scale="  112.486">  2  5  1 -1</clus>
<clus scale="  197.474">  1 10  2 -1</clus>
<clus scale="  197.474">  1  5  2 -1</clus>
</clustering>
</event>
<event>
10    4  0.2857708E-005  0.9331376E+02  0.7546771E-02  0.1300881E+00
         21   -1    0    0  503  502  0.00000000000E+00  0.00000000000E+00  0.25538116014E+03  0.25538116014E+03  0.00000000000E+00 0.  1.
         -1   -1    0    0    0  501 -0.00000000000E+00 -0.00000000000E+00 -0.51618818295E+03  0.51618818295E+03  0.00000000000E+00 0.  1.
         23    2    1    2    0    0 -0.34716040777E+01 -0.19827012919E+02 -0.43376535102E+03  0.44398984139E+03  0.92571253795E+02 0.  0.
         24    2    1    2    0    0  0.12944015601E+01 -0.25052799771E+02  0.83363822499E+02  0.12021231407E+03  0.82898463806E+02 0.  0.
        -13    1    4    4    0    0 -0.21128093543E+02  0.14093349973E+02 -0.31074734245E-01  0.25397240319E+02  0.00000000000E+00 0.  1.
         14    1    4    4    0    0  0.22422495103E+02 -0.39146149743E+02  0.83394897234E+02  0.94815073754E+02  0.00000000000E+00 0. -1.
        -13    1    3    3    0    0 -0.44024080675E+02  0.49442855874E+01 -0.26434359750E+03  0.26803004156E+03  0.00000000000E+00 0.  1.
         13    1    3    3    0    0  0.40552476598E+02 -0.24771298506E+02 -0.16942175352E+03  0.17595979982E+03  0.00000000000E+00 0. -1.
         21    1    1    2  503  501 -0.68249631117E+01  0.26689815691E+02 -0.54915946833E+02  0.61438486307E+02  0.00000000000E+00 0. -1.
         -2    1    1    2    0  502  0.90021656293E+01  0.18189996999E+02  0.14451045254E+03  0.14592870133E+03  0.00000000000E+00 0.  1.
<scales pt_clust_5="13000.00000" pt_clust_6="13000.00000" pt_clust_7="13000.00000" pt_clust_8="13000.00000" pt_clust_9="28.00705" pt_clust_10="20.29569"></scales>
<clustering>
<clus scale="   20.296">  1 10  2 -1</clus>
<clus scale="   28.007">  2  9  1 -1</clus>
<clus scale="   82.898">  5  6 -1 -1</clus>
<clus scale="   83.727">  1  5  2 -1</clus>
<clus scale="   92.571">  7  8 -1 -1</clus>
<clus scale="   20.296">  1  5  2 -1</clus>
</clustering>
</event>
<event>
10    4  0.2857708E-005  0.2229682E+03  0.7546771E-02  0.1132847E+00
          2   -1    0    0  503    0 -0.00000000000E+00  0.00000000000E+00  0.26300082361E+03  0.26300082361E+03  0.00000000000E+00 0. -1.
         21   -1    0    0  501  502  0.00000000000E+00 -0.00000000000E+00 -0.13251826574E+04  0.13251826574E+04  0.00000000000E+00 0. -1.
         23    2    1    2    0    0 -0.19653124289E+03  0.28490536582E+03 -0.36258291189E+03  0.50953774827E+03  0.91469951437E+02 0.  0.
         24    2    1    2    0    0  0.84579020113E+02 -0.68613438494E+02 -0.30802462009E+03  0.33521758317E+03  0.75034971149E+02 0.  0.
        -11    1    4    4    0    0  0.70769272117E+02 -0.45108154180E+02 -0.12746699881E+03  0.15261347003E+03  0.00000000000E+00 0.  1.
         12    1    4    4    0    0  0.13809747996E+02 -0.23505284314E+02 -0.18055762128E+03  0.18260411314E+03  0.00000000000E+00 0. -1.
        -13    1    3    3    0    0 -0.17404317428E+03  0.22529011788E+03 -0.24409689774E+03  0.37500661223E+03  0.00000000000E+00 0. -1.
         13    1    3    3    0    0 -0.22488068611E+02  0.59615247935E+02 -0.11848601415E+03  0.13453113604E+03  0.00000000000E+00 0.  1.
         21    1    1    2  503  502  0.38494510228E+02 -0.10646541218E+03  0.14889269073E+03  0.18704476647E+03  0.00000000000E+00 0. -1.
          1    1    1    2  501    0  0.73457712550E+02 -0.10982651514E+03 -0.54046699251E+03  0.55638338306E+03  0.00000000000E+00 0. -1.
<scales pt_clust_5="13000.00000" pt_clust_6="13000.00000" pt_clust_7="13000.00000" pt_clust_8="13000.00000" pt_clust_9="113.21092" pt_clust_10="141.34966"></scales>
<clustering>
<clus scale="   75.035">  5  6 -1 -1</clus>
<clus scale="   91.470">  7  8 -1 -1</clus>
<clus scale="  113.211">  1  9  2 -1</clus>
<clus scale="  141.350">  2 10  1 -1</clus>
<clus scale="  216.745">  2  5  1 -1</clus>
<clus scale="  141.350">  2  5  1 -1</clus>
</clustering>
</event>
<event>
10    4  0.2857708E-005  0.1034485E+03  0.7546771E-02  0.1277933E+00
         21   -1    0    0  501  502  0.00000000000E+00  0.00000000000E+00  0.11073022757E+03  0.11073022757E+03  0.00000000000E+00 0.  1.
          4   -1    0    0  503    0 -0.00000000000E+00 -0.00000000000E+00 -0.31647798500E+03  0.31647798500E+03  0.00000000000E+00 0. -1.
         24    2    1    2    0    0 -0.46686431450E+02  0.43869200280E+02 -0.15590765500E+03  0.18657822098E+03  0.80000662754E+02 0.  0.
         23    2    1    2    0    0 -0.14553267202E+02  0.74237515408E+01  0.44612903087E+02  0.10212988634E+03  0.90406265760E+02 0.  0.
        -11    1    3    3    0    0 -0.30453862861E+01 -0.22684716003E+02 -0.36198131133E+02  0.42827274198E+02  0.00000000000E+00 0.  1.
         12    1    3    3    0    0 -0.43641045164E+02  0.66553916283E+02 -0.11970952387E+03  0.14375094678E+03  0.00000000000E+00 0. -1.
        -11    1    4    4    0    0 -0.29751312459E+01 -0.41313904274E+02  0.15739878415E+02  0.44310651821E+02  0.00000000000E+00 0. -1.
         11    1    4    4    0    0 -0.11578135956E+02  0.48737655815E+02  0.28873024672E+02  0.57819234518E+02  0.00000000000E+00 0.  1.
         21    1    1    2  503  502  0.32355850610E+02 -0.26444630527E+02 -0.60340425898E+01  0.42221193995E+02  0.00000000000E+00 0.  1.
          3    1    1    2  501    0  0.28883848041E+02 -0.24848321294E+02 -0.88418962926E+02  0.96278911262E+02  0.00000000000E+00 0. -1.
<scales pt_clust_5="13000.00000" pt_clust_6="13000.00000" pt_clust_7="13000.00000" pt_clust_8="13000.00000" pt_clust_9="48.24096" pt_clust_10="38.10141"></scales>
<clustering>
<clus scale="   38.101">  1 10  2 -1</clus>
<clus scale="   48.241">  1  9  2 -1</clus>
<clus scale="   80.001">  5  6 -1 -1</clus>
<clus scale="   90.406">  7  8 -1 -1</clus>
<clus scale="   94.490">  2  5  1 -1</clus>
<clus scale="   38.101">  1  5  2 -1</clus>
</clustering>
</event>
<event>
10    4  0.2857708E-005  0.1222685E+03  0.7546771E-02  0.1242109E+00
          4   -1    0    0  502    0 -0.00000000000E+00  0.00000000000E+00  0.29490279733E+03  0.29490279733E+03  0.00000000000E+00 0. -1.
         21   -1    0    0  503  502  0.00000000000E+00 -0.00000000000E+00 -0.10116846010E+03  0.10116846010E+03  0.00000000000E+00 0. -1.
         24    2    1    2    0    0  0.92304781609E+02 -0.16781933459E+02  0.12082443318E+03  0.17328036838E+03  0.81398626603E+02 0.  0.
         23    2    1    2    0    0 -0.54291788801E+02  0.48786499277E+02  0.53320256916E+02  0.12787492641E+03  0.90450130815E+02 0.  0.
        -11    1    3    3    0    0  0.48203135725E+02  0.32437605951E+02  0.55003111342E+02  0.80006767407E+02  0.00000000000E+00 0.  1.
         12    1    3    3    0    0  0.44101645884E+02 -0.49219539410E+02  0.65821321842E+02  0.93273600973E+02  0.00000000000E+00 0. -1.
        -11    1    4    4    0    0 -0.35453473105E+02  0.75424624259E+02  0.42114043022E+02  0.93377809566E+02  0.00000000000E+00 0. -1.
         11    1    4    4    0    0 -0.18838315695E+02 -0.26638124982E+02  0.11206213894E+02  0.34497116845E+02  0.00000000000E+00 0.  1.
         21    1    1    2  503  501 -0.36360833798E+02  0.19438066436E+02  0.11593263299E+02  0.42829340588E+02  0.00000000000E+00 0.  1.
          3    1    1    2  501    0 -0.16521590105E+01 -0.51442632254E+02  0.79963838299E+01  0.52086622054E+02  0.00000000000E+00 0. -1.
<scales pt_clust_5="13000.00000" pt_clust_6="13000.00000" pt_clust_7="13000.00000" pt_clust_8="13000.00000" pt_clust_9="41.23043" pt_clust_10="47.72390"></scales>
<clustering>
<clus scale="   41.230">  2  9  1 -1</clus>
<clus scale="   47.724">  2 10  1 -1</clus>
<clus scale="   81.399">  5  6 -1 -1</clus>
<clus scale="   90.450">  7  8 -1 -1</clus>
<clus scale="  115.733">  1  5  2 -1</clus>
<clus scale="   41.230">  2  5  1 -1</clus>
</clustering>
</event>
<event>
10    4  0.2857708E-005  0.2048601E+03  0.7546771E-02  0.1179824E+00
          2   -1    0    0  503    0 -0.00000000000E+00  0.00000000000E+00  0.14993187233E+03  0.14993187233E+03  0.00000000000E+00 0. -1.
         21   -1    0    0  501  502  0.00000000000E+00 -0.00000000000E+00 -0.16474293611E+04  0.16474293611E+04  0.00000000000E+00 0. -1.
         24    2    1    2    0    0 -0.29192666140E+02  0.41969579424E+02 -0.20043019549E+03  0.22092004341E+03  0.77587015402E+02 0.  0.
         23    2    1    2    0    0 -0.18103396417E+03 -0.11663984106E+03 -0.95422537541E+03  0.98246549601E+03  0.91182427469E+02 0.  0.
        -13    1    3    3    0    0 -0.33238633467E+02 -0.13748262968E+02 -0.62590251215E+02  0.72189757144E+02  0.00000000000E+00 0.  1.
         14    1    3    3    0    0  0.40459673272E+01  0.55717842392E+02 -0.13783994428E+03  0.14873028626E+03  0.00000000000E+00 0. -1.
        -11    1    4    4    0    0 -0.17762597316E+03 -0.76821451110E+02 -0.81083111451E+03  0.83360639270E+03  0.00000000000E+00 0. -1.
         11    1    4    4    0    0 -0.34079910074E+01 -0.39818389950E+02 -0.14339426090E+03  0.14885910331E+03  0.00000000000E+00 0.  1.
         21    1    1    2  503  502  0.43415351263E+02  0.82644687455E+02  0.90222047388E+02  0.12982701924E+03  0.00000000000E+00 0. -1.
          1    1    1    2  501    0  0.16681127904E+03 -0.79744258192E+01 -0.43306396530E+03  0.46414867480E+03  0.00000000000E+00 0. -1.
<scales pt_clust_5="13000.00000" pt_clust_6="13000.00000" pt_clust_7="13000.00000" pt_clust_8="13000.00000" pt_clust_9="117.49048" pt_clust_10="183.44878"></scales>
<clustering>
<clus scale="   77.587">  5  6 -1 -1</clus>
<clus scale="   91.182">  7  8 -1 -1</clus>
<clus scale="   92.916">  1  5  2 -1</clus>
<clus scale="  117.490">  1  9  2 -1</clus>
<clus scale="  183.449">  2 10  1 -1</clus>
<clus scale="  183.449">  2  5  1 -1</clus>
</clustering>
</event>
<event>
10    4  0.2857708E-005  0.1214035E+03  0.7546771E-02  0.1243980E+00
         21   -1    0    0  501  502  0.00000000000E+00  0.00000000000E+00  0.57162355178E+03  0.57162355178E+03  0.00000000000E+00 0. -1.
          2   -1    0    0  503    0 -0.00000000000E+00 -0.00000000000E+00 -0.50933109980E+03  0.50933109980E+03  0.00000000000E+00 0. -1.
         24    2    1    2    0    0 -0.53598132909E+02 -0.16461975999E+01 -0.87792296251E+02  0.13094949683E+03  0.81023537447E+02 0.  0.
         23    2    1    2    0    0  0.51144195319E+02 -0.65669838242E+01  0.17676493761E+03  0.20554600168E+03  0.91348024856E+02 0.  0.
        -13    1    3    3    0    0 -0.28941776705E+02 -0.19426728300E+02  0.32095234978E+01  0.35004646154E+02  0.00000000000E+00 0.  1.
         14    1    3    3    0    0 -0.24656356204E+02  0.17780530700E+02 -0.91001819749E+02  0.95944850674E+02  0.00000000000E+00 0. -1.
        -13    1    4    4    0    0  0.55719542296E+02 -0.41559525567E+02  0.12131738464E+03  0.13982048983E+03  0.00000000000E+00 0.  1.
         13    1    4    4    0    0 -0.45753469770E+01  0.34992541743E+02  0.55447552967E+02  0.65725511848E+02  0.00000000000E+00 0. -1.
         21    1    1    2  503  502 -0.32300070715E+02  0.35092296385E+02 -0.38273932907E+03  0.38569956942E+03  0.00000000000E+00 0. -1.
          1    1    1    2  501    0  0.34754008305E+02 -0.26879114961E+02  0.35605913969E+03  0.35875958366E+03  0.00000000000E+00 0. -1.
<scales pt_clust_5="13000.00000" pt_clust_6="13000.00000" pt_clust_7="13000.00000" pt_clust_8="13000.00000" pt_clust_9="47.39524" pt_clust_10="43.93550"></scales>
<clustering>
<clus scale="   43.935">  1 10  2 -1</clus>
<clus scale="   47.395">  2  9  1 -1</clus>
<clus scale="   81.024">  5  6 -1 -1</clus>
<clus scale="   91.348">  7  8 -1 -1</clus>
<clus scale="  113.838">  2  5  1 -1</clus>
<clus scale="   43.935">  1  5  2 -1</clus>
</clustering>
</event>
<event>
10    4  0.2857708E-005  0.2661830E+03  0.7546771E-02  0.1103484E+00
         21   -1    0    0  501  502  0.00000000000E+00  0.00000000000E+00  0.10521701104E+03  0.10521701104E+03  0.00000000000E+00 0.  1.
          2   -1    0    0  503    0 -0.00000000000E+00 -0.00000000000E+00 -0.89959432982E+03  0.89959432982E+03  0.00000000000E+00 0. -1.
         24    2    1    2    0    0  0.54556717198E+02 -0.15998971864E+03 -0.14098186049E+03  0.23569339932E+03  0.84275429593E+02 0.  0.
         23    2    1    2    0    0  0.11316883491E+02 -0.30126740903E+02 -0.51340389083E+02  0.10839112378E+03  0.89872731093E+02 0.  0.
        -13    1    3    3    0    0  0.72789493274E+02 -0.86990203775E+02 -0.79273387284E+02  0.13838307633E+03  0.00000000000E+00 0.  1.
         14    1    3    3    0    0 -0.18232776076E+02 -0.72999514870E+02 -0.61708473209E+02  0.97310322990E+02  0.00000000000E+00 0. -1.
        -13    1    4    4    0    0  0.40826284571E+02  0.38341803824E+01 -0.11980175538E+01  0.41023428637E+02  0.00000000000E+00 0. -1.
         13    1    4    4    0    0 -0.29509401079E+02 -0.33960921285E+02 -0.50142371529E+02  0.67367695145E+02  0.00000000000E+00 0.  1.
         21    1    1    2  503  502  0.48708436097E+02  0.84743268847E+02 -0.35921608862E+03  0.37227695562E+03  0.00000000000E+00 0. -1.
          1    1    1    2  501    0 -0.11458203679E+03  0.10537319070E+03 -0.24283898059E+03  0.28844986213E+03  0.00000000000E+00 0. -1.
<scales pt_clust_5="13000.00000" pt_clust_6="13000.00000" pt_clust_7="13000.00000" pt_clust_8="13000.00000" pt_clust_9="97.74422" pt_clust_10="173.00499"></scales>
<clustering>
<clus scale="   84.275">  5  6 -1 -1</clus>
<clus scale="   89.873">  7  8 -1 -1</clus>
<clus scale="   94.707">  5  7 -1 -1</clus>
<clus scale="   97.744">  2  9  1 -1</clus>
<clus scale="  173.005">  1 10  2 -1</clus>
<clus scale="  173.005">  1  5  2 -1</clus>
</clustering>
</event>
<event>
10    4  0.2857708E-005  0.1370853E+03  0.7546771E-02  0.1240013E+00
         21   -1    0    0  501  502  0.00000000000E+00  0.00000000000E+00  0.11874119679E+03  0.11874119679E+03  0.00000000000E+00 0.  1.
          2   -1    0    0  503    0 -0.00000000000E+00 -0.00000000000E+00 -0.48710221327E+03  0.48710221327E+03  0.00000000000E+00 0. -1.
         24    2    1    2    0    0 -0.22052992556E+02 -0.17694130010E+02 -0.13820678469E+03  0.16200013057E+03  0.79646156550E+02 0.  0.
         23    2    1    2    0    0 -0.69451363768E+02  0.38176554788E+02 -0.96966401921E+01  0.12261598279E+03  0.93057579707E+02 0.  0.
        -11    1    3    3    0    0 -0.51910865542E+02 -0.63299617148E+01 -0.79372433530E+02  0.95051510146E+02  0.00000000000E+00 0.  1.
         12    1    3    3    0    0  0.29857872986E+02 -0.11364168295E+02 -0.58834351161E+02  0.66948620425E+02  0.00000000000E+00 0. -1.
        -13    1    4    4    0    0 -0.37001099064E+02  0.66934101986E+00  0.38539957319E+02  0.53430868040E+02  0.00000000000E+00 0.  1.
         13    1    4    4    0    0 -0.32450264704E+02  0.37507213769E+02 -0.48236597512E+02  0.69185114754E+02  0.00000000000E+00 0. -1.
         21    1    1    2  503  502 -0.17952030781E+02  0.50821754785E+02 -0.17467845750E+03  0.18280505924E+03  0.00000000000E+00 0. -1.
          1    1    1    2  501    0  0.10945638711E+03 -0.71304179563E+02 -0.45779134096E+02  0.13842223745E+03  0.00000000000E+00 0. -1.
<scales pt_clust_5="13000.00000" pt_clust_6="13000.00000" pt_clust_7="13000.00000" pt_clust_8="13000.00000" pt_clust_9="53.89922" pt_clust_10="100.66122"></scales>
<clustering>
<clus scale="   53.899">  2  9  1 -1</clus>
<clus scale="   79.646">  5  6 -1 -1</clus>
<clus scale="   85.681">  2  5  1 -1</clus>
<clus scale="   93.058">  7  8 -1 -1</clus>
<clus scale="  100.661">  1 10  2 -1</clus>
<clus scale="  100.661">  1  5  2 -1</clus>
</clustering>
</event>
<event>
10    4  0.2857708E-005  0.1168045E+03  0.7546771E-02  0.1250657E+00
         21   -1    0    0  501  502  0.00000000000E+00  0.00000000000E+00  0.25263222567E+02  0.25263222567E+02  0.00000000000E+00 0. -1.
          2   -1    0    0  503    0 -0.00000000000E+00 -0.00000000000E+00 -0.12017004982E+04  0.12017004982E+04  0.00000000000E+00 0. -1.
         24    2    1    2    0    0 -0.67587337700E+02 -0.15514427923E+01 -0.66477566069E+03  0.67326597455E+03  0.82401081612E+02 0.  0.
         23    2    1    2    0    0  0.62664454597E+02 -0.78722103959E+01 -0.22568142123E+03  0.25071206541E+03  0.89082154707E+02 0.  0.
        -11    1    3    3    0    0 -0.43013503945E+02  0.37004548078E+02 -0.27319356255E+03  0.27902369204E+03  0.00000000000E+00 0.  1.
         12    1    3    3    0    0 -0.24573833755E+02 -0.38555990870E+02 -0.39158209814E+03  0.39424228251E+03  0.00000000000E+00 0. -1.
        -11    1    4    4    0    0 -0.18647646941E+02 -0.15111370606E+02 -0.82209184584E+02  0.85641335160E+02  0.00000000000E+00 0.  1.
         11    1    4    4    0    0  0.81312101538E+02  0.72391602106E+01 -0.14347223665E+03  0.16507073025E+03  0.00000000000E+00 0. -1.
         21    1    1    2  503  502 -0.25048336835E+02 -0.23102309088E+02 -0.22549207059E+03  0.22805220841E+03  0.00000000000E+00 0.  1.
          1    1    1    2  501    0  0.29971219939E+02  0.32525962276E+02 -0.60488123149E+02  0.74933472418E+02  0.00000000000E+00 0. -1.
<scales pt_clust_5="13000.00000" pt_clust_6="13000.00000" pt_clust_7="13000.00000" pt_clust_8="13000.00000" pt_clust_9="34.07544" pt_clust_10="41.87073"></scales>
<clustering>
<clus scale="   34.075">  2  9  1 -1</clus>
<clus scale="   41.871">  1 10  2 -1</clus>
<clus scale="   82.401">  5  6 -1 -1</clus>
<clus scale="   89.082">  7  8 -1 -1</clus>
<clus scale="  111.793">  2  5  1 -1</clus>
<clus scale="   41.871">  1  5  2 -1</clus>
</clustering>
</event>
<event>
10    4  0.2857708E-005  0.3313718E+03  0.7546771E-02  0.1115533E+00
          2   -1    0    0  503    0 -0.00000000000E+00  0.00000000000E+00  0.49604130807E+03  0.49604130807E+03  0.00000000000E+00 0. -1.
         21   -1    0    0  501  502  0.00000000000E+00 -0.00000000000E+00 -0.83983971870E+03  0.83983971870E+03  0.00000000000E+00 0.  1.
         23    2    1    2    0    0  0.34178232585E+02  0.26926108595E+02  0.28818648979E+03  0.30553024473E+03  0.91673936530E+02 0.  0.
         24    2    1    2    0    0  0.27913193444E+03 -0.23058119862E+03 -0.41633358023E+03  0.55754750903E+03  0.80269850026E+02 0.  0.
        -11    1    4    4    0    0  0.25288180003E+03 -0.23141872566E+03 -0.37071852479E+03  0.50491192895E+03  0.00000000000E+00 0.  1.
         12    1    4    4    0    0  0.26250134408E+02  0.83752704336E+00 -0.45615055440E+02  0.52635580084E+02  0.00000000000E+00 0. -1.
        -13    1    3    3    0    0 -0.31191344927E+02  0.14773990389E+02  0.11287608472E+03  0.11803466140E+03  0.00000000000E+00 0.  1.
         13    1    3    3    0    0  0.65369577513E+02  0.12152118207E+02  0.17531040508E+03  0.18749558334E+03  0.00000000000E+00 0. -1.
         21    1    1    2  503  502 -0.10221136657E+03 -0.17946025235E+02 -0.10427134488E+03  0.14711130698E+03  0.00000000000E+00 0. -1.
          1    1    1    2  501    0 -0.21109880046E+03  0.22160111526E+03 -0.11137997531E+03  0.32569196603E+03  0.00000000000E+00 0. -1.
<scales pt_clust_5="13000.00000" pt_clust_6="13000.00000" pt_clust_7="13000.00000" pt_clust_8="13000.00000" pt_clust_9="99.67864" pt_clust_10="321.50293"></scales>
<clustering>
<clus scale="   80.270">  5  6 -1 -1</clus>
<clus scale="   91.674">  7  8 -1 -1</clus>
<clus scale="  101.476">  1  7  2 -1</clus>
<clus scale="   99.679">  2  9  1 -1</clus>
<clus scale="  321.503">  2 10  1 -1</clus>
<clus scale="   99.679">  2  5  1 -1</clus>
</clustering>
</event>
<event>
10    4  0.2857708E-005  0.1389887E+03  0.7546771E-02  0.1231844E+00
          2   -1    0    0  503    0 -0.00000000000E+00  0.00000000000E+00  0.27898586411E+03  0.27898586411E+03  0.00000000000E+00 0. -1.
         21   -1    0    0  501  502  0.00000000000E+00 -0.00000000000E+00 -0.32530145772E+03  0.32530145772E+03  0.00000000000E+00 0. -1.
         24    2    1    2    0    0 -0.88708806584E+00 -0.57808048758E+02  0.28818635219E+02  0.10337720113E+03  0.80707958407E+02 0.  0.
         23    2    1    2    0    0  0.25422042148E+02 -0.76316177909E+02 -0.10021613107E+03  0.15844148470E+03  0.92682209243E+02 0.  0.
        -13    1    3    3    0    0 -0.19775833656E+02 -0.19562028861E+02 -0.23117904529E+02  0.36168965700E+02  0.00000000000E+00 0.  1.
         14    1    3    3    0    0  0.18888745591E+02 -0.38246019897E+02  0.51936539749E+02  0.67208235425E+02  0.00000000000E+00 0. -1.
        -11    1    4    4    0    0  0.47185079193E+02 -0.36054073302E+02 -0.95465970204E+02  0.11242810755E+03  0.00000000000E+00 0. -1.
         11    1    4    4    0    0 -0.21763037045E+02 -0.40262104607E+02 -0.47501608682E+01  0.46013377154E+02  0.00000000000E+00 0.  1.
         21    1    1    2  503  502 -0.20007027633E+02  0.91661562088E+01  0.15826430684E+03  0.15978701573E+03  0.00000000000E+00 0. -1.
          1    1    1    2  501    0 -0.45279264492E+01  0.12495807046E+03 -0.13318240461E+03  0.18268162028E+03  0.00000000000E+00 0. -1.
<scales pt_clust_5="13000.00000" pt_clust_6="13000.00000" pt_clust_7="13000.00000" pt_clust_8="13000.00000" pt_clust_9="22.00681" pt_clust_10="103.57545"></scales>
<clustering>
<clus scale="   22.007">  1  9  2 -1</clus>
<clus scale="   80.708">  5  6 -1 -1</clus>
<clus scale="   92.682">  7  8 -1 -1</clus>
<clus scale="   97.155">  1  5  2 -1</clus>
<clus scale="  103.575">  2 10  1 -1</clus>
<clus scale="  103.575">  2  5  1 -1</clus>
</clustering>
</event>
<event>
10    4  0.2857708E-005  0.1252468E+03  0.7546771E-02  0.1237685E+00
          2   -1    0    0  503    0 -0.00000000000E+00  0.00000000000E+00  0.17300003116E+03  0.17300003116E+03  0.00000000000E+00 0. -1.
         21   -1    0    0  501  502  0.00000000000E+00 -0.00000000000E+00 -0.16402697763E+03  0.16402697763E+03  0.00000000000E+00 0. -1.
         24    2    1    2    0    0 -0.37902227735E+02 -0.81350131757E+02  0.35915659718E+02  0.12596787241E+03  0.80768480629E+02 0.  0.
         23    2    1    2    0    0  0.77640825423E+02  0.35012901859E+02 -0.21015042309E+02  0.12661046803E+03  0.91293907476E+02 0.  0.
        -11    1    3    3    0    0 -0.34560611707E+02 -0.28993548141E+02 -0.19953516756E+02  0.49327523213E+02  0.00000000000E+00 0.  1.
         12    1    3    3    0    0 -0.33416160276E+01 -0.52356583616E+02  0.55869176474E+02  0.76640349200E+02  0.00000000000E+00 0. -1.
        -13    1    4    4    0    0  0.83182785292E+02  0.12350287833E+02  0.13275254595E+02  0.85135995695E+02  0.00000000000E+00 0.  1.
         13    1    4    4    0    0 -0.55419598681E+01  0.22662614026E+02 -0.34290296903E+02  0.41474472334E+02  0.00000000000E+00 0. -1.
         21    1    1    2  503  502 -0.34737212809E+02 -0.12490485579E+01  0.56592878858E+01  0.35217348216E+02  0.00000000000E+00 0. -1.
          1    1    1    2  501    0 -0.50013848799E+01  0.47586278455E+02 -0.11586851762E+02  0.49231320130E+02  0.00000000000E+00 0. -1.
<scales pt_clust_5="13000.00000" pt_clust_6="13000.00000" pt_clust_7="13000.00000" pt_clust_8="13000.00000" pt_clust_9="34.75966" pt_clust_10="48.33282"></scales>
<clustering>
<clus scale="   34.760">  1  9  2 -1</clus>
<clus scale="   48.333">  2 10  1 -1</clus>
<clus scale="   80.768">  5  6 -1 -1</clus>
<clus scale="   91.294">  7  8 -1 -1</clus>
<clus scale="  117.795">  1  5  2 -1</clus>
<clus scale="   48.333">  2  5  1 -1</clus>
</clustering>
</event>
<event>
10    4  0.2857708E-005  0.9551909E+02  0.7546771E-02  0.1296195E+00
         21   -1    0    0  503  502  0.00000000000E+00  0.00000000000E+00  0.22249265618E+03  0.22249265618E+03  0.00000000000E+00 0.  1.
         -1   -1    0    0    0  501 -0.00000000000E+00 -0.00000000000E+00 -0.13730620272E+03  0.13730620272E+03  0.00000000000E+00 0.  1.
         23    2    1    2    0    0  0.19939416411E+02  0.58182487235E+01 -0.23407542659E+02  0.97237491409E+02  0.92064023034E+02 0.  0.
         24    2    1    2    0    0 -0.19523582784E+02 -0.92863376286E+01  0.75495427225E+02  0.11298035396E+03  0.81225577850E+02 0.  0.
        -13    1    4    4    0    0  0.31378280239E+02 -0.10629696254E+02  0.29211999192E+02  0.44169308462E+02  0.00000000000E+00 0.  1.
         14    1    4    4    0    0 -0.50901863023E+02  0.13433586252E+01  0.46283428033E+02  0.68811045495E+02  0.00000000000E+00 0. -1.
        -13    1    3    3    0    0  0.45982711906E+02  0.32327464377E+02 -0.71025695244E+01  0.56656166841E+02  0.00000000000E+00 0. -1.
         13    1    3    3    0    0 -0.26043295495E+02 -0.26509215653E+02 -0.16304973135E+02  0.40581324568E+02  0.00000000000E+00 0.  1.
         21    1    1    2  503  501  0.10298078861E+02 -0.37996716520E+02 -0.45441984722E+02  0.60122997846E+02  0.00000000000E+00 0.  1.
         -2    1    1    2    0  502 -0.10713912488E+02  0.41464805425E+02  0.78540553609E+02  0.89458015688E+02  0.00000000000E+00 0.  1.
<scales pt_clust_5="13000.00000" pt_clust_6="13000.00000" pt_clust_7="13000.00000" pt_clust_8="13000.00000" pt_clust_9="39.36751" pt_clust_10="40.28435"></scales>
<clustering>
<clus scale="   39.368">  2  9  1 -1</clus>
<clus scale="   40.284">  1 10  2 -1</clus>
<clus scale="   81.226">  5  6 -1 -1</clus>
<clus scale="   85.122">  1  5  2 -1</clus>
<clus scale="   92.064">  7  8 -1 -1</clus>
<clus scale="   40.284">  1  5  2 -1</clus>
</clustering>
</event>
<event>
10    4  0.2857708E-005  0.2625658E+03  0.7546771E-02  0.1150311E+00
         21   -1    0    0  503  502  0.00000000000E+00  0.00000000000E+00  0.45817408910E+03  0.45817408910E+03  0.00000000000E+00 0.  1.
         -1   -1    0    0    0  501 -0.00000000000E+00 -0.00000000000E+00 -0.64432414180E+03  0.64432414180E+03  0.00000000000E+00 0.  1.
         24    2    1    2    0    0 -0.29472392833E+02 -0.17732477161E+02 -0.17235592082E+03  0.19315970442E+03  0.80131425073E+02 0.  0.
         23    2    1    2    0    0 -0.29049096448E+02  0.16616764670E+03  0.32606931416E+02  0.19334229771E+03  0.88670712721E+02 0.  0.
        -13    1    3    3    0    0  0.24058501100E+02 -0.49828710055E+00 -0.21899657327E+02  0.32536975217E+02  0.00000000000E+00 0.  1.
         14    1    3    3    0    0 -0.53530893933E+02 -0.17234190061E+02 -0.15045626349E+03  0.16062272920E+03  0.00000000000E+00 0. -1.
        -13    1    4    4    0    0 -0.59213183907E+02  0.11421648336E+03  0.34639195691E+02  0.13323468054E+03  0.00000000000E+00 0.  1.
         13    1    4    4    0    0  0.30164087459E+02  0.51951163333E+02 -0.20322642747E+01  0.60107617171E+02  0.00000000000E+00 0. -1.
         21    1    1    2  503  501  0.43766620795E+02 -0.27909150329E+03 -0.31122929392E+03  0.42032280178E+03  0.00000000000E+00 0.  1.
         -2    1    1    2    0  502  0.14754868486E+02  0.13065633375E+03  0.26482823062E+03  0.29567342699E+03  0.00000000000E+00 0.  1.
<scales pt_clust_5="13000.00000" pt_clust_6="13000.00000" pt_clust_7="13000.00000" pt_clust_8="13000.00000" pt_clust_9="247.14024" pt_clust_10="130.79073"></scales>
<clustering>
<clus scale="   80.131">  5  6 -1 -1</clus>
<clus scale="   87.202">  2  5  1 -1</clus>
<clus scale="   88.671">  7  8 -1 -1</clus>
<clus scale="  130.791">  1 10  2 -1</clus>
<clus scale="  247.140">  2  9  1 -1</clus>
<clus scale="  130.791">  1  5  2 -1</clus>
</clustering>
</event>
<event>
10    4  0.2857708E-005  0.1195238E+03  0.7546771E-02  0.1246654E+00
          2   -1    0    0  503    0 -0.00000000000E+00  0.00000000000E+00  0.39702687717E+03  0.39702687717E+03  0.00000000000E+00 0. -1.
         21   -1    0    0  501  502  0.00000000000E+00 -0.00000000000E+00 -0.11098601895E+03  0.11098601895E+03  0.00000000000E+00 0.  1.
         23    2    1    2    0    0  0.78286179908E+02  0.20146902422E+02  0.52979908180E+02  0.13135011467E+03  0.88945816719E+02 0.  0.
         24    2    1    2    0    0 -0.62883269666E+02 -0.29988071844E+02 -0.15651637712E+02  0.10724900448E+03  0.80023653640E+02 0.  0.
        -11    1    4    4    0    0 -0.60008849820E+02 -0.31725549731E+02 -0.42568946254E+02  0.80122953937E+02  0.00000000000E+00 0.  1.
         12    1    4    4    0    0 -0.28744198453E+01  0.17374778869E+01  0.26917308542E+02  0.27126050542E+02  0.00000000000E+00 0. -1.
        -11    1    3    3    0    0  0.33937551564E+02 -0.26252789160E+02  0.51655914461E+02  0.67151320491E+02  0.00000000000E+00 0.  1.
         11    1    3    3    0    0  0.44348628344E+02  0.46399691583E+02  0.13239937189E+01  0.64198794182E+02  0.00000000000E+00 0. -1.
         21    1    1    2  503  502  0.35663955159E+02  0.30316837413E+02  0.90163486022E+02  0.10158977576E+03  0.00000000000E+00 0. -1.
          1    1    1    2  501    0 -0.51066865402E+02 -0.20475667991E+02  0.15854910173E+03  0.16782400120E+03  0.00000000000E+00 0. -1.
<scales pt_clust_5="13000.00000" pt_clust_6="13000.00000" pt_clust_7="13000.00000" pt_clust_8="13000.00000" pt_clust_9="46.80842" pt_clust_10="31.99842"></scales>
<clustering>
<clus scale="   46.808">  1  9  2 -1</clus>
<clus scale="   31.998">  2 10  1 -1</clus>
<clus scale="   80.024">  5  6 -1 -1</clus>
<clus scale="   88.946">  7  8 -1 -1</clus>
<clus scale="  113.041">  2  5  1 -1</clus>
<clus scale="   31.998">  2  5  1 -1</clus>
</clustering>
</event>
<event>
10    4  0.2857708E-005  0.9428126E+02  0.7546771E-02  0.1300801E+00
          2   -1    0    0  503    0 -0.00000000000E+00  0.00000000000E+00  0.10910087453E+04  0.10910087453E+04  0.00000000000E+00 0. -1.
         21   -1    0    0  501  502  0.00000000000E+00 -0.00000000000E+00 -0.26536904131E+02  0.26536904131E+02  0.00000000000E+00 0. -1.
         24    2    1    2    0    0  0.11127597525E+02 -0.12843656948E+00  0.55396259547E+03  0.55945303940E+03  0.77390607899E+02 0.  0.
         23    2    1    2    0    0 -0.66123867192E+00 -0.16736009247E+02  0.83903900157E+02  0.12485906648E+03  0.90936190704E+02 0.  0.
        -11    1    3    3    0    0  0.10757803851E+02 -0.35939557304E+02  0.18559056952E+03  0.18934424105E+03  0.00000000000E+00 0.  1.
         12    1    3    3    0    0  0.36979367430E+00  0.35811120734E+02  0.36837202595E+03  0.37010879835E+03  0.00000000000E+00 0. -1.
        -13    1    4    4    0    0 -0.30951333220E+01 -0.44947428450E+02  0.85344043184E+02  0.96506253069E+02  0.00000000000E+00 0.  1.
         13    1    4    4    0    0  0.24338946501E+01  0.28211419203E+02 -0.14401430272E+01  0.28352813415E+02  0.00000000000E+00 0. -1.
         21    1    1    2  503  502  0.31196387078E+02  0.20872119062E+01  0.17171695055E+03  0.17454020203E+03  0.00000000000E+00 0. -1.
          1    1    1    2  501    0 -0.41662745931E+02  0.14777233910E+02  0.25488839499E+03  0.25869334151E+03  0.00000000000E+00 0. -1.
<scales pt_clust_5="13000.00000" pt_clust_6="13000.00000" pt_clust_7="13000.00000" pt_clust_8="13000.00000" pt_clust_9="31.26613" pt_clust_10="36.34125"></scales>
<clustering>
<clus scale="   31.266">  1  9  2 -1</clus>
<clus scale="   36.341">  2 10  1 -1</clus>
<clus scale="   77.391">  5  6 -1 -1</clus>
<clus scale="   81.295">  1  5  2 -1</clus>
<clus scale="   90.936">  7  8 -1 -1</clus>
<clus scale="   36.341">  2  5  1 -1</clus>
</clustering>
</event>
<event>
10    4  0.2857708E-005  0.1094177E+03  0.7546771E-02  0.1264871E+00
          2   -1    0    0  503    0 -0.00000000000E+00  0.00000000000E+00  0.20715032713E+03  0.20715032713E+03  0.00000000000E+00 0. -1.
         21   -1    0    0  501  502  0.00000000000E+00 -0.00000000000E+00 -0.13402748390E+03  0.13402748390E+03  0.00000000000E+00 0. -1.
         24    2    1    2    0    0 -0.46756019087E+02  0.17791531159E+02  0.12944880269E+03  0.16147336232E+03  0.82546897701E+02 0.  0.
         23    2    1    2    0    0  0.40299890291E+02 -0.11299502365E+02 -0.70703733669E+02  0.12239636686E+03  0.90719858662E+02 0.  0.
        -13    1    3    3    0    0  0.60848728562E+01 -0.19166059430E+02  0.41164916675E+01  0.20525813392E+02  0.00000000000E+00 0.  1.
         14    1    3    3    0    0 -0.52840891944E+02  0.36957590589E+02  0.12533231102E+03  0.14094754893E+03  0.00000000000E+00 0. -1.
        -13    1    4    4    0    0  0.21120929749E+02  0.87355762280E+01  0.18231461764E+02  0.29236794686E+02  0.00000000000E+00 0.  1.
         13    1    4    4    0    0  0.19178960543E+02 -0.20035078593E+02 -0.88935195432E+02  0.93159572178E+02  0.00000000000E+00 0. -1.
         21    1    1    2  503  502 -0.18909734464E+02  0.10775574976E+02  0.15307625634E+02  0.26608541412E+02  0.00000000000E+00 0. -1.
          1    1    1    2  501    0  0.25365863260E+02 -0.17267603770E+02 -0.92985142499E+00  0.30699540429E+02  0.00000000000E+00 0. -1.
<scales pt_clust_5="13000.00000" pt_clust_6="13000.00000" pt_clust_7="13000.00000" pt_clust_8="13000.00000" pt_clust_9="21.76445" pt_clust_10="28.95139"></scales>
<clustering>
<clus scale="   21.764">  1  9  2 -1</clus>
<clus scale="   28.951">  2 10  1 -1</clus>
<clus scale="   82.547">  5  6 -1 -1</clus>
<clus scale="   90.720">  7  8 -1 -1</clus>
<clus scale="  102.743">  1  5  2 -1</clus>
<clus scale="   28.951">  2  5  1 -1</clus>
</clustering>
</event>
<event>
10    4  0.2857708E-005  0.1268233E+03  0.7546771E-02  0.1234521E+00
         21   -1    0    0  501  502  0.00000000000E+00  0.00000000000E+00  0.56476979617E+03  0.56476979617E+03  0.00000000000E+00 0. -1.
          4   -1    0    0  503    0 -0.00000000000E+00 -0.00000000000E+00 -0.22375372601E+03  0.22375372601E+03  0.00000000000E+00 0. -1.
         23    2    1    2    0    0  0.11380265609E+03  0.62652789823E+01 -0.12100843893E+03  0.18863311020E+03  0.89157779895E+02 0.  0.
         24    2    1    2    0    0 -0.49587818545E+02 -0.35694981745E+02  0.31404301570E+02  0.10599233528E+03  0.80715930961E+02 0.  0.
        -11    1    4    4    0    0 -0.31357505380E+02 -0.61549813695E+02  0.26464745788E+02  0.73973343031E+02  0.00000000000E+00 0.  1.
         12    1    4    4    0    0 -0.18230313165E+02  0.25854831950E+02  0.49395557820E+01  0.32018992248E+02  0.00000000000E+00 0. -1.
        -13    1    3    3    0    0  0.16056580208E+02 -0.32848353752E+02 -0.48761548869E+02  0.60946835523E+02  0.00000000000E+00 0.  1.
         13    1    3    3    0    0  0.97746075884E+02  0.39113632735E+02 -0.72246890061E+02  0.12768627467E+03  0.00000000000E+00 0. -1.
         21    1    1    2  503  502 -0.23479656255E+01 -0.32464709648E+02 -0.17745002923E+02  0.37072300223E+02  0.00000000000E+00 0. -1.
          3    1    1    2  501    0 -0.61866871922E+02  0.61894412411E+02  0.44836521044E+03  0.45682577648E+03  0.00000000000E+00 0. -1.
<scales pt_clust_5="13000.00000" pt_clust_6="13000.00000" pt_clust_7="13000.00000" pt_clust_8="13000.00000" pt_clust_9="32.54951" pt_clust_10="87.05512"></scales>
<clustering>
<clus scale="   32.550">  2  9  1 -1</clus>
<clus scale="   80.716">  5  6 -1 -1</clus>
<clus scale="   87.055">  1 10  2 -1</clus>
<clus scale="   89.158">  7  8 -1 -1</clus>
<clus scale="  121.038">  1  5  2 -1</clus>
<clus scale="   87.055">  1  5  2 -1</clus>
</clustering>
</event>
<event>
10    4  0.2857708E-005  0.1166851E+03  0.7546771E-02  0.1251754E+00
         21   -1    0    0  501  502  0.00000000000E+00  0.00000000000E+00  0.55212815428E+03  0.55212815428E+03  0.00000000000E+00 0.  1.
          4   -1    0    0  503    0 -0.00000000000E+00 -0.00000000000E+00 -0.90361153033E+02  0.90361153033E+02  0.00000000000E+00 0. -1.
         24    2    1    2    0    0  0.72759234413E+02 -0.40273221103E+02  0.88063628005E+02  0.14622303620E+03  0.81915414958E+02 0.  0.
         23    2    1    2    0    0 -0.79301995552E+02  0.49229031095E+02  0.37632062059E+03  0.39826927764E+03  0.91043418378E+02 0.  0.
        -13    1    3    3    0    0  0.84362382153E+02 -0.47649896815E+02  0.90118218091E+02  0.13232088807E+03  0.00000000000E+00 0.  1.
         14    1    3    3    0    0 -0.11603147740E+02  0.73766757127E+01 -0.20545900860E+01  0.13902148125E+02  0.00000000000E+00 0. -1.
        -13    1    4    4    0    0 -0.14863180912E+02  0.54978085870E+02  0.24929727661E+03  0.25571983927E+03  0.00000000000E+00 0. -1.
         13    1    4    4    0    0 -0.64438814640E+02 -0.57490547754E+01  0.12702334398E+03  0.14254943837E+03  0.00000000000E+00 0.  1.
         21    1    1    2  503  502 -0.38228891294E+02 -0.18967895061E+01 -0.26702982919E+02  0.46670067889E+02  0.00000000000E+00 0. -1.
          3    1    1    2  501    0  0.44771652433E+02 -0.70590204859E+01  0.24085735569E+02  0.51326925582E+02  0.00000000000E+00 0. -1.
<scales pt_clust_5="13000.00000" pt_clust_6="13000.00000" pt_clust_7="13000.00000" pt_clust_8="13000.00000" pt_clust_9="38.27592" pt_clust_10="35.87207"></scales>
<clustering>
<clus scale="   38.276">  2  9  1 -1</clus>
<clus scale="   35.872">  1 10  2 -1</clus>
<clus scale="   81.915">  5  6 -1 -1</clus>
<clus scale="   91.043">  7  8 -1 -1</clus>
<clus scale="  109.712">  2  5  1 -1</clus>
<clus scale="   35.872">  1  5  2 -1</clus>
</clustering>
</event>
<event>
10    4  0.2141866E-004  0.5050052E+03  0.7546771E-02  0.1012579E+00
         21   -1    0    0  501  502  0.00000000000E+00  0.00000000000E+00  0.10509193796E+04  0.10509193796E+04  0.00000000000E+00 0. -1.
          2   -1    0    0  503    0 -0.00000000000E+00 -0.00000000000E+00 -0.14350554484E+04  0.14350554484E+04  0.00000000000E+00 0. -1.
         24    2    1    2    0    0  0.34444581775E+03 -0.39978479991E+03  0.14204930283E+03  0.55246000161E+03  0.81013834247E+02 0.  0.
         23    2    1    2    0    0 -0.46562849222E+03  0.15477120955E+03  0.56717173782E+03  0.75534496433E+03  0.89990082164E+02 0.  0.
        -13    1    3    3    0    0  0.13790140592E+03 -0.22209363616E+03  0.70212757106E+02  0.27068840433E+03  0.00000000000E+00 0.  1.
         14    1    3    3    0    0  0.20654441183E+03 -0.17769116375E+03  0.71836545727E+02  0.28177159728E+03  0.00000000000E+00 0. -1.
        -13    1    4    4    0    0 -0.10634223207E+03  0.48778601693E+02  0.84266951800E+02  0.14418370737E+03  0.00000000000E+00 0.  1.
         13    1    4    4    0    0 -0.35928626015E+03  0.10599260786E+03  0.48290478602E+03  0.61116125696E+03  0.00000000000E+00 0. -1.
         21    1    1    2  503  502 -0.60829348610E+02 -0.34048084184E+02 -0.58505155119E+02  0.91007334125E+02  0.00000000000E+00 0. -1.
          1    1    1    2  501    0  0.18201202308E+03  0.27906167454E+03 -0.10348519544E+04  0.10871625280E+04  0.00000000000E+00 0. -1.
<scales pt_clust_5="13000.00000" pt_clust_6="13000.00000" pt_clust_7="13000.00000" pt_clust_8="13000.00000" pt_clust_9="69.70998" pt_clust_10="286.12385"></scales>
<clustering>
<clus scale="   69.710">  2  9  1 -1</clus>
<clus scale="   81.014">  5  6 -1 -1</clus>
<clus scale="   89.990">  7  8 -1 -1</clus>
<clus scale="  286.124">  1 10  2 -1</clus>
<clus scale="  503.483">  2  5  1 -1</clus>
<clus scale="  286.124">  1  5  2 -1</clus>
</clustering>
</event>
<event>
10    4  0.2857708E-005  0.9911930E+02  0.7546771E-02  0.1285845E+00
         -1   -1    0    0    0  501 -0.00000000000E+00  0.00000000000E+00  0.48204755729E+03  0.48204755729E+03  0.00000000000E+00 0.  1.
         21   -1    0    0  503  502  0.00000000000E+00 -0.00000000000E+00 -0.14003949995E+03  0.14003949995E+03  0.00000000000E+00 0. -1.
         24    2    1    2    0    0 -0.26564170507E+01  0.40021183901E+01  0.14682208493E+03  0.16885802840E+03  0.83266053284E+02 0.  0.
         23    2    1    2    0    0 -0.26350663900E+02  0.23169334756E+02 -0.10072741940E+03  0.13996068749E+03  0.90619012704E+02 0.  0.
        -11    1    3    3    0    0 -0.98341187836E+01  0.40806325132E+02  0.10274752100E+03  0.11099062634E+03  0.00000000000E+00 0.  1.
         12    1    3    3    0    0  0.71777017329E+01 -0.36804206742E+02  0.44074563928E+02  0.57867402063E+02  0.00000000000E+00 0. -1.
        -11    1    4    4    0    0  0.33032994802E+02  0.16075819063E+02 -0.30744153601E+02  0.47904213643E+02  0.00000000000E+00 0.  1.
         11    1    4    4    0    0 -0.59383658702E+02  0.70935156929E+01 -0.69983265800E+02  0.92056473851E+02  0.00000000000E+00 0. -1.
         21    1    1    2  503  501  0.34095952925E+02 -0.47702227086E+02  0.28181076212E+03  0.28784603892E+03  0.00000000000E+00 0. -1.
         -2    1    1    2    0  502 -0.50888719743E+01  0.20530773940E+02  0.14102629689E+02  0.25422302427E+02  0.00000000000E+00 0.  1.
<scales pt_clust_5="13000.00000" pt_clust_6="13000.00000" pt_clust_7="13000.00000" pt_clust_8="13000.00000" pt_clust_9="58.19351" pt_clust_10="21.15206"></scales>
<clustering>
<clus scale="   21.152">  2 10  1 -1</clus>
<clus scale="   58.194">  1  9  2 -1</clus>
<clus scale="   83.266">  5  6 -1 -1</clus>
<clus scale="   90.619">  7  8 -1 -1</clus>
<clus scale="   92.445">  1  5  2 -1</clus>
<clus scale="   21.152">  2  5  1 -1</clus>
</clustering>
</event>
<event>
10    4  0.2857708E-005  0.1919912E+03  0.7546771E-02  0.1189468E+00
         21   -1    0    0  501  502  0.00000000000E+00  0.00000000000E+00  0.21206291432E+03  0.21206291432E+03  0.00000000000E+00 0. -1.
          2   -1    0    0  503    0 -0.00000000000E+00 -0.00000000000E+00 -0.42200913267E+03  0.42200913267E+03  0.00000000000E+00 0. -1.
         24    2    1    2    0    0  0.17111381826E+03  0.10033737523E+03 -0.19172327848E+03  0.28770396205E+03  0.81659210153E+02 0.  0.
         23    2    1    2    0    0 -0.29482379860E+02 -0.21638239796E+01  0.93623561171E+02  0.12551436522E+03  0.78195855480E+02 0.  0.
        -13    1    3    3    0    0  0.20559549254E+02  0.11196121806E+02  0.55092836848E+01  0.24049956669E+02  0.00000000000E+00 0.  1.
         14    1    3    3    0    0  0.15055426901E+03  0.89141253426E+02 -0.19723256216E+03  0.26365400538E+03  0.00000000000E+00 0. -1.
        -11    1    4    4    0    0 -0.47671442360E+02  0.14622852262E+02  0.32370620141E+02  0.59449569160E+02  0.00000000000E+00 0.  1.
         11    1    4    4    0    0  0.18189062500E+02 -0.16786676242E+02  0.61252941030E+02  0.66064796062E+02  0.00000000000E+00 0. -1.
         21    1    1    2  503  502 -0.10930738928E+03 -0.10392235297E+03 -0.66411749078E+02  0.16479830464E+03  0.00000000000E+00 0. -1.
          1    1    1    2  501    0 -0.32324049123E+02  0.57488017154E+01 -0.45434751965E+02  0.56055415073E+02  0.00000000000E+00 0. -1.
<scales pt_clust_5="13000.00000" pt_clust_6="13000.00000" pt_clust_7="13000.00000" pt_clust_8="13000.00000" pt_clust_9="173.75962" pt_clust_10="32.83130"></scales>
<clustering>
<clus scale="   32.831">  1 10  2 -1</clus>
<clus scale="   78.196">  7  8 -1 -1</clus>
<clus scale="   81.659">  5  6 -1 -1</clus>
<clus scale="   91.039">  1  7  2 -1</clus>
<clus scale="  173.760">  1  9  2 -1</clus>
<clus scale="   32.831">  1  5  2 -1</clus>
</clustering>
</event>
<event>
10    4  0.2857708E-005  0.2621048E+03  0.7546771E-02  0.1108292E+00
          2   -1    0    0  503    0 -0.00000000000E+00  0.00000000000E+00  0.59877079864E+03  0.59877079864E+03  0.00000000000E+00 0. -1.
         21   -1    0    0  501  502  0.00000000000E+00 -0.00000000000E+00 -0.24010082792E+03  0.24010082792E+03  0.00000000000E+00 0.  1.
         24    2    1    2    0    0  0.22825119614E+03 -0.89088825089E+02  0.30229063085E+03  0.39790182105E+03  0.83131260060E+02 0.  0.
         23    2    1    2    0    0 -0.20868601871E+03  0.81048799095E+02  0.12825972615E+03  0.28538887376E+03  0.12197331541E+03 0.  0.
        -11    1    3    3    0    0  0.69774435685E+02 -0.84592929107E+01  0.39546196350E+02  0.80646966201E+02  0.00000000000E+00 0.  1.
         12    1    3    3    0    0  0.15847676045E+03 -0.80629532178E+02  0.26274443450E+03  0.31725485485E+03  0.00000000000E+00 0. -1.
        -11    1    4    4    0    0 -0.16563780754E+03  0.10733147355E+02  0.11488273126E+03  0.20186412678E+03  0.00000000000E+00 0.  1.
         11    1    4    4    0    0 -0.43048211170E+02  0.70315651741E+02  0.13376994883E+02  0.83524746972E+02  0.00000000000E+00 0. -1.
         21    1    1    2  503  502 -0.28542600155E+02 -0.16533496097E+02  0.33492801841E+02  0.47008555519E+02  0.00000000000E+00 0.  1.
          1    1    1    2  501    0  0.89774227280E+01  0.24573522091E+02 -0.10537318812E+03  0.10857237624E+03  0.00000000000E+00 0. -1.
<scales pt_clust_5="13000.00000" pt_clust_6="13000.00000" pt_clust_7="13000.00000" pt_clust_8="13000.00000" pt_clust_9="31.97714" pt_clust_10="26.16204"></scales>
<clustering>
<clus scale="   26.162">  2 10  1 -1</clus>
<clus scale="   31.977">  1  9  2 -1</clus>
<clus scale="   83.131">  5  6 -1 -1</clus>
<clus scale="  121.973">  7  8 -1 -1</clus>
<clus scale="  246.439">  1  5  2 -1</clus>
<clus scale="   26.162">  2  5  1 -1</clus>
</clustering>
</event>
<event>
10    4  0.2857708E-005  0.1750084E+03  0.7546771E-02  0.1174163E+00
         21   -1    0    0  501  502  0.00000000000E+00  0.00000000000E+00  0.47242864509E+03  0.47242864509E+03  0.00000000000E+00 0. -1.
          2   -1    0    0  503    0 -0.00000000000E+00 -0.00000000000E+00 -0.83626753255E+03  0.83626753255E+03  0.00000000000E+00 0. -1.
         23    2    1    2    0    0 -0.75006482855E+02  0.49868640327E+02 -0.10249171843E+03  0.16435872536E+03  0.91631787596E+02 0.  0.
         24    2    1    2    0    0  0.11743276591E+03 -0.33434964216E+02  0.37563400190E+03  0.40306991462E+03  0.80349868396E+02 0.  0.
        -11    1    4    4    0    0  0.55705602399E+01 -0.25256941344E+02  0.29577117775E+02  0.39290585683E+02  0.00000000000E+00 0.  1.
         12    1    4    4    0    0  0.11186220567E+03 -0.81780228721E+01  0.34605688412E+03  0.36377932894E+03  0.00000000000E+00 0. -1.
        -11    1    3    3    0    0 -0.50355397656E+02 -0.13203944378E+02 -0.74946173206E+02  0.91252063529E+02  0.00000000000E+00 0.  1.
         11    1    3    3    0    0 -0.24651085200E+02  0.63072584705E+02 -0.27545545225E+02  0.73106661834E+02  0.00000000000E+00 0. -1.
         21    1    1    2  503  502 -0.71144633758E+02  0.50102002380E+02 -0.65962782918E+03  0.66534250021E+03  0.00000000000E+00 0. -1.
          1    1    1    2  501    0  0.28718350704E+02 -0.66535678491E+02  0.22646658254E+02  0.75925037435E+02  0.00000000000E+00 0. -1.
<scales pt_clust_5="13000.00000" pt_clust_6="13000.00000" pt_clust_7="13000.00000" pt_clust_8="13000.00000" pt_clust_9="86.59905" pt_clust_10="72.46889"></scales>
<clustering>
<clus scale="   72.469">  1 10  2 -1</clus>
<clus scale="   80.350">  5  6 -1 -1</clus>
<clus scale="   86.599">  2  9  1 -1</clus>
<clus scale="   91.632">  7  8 -1 -1</clus>
<clus scale="  169.374">  1  5  2 -1</clus>
<clus scale="   72.469">  1  5  2 -1</clus>
</clustering>
</event>
<event>
10    4  0.2857708E-005  0.1321891E+03  0.7546771E-02  0.1227055E+00
          2   -1    0    0  503    0 -0.00000000000E+00  0.00000000000E+00  0.87335420862E+03  0.87335420862E+03  0.00000000000E+00 0. -1.
         21   -1    0    0  501  502  0.00000000000E+00 -0.00000000000E+00 -0.35002622137E+03  0.35002622137E+03  0.00000000000E+00 0. -1.
         23    2    1    2    0    0  0.11860830688E+03 -0.10500760552E+03  0.54301589156E+03  0.57315850310E+03  0.92465580102E+02 0.  0.
         24    2    1    2    0    0 -0.15372200530E+03  0.18331738165E+02  0.40346173161E+02  0.17948555185E+03  0.81367942679E+02 0.  0.
        -11    1    4    4    0    0 -0.60675059646E+02  0.35467632981E+02 -0.12092225852E+02  0.71313657726E+02  0.00000000000E+00 0.  1.
         12    1    4    4    0    0 -0.93046945656E+02 -0.17135894816E+02  0.52438399013E+02  0.10817189412E+03  0.00000000000E+00 0. -1.
        -13    1    3    3    0    0  0.46725493702E+02 -0.50168391166E+02  0.10152550241E+03  0.12250537488E+03  0.00000000000E+00 0.  1.
         13    1    3    3    0    0  0.71882813182E+02 -0.54839214355E+02  0.44149038915E+03  0.45065312822E+03  0.00000000000E+00 0. -1.
         21    1    1    2  503  502 -0.78342304597E+02  0.51635177135E+02  0.17997201134E+03  0.20296214690E+03  0.00000000000E+00 0.  1.
          1    1    1    2  501    0  0.11345600301E+03  0.35040690220E+02 -0.24000608881E+03  0.26777422815E+03  0.00000000000E+00 0. -1.
<scales pt_clust_5="13000.00000" pt_clust_6="13000.00000" pt_clust_7="13000.00000" pt_clust_8="13000.00000" pt_clust_9="93.82808" pt_clust_10="117.53930"></scales>
<clustering>
<clus scale="   81.368">  5  6 -1 -1</clus>
<clus scale="   92.466">  7  8 -1 -1</clus>
<clus scale="   93.828">  1  9  2 -1</clus>
<clus scale="  117.539">  2 10  1 -1</clus>
<clus scale="  124.679">  2  5  1 -1</clus>
<clus scale="  117.539">  2  5  1 -1</clus>
</clustering>
</event>
<event>
10    4  0.2857708E-005  0.2305081E+03  0.7546771E-02  0.1164526E+00
          2   -1    0    0  503    0 -0.00000000000E+00  0.00000000000E+00  0.20110650338E+03  0.20110650338E+03  0.00000000000E+00 0. -1.
         21   -1    0    0  501  502  0.00000000000E+00 -0.00000000000E+00 -0.64898747872E+03  0.64898747872E+03  0.00000000000E+00 0.  1.
         24    2    1    2    0    0  0.70365207781E+01  0.46141733217E+02 -0.11408939258E+03  0.14694175206E+03  0.79980727862E+02 0.  0.
         23    2    1    2    0    0  0.21824270525E+03 -0.15481394684E+02 -0.30934448772E+03  0.38934510457E+03  0.89588204509E+02 0.  0.
        -13    1    3    3    0    0  0.30202695663E+02  0.47351278575E+02 -0.10982876042E+03  0.12335600116E+03  0.00000000000E+00 0.  1.
         14    1    3    3    0    0 -0.23166174885E+02 -0.12095453580E+01 -0.42606321611E+01  0.23585750893E+02  0.00000000000E+00 0. -1.
        -13    1    4    4    0    0  0.13591963944E+03  0.25361129469E+02 -0.22783796125E+03  0.26650979693E+03  0.00000000000E+00 0. -1.
         13    1    4    4    0    0  0.82323065817E+02 -0.40842524154E+02 -0.81506526476E+02  0.12283530764E+03  0.00000000000E+00 0.  1.
         21    1    1    2  503  502 -0.22146652896E+02  0.85334118133E-01  0.80230147847E+02  0.83230752370E+02  0.00000000000E+00 0. -1.
          1    1    1    2  501    0 -0.20313257314E+03 -0.30745672651E+02 -0.10467724289E+03  0.23057637311E+03  0.00000000000E+00 0. -1.
<scales pt_clust_5="13000.00000" pt_clust_6="13000.00000" pt_clust_7="13000.00000" pt_clust_8="13000.00000" pt_clust_9="22.14682" pt_clust_10="212.38637"></scales>
<clustering>
<clus scale="   22.147">  1  9  2 -1</clus>
<clus scale="   79.981">  5  6 -1 -1</clus>
<clus scale="   89.588">  7  8 -1 -1</clus>
<clus scale="   92.428">  1  5  2 -1</clus>
<clus scale="  212.386">  2 10  1 -1</clus>
<clus scale="  212.386">  2  5  1 -1</clus>
</clustering>
</event>
<event>
10    4  0.2857708E-005  0.1021504E+03  0.7546771E-02  0.1281428E+00
         21   -1    0    0  501  502  0.00000000000E+00  0.00000000000E+00  0.23362754151E+02  0.23362754151E+02  0.00000000000E+00 0. -1.
          2   -1    0    0  503    0 -0.00000000000E+00 -0.00000000000E+00 -0.99351277119E+03  0.99351277119E+03  0.00000000000E+00 0. -1.
         24    2    1    2    0    0 -0.47210938889E+02  0.17054505092E+02 -0.48284116775E+03  0.49179760899E+03  0.78800799755E+02 0.  0.
         23    2    1    2    0    0  0.51741419086E+02 -0.38382165730E+02 -0.19457891194E+03  0.22410848575E+03  0.90627232751E+02 0.  0.
        -11    1    3    3    0    0 -0.54431461652E+02  0.16279824042E+02 -0.17751437283E+03  0.18638446622E+03  0.00000000000E+00 0.  1.
         12    1    3    3    0    0  0.72205227627E+01  0.77468105079E+00 -0.30532679492E+03  0.30541314277E+03  0.00000000000E+00 0. -1.
        -13    1    4    4    0    0  0.34828028594E+02  0.11908817935E+02 -0.15107661507E+03  0.15549583641E+03  0.00000000000E+00 0.  1.
         13    1    4    4    0    0  0.16913390492E+02 -0.50290983665E+02 -0.43502296879E+02  0.68612649342E+02  0.00000000000E+00 0. -1.
         21    1    1    2  503  502  0.10120823914E+02 -0.21670883704E+02 -0.83063935539E+02  0.86438855062E+02  0.00000000000E+00 0. -1.
          1    1    1    2  501    0 -0.14651304111E+02  0.42998544341E+02 -0.20966600180E+03  0.21453057553E+03  0.00000000000E+00 0. -1.
<scales pt_clust_5="13000.00000" pt_clust_6="13000.00000" pt_clust_7="13000.00000" pt_clust_8="13000.00000" pt_clust_9="23.91774" pt_clust_10="39.88137"></scales>
<clustering>
<clus scale="   23.918">  2  9  1 -1</clus>
<clus scale="   39.881">  1 10  2 -1</clus>
<clus scale="   78.801">  5  6 -1 -1</clus>
<clus scale="   90.627">  7  8 -1 -1</clus>
<clus scale="   91.820">  2  5  1 -1</clus>
<clus scale="   39.881">  1  5  2 -1</clus>
</clustering>
</event>
<event>
10    4  0.2857708E-005  0.9737499E+02  0.7546771E-02  0.1292399E+00
          4   -1    0    0  503    0 -0.00000000000E+00  0.00000000000E+00  0.51777075054E+03  0.51777075054E+03  0.00000000000E+00 0. -1.
         21   -1    0    0  501  502  0.00000000000E+00 -0.00000000000E+00 -0.12741331446E+03  0.12741331446E+03  0.00000000000E+00 0. -1.
         24    2    1    2    0    0  0.38607904961E+02  0.45795842346E+01  0.20886954131E+03  0.22708095320E+03  0.80173132028E+02 0.  0.
         23    2    1    2    0    0 -0.35773327812E+02  0.30564826732E+02  0.48061516756E+02  0.11401171059E+03  0.92058791771E+02 0.  0.
        -11    1    3    3    0    0  0.58164470930E+02  0.12378679086E+02  0.18898740304E+03  0.19812262839E+03  0.00000000000E+00 0.  1.
         12    1    3    3    0    0 -0.19556565970E+02 -0.77990948516E+01  0.19882138276E+02  0.28958324804E+02  0.00000000000E+00 0. -1.
        -13    1    4    4    0    0 -0.19001311556E+02 -0.19277168322E+02  0.54675892752E+02  0.61009116594E+02  0.00000000000E+00 0. -1.
         13    1    4    4    0    0 -0.16772016256E+02  0.49841995054E+02 -0.66143759959E+01  0.53002593994E+02  0.00000000000E+00 0.  1.
         21    1    1    2  503  502 -0.21626578998E+02 -0.26049842321E+02  0.21614412182E+03  0.21877976278E+03  0.00000000000E+00 0.  1.
          3    1    1    2  501    0  0.18792001849E+02 -0.90945686450E+01 -0.82717743811E+02  0.85311638441E+02  0.00000000000E+00 0. -1.
<scales pt_clust_5="13000.00000" pt_clust_6="13000.00000" pt_clust_7="13000.00000" pt_clust_8="13000.00000" pt_clust_9="33.71070" pt_clust_10="20.87703"></scales>
<clustering>
<clus scale="   20.877">  2 10  1 -1</clus>
<clus scale="   33.711">  1  9  2 -1</clus>
<clus scale="   80.173">  5  6 -1 -1</clus>
<clus scale="   86.225">  1  5  2 -1</clus>
<clus scale="   92.059">  7  8 -1 -1</clus>
<clus scale="   20.877">  2  5  1 -1</clus>
</clustering>
</event>
<event>
10    4  0.2857708E-005  0.9085711E+02  0.7546771E-02  0.1303105E+00
          4   -1    0    0  503    0 -0.00000000000E+00  0.00000000000E+00  0.59275253346E+02  0.59275253346E+02  0.00000000000E+00 0. -1.
         21   -1    0    0  501  502  0.00000000000E+00 -0.00000000000E+00 -0.62867553529E+03  0.62867553529E+03  0.00000000000E+00 0.  1.
         24    2    1    2    0    0 -0.10474078021E+02 -0.10914038505E+02  0.77169647924E+01  0.88066544704E+02  0.86413784801E+02 0.  0.
         23    2    1    2    0    0 -0.44732017977E+01 -0.18967887473E+02 -0.23321530743E+03  0.25081900663E+03  0.90227513419E+02 0.  0.
        -11    1    3    3    0    0 -0.53365439910E+01 -0.45003941049E+02 -0.13865920159E+02  0.47393007433E+02  0.00000000000E+00 0.  1.
         12    1    3    3    0    0 -0.51375340297E+01  0.34089902543E+02  0.21582884951E+02  0.40673537271E+02  0.00000000000E+00 0. -1.
        -11    1    4    4    0    0 -0.40536138874E+02 -0.10528040969E+02 -0.56876107805E+02  0.70632215317E+02  0.00000000000E+00 0. -1.
         11    1    4    4    0    0  0.36062937076E+02 -0.84398465037E+01 -0.17633919962E+03  0.18018679131E+03  0.00000000000E+00 0.  1.
         21    1    1    2  503  502  0.26777618485E+02 -0.51587450904E+00 -0.13486462550E+03  0.13749826977E+03  0.00000000000E+00 0.  1.
          3    1    1    2  501    0 -0.11830338667E+02  0.30397800488E+02 -0.20903731381E+03  0.21156696753E+03  0.00000000000E+00 0. -1.
<scales pt_clust_5="13000.00000" pt_clust_6="13000.00000" pt_clust_7="13000.00000" pt_clust_8="13000.00000" pt_clust_9="26.78259" pt_clust_10="30.18011"></scales>
<clustering>
<clus scale="   26.783">  2  9  1 -1</clus>
<clus scale="   30.180">  2 10  1 -1</clus>
<clus scale="   86.414">  5  6 -1 -1</clus>
<clus scale="   87.071">  1  5  2 -1</clus>
<clus scale="   90.228">  7  8 -1 -1</clus>
<clus scale="   26.783">  2  5  1 -1</clus>
</clustering>
</event>
<event>
10    4  0.2857708E-005  0.1230676E+03  0.7546771E-02  0.1255035E+00
          2   -1    0    0  503    0 -0.00000000000E+00  0.00000000000E+00  0.46190212903E+03  0.46190212903E+03  0.00000000000E+00 0. -1.
         21   -1    0    0  501  502  0.00000000000E+00 -0.00000000000E+00 -0.73400635470E+02  0.73400635470E+02  0.00000000000E+00 0.  1.
         23    2    1    2    0    0  0.69547698791E+02  0.15343010448E+02  0.17068087099E+03  0.20527120275E+03  0.89061869391E+02 0.  0.
         24    2    1    2    0    0  0.22302306427E+02  0.14333843368E+02  0.39080310795E+02  0.93848939810E+02  0.81101793285E+02 0.  0.
        -13    1    4    4    0    0  0.52491057828E+02  0.15268826460E+01  0.23098183364E+02  0.57368707474E+02  0.00000000000E+00 0.  1.
         14    1    4    4    0    0 -0.30188751401E+02  0.12806960722E+02  0.15982127431E+02  0.36480232336E+02  0.00000000000E+00 0. -1.
        -13    1    3    3    0    0  0.73333750085E+02 -0.18675183698E+02  0.89721251042E+02  0.11737335420E+03  0.00000000000E+00 0. -1.
         13    1    3    3    0    0 -0.37860512937E+01  0.34018194146E+02  0.80959619951E+02  0.87897848551E+02  0.00000000000E+00 0.  1.
         21    1    1    2  503  502 -0.77418650905E+02 -0.61197316993E+02  0.17552755303E+03  0.20136703053E+03  0.00000000000E+00 0. -1.
          1    1    1    2  501    0 -0.14431354313E+02  0.31520463177E+02  0.32127587500E+01  0.34815591406E+02  0.00000000000E+00 0. -1.
<scales pt_clust_5="13000.00000" pt_clust_6="13000.00000" pt_clust_7="13000.00000" pt_clust_8="13000.00000" pt_clust_9="84.93295" pt_clust_10="34.66704"></scales>
<clustering>
<clus scale="   34.667">  2 10  1 -1</clus>
<clus scale="   81.102">  5  6 -1 -1</clus>
<clus scale="   87.610">  2  5  1 -1</clus>
<clus scale="   84.933">  2  9  1 -1</clus>
<clus scale="   89.062">  7  8 -1 -1</clus>
<clus scale="   34.667">  2  5  1 -1</clus>
</clustering>
</event>
<event>
10    4  0.2857708E-005  0.9754323E+02  0.7546771E-02  0.1290474E+00
         21   -1    0    0  501  502  0.00000000000E+00  0.00000000000E+00  0.61963397846E+02  0.61963397846E+02  0.00000000000E+00 0.  1.
          2   -1    0    0  503    0 -0.00000000000E+00 -0.00000000000E+00 -0.35923711871E+03  0.35923711871E+03  0.00000000000E+00 0. -1.
         24    2    1    2    0    0 -0.85808895441E+01 -0.15137843796E+02 -0.15077802452E+03  0.17207757499E+03  0.81079548320E+02 0.  0.
         23    2    1    2    0    0  0.49011515575E+02  0.35212802844E+02 -0.13937510279E+03  0.17677389159E+03  0.90451751374E+02 0.  0.
        -11    1    3    3    0    0  0.13397966458E+02  0.24700292263E+02 -0.22590072354E+02  0.36054421532E+02  0.00000000000E+00 0.  1.
         12    1    3    3    0    0 -0.21978856002E+02 -0.39838136059E+02 -0.12818795217E+03  0.13602315346E+03  0.00000000000E+00 0. -1.
        -13    1    4    4    0    0 -0.26440344667E+02  0.36712034014E+01 -0.29172344745E+02  0.39542322370E+02  0.00000000000E+00 0. -1.
         13    1    4    4    0    0  0.75451860242E+02  0.31541599443E+02 -0.11020275805E+03  0.13723156922E+03  0.00000000000E+00 0.  1.
         21    1    1    2  503  502 -0.10484722214E+02 -0.19600256645E+02 -0.28065771703E+02  0.35802053038E+02  0.00000000000E+00 0. -1.
          1    1    1    2  501    0 -0.29945903817E+02 -0.47470240247E+00  0.20945178149E+02  0.36546996941E+02  0.00000000000E+00 0. -1.
<scales pt_clust_5="13000.00000" pt_clust_6="13000.00000" pt_clust_7="13000.00000" pt_clust_8="13000.00000" pt_clust_9="22.22835" pt_clust_10="30.21048"></scales>
<clustering>
<clus scale="   22.228">  2  9  1 -1</clus>
<clus scale="   30.210">  1 10  2 -1</clus>
<clus scale="   81.080">  5  6 -1 -1</clus>
<clus scale="   88.922">  2  5  1 -1</clus>
<clus scale="   90.452">  7  8 -1 -1</clus>
<clus scale="   30.210">  1  5  2 -1</clus>
</clustering>
</event>
<event>
10    4  0.2857708E-005  0.4398918E+03  0.7546771E-02  0.1060135E+00
         21   -1    0    0  501  502  0.00000000000E+00  0.00000000000E+00  0.46065648686E+03  0.46065648686E+03  0.00000000000E+00 0. -1.
          2   -1    0    0  503    0 -0.00000000000E+00 -0.00000000000E+00 -0.17116959242E+04  0.17116959242E+04  0.00000000000E+00 0. -1.
         23    2    1    2    0    0  0.10500801846E+03  0.12906341647E+03 -0.20292307548E+02  0.19043762786E+03  0.90391719467E+02 0.  0.
         24    2    1    2    0    0 -0.30960446928E+03 -0.48845608738E+03 -0.12785757706E+04  0.14056187757E+04  0.81017682518E+02 0.  0.
        -11    1    4    4    0    0 -0.74629563849E+02 -0.14695641709E+03 -0.28841751178E+03  0.33219033915E+03  0.00000000000E+00 0.  1.
         12    1    4    4    0    0 -0.23497490543E+03 -0.34149967029E+03 -0.99015825879E+03  0.10734284366E+04  0.00000000000E+00 0. -1.
        -13    1    3    3    0    0  0.77266240432E+02  0.13065116157E+03 -0.39272456825E+02  0.15678687380E+03  0.00000000000E+00 0. -1.
         13    1    3    3    0    0  0.27741778026E+02 -0.15877450981E+01  0.18980149276E+02  0.33650754065E+02  0.00000000000E+00 0.  1.
         21    1    1    2  503  502 -0.72367095031E+02  0.47513130190E+02 -0.10137272938E+03  0.13330763011E+03  0.00000000000E+00 0. -1.
          1    1    1    2  501    0  0.27696354586E+03  0.31187954072E+03  0.14920137014E+03  0.44298837739E+03  0.00000000000E+00 0. -1.
<scales pt_clust_5="13000.00000" pt_clust_6="13000.00000" pt_clust_7="13000.00000" pt_clust_8="13000.00000" pt_clust_9="86.57075" pt_clust_10="432.36669"></scales>
<clustering>
<clus scale="   81.018">  5  6 -1 -1</clus>
<clus scale="   86.571">  2  9  1 -1</clus>
<clus scale="   90.392">  7  8 -1 -1</clus>
<clus scale="  188.927">  2  7  1 -1</clus>
<clus scale="  432.367">  1 10  2 -1</clus>
<clus scale="  432.367">  1  5  2 -1</clus>
</clustering>
</event>
<event>
10    4  0.2857708E-005  0.1215471E+03  0.7546771E-02  0.1246899E+00
         21   -1    0    0  503  502  0.00000000000E+00  0.00000000000E+00  0.97008305405E+02  0.97008305405E+02  0.00000000000E+00 0. -1.
         -1   -1    0    0    0  501 -0.00000000000E+00 -0.00000000000E+00 -0.28961663508E+03  0.28961663508E+03  0.00000000000E+00 0.  1.
         24    2    1    2    0    0 -0.23830482946E+02  0.94113135319E+02 -0.14306853594E+03  0.18721924357E+03  0.71814100483E+02 0.  0.
         23    2    1    2    0    0  0.15843597985E+02 -0.33782199269E+02  0.58535987856E+01  0.99581524615E+02  0.92140972653E+02 0.  0.
        -13    1    3    3    0    0  0.17500245527E+02  0.49907401442E+02 -0.35186551892E+02  0.63522442855E+02  0.00000000000E+00 0.  1.
         14    1    3    3    0    0 -0.41330728473E+02  0.44205733877E+02 -0.10788198405E+03  0.12369680071E+03  0.00000000000E+00 0. -1.
        -13    1    4    4    0    0 -0.10987772194E+02  0.23669471942E+02 -0.18144750484E+02  0.31783753868E+02  0.00000000000E+00 0. -1.
         13    1    4    4    0    0  0.26831370179E+02 -0.57451671211E+02  0.23998349270E+02  0.67797770747E+02  0.00000000000E+00 0.  1.
         21    1    1    2  503  501  0.23973853035E+02 -0.39060400679E+01 -0.13927866420E+02  0.27999790023E+02  0.00000000000E+00 0.  1.
         -2    1    1    2    0  502 -0.15986968073E+02 -0.56424895982E+02 -0.41465526092E+02  0.71824382273E+02  0.00000000000E+00 0.  1.
<scales pt_clust_5="13000.00000" pt_clust_6="13000.00000" pt_clust_7="13000.00000" pt_clust_8="13000.00000" pt_clust_9="24.28997" pt_clust_10="58.31974"></scales>
<clustering>
<clus scale="   24.290">  1  9  2 -1</clus>
<clus scale="   58.320">  1 10  2 -1</clus>
<clus scale="   71.814">  5  6 -1 -1</clus>
<clus scale="   92.141">  7  8 -1 -1</clus>
<clus scale="  106.963">  2  5  1 -1</clus>
<clus scale="   24.290">  1  5  2 -1</clus>
</clustering>
</event>
<event>
10    4  0.2857708E-005  0.4509633E+03  0.7546771E-02  0.1042103E+00
          2   -1    0    0  503    0 -0.00000000000E+00  0.00000000000E+00  0.11279145816E+04  0.11279145816E+04  0.00000000000E+00 0. -1.
         21   -1    0    0  501  502  0.00000000000E+00 -0.00000000000E+00 -0.61680930520E+03  0.61680930520E+03  0.00000000000E+00 0.  1.
         23    2    1    2    0    0 -0.15124512150E+03 -0.23281909405E+03 -0.27806111396E+03  0.40284556169E+03  0.88807354110E+02 0.  0.
         24    2    1    2    0    0 -0.33923958123E+03  0.32508382201E+03  0.12925201530E+03  0.49405770672E+03  0.81387648362E+02 0.  0.
        -13    1    4    4    0    0 -0.19359376182E+03  0.12928943146E+03  0.65850070591E+02  0.24193084445E+03  0.00000000000E+00 0.  1.
         14    1    4    4    0    0 -0.14564581941E+03  0.19579439055E+03  0.63401944711E+02  0.25212686226E+03  0.00000000000E+00 0. -1.
        -13    1    3    3    0    0 -0.22819648739E+02 -0.11031653153E+03 -0.12717189850E+03  0.16989162800E+03  0.00000000000E+00 0.  1.
         13    1    3    3    0    0 -0.12842547276E+03 -0.12250256252E+03 -0.15088921546E+03  0.23295393368E+03  0.00000000000E+00 0. -1.
         21    1    1    2  503  502  0.31564726635E+02 -0.49773552855E+02  0.14637147423E+03  0.15779210056E+03  0.00000000000E+00 0.  1.
          1    1    1    2  501    0  0.45891997609E+03 -0.42491175104E+02  0.51354290078E+03  0.69002851778E+03  0.00000000000E+00 0. -1.
<scales pt_clust_5="13000.00000" pt_clust_6="13000.00000" pt_clust_7="13000.00000" pt_clust_8="13000.00000" pt_clust_9="58.93843" pt_clust_10="443.55853"></scales>
<clustering>
<clus scale="   58.938">  1  9  2 -1</clus>
<clus scale="   81.388">  5  6 -1 -1</clus>
<clus scale="   88.807">  7  8 -1 -1</clus>
<clus scale="  293.005">  1  7  2 -1</clus>
<clus scale="  443.559">  2 10  1 -1</clus>
<clus scale="  443.559">  2  5  1 -1</clus>
</clustering>
</event>
<event>
10    4  0.2857708E-005  0.1030436E+03  0.7546771E-02  0.1277272E+00
         21   -1    0    0  503  502  0.00000000000E+00  0.00000000000E+00  0.27159690074E+03  0.27159690074E+03  0.00000000000E+00 0. -1.
         -1   -1    0    0    0  501 -0.00000000000E+00 -0.00000000000E+00 -0.24551361838E+03  0.24551361838E+03  0.00000000000E+00 0.  1.
         24    2    1    2    0    0 -0.44314167806E+02 -0.23254301990E+02 -0.14620083070E+03  0.17495194343E+03  0.82030430850E+02 0.  0.
         23    2    1    2    0    0  0.20109850290E+02  0.78411307660E+02  0.10122909343E+03  0.15739217270E+03  0.89287330697E+02 0.  0.
        -13    1    3    3    0    0 -0.45589835852E+02 -0.46582012398E+02 -0.71812365549E+02  0.96981095363E+02  0.00000000000E+00 0.  1.
         14    1    3    3    0    0  0.12756680461E+01  0.23327710408E+02 -0.74388465148E+02  0.77970848071E+02  0.00000000000E+00 0. -1.
        -11    1    4    4    0    0 -0.33435445831E+01  0.83622363740E+02  0.10368020528E+03  0.13324212538E+03  0.00000000000E+00 0. -1.
         11    1    4    4    0    0  0.23453394873E+02 -0.52110560802E+01 -0.24511118467E+01  0.24150047326E+02  0.00000000000E+00 0.  1.
         21    1    1    2  503  501 -0.11974689940E+02  0.23326334458E+02 -0.37658795618E+02  0.45887862946E+02  0.00000000000E+00 0. -1.
         -2    1    1    2    0  502  0.36179007456E+02 -0.78483340128E+02  0.10871381524E+03  0.13887854004E+03  0.00000000000E+00 0.  1.
<scales pt_clust_5="13000.00000" pt_clust_6="13000.00000" pt_clust_7="13000.00000" pt_clust_8="13000.00000" pt_clust_9="26.22043" pt_clust_10="84.48155"></scales>
<clustering>
<clus scale="   26.220">  2  9  1 -1</clus>
<clus scale="   82.030">  5  6 -1 -1</clus>
<clus scale="   84.482">  1 10  2 -1</clus>
<clus scale="   89.287">  7  8 -1 -1</clus>
<clus scale="   96.823">  2  5  1 -1</clus>
<clus scale="   84.482">  1  5  2 -1</clus>
</clustering>
</event>
<event>
10    4  0.2857708E-005  0.2941645E+03  0.7546771E-02  0.1111561E+00
         21   -1    0    0  501  502  0.00000000000E+00  0.00000000000E+00  0.35130970797E+03  0.35130970797E+03  0.00000000000E+00 0. -1.
          2   -1    0    0  503    0 -0.00000000000E+00 -0.00000000000E+00 -0.12724854545E+04  0.12724854545E+04  0.00000000000E+00 0. -1.
         23    2    1    2    0    0 -0.10940554202E+03 -0.72628986062E+02 -0.15851200775E+03  0.22550698138E+03  0.92102116206E+02 0.  0.
         24    2    1    2    0    0 -0.13949538751E+03 -0.17183534148E+03  0.12917794562E+03  0.26910944560E+03  0.82137715799E+02 0.  0.
        -13    1    4    4    0    0  0.79003642718E+01 -0.30669157641E+02  0.12723446383E+02  0.34130617836E+02  0.00000000000E+00 0.  1.
         14    1    4    4    0    0 -0.14739575178E+03 -0.14116618384E+03  0.11645449924E+03  0.23497882776E+03  0.00000000000E+00 0. -1.
        -11    1    3    3    0    0 -0.11547466474E+03 -0.33206087611E+02 -0.11233047976E+03  0.16448458631E+03  0.00000000000E+00 0.  1.
         11    1    3    3    0    0  0.60691227153E+01 -0.39422898451E+02 -0.46181527986E+02  0.61022395068E+02  0.00000000000E+00 0. -1.
         21    1    1    2  503  502  0.38056065629E+02  0.34285507326E+03 -0.19884954741E+03  0.39816957178E+03  0.00000000000E+00 0. -1.
          1    1    1    2  501    0  0.21084486391E+03 -0.98390745717E+02 -0.69299213703E+03  0.73100916374E+03  0.00000000000E+00 0. -1.
<scales pt_clust_5="13000.00000" pt_clust_6="13000.00000" pt_clust_7="13000.00000" pt_clust_8="13000.00000" pt_clust_9="282.46444" pt_clust_10="201.59602"></scales>
<clustering>
<clus scale="   82.138">  5  6 -1 -1</clus>
<clus scale="   92.102">  7  8 -1 -1</clus>
<clus scale="  160.397">  2  7  1 -1</clus>
<clus scale="  201.596">  1 10  2 -1</clus>
<clus scale="  282.464">  2  9  1 -1</clus>
<clus scale="  201.596">  1  5  2 -1</clus>
</clustering>
</event>
<event>
10    4  0.2857708E-005  0.1671003E+03  0.7546771E-02  0.1197493E+00
          2   -1    0    0  503    0 -0.00000000000E+00  0.00000000000E+00  0.96220466857E+03  0.96220466857E+03  0.00000000000E+00 0. -1.
         21   -1    0    0  501  502  0.00000000000E+00 -0.00000000000E+00 -0.12927834500E+03  0.12927834500E+03  0.00000000000E+00 0. -1.
         23    2    1    2    0    0 -0.37291703873E+02  0.60130532966E+02 -0.42045920108E+02  0.12516593932E+03  0.94298996792E+02 0.  0.
         24    2    1    2    0    0  0.15773564189E+03  0.40769739965E+02  0.52162318389E+03  0.55244218706E+03  0.80987157354E+02 0.  0.
        -13    1    4    4    0    0  0.26342898407E+02  0.43105455310E+02  0.14261811323E+03  0.15130087506E+03  0.00000000000E+00 0.  1.
         14    1    4    4    0    0  0.13139274348E+03 -0.23357153455E+01  0.37900507066E+03  0.40114131200E+03  0.00000000000E+00 0. -1.
        -13    1    3    3    0    0 -0.45226553118E+02  0.80723164607E+02 -0.45015887596E+02  0.10289849633E+03  0.00000000000E+00 0. -1.
         13    1    3    3    0    0  0.79348492449E+01 -0.20592631641E+02  0.29699674879E+01  0.22267442990E+02  0.00000000000E+00 0.  1.
         21    1    1    2  503  502  0.15817164773E+02 -0.72064987364E+02  0.15312266623E+03  0.16997086815E+03  0.00000000000E+00 0. -1.
          1    1    1    2  501    0 -0.13626110278E+03 -0.28835285567E+02  0.20022639356E+03  0.24390401904E+03  0.00000000000E+00 0. -1.
<scales pt_clust_5="13000.00000" pt_clust_6="13000.00000" pt_clust_7="13000.00000" pt_clust_8="13000.00000" pt_clust_9="73.78038" pt_clust_10="146.16285"></scales>
<clustering>
<clus scale="   73.780">  1  9  2 -1</clus>
<clus scale="   80.987">  5  6 -1 -1</clus>
<clus scale="   94.299">  7  8 -1 -1</clus>
<clus scale="  115.768">  1  7  2 -1</clus>
<clus scale="  146.163">  2 10  1 -1</clus>
<clus scale="  146.163">  2  5  1 -1</clus>
</clustering>
</event>
<event>
10    4  0.2857708E-005  0.1277343E+03  0.7546771E-02  0.1252450E+00
         21   -1    0    0  503  502  0.00000000000E+00  0.00000000000E+00  0.21569427335E+03  0.21569427335E+03  0.00000000000E+00 0. -1.
         -1   -1    0    0    0  501 -0.00000000000E+00 -0.00000000000E+00 -0.41811193522E+03  0.41811193522E+03  0.00000000000E+00 0.  1.
         24    2    1    2    0    0  0.10603369615E+02  0.64635251419E+01  0.16453232080E+03  0.18408586954E+03  0.81624225405E+02 0.  0.
         23    2    1    2    0    0 -0.18875411306E+02 -0.83202958532E+02 -0.27696477028E+03  0.30464426330E+03  0.93912883699E+02 0.  0.
        -13    1    3    3    0    0  0.34397605194E+02  0.30392107118E+02  0.69962330693E+02  0.83675582664E+02  0.00000000000E+00 0.  1.
         14    1    3    3    0    0 -0.23794235579E+02 -0.23928581977E+02  0.94569990107E+02  0.10041028688E+03  0.00000000000E+00 0. -1.
        -13    1    4    4    0    0  0.15860511106E+02 -0.61881105057E+02 -0.24400075950E+03  0.25222449843E+03  0.00000000000E+00 0.  1.
         13    1    4    4    0    0 -0.34735922413E+02 -0.21321853475E+02 -0.32964010779E+02  0.52419764861E+02  0.00000000000E+00 0. -1.
         21    1    1    2  503  501 -0.24497893926E+02 -0.41729102859E+01 -0.10372949823E+02  0.26928759257E+02  0.00000000000E+00 0. -1.
         -2    1    1    2    0  502  0.32769935618E+02  0.80912343676E+02 -0.79612262564E+02  0.11814731647E+03  0.00000000000E+00 0.  1.
<scales pt_clust_5="13000.00000" pt_clust_6="13000.00000" pt_clust_7="13000.00000" pt_clust_8="13000.00000" pt_clust_9="24.85075" pt_clust_10="86.58193"></scales>
<clustering>
<clus scale="   24.851">  2  9  1 -1</clus>
<clus scale="   81.624">  5  6 -1 -1</clus>
<clus scale="   82.481">  2  5  1 -1</clus>
<clus scale="   86.582">  1 10  2 -1</clus>
<clus scale="   93.913">  7  8 -1 -1</clus>
<clus scale="   86.582">  1  5  2 -1</clus>
</clustering>
</event>
<event>
10    4  0.2857708E-005  0.1054293E+03  0.7546771E-02  0.1273958E+00
          2   -1    0    0  503    0 -0.00000000000E+00  0.00000000000E+00  0.70640484641E+03  0.70640484641E+03  0.00000000000E+00 0. -1.
         21   -1    0    0  501  502  0.00000000000E+00 -0.00000000000E+00 -0.50013606634E+02  0.50013606634E+02  0.00000000000E+00 0.  1.
         24    2    1    2    0    0  0.36765896921E+02 -0.42311999915E+02  0.44316034204E+03  0.45386617852E+03  0.80382726590E+02 0.  0.
         23    2    1    2    0    0  0.13818169207E+01  0.27407054634E+02  0.56848220484E+02  0.11082842958E+03  0.91094262002E+02 0.  0.
        -13    1    3    3    0    0 -0.17757381654E+02 -0.13338651523E+02  0.37887767802E+02  0.43917276517E+02  0.00000000000E+00 0.  1.
         14    1    3    3    0    0  0.54523278576E+02 -0.28973348392E+02  0.40527257424E+03  0.40994890200E+03  0.00000000000E+00 0. -1.
        -11    1    4    4    0    0  0.46014881943E+02  0.10178581711E+02  0.31501662496E+02  0.56686220776E+02  0.00000000000E+00 0. -1.
         11    1    4    4    0    0 -0.44633065022E+02  0.17228472923E+02  0.25346557989E+02  0.54142208806E+02  0.00000000000E+00 0.  1.
         21    1    1    2  503  502 -0.48222241027E+02 -0.29933605099E+02  0.12124990703E+03  0.13387660437E+03  0.00000000000E+00 0. -1.
          1    1    1    2  501    0  0.10074527185E+02  0.44838550380E+02  0.35132770226E+02  0.57847240573E+02  0.00000000000E+00 0. -1.
<scales pt_clust_5="13000.00000" pt_clust_6="13000.00000" pt_clust_7="13000.00000" pt_clust_8="13000.00000" pt_clust_9="51.77493" pt_clust_10="45.95641"></scales>
<clustering>
<clus scale="   45.956">  2 10  1 -1</clus>
<clus scale="   51.775">  1  9  2 -1</clus>
<clus scale="   80.383">  5  6 -1 -1</clus>
<clus scale="   91.094">  7  8 -1 -1</clus>
<clus scale="   96.325">  1  5  2 -1</clus>
<clus scale="   45.956">  2  5  1 -1</clus>
</clustering>
</event>
<event>
10    4  0.2857708E-005  0.2088981E+03  0.7546771E-02  0.1143179E+00
         21   -1    0    0  503  502  0.00000000000E+00  0.00000000000E+00  0.54984383217E+03  0.54984383217E+03  0.00000000000E+00 0.  1.
         -1   -1    0    0    0  501 -0.00000000000E+00 -0.00000000000E+00 -0.24545394732E+03  0.24545394732E+03  0.00000000000E+00 0.  1.
         23    2    1    2    0    0 -0.46881664636E+02 -0.19421443631E+03  0.80609933776E+02  0.23402366141E+03  0.91389140084E+02 0.  0.
         24    2    1    2    0    0  0.55314844806E+02  0.13640560057E+03  0.35650843474E+03  0.39445985626E+03  0.82668580723E+02 0.  0.
        -13    1    4    4    0    0  0.68051724732E+02  0.96947745535E+02  0.31152158483E+03  0.33328006304E+03  0.00000000000E+00 0.  1.
         14    1    4    4    0    0 -0.12736879927E+02  0.39457855031E+02  0.44986849907E+02  0.61179793220E+02  0.00000000000E+00 0. -1.
        -13    1    3    3    0    0  0.11238251561E+02 -0.94106168663E+02  0.33149907927E+01  0.94832792021E+02  0.00000000000E+00 0. -1.
         13    1    3    3    0    0 -0.58119916197E+02 -0.10010826765E+03  0.77294942983E+02  0.13919086939E+03  0.00000000000E+00 0.  1.
         21    1    1    2  503  501 -0.90925640503E+01 -0.19610840886E+02 -0.44228014309E+02  0.49227807700E+02  0.00000000000E+00 0.  1.
         -2    1    1    2    0  502  0.65938388044E+00  0.77419676631E+02 -0.88500469354E+02  0.11758645412E+03  0.00000000000E+00 0.  1.
<scales pt_clust_5="13000.00000" pt_clust_6="13000.00000" pt_clust_7="13000.00000" pt_clust_8="13000.00000" pt_clust_9="21.61619" pt_clust_10="67.37325"></scales>
<clustering>
<clus scale="   21.616">  2  9  1 -1</clus>
<clus scale="   67.373">  1 10  2 -1</clus>
<clus scale="   82.669">  5  6 -1 -1</clus>
<clus scale="   91.389">  7  8 -1 -1</clus>
<clus scale="  205.233">  1  5  2 -1</clus>
<clus scale="   67.373">  1  5  2 -1</clus>
</clustering>
</event>
<event>
10    4  0.2857708E-005  0.1028617E+03  0.7546771E-02  0.1278272E+00
         21   -1    0    0  501  502  0.00000000000E+00  0.00000000000E+00  0.88860711786E+02  0.88860711786E+02  0.00000000000E+00 0.  1.
          2   -1    0    0  503    0 -0.00000000000E+00 -0.00000000000E+00 -0.68721357211E+03  0.68721357211E+03  0.00000000000E+00 0. -1.
         24    2    1    2    0    0 -0.30528973662E+02 -0.75240175047E+02 -0.31758483342E+03  0.33815821065E+03  0.83052675101E+02 0.  0.
         23    2    1    2    0    0 -0.28702049872E+02  0.26433907350E+02  0.30336263857E+02  0.10393143543E+03  0.91426994048E+02 0.  0.
        -11    1    3    3    0    0 -0.53697463537E+02 -0.22211055472E+02 -0.14995127187E+03  0.16081707779E+03  0.00000000000E+00 0.  1.
         12    1    3    3    0    0  0.23168489875E+02 -0.53029119574E+02 -0.16763356155E+03  0.17734113286E+03  0.00000000000E+00 0. -1.
        -13    1    4    4    0    0 -0.14478201132E+02 -0.30867304737E+02 -0.59821588739E+01  0.34614953915E+02  0.00000000000E+00 0. -1.
         13    1    4    4    0    0 -0.14223848740E+02  0.57301212087E+02  0.36318422731E+02  0.69316481512E+02  0.00000000000E+00 0.  1.
         21    1    1    2  503  502  0.30223581263E+02  0.30838837714E+02 -0.29140159236E+03  0.29458341231E+03  0.00000000000E+00 0. -1.
          1    1    1    2  501    0  0.29007442270E+02  0.17967429982E+02 -0.19702698405E+02  0.39401225510E+02  0.00000000000E+00 0. -1.
<scales pt_clust_5="13000.00000" pt_clust_6="13000.00000" pt_clust_7="13000.00000" pt_clust_8="13000.00000" pt_clust_9="43.84735" pt_clust_10="34.12126"></scales>
<clustering>
<clus scale="   34.121">  1 10  2 -1</clus>
<clus scale="   43.847">  2  9  1 -1</clus>
<clus scale="   83.053">  5  6 -1 -1</clus>
<clus scale="   91.427">  7  8 -1 -1</clus>
<clus scale="   95.495">  2  5  1 -1</clus>
<clus scale="   34.121">  1  5  2 -1</clus>
</clustering>
</event>
<event>
10    4  0.2857708E-005  0.1793245E+03  0.7546771E-02  0.1169884E+00
         21   -1    0    0  503  502  0.00000000000E+00  0.00000000000E+00  0.36511522805E+03  0.36511522805E+03  0.00000000000E+00 0. -1.
         -3   -1    0    0    0  501 -0.00000000000E+00 -0.00000000000E+00 -0.36214381068E+03  0.36214381068E+03  0.00000000000E+00 0.  1.
         23    2    1    2    0    0  0.15333244793E+03 -0.30376258339E+02 -0.19210500940E+03  0.26372941325E+03  0.90638358964E+02 0.  0.
         24    2    1    2    0    0 -0.83546704408E+02 -0.19218247360E+02  0.14051366019E+03  0.18241781094E+03  0.78630631430E+02 0.  0.
        -11    1    4    4    0    0 -0.10210542320E+02 -0.29683200817E+02  0.11087414476E+02  0.33290814723E+02  0.00000000000E+00 0.  1.
         12    1    4    4    0    0 -0.73336162088E+02  0.10464953457E+02  0.12942624572E+03  0.14912699622E+03  0.00000000000E+00 0. -1.
        -11    1    3    3    0    0  0.23758349513E+02  0.17373340546E+02 -0.30203513974E+01  0.29587407048E+02  0.00000000000E+00 0. -1.
         11    1    3    3    0    0  0.12957409842E+03 -0.47749598884E+02 -0.18908465800E+03  0.23414200620E+03  0.00000000000E+00 0.  1.
         21    1    1    2  503  501  0.30434890603E+02  0.63701068238E+02 -0.83869846513E+02  0.10962782409E+03  0.00000000000E+00 0.  1.
         -4    1    1    2    0  502 -0.10022063412E+03 -0.14106562539E+02  0.13843261309E+03  0.17148399044E+03  0.00000000000E+00 0.  1.
<scales pt_clust_5="13000.00000" pt_clust_6="13000.00000" pt_clust_7="13000.00000" pt_clust_8="13000.00000" pt_clust_9="70.59822" pt_clust_10="98.84698"></scales>
<clustering>
<clus scale="   70.598">  2  9  1 -1</clus>
<clus scale="   78.631">  5  6 -1 -1</clus>
<clus scale="   90.638">  7  8 -1 -1</clus>
<clus scale="   98.847">  1 10  2 -1</clus>
<clus scale="  173.565">  1  5  2 -1</clus>
<clus scale="   98.847">  1  5  2 -1</clus>
</clustering>
</event>
<event>
10    4  0.2857708E-005  0.9120467E+02  0.7546771E-02  0.1306550E+00
         21   -1    0    0  503  502  0.00000000000E+00  0.00000000000E+00  0.51470991035E+02  0.51470991035E+02  0.00000000000E+00 0. -1.
         -1   -1    0    0    0  501 -0.00000000000E+00 -0.00000000000E+00 -0.45243609513E+03  0.45243609513E+03  0.00000000000E+00 0.  1.
         23    2    1    2    0    0 -0.27954624745E+02  0.77285880152E+01 -0.21413732257E+03  0.23394765798E+03  0.89641071156E+02 0.  0.
         24    2    1    2    0    0 -0.20463224375E+02  0.38235685777E+02 -0.30081878524E+02  0.95052606535E+02  0.79052940330E+02 0.  0.
        -13    1    4    4    0    0 -0.10967592046E+02  0.53719883650E+02 -0.45483414166E+02  0.71238016107E+02  0.00000000000E+00 0.  1.
         14    1    4    4    0    0 -0.94956323288E+01 -0.15484197873E+02  0.15401535642E+02  0.23814590427E+02  0.00000000000E+00 0. -1.
        -13    1    3    3    0    0 -0.40534712610E+02 -0.31898944761E+02 -0.13569891734E+03  0.14517162867E+03  0.00000000000E+00 0.  1.
         13    1    3    3    0    0  0.12580087865E+02  0.39627532776E+02 -0.78438405228E+02  0.88776029306E+02  0.00000000000E+00 0. -1.
         21    1    1    2  503  501  0.48882310660E+02 -0.22223981074E+02 -0.10326941323E+03  0.11639569296E+03  0.00000000000E+00 0.  1.
         -2    1    1    2    0  502 -0.46446153985E+00 -0.23740292719E+02 -0.53476489770E+02  0.58511128694E+02  0.00000000000E+00 0.  1.
<scales pt_clust_5="13000.00000" pt_clust_6="13000.00000" pt_clust_7="13000.00000" pt_clust_8="13000.00000" pt_clust_9="55.03546" pt_clust_10="23.74485"></scales>
<clustering>
<clus scale="   23.745">  1 10  2 -1</clus>
<clus scale="   55.035">  2  9  1 -1</clus>
<clus scale="   79.053">  5  6 -1 -1</clus>
<clus scale="   80.822">  1  5  2 -1</clus>
<clus scale="   89.641">  7  8 -1 -1</clus>
<clus scale="   23.745">  1  5  2 -1</clus>
</clustering>
</event>
<event>
10    4  0.2857708E-005  0.1162001E+03  0.7546771E-02  0.1251453E+00
         21   -1    0    0  501  502  0.00000000000E+00  0.00000000000E+00  0.73030914045E+02  0.73030914045E+02  0.00000000000E+00 0. -1.
          4   -1    0    0  503    0 -0.00000000000E+00 -0.00000000000E+00 -0.69977404510E+03  0.69977404510E+03  0.00000000000E+00 0. -1.
         24    2    1    2    0    0  0.96621360690E+02 -0.42343604250E+02 -0.41838094813E+03  0.44228149266E+03  0.97168064891E+02 0.  0.
         23    2    1    2    0    0 -0.13229422278E+02 -0.35671503297E+01 -0.95636936162E+02  0.13327903250E+03  0.91810319524E+02 0.  0.
        -11    1    3    3    0    0  0.67686327927E+02 -0.47852770286E+01 -0.10290667266E+03  0.12326443584E+03  0.00000000000E+00 0.  1.
         12    1    3    3    0    0  0.28935032763E+02 -0.37558327222E+02 -0.31547427546E+03  0.31901705682E+03  0.00000000000E+00 0. -1.
        -11    1    4    4    0    0 -0.21813963497E+02  0.41511715910E+02 -0.46287088139E+02  0.65890561461E+02  0.00000000000E+00 0.  1.
         11    1    4    4    0    0  0.85845412188E+01 -0.45078866240E+02 -0.49349848023E+02  0.67388471042E+02  0.00000000000E+00 0. -1.
         21    1    1    2  503  502 -0.20457003952E+02 -0.41698009361E+00 -0.11719617709E+03  0.11896893211E+03  0.00000000000E+00 0.  1.
          3    1    1    2  501    0 -0.62934934459E+02  0.46327734674E+02  0.44709303209E+01  0.78275501872E+02  0.00000000000E+00 0. -1.
<scales pt_clust_5="13000.00000" pt_clust_6="13000.00000" pt_clust_7="13000.00000" pt_clust_8="13000.00000" pt_clust_9="20.46125" pt_clust_10="79.18113"></scales>
<clustering>
<clus scale="   20.461">  2  9  1 -1</clus>
<clus scale="   79.181">  1 10  2 -1</clus>
<clus scale="   91.810">  7  8 -1 -1</clus>
<clus scale="   97.168">  5  6 -1 -1</clus>
<clus scale="  111.759">  1  7  2 -1</clus>
<clus scale="   79.181">  1  5  2 -1</clus>
</clustering>
</event>
<event>
10    4  0.2857708E-005  0.9795129E+02  0.7546771E-02  0.1290802E+00
          2   -1    0    0  503    0 -0.00000000000E+00  0.00000000000E+00  0.12766216943E+03  0.12766216943E+03  0.00000000000E+00 0. -1.
         21   -1    0    0  501  502  0.00000000000E+00 -0.00000000000E+00 -0.36518147080E+03  0.36518147080E+03  0.00000000000E+00 0. -1.
         23    2    1    2    0    0  0.10336660450E+02  0.82916876392E+01 -0.10729652231E+03  0.14184200815E+03  0.91820547498E+02 0.  0.
         24    2    1    2    0    0 -0.60529637155E+02  0.10315710542E+02 -0.21785313786E+03  0.24017512152E+03  0.80335847959E+02 0.  0.
        -13    1    4    4    0    0 -0.76041767724E+00 -0.24016227540E+02 -0.10680265621E+03  0.10947221014E+03  0.00000000000E+00 0.  1.
         14    1    4    4    0    0 -0.59769219478E+02  0.34331938083E+02 -0.11105048165E+03  0.13070291138E+03  0.00000000000E+00 0. -1.
        -13    1    3    3    0    0 -0.22430812932E+02  0.40145260659E+02 -0.42990678286E+02  0.62952217925E+02  0.00000000000E+00 0.  1.
         13    1    3    3    0    0  0.32767473383E+02 -0.31853573020E+02 -0.64305844023E+02  0.78889790223E+02  0.00000000000E+00 0. -1.
         21    1    1    2  503  502  0.35072912871E+02  0.27921241200E+01  0.72457970137E+02  0.80548510916E+02  0.00000000000E+00 0. -1.
          1    1    1    2  501    0  0.15120063834E+02 -0.21399522302E+02  0.15172388647E+02  0.30277999642E+02  0.00000000000E+00 0. -1.
<scales pt_clust_5="13000.00000" pt_clust_6="13000.00000" pt_clust_7="13000.00000" pt_clust_8="13000.00000" pt_clust_9="35.33608" pt_clust_10="26.20222"></scales>
<clustering>
<clus scale="   26.202">  2 10  1 -1</clus>
<clus scale="   35.336">  1  9  2 -1</clus>
<clus scale="   80.336">  5  6 -1 -1</clus>
<clus scale="   87.277">  2  5  1 -1</clus>
<clus scale="   91.821">  7  8 -1 -1</clus>
<clus scale="   26.202">  2  5  1 -1</clus>
</clustering>
</event>
<event>
10    4  0.2857708E-005  0.3863348E+03  0.7546771E-02  0.1048617E+00
         -1   -1    0    0    0  501 -0.00000000000E+00  0.00000000000E+00  0.47476979200E+03  0.47476979200E+03  0.00000000000E+00 0.  1.
         21   -1    0    0  501  502  0.00000000000E+00 -0.00000000000E+00 -0.29541749063E+03  0.29541749063E+03  0.00000000000E+00 0. -1.
         24    2    1    2    0    0 -0.69621985689E+02 -0.89538461312E+02 -0.12966987714E+02  0.14028544307E+03  0.81532237927E+02 0.  0.
         23    2    1    2    0    0 -0.19683821732E+03 -0.11265495320E+03  0.29778533257E+02  0.24641493654E+03  0.91635897053E+02 0.  0.
        -11    1    3    3    0    0 -0.17950294094E+01 -0.39641844530E+02  0.26063389125E+02  0.47476291146E+02  0.00000000000E+00 0.  1.
         12    1    3    3    0    0 -0.67826956279E+02 -0.49896616781E+02 -0.39030376839E+02  0.92809151922E+02  0.00000000000E+00 0. -1.
        -11    1    4    4    0    0 -0.55651619746E+02 -0.56628053657E+01  0.40318794018E+02  0.68954878697E+02  0.00000000000E+00 0.  1.
         11    1    4    4    0    0 -0.14118659757E+03 -0.10699214784E+03 -0.10540260761E+02  0.17746005784E+03  0.00000000000E+00 0. -1.
         21    1    1    2  503  502  0.86102010693E+01  0.26798801322E+02  0.38913164327E+02  0.48026510103E+02  0.00000000000E+00 0.  1.
         -2    1    1    2    0  503  0.25785000194E+03  0.17539461319E+03  0.12362759150E+03  0.33546039292E+03  0.00000000000E+00 0.  1.
<scales pt_clust_5="13000.00000" pt_clust_6="13000.00000" pt_clust_7="13000.00000" pt_clust_8="13000.00000" pt_clust_9="28.11843" pt_clust_10="347.33676"></scales>
<clustering>
<clus scale="   28.118">  9 10 -1 -1</clus>
<clus scale="   81.532">  5  6 -1 -1</clus>
<clus scale="   91.636">  7  8 -1 -1</clus>
<clus scale="  106.442">  5  7 -1 -1</clus>
<clus scale="  347.337">  2  9  1 -1</clus>
<clus scale="  347.337">  2  5  1 -1</clus>
</clustering>
</event>
<event>
10    4  0.2857708E-005  0.2813137E+03  0.7546771E-02  0.1135079E+00
         21   -1    0    0  503  502  0.00000000000E+00  0.00000000000E+00  0.15953855979E+03  0.15953855979E+03  0.00000000000E+00 0.  1.
          2   -1    0    0  502    0 -0.00000000000E+00 -0.00000000000E+00 -0.10933506220E+04  0.10933506220E+04  0.00000000000E+00 0. -1.
         24    2    1    2    0    0 -0.57490517079E+02 -0.63361973714E+02  0.28248884651E+02  0.10603575045E+03  0.55907795717E+02 0.  0.
         23    2    1    2    0    0 -0.54217204049E+02 -0.22892509667E+03 -0.21966035142E+03  0.33252535421E+03  0.83523865469E+02 0.  0.
        -11    1    3    3    0    0 -0.46631748382E+02 -0.35453719797E+02  0.42986919295E+02  0.72659214385E+02  0.00000000000E+00 0.  1.
         12    1    3    3    0    0 -0.10858768697E+02 -0.27908253916E+02 -0.14738034645E+02  0.33376536062E+02  0.00000000000E+00 0. -1.
        -13    1    4    4    0    0 -0.16079009933E+02 -0.13784897586E+03 -0.76074844041E+02  0.15826641021E+03  0.00000000000E+00 0.  1.
         13    1    4    4    0    0 -0.38138194117E+02 -0.91076120816E+02 -0.14358550738E+03  0.17425894400E+03  0.00000000000E+00 0. -1.
         21    1    1    2  503  501  0.33602181737E+02  0.64594849107E+02 -0.31975031632E+03  0.32793576495E+03  0.00000000000E+00 0.  1.
          1    1    1    2  501    0  0.78105539391E+02  0.22769222128E+03 -0.42265027913E+03  0.48639231220E+03  0.00000000000E+00 0. -1.
<scales pt_clust_5="13000.00000" pt_clust_6="13000.00000" pt_clust_7="13000.00000" pt_clust_8="13000.00000" pt_clust_9="65.21700" pt_clust_10="65.21700"></scales>
<clustering>
<clus scale="   55.908">  5  6 -1 -1</clus>
<clus scale="   65.217">  9 10 -1 -1</clus>
<clus scale="   83.524">  7  8 -1 -1</clus>
<clus scale="  102.204">  2  5  1 -1</clus>
<clus scale="  268.426">  2  7  1 -1</clus>
<clus scale="  281.314">  1  5  2 -1</clus>
</clustering>
</event>
<event>
10    4  0.2857708E-005  0.1301618E+03  0.7546771E-02  0.1228316E+00
         21   -1    0    0  503  502  0.00000000000E+00  0.00000000000E+00  0.35645782616E+03  0.35645782616E+03  0.00000000000E+00 0. -1.
         -3   -1    0    0    0  501 -0.00000000000E+00 -0.00000000000E+00 -0.15697100415E+03  0.15697100415E+03  0.00000000000E+00 0.  1.
         23    2    1    2    0    0  0.98298483783E+02 -0.11202691345E+02 -0.10187296809E+03  0.17012450892E+03  0.93681133114E+02 0.  0.
         24    2    1    2    0    0 -0.44042092633E+02 -0.27737337240E+00  0.17222135099E+03  0.19905069679E+03  0.89561170687E+02 0.  0.
        -11    1    4    4    0    0 -0.27773309180E+02  0.26194871592E+02  0.18876108578E+02  0.42589147392E+02  0.00000000000E+00 0.  1.
         12    1    4    4    0    0 -0.16268783453E+02 -0.26472244964E+02  0.15334524241E+03  0.15646154939E+03  0.00000000000E+00 0. -1.
        -13    1    3    3    0    0  0.10842157550E+03 -0.30559599826E+02 -0.74281602641E+02  0.13493288578E+03  0.00000000000E+00 0.  1.
         13    1    3    3    0    0 -0.10123091715E+02  0.19356908481E+02 -0.27591365450E+02  0.35191623140E+02  0.00000000000E+00 0. -1.
         21    1    1    2  503  501 -0.20290496970E+02 -0.35184345803E+01  0.18979341462E+02  0.28005339696E+02  0.00000000000E+00 0. -1.
         -4    1    1    2    0  502 -0.33965894181E+02  0.14998499297E+02  0.11015909765E+03  0.11624828491E+03  0.00000000000E+00 0.  1.
<scales pt_clust_5="13000.00000" pt_clust_6="13000.00000" pt_clust_7="13000.00000" pt_clust_8="13000.00000" pt_clust_9="20.59329" pt_clust_10="43.13236"></scales>
<clustering>
<clus scale="   20.593">  1  9  2 -1</clus>
<clus scale="   43.132">  1 10  2 -1</clus>
<clus scale="   89.561">  5  6 -1 -1</clus>
<clus scale="   93.681">  7  8 -1 -1</clus>
<clus scale="  127.229">  1  5  2 -1</clus>
<clus scale="   20.593">  1  5  2 -1</clus>
</clustering>
</event>
<event>
10    4  0.2857708E-005  0.2795308E+03  0.7546771E-02  0.1145824E+00
         -3   -1    0    0    0  501 -0.00000000000E+00  0.00000000000E+00  0.28773853729E+03  0.28773853729E+03  0.00000000000E+00 0.  1.
         21   -1    0    0  501  502  0.00000000000E+00 -0.00000000000E+00 -0.34892812956E+03  0.34892812956E+03  0.00000000000E+00 0.  1.
         24    2    1    2    0    0 -0.33606103079E+02 -0.19267275451E+02  0.69795990456E+01  0.80706451236E+02  0.70457209715E+02 0.  0.
         23    2    1    2    0    0  0.14205238293E+03 -0.22307941579E+03 -0.24589992168E+02  0.28076311224E+03  0.90994242869E+02 0.  0.
        -11    1    3    3    0    0 -0.47981390496E+02 -0.64577244993E+01  0.24865728989E+02  0.54426285174E+02  0.00000000000E+00 0.  1.
         12    1    3    3    0    0  0.14375287417E+02 -0.12809550952E+02 -0.17886129943E+02  0.26280166062E+02  0.00000000000E+00 0. -1.
        -13    1    4    4    0    0  0.10740462058E+03 -0.21612799910E+03 -0.35127444398E+02  0.24388727287E+03  0.00000000000E+00 0.  1.
         13    1    4    4    0    0  0.34647762351E+02 -0.69514166878E+01  0.10537452230E+02  0.36875839372E+02  0.00000000000E+00 0. -1.
         21    1    1    2  503  502 -0.15810419000E+02  0.45017690279E+02  0.14009211101E+02  0.49727455019E+02  0.00000000000E+00 0. -1.
         -4    1    1    2    0  503 -0.92635860849E+02  0.19732900096E+03 -0.57588410245E+02  0.22546964836E+03  0.00000000000E+00 0.  1.
<scales pt_clust_5="13000.00000" pt_clust_6="13000.00000" pt_clust_7="13000.00000" pt_clust_8="13000.00000" pt_clust_9="27.04517" pt_clust_10="270.55373"></scales>
<clustering>
<clus scale="   27.045">  9 10 -1 -1</clus>
<clus scale="   70.457">  5  6 -1 -1</clus>
<clus scale="   80.404">  1  5  2 -1</clus>
<clus scale="   90.994">  7  8 -1 -1</clus>
<clus scale="  270.554">  2  9  1 -1</clus>
<clus scale="  270.554">  2  5  1 -1</clus>
</clustering>
</event>
<event>
10    4  0.2857708E-005  0.2026453E+03  0.7546771E-02  0.1148591E+00
          2   -1    0    0  503    0 -0.00000000000E+00  0.00000000000E+00  0.14993599005E+04  0.14993599005E+04  0.00000000000E+00 0. -1.
         21   -1    0    0  501  502  0.00000000000E+00 -0.00000000000E+00 -0.39078928009E+03  0.39078928009E+03  0.00000000000E+00 0. -1.
         24    2    1    2    0    0  0.52712055506E+02  0.10864884515E+03  0.10878025959E+04  0.10974294825E+04  0.80335852516E+02 0.  0.
         23    2    1    2    0    0 -0.36255799559E+02 -0.28770969404E+03  0.45086415848E+02  0.30758151829E+03  0.92099155543E+02 0.  0.
        -11    1    3    3    0    0  0.51374140078E+01  0.86942507254E+02  0.52203110218E+03  0.52924650612E+03  0.00000000000E+00 0.  1.
         12    1    3    3    0    0  0.47574641498E+02  0.21706337894E+02  0.56577149368E+03  0.56818297640E+03  0.00000000000E+00 0. -1.
        -11    1    4    4    0    0  0.12102629499E+01 -0.24723895714E+03  0.23497650313E+02  0.24835600704E+03  0.00000000000E+00 0. -1.
         11    1    4    4    0    0 -0.37466062508E+02 -0.40470736908E+02  0.21588765535E+02  0.59225511253E+02  0.00000000000E+00 0.  1.
         21    1    1    2  503  502  0.66304078139E+02  0.30830148094E+02  0.19472835548E+03  0.20800447408E+03  0.00000000000E+00 0. -1.
          1    1    1    2  501    0 -0.82760334087E+02  0.14823070080E+03 -0.21904674678E+03  0.27713370570E+03  0.00000000000E+00 0. -1.
<scales pt_clust_5="13000.00000" pt_clust_6="13000.00000" pt_clust_7="13000.00000" pt_clust_8="13000.00000" pt_clust_9="73.12133" pt_clust_10="169.65623"></scales>
<clustering>
<clus scale="   73.121">  1  9  2 -1</clus>
<clus scale="   80.336">  5  6 -1 -1</clus>
<clus scale="   92.099">  7  8 -1 -1</clus>
<clus scale="  169.656">  2 10  1 -1</clus>
<clus scale="  197.577">  1  5  2 -1</clus>
<clus scale="  169.656">  2  5  1 -1</clus>
</clustering>
</event>
<event>
10    4  0.2857708E-005  0.2762207E+03  0.7546771E-02  0.1119040E+00
          2   -1    0    0  503    0 -0.00000000000E+00  0.00000000000E+00  0.33984319309E+03  0.33984319309E+03  0.00000000000E+00 0. -1.
         21   -1    0    0  501  502  0.00000000000E+00 -0.00000000000E+00 -0.58093398868E+03  0.58093398868E+03  0.00000000000E+00 0. -1.
         23    2    1    2    0    0 -0.77403611269E+02 -0.11035923863E+03 -0.12532646653E+03  0.20547731303E+03  0.91343978280E+02 0.  0.
         24    2    1    2    0    0 -0.18259826115E+03  0.22137206217E+03 -0.47547111723E+02  0.30310379251E+03  0.85225972090E+02 0.  0.
        -11    1    4    4    0    0 -0.66472290971E+01  0.31592450289E+02 -0.29413171754E+02  0.43673827890E+02  0.00000000000E+00 0.  1.
         12    1    4    4    0    0 -0.17595103205E+03  0.18977961188E+03 -0.18133939969E+02  0.25942996462E+03  0.00000000000E+00 0. -1.
        -13    1    3    3    0    0 -0.20925566478E+02  0.11322692759E+02 -0.39841952842E+02  0.46405429747E+02  0.00000000000E+00 0.  1.
         13    1    3    3    0    0 -0.56478044791E+02 -0.12168193139E+03 -0.85484513686E+02  0.15907188328E+03  0.00000000000E+00 0. -1.
         21    1    1    2  503  502  0.27700014878E+02  0.21094715298E+01  0.10006265976E+03  0.10384737153E+03  0.00000000000E+00 0.  1.
          1    1    1    2  501    0  0.23230185754E+03 -0.11312229507E+03 -0.16827987710E+03  0.30834870470E+03  0.00000000000E+00 0. -1.
<scales pt_clust_5="13000.00000" pt_clust_6="13000.00000" pt_clust_7="13000.00000" pt_clust_8="13000.00000" pt_clust_9="27.78022" pt_clust_10="262.74399"></scales>
<clustering>
<clus scale="   27.780">  1  9  2 -1</clus>
<clus scale="   85.226">  5  6 -1 -1</clus>
<clus scale="   91.344">  7  8 -1 -1</clus>
<clus scale="  160.422">  1  7  2 -1</clus>
<clus scale="  262.744">  2 10  1 -1</clus>
<clus scale="  262.744">  2  5  1 -1</clus>
</clustering>
</event>
<event>
10    4  0.2857708E-005  0.2526274E+03  0.7546771E-02  0.1128169E+00
         21   -1    0    0  501  502  0.00000000000E+00  0.00000000000E+00  0.10023687103E+03  0.10023687103E+03  0.00000000000E+00 0. -1.
          2   -1    0    0  503    0 -0.00000000000E+00 -0.00000000000E+00 -0.18466521770E+04  0.18466521770E+04  0.00000000000E+00 0. -1.
         24    2    1    2    0    0 -0.50627449723E+02  0.16694278596E+03 -0.44195918041E+03  0.48222184538E+03  0.82322284778E+02 0.  0.
         23    2    1    2    0    0  0.15855779635E+03  0.16063218251E+03 -0.28608917098E+03  0.37559291800E+03  0.90993150656E+02 0.  0.
        -13    1    3    3    0    0 -0.38528411861E+02  0.17125852510E+03 -0.43085565848E+03  0.46524243077E+03  0.00000000000E+00 0.  1.
         14    1    3    3    0    0 -0.12099037862E+02 -0.43157391461E+01 -0.11103521925E+02  0.16979414616E+02  0.00000000000E+00 0. -1.
        -11    1    4    4    0    0  0.12228889346E+03  0.61187505667E+02 -0.14640300298E+03  0.20033053586E+03  0.00000000000E+00 0.  1.
         11    1    4    4    0    0  0.36268902888E+02  0.99444676839E+02 -0.13968616799E+03  0.17526238215E+03  0.00000000000E+00 0. -1.
         21    1    1    2  503  502 -0.69822131828E+00 -0.88729913542E+02 -0.50568314544E+03  0.51340912404E+03  0.00000000000E+00 0. -1.
          1    1    1    2  501    0 -0.10723212531E+03 -0.23884505492E+03 -0.51268380913E+03  0.57566516057E+03  0.00000000000E+00 0. -1.
<scales pt_clust_5="13000.00000" pt_clust_6="13000.00000" pt_clust_7="13000.00000" pt_clust_8="13000.00000" pt_clust_9="88.73266" pt_clust_10="235.67119"></scales>
<clustering>
<clus scale="   82.322">  5  6 -1 -1</clus>
<clus scale="   88.733">  2  9  1 -1</clus>
<clus scale="   90.993">  7  8 -1 -1</clus>
<clus scale="  167.142">  2  5  1 -1</clus>
<clus scale="  235.671">  1 10  2 -1</clus>
<clus scale="  235.671">  1  5  2 -1</clus>
</clustering>
</event>
<event>
10    4  0.2857708E-005  0.9305529E+02  0.7546771E-02  0.1301847E+00
         21   -1    0    0  501  502  0.00000000000E+00  0.00000000000E+00  0.72826824554E+02  0.72826824554E+02  0.00000000000E+00 0.  1.
          2   -1    0    0  503    0 -0.00000000000E+00 -0.00000000000E+00 -0.78690693536E+03  0.78690693536E+03  0.00000000000E+00 0. -1.
         24    2    1    2    0    0 -0.72076698220E+01 -0.27082728390E+02 -0.29856124073E+03  0.31039093750E+03  0.80114261730E+02 0.  0.
         23    2    1    2    0    0 -0.18339618243E+02 -0.23813814256E+02  0.49715970995E+01  0.95533692435E+02  0.90545735768E+02 0.  0.
        -11    1    3    3    0    0  0.33954015655E+02 -0.14519380340E+02 -0.87272084460E+02  0.94763412299E+02  0.00000000000E+00 0.  1.
         12    1    3    3    0    0 -0.41161685477E+02 -0.12563348050E+02 -0.21128915627E+03  0.21562752520E+03  0.00000000000E+00 0. -1.
        -13    1    4    4    0    0  0.11747013054E+02 -0.19505219818E+02  0.41911546612E+02  0.47697208044E+02  0.00000000000E+00 0.  1.
         13    1    4    4    0    0 -0.30086631297E+02 -0.43085944378E+01 -0.36939949512E+02  0.47836484390E+02  0.00000000000E+00 0. -1.
         21    1    1    2  503  502 -0.20215649240E+02  0.50454800533E+02 -0.39998328214E+03  0.40365949185E+03  0.00000000000E+00 0. -1.
          1    1    1    2  501    0  0.45762937305E+02  0.44174211281E+00 -0.20507185041E+02  0.50149638136E+02  0.00000000000E+00 0. -1.
<scales pt_clust_5="13000.00000" pt_clust_6="13000.00000" pt_clust_7="13000.00000" pt_clust_8="13000.00000" pt_clust_9="53.84462" pt_clust_10="45.76507"></scales>
<clustering>
<clus scale="   45.765">  1 10  2 -1</clus>
<clus scale="   53.845">  2  9  1 -1</clus>
<clus scale="   80.114">  5  6 -1 -1</clus>
<clus scale="   82.940">  2  5  1 -1</clus>
<clus scale="   90.546">  7  8 -1 -1</clus>
<clus scale="   45.765">  1  5  2 -1</clus>
</clustering>
</event>
<event>
10    4  0.2857708E-005  0.1247494E+03  0.7546771E-02  0.1241196E+00
         21   -1    0    0  501  502  0.00000000000E+00  0.00000000000E+00  0.12648681639E+03  0.12648681639E+03  0.00000000000E+00 0. -1.
          2   -1    0    0  503    0 -0.00000000000E+00 -0.00000000000E+00 -0.38665983088E+03  0.38665983088E+03  0.00000000000E+00 0. -1.
         24    2    1    2    0    0 -0.67158087085E+01 -0.70042042776E+02 -0.17318396605E+03  0.20551500236E+03  0.85397542453E+02 0.  0.
         23    2    1    2    0    0  0.42869924368E+02 -0.30962033849E+02  0.33900015962E+02  0.11127088997E+03  0.91845097406E+02 0.  0.
        -13    1    3    3    0    0 -0.38797154152E+02 -0.21425903725E+02 -0.11473767027E+03  0.12300008739E+03  0.00000000000E+00 0.  1.
         14    1    3    3    0    0  0.32081345443E+02 -0.48616139051E+02 -0.58446295783E+02  0.82514914970E+02  0.00000000000E+00 0. -1.
        -13    1    4    4    0    0 -0.16006947262E+01 -0.54064776227E+02  0.27719125158E+02  0.60777562897E+02  0.00000000000E+00 0.  1.
         13    1    4    4    0    0  0.44470619094E+02  0.23102742378E+02  0.61808908034E+01  0.50493327075E+02  0.00000000000E+00 0. -1.
         21    1    1    2  503  502 -0.65056308419E+02  0.10698532737E+03 -0.96977679338E+02  0.15837567309E+03  0.00000000000E+00 0. -1.
          1    1    1    2  501    0  0.28902192760E+02 -0.59812507482E+01 -0.23911385065E+02  0.37985081842E+02  0.00000000000E+00 0. -1.
<scales pt_clust_5="13000.00000" pt_clust_6="13000.00000" pt_clust_7="13000.00000" pt_clust_8="13000.00000" pt_clust_9="84.42088" pt_clust_10="29.51462"></scales>
<clustering>
<clus scale="   29.515">  1 10  2 -1</clus>
<clus scale="   85.398">  5  6 -1 -1</clus>
<clus scale="   91.845">  7  8 -1 -1</clus>
<clus scale="  110.998">  2  5  1 -1</clus>
<clus scale="   84.421">  2  9  1 -1</clus>
<clus scale="   29.515">  1  5  2 -1</clus>
</clustering>
</event>
<event>
10    4  0.2857708E-005  0.2817558E+03  0.7546771E-02  0.1130684E+00
         21   -1    0    0  501  502  0.00000000000E+00  0.00000000000E+00  0.11502365272E+03  0.11502365272E+03  0.00000000000E+00 0. -1.
          4   -1    0    0  503    0 -0.00000000000E+00 -0.00000000000E+00 -0.11932593267E+04  0.11932593267E+04  0.00000000000E+00 0. -1.
         23    2    1    2    0    0 -0.51543214793E+01  0.71784931894E+02 -0.16217730193E+03  0.19950603897E+03  0.91222468968E+02 0.  0.
         24    2    1    2    0    0 -0.90772566710E+01 -0.29462336789E+03 -0.56625587048E+03  0.64494120585E+03  0.91750327764E+02 0.  0.
        -13    1    4    4    0    0  0.37825079535E+02 -0.75553756627E+02 -0.14526794773E+03  0.16805321604E+03  0.00000000000E+00 0.  1.
         14    1    4    4    0    0 -0.46902336206E+02 -0.21906961127E+03 -0.42098792275E+03  0.47688798981E+03  0.00000000000E+00 0. -1.
        -13    1    3    3    0    0  0.20540838782E+02  0.50903679458E+01  0.11822886692E+01  0.21195181296E+02  0.00000000000E+00 0.  1.
         13    1    3    3    0    0 -0.25695160261E+02  0.66694563948E+02 -0.16335959060E+03  0.17831085767E+03  0.00000000000E+00 0. -1.
         21    1    1    2  503  502  0.38703351392E+02 -0.28462849349E+02 -0.87080499745E+02  0.99453992568E+02  0.00000000000E+00 0.  1.
          3    1    1    2  501    0 -0.24471773242E+02  0.25130128535E+03 -0.26272200186E+03  0.36438174209E+03  0.00000000000E+00 0. -1.
<scales pt_clust_5="13000.00000" pt_clust_6="13000.00000" pt_clust_7="13000.00000" pt_clust_8="13000.00000" pt_clust_9="48.04251" pt_clust_10="266.39856"></scales>
<clustering>
<clus scale="   48.043">  2  9  1 -1</clus>
<clus scale="   91.222">  7  8 -1 -1</clus>
<clus scale="   91.750">  5  6 -1 -1</clus>
<clus scale="  113.253">  2  7  1 -1</clus>
<clus scale="  266.399">  1 10  2 -1</clus>
<clus scale="  266.399">  1  5  2 -1</clus>
</clustering>
</event>
<event>
10    4  0.2857708E-005  0.9607689E+02  0.7546771E-02  0.1290275E+00
         21   -1    0    0  503  502  0.00000000000E+00  0.00000000000E+00  0.45054934107E+03  0.45054934107E+03  0.00000000000E+00 0.  1.
         -1   -1    0    0    0  501 -0.00000000000E+00 -0.00000000000E+00 -0.16135935679E+03  0.16135935679E+03  0.00000000000E+00 0.  1.
         24    2    1    2    0    0  0.11102784532E+02 -0.29922754738E+02 -0.10111970106E+03  0.13858635278E+03  0.89231945842E+02 0.  0.
         23    2    1    2    0    0  0.19775025384E+01  0.43264986968E+02  0.22153980584E+03  0.24377171601E+03  0.92027139160E+02 0.  0.
        -11    1    3    3    0    0  0.12399262787E+01 -0.20228558338E+02 -0.11629914051E+03  0.11805177708E+03  0.00000000000E+00 0.  1.
         12    1    3    3    0    0  0.98628582536E+01 -0.96941963992E+01  0.15179439453E+02  0.20534575692E+02  0.00000000000E+00 0. -1.
        -11    1    4    4    0    0  0.36680234163E+02  0.49196014685E+02  0.10085688302E+03  0.11805845286E+03  0.00000000000E+00 0. -1.
         11    1    4    4    0    0 -0.34702731624E+02 -0.59310277167E+01  0.12068292282E+03  0.12571326315E+03  0.00000000000E+00 0.  1.
         21    1    1    2  503  501 -0.26730038015E+02  0.77780325632E+01 -0.23017276066E+02  0.36121845472E+02  0.00000000000E+00 0. -1.
         -2    1    1    2    0  502  0.13649750944E+02 -0.21120264794E+02  0.19178715556E+03  0.19342878360E+03  0.00000000000E+00 0.  1.
<scales pt_clust_5="13000.00000" pt_clust_6="13000.00000" pt_clust_7="13000.00000" pt_clust_8="13000.00000" pt_clust_9="27.35907" pt_clust_10="25.14719"></scales>
<clustering>
<clus scale="   25.147">  1 10  2 -1</clus>
<clus scale="   27.359">  2  9  1 -1</clus>
<clus scale="   89.232">  5  6 -1 -1</clus>
<clus scale="   92.027">  7  8 -1 -1</clus>
<clus scale="   93.403">  2  5  1 -1</clus>
<clus scale="   25.147">  1  5  2 -1</clus>
</clustering>
</event>
<event>
10    4  0.2857708E-005  0.1553815E+03  0.7546771E-02  0.1196124E+00
         21   -1    0    0  501  502  0.00000000000E+00  0.00000000000E+00  0.23011625087E+03  0.23011625087E+03  0.00000000000E+00 0.  1.
          2   -1    0    0  503    0 -0.00000000000E+00 -0.00000000000E+00 -0.49346348951E+03  0.49346348951E+03  0.00000000000E+00 0. -1.
         23    2    1    2    0    0  0.37665125802E+02  0.77615111815E+02 -0.27154451488E+03  0.29935718415E+03  0.91845156962E+02 0.  0.
         24    2    1    2    0    0 -0.93330594261E+01 -0.11491415590E+03  0.11521358655E+03  0.18129684476E+03  0.79385176018E+02 0.  0.
        -11    1    4    4    0    0  0.21784322802E+02 -0.75403134834E+02  0.10308192795E+03  0.12956107954E+03  0.00000000000E+00 0.  1.
         12    1    4    4    0    0 -0.31117382228E+02 -0.39511021069E+02  0.12131658598E+02  0.51735765221E+02  0.00000000000E+00 0. -1.
        -13    1    3    3    0    0  0.16394920820E+02 -0.19887339846E+02 -0.46184820347E+02  0.52889860515E+02  0.00000000000E+00 0.  1.
         13    1    3    3    0    0  0.21270204982E+02  0.97502451661E+02 -0.22535969454E+03  0.24646732364E+03  0.00000000000E+00 0. -1.
         21    1    1    2  503  502  0.34725504426E+02  0.39700748214E+02 -0.15495016082E+03  0.16368128300E+03  0.00000000000E+00 0. -1.
          1    1    1    2  501    0 -0.63057570802E+02 -0.24017041266E+01  0.47933850514E+02  0.79244428468E+02  0.00000000000E+00 0. -1.
<scales pt_clust_5="13000.00000" pt_clust_6="13000.00000" pt_clust_7="13000.00000" pt_clust_8="13000.00000" pt_clust_9="52.74476" pt_clust_10="61.43302"></scales>
<clustering>
<clus scale="   52.745">  2  9  1 -1</clus>
<clus scale="   61.433">  1 10  2 -1</clus>
<clus scale="   79.385">  5  6 -1 -1</clus>
<clus scale="   91.845">  7  8 -1 -1</clus>
<clus scale="  148.357">  1  5  2 -1</clus>
<clus scale="   61.433">  1  5  2 -1</clus>
</clustering>
</event>
<event>
10    4  0.2857708E-005  0.1698686E+03  0.7546771E-02  0.1179020E+00
         21   -1    0    0  501  502  0.00000000000E+00  0.00000000000E+00  0.25589076588E+03  0.25589076588E+03  0.00000000000E+00 0. -1.
          2   -1    0    0  503    0 -0.00000000000E+00 -0.00000000000E+00 -0.51694327412E+03  0.51694327412E+03  0.00000000000E+00 0. -1.
         23    2    1    2    0    0 -0.54931294028E+02 -0.92194574419E+02 -0.13520348207E+03  0.19578155297E+03  0.92375041564E+02 0.  0.
         24    2    1    2    0    0 -0.11791974880E+03  0.11384487883E+03  0.10312622082E+03  0.20600970224E+03  0.70279843505E+02 0.  0.
        -13    1    4    4    0    0 -0.32028568362E+02  0.76492437722E+02  0.34118685481E+02  0.89671661738E+02  0.00000000000E+00 0.  1.
         14    1    4    4    0    0 -0.85891180434E+02  0.37352441103E+02  0.69007535343E+02  0.11633804050E+03  0.00000000000E+00 0. -1.
        -11    1    3    3    0    0 -0.20802348234E+02  0.16379152959E+02 -0.36755818622E+02  0.45299056792E+02  0.00000000000E+00 0.  1.
         11    1    3    3    0    0 -0.34128945794E+02 -0.10857372738E+03 -0.98447663451E+02  0.15048249618E+03  0.00000000000E+00 0. -1.
         21    1    1    2  503  502 -0.17334837779E+02 -0.68474815026E+02 -0.13811457332E+03  0.15512876025E+03  0.00000000000E+00 0. -1.
          1    1    1    2  501    0  0.19018588060E+03  0.46824510620E+02 -0.90860673671E+02  0.21591402455E+03  0.00000000000E+00 0. -1.
<scales pt_clust_5="13000.00000" pt_clust_6="13000.00000" pt_clust_7="13000.00000" pt_clust_8="13000.00000" pt_clust_9="70.63496" pt_clust_10="154.64834"></scales>
<clustering>
<clus scale="   70.280">  5  6 -1 -1</clus>
<clus scale="   70.635">  2  9  1 -1</clus>
<clus scale="   92.375">  7  8 -1 -1</clus>
<clus scale="  165.953">  2  7  1 -1</clus>
<clus scale="  154.648">  1 10  2 -1</clus>
<clus scale="  154.648">  1  5  2 -1</clus>
</clustering>
</event>
<event>
10    4  0.2857708E-005  0.9263458E+02  0.7546771E-02  0.1299387E+00
         -3   -1    0    0    0  501 -0.00000000000E+00  0.00000000000E+00  0.26998780882E+03  0.26998780882E+03  0.00000000000E+00 0.  1.
         21   -1    0    0  503  502  0.00000000000E+00 -0.00000000000E+00 -0.10331946271E+03  0.10331946271E+03  0.00000000000E+00 0.  1.
         23    2    1    2    0    0 -0.25500710705E+02  0.11041290406E+02  0.14768378055E+03  0.17543093445E+03  0.90516945286E+02 0.  0.
         24    2    1    2    0    0 -0.12561936712E+02  0.18936999105E+02 -0.35082482835E+02  0.95384788767E+02  0.85738352779E+02 0.  0.
        -13    1    4    4    0    0 -0.41767589892E+02  0.28099123623E+02 -0.40110246196E+02  0.64365551063E+02  0.00000000000E+00 0.  1.
         14    1    4    4    0    0  0.29205653180E+02 -0.91621245183E+01  0.50277633613E+01  0.31019237704E+02  0.00000000000E+00 0. -1.
        -13    1    3    3    0    0  0.29375803854E+02  0.24420686927E+02  0.60072909938E+02  0.71190324556E+02  0.00000000000E+00 0. -1.
         13    1    3    3    0    0 -0.54876514559E+02 -0.13379396521E+02  0.87610870614E+02  0.10424060989E+03  0.00000000000E+00 0.  1.
         21    1    1    2  503  501 -0.16736033726E+01  0.21632261821E+02  0.10300718213E+02  0.24017920298E+02  0.00000000000E+00 0.  1.
         -4    1    1    2    0  502  0.39736250790E+02 -0.51610551332E+02  0.43766330180E+02  0.78473628010E+02  0.00000000000E+00 0.  1.
<scales pt_clust_5="13000.00000" pt_clust_6="13000.00000" pt_clust_7="13000.00000" pt_clust_8="13000.00000" pt_clust_9="21.69691" pt_clust_10="61.90495"></scales>
<clustering>
<clus scale="   21.697">  2  9  1 -1</clus>
<clus scale="   61.905">  2 10  1 -1</clus>
<clus scale="   85.738">  5  6 -1 -1</clus>
<clus scale="   87.971">  2  5  1 -1</clus>
<clus scale="   90.517">  7  8 -1 -1</clus>
<clus scale="   21.697">  2  5  1 -1</clus>
</clustering>
</event>
<event>
10    4  0.2857708E-005  0.1134474E+03  0.7546771E-02  0.1254430E+00
         -1   -1    0    0    0  501 -0.00000000000E+00  0.00000000000E+00  0.70491303755E+02  0.70491303755E+02  0.00000000000E+00 0.  1.
         21   -1    0    0  503  502  0.00000000000E+00 -0.00000000000E+00 -0.37958443327E+03  0.37958443327E+03  0.00000000000E+00 0.  1.
         24    2    1    2    0    0  0.41959387528E+01 -0.68730380295E+02 -0.83588708661E+02  0.13415357283E+03  0.79174729620E+02 0.  0.
         23    2    1    2    0    0  0.57209557766E+02  0.88042203695E+02 -0.17484397311E+03  0.21864403360E+03  0.78806315502E+02 0.  0.
        -11    1    3    3    0    0 -0.22025352008E+02 -0.55328792296E+02 -0.86001737965E+02  0.10460731485E+03  0.00000000000E+00 0.  1.
         12    1    3    3    0    0  0.26221290761E+02 -0.13401587999E+02  0.24130293040E+01  0.29546257978E+02  0.00000000000E+00 0. -1.
        -11    1    4    4    0    0  0.30677022573E+02  0.33678258717E+02 -0.14340937794E+03  0.15047110854E+03  0.00000000000E+00 0.  1.
         11    1    4    4    0    0  0.26532535192E+02  0.54363944978E+02 -0.31434595172E+02  0.68172925058E+02  0.00000000000E+00 0. -1.
         21    1    1    2  503  501 -0.54806744964E+02  0.22310875616E+01 -0.50777446540E+02  0.74746947245E+02  0.00000000000E+00 0.  1.
         -2    1    1    2    0  502 -0.65987515547E+01 -0.21542910962E+02  0.11699878974E+00  0.22531183358E+02  0.00000000000E+00 0.  1.
<scales pt_clust_5="13000.00000" pt_clust_6="13000.00000" pt_clust_7="13000.00000" pt_clust_8="13000.00000" pt_clust_9="55.94952" pt_clust_10="22.53089"></scales>
<clustering>
<clus scale="   22.531">  2 10  1 -1</clus>
<clus scale="   55.950">  1  9  2 -1</clus>
<clus scale="   78.806">  7  8 -1 -1</clus>
<clus scale="   79.175">  5  6 -1 -1</clus>
<clus scale="  113.191">  2  7  1 -1</clus>
<clus scale="   22.531">  2  5  1 -1</clus>
</clustering>
</event>
<event>
10    4  0.2857708E-005  0.2319783E+03  0.7546771E-02  0.1170224E+00
         21   -1    0    0  501  502  0.00000000000E+00  0.00000000000E+00  0.13128716062E+04  0.13128716062E+04  0.00000000000E+00 0. -1.
          2   -1    0    0  503    0 -0.00000000000E+00 -0.00000000000E+00 -0.16723243693E+03  0.16723243693E+03  0.00000000000E+00 0. -1.
         24    2    1    2    0    0 -0.21678693432E+02  0.18377908755E+02  0.19739258871E+02  0.86029289480E+02  0.78763487915E+02 0.  0.
         23    2    1    2    0    0  0.17825921700E+03 -0.77140397187E+02  0.41455742194E+03  0.46680368779E+03  0.91218624852E+02 0.  0.
        -13    1    3    3    0    0 -0.31018467477E+02  0.44759933241E+02  0.20078185386E+02  0.58040765646E+02  0.00000000000E+00 0.  1.
         14    1    3    3    0    0  0.93397740453E+01 -0.26382024486E+02 -0.33892651411E+00  0.27988523834E+02  0.00000000000E+00 0. -1.
        -13    1    4    4    0    0 -0.44622236455E+01 -0.23438508277E+02  0.54065639633E+02  0.59096264679E+02  0.00000000000E+00 0.  1.
         13    1    4    4    0    0  0.18272144065E+03 -0.53701888910E+02  0.36049178231E+03  0.40770742311E+03  0.00000000000E+00 0. -1.
         21    1    1    2  503  502  0.34135410703E+02 -0.62072919126E+02 -0.78532742528E+02  0.10576230520E+03  0.00000000000E+00 0. -1.
          1    1    1    2  501    0 -0.19071593427E+03  0.12083540756E+03  0.78987523097E+03  0.82150876064E+03  0.00000000000E+00 0. -1.
<scales pt_clust_5="13000.00000" pt_clust_6="13000.00000" pt_clust_7="13000.00000" pt_clust_8="13000.00000" pt_clust_9="70.83977" pt_clust_10="213.29106"></scales>
<clustering>
<clus scale="   70.840">  2  9  1 -1</clus>
<clus scale="   78.763">  5  6 -1 -1</clus>
<clus scale="   79.554">  2  5  1 -1</clus>
<clus scale="   91.219">  7  8 -1 -1</clus>
<clus scale="  213.291">  1 10  2 -1</clus>
<clus scale="  213.291">  1  5  2 -1</clus>
</clustering>
</event>
<event>
10    4  0.2857708E-005  0.1565480E+03  0.7546771E-02  0.1195539E+00
         -3   -1    0    0    0  501 -0.00000000000E+00  0.00000000000E+00  0.11366727797E+04  0.11366727797E+04  0.00000000000E+00 0.  1.
         21   -1    0    0  503  502  0.00000000000E+00 -0.00000000000E+00 -0.35337861754E+02  0.35337861754E+02  0.00000000000E+00 0. -1.
         23    2    1    2    0    0 -0.36204700128E+02  0.11703113826E+03  0.72747657751E+03  0.74417529678E+03  0.97814282598E+02 0.  0.
         24    2    1    2    0    0  0.18109879091E+02 -0.12125704994E+03  0.28826921399E+03  0.32369820297E+03  0.81548433387E+02 0.  0.
        -11    1    4    4    0    0  0.11579006809E+02 -0.68750390841E+02  0.24684063973E+03  0.25649754592E+03  0.00000000000E+00 0.  1.
         12    1    4    4    0    0  0.65308722818E+01 -0.52506659101E+02  0.41428574265E+02  0.67200657053E+02  0.00000000000E+00 0. -1.
        -13    1    3    3    0    0 -0.17691969863E+02 -0.13000304340E+02  0.59802857426E+02  0.63705537176E+02  0.00000000000E+00 0. -1.
         13    1    3    3    0    0 -0.18512730265E+02  0.13003144260E+03  0.66767372008E+03  0.68046975961E+03  0.00000000000E+00 0.  1.
         21    1    1    2  503  501  0.11487918427E+02 -0.24251254519E+02  0.58151489185E+02  0.64044447925E+02  0.00000000000E+00 0. -1.
         -4    1    1    2    0  502  0.66069026107E+01  0.28477166202E+02  0.27437637291E+02  0.40092693812E+02  0.00000000000E+00 0.  1.
<scales pt_clust_5="13000.00000" pt_clust_6="13000.00000" pt_clust_7="13000.00000" pt_clust_8="13000.00000" pt_clust_9="26.83460" pt_clust_10="25.33610"></scales>
<clustering>
<clus scale="   26.835">  2  9  1 -1</clus>
<clus scale="   25.336">  2 10  1 -1</clus>
<clus scale="   81.548">  5  6 -1 -1</clus>
<clus scale="   97.814">  7  8 -1 -1</clus>
<clus scale="  146.935">  2  5  1 -1</clus>
<clus scale="   26.835">  2  5  1 -1</clus>
</clustering>
</event>
<event>
10    4  0.2857708E-005  0.1167541E+03  0.7546771E-02  0.1253503E+00
         -1   -1    0    0    0  501 -0.00000000000E+00  0.00000000000E+00  0.44869959576E+03  0.44869959576E+03  0.00000000000E+00 0.  1.
         21   -1    0    0  503  502  0.00000000000E+00 -0.00000000000E+00 -0.72444497155E+02  0.72444497155E+02  0.00000000000E+00 0.  1.
         23    2    1    2    0    0  0.28452682280E+02 -0.59307448037E+02  0.11543307686E+03  0.16243973706E+03  0.93460924570E+02 0.  0.
         24    2    1    2    0    0 -0.83660776321E+02  0.32717868810E+02  0.56819796799E+02  0.13262334440E+03  0.79315053657E+02 0.  0.
        -13    1    4    4    0    0 -0.23052682519E+02  0.36325368901E+02 -0.80535481775E+01  0.43770060948E+02  0.00000000000E+00 0.  1.
         14    1    4    4    0    0 -0.60608093802E+02 -0.36075000914E+01  0.64873344977E+02  0.88853283449E+02  0.00000000000E+00 0. -1.
        -11    1    3    3    0    0 -0.33253250616E+02 -0.16452657489E+02  0.24381726329E+02  0.44395238413E+02  0.00000000000E+00 0.  1.
         11    1    3    3    0    0  0.61705932896E+02 -0.42854790549E+02  0.91051350532E+02  0.11804449865E+03  0.00000000000E+00 0. -1.
         21    1    1    2  503  501  0.27526708946E+02  0.32869065008E+02  0.18933956437E+03  0.19413285599E+03  0.00000000000E+00 0.  1.
         -2    1    1    2    0  502  0.27681385095E+02 -0.62794857809E+01  0.14662660579E+02  0.31948155466E+02  0.00000000000E+00 0.  1.
<scales pt_clust_5="13000.00000" pt_clust_6="13000.00000" pt_clust_7="13000.00000" pt_clust_8="13000.00000" pt_clust_9="43.37017" pt_clust_10="28.38470"></scales>
<clustering>
<clus scale="   28.385">  2 10  1 -1</clus>
<clus scale="   43.370">  1  9  2 -1</clus>
<clus scale="   79.315">  5  6 -1 -1</clus>
<clus scale="   93.461">  7  8 -1 -1</clus>
<clus scale="  105.771">  2  5  1 -1</clus>
<clus scale="   28.385">  2  5  1 -1</clus>
</clustering>
</event>
<event>
10    4  0.2857708E-005  0.1887545E+03  0.7546771E-02  0.1180162E+00
         -1   -1    0    0    0  501 -0.00000000000E+00  0.00000000000E+00  0.12855011955E+04  0.12855011955E+04  0.00000000000E+00 0.  1.
         21   -1    0    0  503  502  0.00000000000E+00 -0.00000000000E+00 -0.85690628935E+02  0.85690628935E+02  0.00000000000E+00 0.  1.
         24    2    1    2    0    0  0.89508394595E+02 -0.10442162812E+03  0.21674541182E+03  0.26881594889E+03  0.79798569615E+02 0.  0.
         23    2    1    2    0    0 -0.49162217949E+02 -0.83958766140E+02  0.16434178999E+03  0.21348601060E+03  0.95404689074E+02 0.  0.
        -11    1    3    3    0    0 -0.61970408636E+01 -0.31039296315E+02  0.82453150274E+02  0.88319664975E+02  0.00000000000E+00 0.  1.
         12    1    3    3    0    0  0.95705435458E+02 -0.73382331807E+02  0.13429226155E+03  0.18049628392E+03  0.00000000000E+00 0. -1.
        -11    1    4    4    0    0  0.18156293033E+01 -0.54598029619E+02  0.20971075608E+02  0.58515189141E+02  0.00000000000E+00 0.  1.
         11    1    4    4    0    0 -0.50977847252E+02 -0.29360736521E+02  0.14337071439E+03  0.15497082146E+03  0.00000000000E+00 0. -1.
         21    1    1    2  503  501 -0.11583405773E+03  0.14471079206E+03  0.76347197680E+03  0.78565145048E+03  0.00000000000E+00 0.  1.
         -2    1    1    2    0  502  0.75487881088E+02  0.43669602202E+02  0.55251387910E+02  0.10323841443E+03  0.00000000000E+00 0.  1.
<scales pt_clust_5="13000.00000" pt_clust_6="13000.00000" pt_clust_7="13000.00000" pt_clust_8="13000.00000" pt_clust_9="171.05689" pt_clust_10="87.20926"></scales>
<clustering>
<clus scale="   79.799">  5  6 -1 -1</clus>
<clus scale="   87.209">  2 10  1 -1</clus>
<clus scale="   95.405">  7  8 -1 -1</clus>
<clus scale="  117.889">  2  7  1 -1</clus>
<clus scale="  171.057">  1  9  2 -1</clus>
<clus scale="   87.209">  2  5  1 -1</clus>
</clustering>
</event>
<event>
10    4  0.2857708E-005  0.1880043E+03  0.7546771E-02  0.1182763E+00
          2   -1    0    0  503    0 -0.00000000000E+00  0.00000000000E+00  0.63753151860E+03  0.63753151860E+03  0.00000000000E+00 0. -1.
         21   -1    0    0  501  502  0.00000000000E+00 -0.00000000000E+00 -0.12625693550E+03  0.12625693550E+03  0.00000000000E+00 0.  1.
         24    2    1    2    0    0  0.54054650410E+02 -0.80554119686E+02  0.10523489709E+03  0.16415907749E+03  0.80392460650E+02 0.  0.
         23    2    1    2    0    0 -0.96761269154E+02  0.14718967017E+03  0.10549358876E+03  0.22446868831E+03  0.90717983612E+02 0.  0.
        -11    1    3    3    0    0 -0.14128083641E+02 -0.48283473155E+02  0.37086839506E+02  0.62500641531E+02  0.00000000000E+00 0.  1.
         12    1    3    3    0    0  0.68182734051E+02 -0.32270646531E+02  0.68148057580E+02  0.10165843596E+03  0.00000000000E+00 0. -1.
        -11    1    4    4    0    0 -0.10002339000E+03  0.10663095349E+03  0.11078779702E+03  0.18343602361E+03  0.00000000000E+00 0. -1.
         11    1    4    4    0    0  0.32621208502E+01  0.40558716680E+02 -0.52942082642E+01  0.41032664699E+02  0.00000000000E+00 0.  1.
         21    1    1    2  503  502 -0.56139643144E+02  0.46979109115E+02  0.11293722270E+03  0.13458644990E+03  0.00000000000E+00 0. -1.
          1    1    1    2  501    0  0.98846261887E+02 -0.11361465960E+03  0.18760887456E+03  0.24057423839E+03  0.00000000000E+00 0. -1.
<scales pt_clust_5="13000.00000" pt_clust_6="13000.00000" pt_clust_7="13000.00000" pt_clust_8="13000.00000" pt_clust_9="73.20312" pt_clust_10="164.66900"></scales>
<clustering>
<clus scale="   73.203">  1  9  2 -1</clus>
<clus scale="   80.392">  5  6 -1 -1</clus>
<clus scale="   90.718">  7  8 -1 -1</clus>
<clus scale="  112.546">  1  5  2 -1</clus>
<clus scale="  164.669">  2 10  1 -1</clus>
<clus scale="  164.669">  2  5  1 -1</clus>
</clustering>
</event>
<event>
10    4  0.2857708E-005  0.1592496E+03  0.7546771E-02  0.1215231E+00
         21   -1    0    0  503  502  0.00000000000E+00  0.00000000000E+00  0.32718463571E+02  0.32718463571E+02  0.00000000000E+00 0.  1.
         -1   -1    0    0    0  501 -0.00000000000E+00 -0.00000000000E+00 -0.14280584255E+04  0.14280584255E+04  0.00000000000E+00 0.  1.
         24    2    1    2    0    0 -0.20496612002E+02  0.44630256425E+02 -0.31709586731E+03  0.33058874212E+03  0.79543424964E+02 0.  0.
         23    2    1    2    0    0 -0.80928988599E+02  0.84930198458E+02 -0.49142019301E+03  0.51322819289E+03  0.90259249268E+02 0.  0.
        -11    1    3    3    0    0 -0.12096239544E+02  0.67456873401E+02 -0.24986722406E+03  0.25909530763E+03  0.00000000000E+00 0.  1.
         12    1    3    3    0    0 -0.84003724586E+01 -0.22826616976E+02 -0.67228643259E+02  0.71493434485E+02  0.00000000000E+00 0. -1.
        -13    1    4    4    0    0  0.17237757836E+02  0.30269657997E+02 -0.94679782963E+02  0.10088435851E+03  0.00000000000E+00 0. -1.
         13    1    4    4    0    0 -0.98166746436E+02  0.54660540461E+02 -0.39674041004E+03  0.41234383438E+03  0.00000000000E+00 0.  1.
         21    1    1    2  503  501  0.31644076046E+02 -0.47502972418E+01 -0.23529445536E+03  0.23746029899E+03  0.00000000000E+00 0.  1.
         -2    1    1    2    0  502  0.69781524555E+02 -0.12481015764E+03 -0.35152944624E+03  0.37949965506E+03  0.00000000000E+00 0.  1.
<scales pt_clust_5="13000.00000" pt_clust_6="13000.00000" pt_clust_7="13000.00000" pt_clust_8="13000.00000" pt_clust_9="31.99864" pt_clust_10="131.20099"></scales>
<clustering>
<clus scale="   31.999">  2  9  1 -1</clus>
<clus scale="   79.543">  5  6 -1 -1</clus>
<clus scale="   90.259">  7  8 -1 -1</clus>
<clus scale="   91.362">  2  5  1 -1</clus>
<clus scale="  131.201">  1 10  2 -1</clus>
<clus scale="  131.201">  1  5  2 -1</clus>
</clustering>
</event>
<event>
10    4  0.2857708E-005  0.1447822E+03  0.7546771E-02  0.1209241E+00
         21   -1    0    0  501  502  0.00000000000E+00  0.00000000000E+00  0.34655033376E+03  0.34655033376E+03  0.00000000000E+00 0.  1.
          2   -1    0    0  503    0 -0.00000000000E+00 -0.00000000000E+00 -0.31825537013E+03  0.31825537013E+03  0.00000000000E+00 0. -1.
         24    2    1    2    0    0 -0.86977838399E+02  0.91544136251E+01 -0.15128208664E+03  0.19208820074E+03  0.79766280260E+02 0.  0.
         23    2    1    2    0    0  0.86078682712E+02 -0.12847919743E+02  0.26175230102E+03  0.29041619879E+03  0.90844332635E+02 0.  0.
        -11    1    3    3    0    0 -0.27089125604E+02  0.30205410185E+02 -0.17852087721E+02  0.44327018470E+02  0.00000000000E+00 0.  1.
         12    1    3    3    0    0 -0.59888712795E+02 -0.21050996560E+02 -0.13342999891E+03  0.14776118227E+03  0.00000000000E+00 0. -1.
        -11    1    4    4    0    0  0.24082137416E+00 -0.35914825554E+02  0.92853468134E+02  0.99557517215E+02  0.00000000000E+00 0. -1.
         11    1    4    4    0    0  0.85837861338E+02  0.23066905811E+02  0.16889883289E+03  0.19085868158E+03  0.00000000000E+00 0.  1.
         21    1    1    2  503  502 -0.31433195519E+02  0.57988363564E+01 -0.12476127746E+03  0.12879071642E+03  0.00000000000E+00 0. -1.
          1    1    1    2  501    0  0.32332351206E+02 -0.21053302387E+01  0.42586026707E+02  0.53510587930E+02  0.00000000000E+00 0. -1.
<scales pt_clust_5="13000.00000" pt_clust_6="13000.00000" pt_clust_7="13000.00000" pt_clust_8="13000.00000" pt_clust_9="31.96361" pt_clust_10="31.49546"></scales>
<clustering>
<clus scale="   31.964">  2  9  1 -1</clus>
<clus scale="   31.495">  1 10  2 -1</clus>
<clus scale="   79.766">  5  6 -1 -1</clus>
<clus scale="   90.844">  7  8 -1 -1</clus>
<clus scale="  138.101">  2  5  1 -1</clus>
<clus scale="   31.495">  1  5  2 -1</clus>
</clustering>
</event>
<event>
10    4  0.2857708E-005  0.1124073E+03  0.7546771E-02  0.1260427E+00
         21   -1    0    0  503  502  0.00000000000E+00  0.00000000000E+00  0.34835523834E+03  0.34835523834E+03  0.00000000000E+00 0.  1.
         -3   -1    0    0    0  501 -0.00000000000E+00 -0.00000000000E+00 -0.28908366893E+03  0.28908366893E+03  0.00000000000E+00 0.  1.
         24    2    1    2    0    0  0.64455665484E+02 -0.11787129083E+01 -0.16138652329E+02  0.10393873714E+03  0.79917975468E+02 0.  0.
         23    2    1    2    0    0  0.64492253618E+01 -0.30724359231E+02  0.25388471077E+03  0.27162399471E+03  0.91304815773E+02 0.  0.
        -11    1    3    3    0    0  0.48083454236E+02 -0.37248135252E+02  0.87227232977E+00  0.60829294012E+02  0.00000000000E+00 0.  1.
         12    1    3    3    0    0  0.16372211248E+02  0.36069422344E+02 -0.17010924658E+02  0.43109443131E+02  0.00000000000E+00 0. -1.
        -13    1    4    4    0    0 -0.33990771099E+02 -0.11383642330E+02  0.42782840452E+02  0.55815152689E+02  0.00000000000E+00 0. -1.
         13    1    4    4    0    0  0.40439996461E+02 -0.19340716902E+02  0.21110187031E+03  0.21580884202E+03  0.00000000000E+00 0.  1.
         21    1    1    2  503  501  0.37773183714E+02  0.58638425408E+02 -0.11128644215E+03  0.13133906711E+03  0.00000000000E+00 0.  1.
         -4    1    1    2    0  502 -0.10867807456E+03 -0.26735353268E+02 -0.67188046874E+02  0.13053710831E+03  0.00000000000E+00 0.  1.
<scales pt_clust_5="13000.00000" pt_clust_6="13000.00000" pt_clust_7="13000.00000" pt_clust_8="13000.00000" pt_clust_9="69.75155" pt_clust_10="86.77243"></scales>
<clustering>
<clus scale="   69.752">  2  9  1 -1</clus>
<clus scale="   79.918">  5  6 -1 -1</clus>
<clus scale="   86.772">  1 10  2 -1</clus>
<clus scale="   91.305">  7  8 -1 -1</clus>
<clus scale="  103.372">  2  5  1 -1</clus>
<clus scale="   86.772">  1  5  2 -1</clus>
</clustering>
</event>
<event>
10    4  0.2857708E-005  0.2029980E+03  0.7546771E-02  0.1179309E+00
         21   -1    0    0  501  502  0.00000000000E+00  0.00000000000E+00  0.27279742675E+03  0.27279742675E+03  0.00000000000E+00 0.  1.
          2   -1    0    0  503    0 -0.00000000000E+00 -0.00000000000E+00 -0.83639094792E+03  0.83639094792E+03  0.00000000000E+00 0. -1.
         23    2    1    2    0    0  0.67816235657E+02 -0.18329218955E+03 -0.55125173713E+03  0.59248698710E+03  0.94695742411E+02 0.  0.
         24    2    1    2    0    0 -0.37060214693E+02  0.39687967987E+02  0.18535969773E+03  0.20762345246E+03  0.76162235731E+02 0.  0.
        -13    1    4    4    0    0 -0.33318161534E+02  0.40987771665E+02  0.19241422950E+03  0.19953278685E+03  0.00000000000E+00 0.  1.
         14    1    4    4    0    0 -0.37420531590E+01 -0.12998036785E+01 -0.70545317707E+01  0.80906656062E+01  0.00000000000E+00 0. -1.
        -13    1    3    3    0    0  0.28756802966E+02 -0.77470339775E+02 -0.11324912297E+03  0.14019262147E+03  0.00000000000E+00 0.  1.
         13    1    3    3    0    0  0.39059432692E+02 -0.10582184977E+03 -0.43800261416E+03  0.45229436563E+03  0.00000000000E+00 0. -1.
         21    1    1    2  503  502 -0.10268951092E+03  0.12249868684E+03 -0.15571467067E+03  0.22315492958E+03  0.00000000000E+00 0.  1.
          1    1    1    2  501    0  0.71933489957E+02  0.21105534720E+02 -0.41986811097E+02  0.85923005530E+02  0.00000000000E+00 0. -1.
<scales pt_clust_5="13000.00000" pt_clust_6="13000.00000" pt_clust_7="13000.00000" pt_clust_8="13000.00000" pt_clust_9="179.55750" pt_clust_10="74.96580"></scales>
<clustering>
<clus scale="   74.966">  1 10  2 -1</clus>
<clus scale="   76.162">  5  6 -1 -1</clus>
<clus scale="   94.696">  7  8 -1 -1</clus>
<clus scale="   96.611">  1  5  2 -1</clus>
<clus scale="  179.558">  1  9  2 -1</clus>
<clus scale="   74.966">  1  5  2 -1</clus>
</clustering>
</event>
<event>
10    4  0.2857708E-005  0.9794521E+02  0.7546771E-02  0.1289415E+00
          2   -1    0    0  503    0 -0.00000000000E+00  0.00000000000E+00  0.55924058888E+03  0.55924058888E+03  0.00000000000E+00 0. -1.
         21   -1    0    0  501  502  0.00000000000E+00 -0.00000000000E+00 -0.49685625070E+02  0.49685625070E+02  0.00000000000E+00 0.  1.
         24    2    1    2    0    0  0.27805178555E+02  0.40147654922E+02  0.36770618889E+03  0.37955351539E+03  0.80424297017E+02 0.  0.
         23    2    1    2    0    0 -0.32119711572E+02  0.93925415462E+01  0.12605703939E+03  0.15825633991E+03  0.89637024907E+02 0.  0.
        -13    1    3    3    0    0  0.68281998920E+00  0.28151011303E+02  0.32352050524E+02  0.42890568353E+02  0.00000000000E+00 0.  1.
         14    1    3    3    0    0  0.27122358566E+02  0.11996643619E+02  0.33535413836E+03  0.33666294704E+03  0.00000000000E+00 0. -1.
        -11    1    4    4    0    0 -0.25370561554E+02  0.42610003699E+02  0.33919723773E+02  0.60081823121E+02  0.00000000000E+00 0.  1.
         11    1    4    4    0    0 -0.67491500182E+01 -0.33217462153E+02  0.92137315615E+02  0.98174516788E+02  0.00000000000E+00 0. -1.
         21    1    1    2  503  502 -0.74890949750E+00 -0.22643262260E+02  0.32075025336E+02  0.39269395737E+02  0.00000000000E+00 0. -1.
          1    1    1    2  501    0  0.50634425146E+01 -0.26896934208E+02 -0.16283289801E+02  0.31846962910E+02  0.00000000000E+00 0. -1.
<scales pt_clust_5="13000.00000" pt_clust_6="13000.00000" pt_clust_7="13000.00000" pt_clust_8="13000.00000" pt_clust_9="22.65564" pt_clust_10="39.00103"></scales>
<clustering>
<clus scale="   22.656">  2  9  1 -1</clus>
<clus scale="   39.001">  2 10  1 -1</clus>
<clus scale="   80.424">  5  6 -1 -1</clus>
<clus scale="   89.591">  1  5  2 -1</clus>
<clus scale="   89.637">  7  8 -1 -1</clus>
<clus scale="   22.656">  2  5  1 -1</clus>
</clustering>
</event>
<event>
10    4  0.2857708E-005  0.2414495E+03  0.7546771E-02  0.1144445E+00
         21   -1    0    0  501  502  0.00000000000E+00  0.00000000000E+00  0.33404470355E+03  0.33404470355E+03  0.00000000000E+00 0. -1.
          2   -1    0    0  503    0 -0.00000000000E+00 -0.00000000000E+00 -0.54668440731E+03  0.54668440731E+03  0.00000000000E+00 0. -1.
         23    2    1    2    0    0 -0.16300018808E+02  0.10970175574E+03 -0.49033679467E+02  0.15155323644E+03  0.90906083019E+02 0.  0.
         24    2    1    2    0    0 -0.17884749999E+03 -0.24255877506E+02 -0.25988830712E+03  0.32650579333E+03  0.80556347062E+02 0.  0.
        -11    1    4    4    0    0 -0.24683608354E+02 -0.17303280269E+02 -0.81421982667E+01  0.31224660479E+02  0.00000000000E+00 0.  1.
         12    1    4    4    0    0 -0.15416389163E+03 -0.69525972370E+01 -0.25174610886E+03  0.29528113285E+03  0.00000000000E+00 0. -1.
        -11    1    3    3    0    0  0.32414823832E+02  0.27556887993E+02  0.32600911097E+01  0.42670025474E+02  0.00000000000E+00 0.  1.
         11    1    3    3    0    0 -0.48714842640E+02  0.82144867742E+02 -0.52293770577E+02  0.10888321097E+03  0.00000000000E+00 0. -1.
         21    1    1    2  503  502 -0.42683101319E+02 -0.10039024842E+03 -0.53198063405E+02  0.12136755359E+03  0.00000000000E+00 0. -1.
          1    1    1    2  501    0  0.23783062011E+03  0.14944370186E+02  0.14948034624E+03  0.28130252749E+03  0.00000000000E+00 0. -1.
<scales pt_clust_5="13000.00000" pt_clust_6="13000.00000" pt_clust_7="13000.00000" pt_clust_8="13000.00000" pt_clust_9="109.08735" pt_clust_10="227.61484"></scales>
<clustering>
<clus scale="   80.556">  5  6 -1 -1</clus>
<clus scale="   90.906">  7  8 -1 -1</clus>
<clus scale="  109.087">  2  9  1 -1</clus>
<clus scale="  128.944">  2  7  1 -1</clus>
<clus scale="  227.615">  1 10  2 -1</clus>
<clus scale="  227.615">  1  5  2 -1</clus>
</clustering>
</event>
<event>
10    4  0.2857708E-005  0.1075081E+03  0.7546771E-02  0.1267783E+00
         21   -1    0    0  503  502  0.00000000000E+00  0.00000000000E+00  0.92191821605E+02  0.92191821605E+02  0.00000000000E+00 0.  1.
         -1   -1    0    0    0  501 -0.00000000000E+00 -0.00000000000E+00 -0.43720740317E+03  0.43720740317E+03  0.00000000000E+00 0.  1.
         24    2    1    2    0    0  0.27294474693E+02 -0.23641530188E+02 -0.15759165476E+03  0.18264951135E+03  0.84981198212E+02 0.  0.
         23    2    1    2    0    0 -0.81916288303E+02  0.20757877323E+02 -0.22149693547E+01  0.12429799363E+03  0.91125832624E+02 0.  0.
        -11    1    3    3    0    0 -0.70966119097E+01 -0.47687102676E+02 -0.10359204950E+03  0.11426169254E+03  0.00000000000E+00 0.  1.
         12    1    3    3    0    0  0.34391086603E+02  0.24045572489E+02 -0.53999605256E+02  0.68387818812E+02  0.00000000000E+00 0. -1.
        -13    1    4    4    0    0 -0.99597107538E+02  0.55273458094E+01  0.49891524853E+01  0.99875057067E+02  0.00000000000E+00 0.  1.
         13    1    4    4    0    0  0.17680819235E+02  0.15230531514E+02 -0.72041218401E+01  0.24422936565E+02  0.00000000000E+00 0. -1.
         21    1    1    2  503  501  0.14144697026E+02 -0.25796503222E+02 -0.16705596660E+03  0.16962673141E+03  0.00000000000E+00 0. -1.
         -2    1    1    2    0  502  0.40477116584E+02  0.28680156086E+02 -0.18152990847E+02  0.52824988374E+02  0.00000000000E+00 0.  1.
<scales pt_clust_5="13000.00000" pt_clust_6="13000.00000" pt_clust_7="13000.00000" pt_clust_8="13000.00000" pt_clust_9="29.41993" pt_clust_10="49.31389"></scales>
<clustering>
<clus scale="   29.420">  2  9  1 -1</clus>
<clus scale="   49.314">  1 10  2 -1</clus>
<clus scale="   84.981">  5  6 -1 -1</clus>
<clus scale="   91.126">  7  8 -1 -1</clus>
<clus scale="  102.352">  2  5  1 -1</clus>
<clus scale="   49.314">  1  5  2 -1</clus>
</clustering>
</event>
<event>
10    4  0.2857708E-005  0.3957052E+03  0.7546771E-02  0.1045277E+00
          2   -1    0    0  503    0 -0.00000000000E+00  0.00000000000E+00  0.11928592990E+04  0.11928592990E+04  0.00000000000E+00 0. -1.
         21   -1    0    0  501  502  0.00000000000E+00 -0.00000000000E+00 -0.12236093685E+03  0.12236093685E+03  0.00000000000E+00 0. -1.
         24    2    1    2    0    0 -0.33937911094E+02 -0.84382378842E+02  0.24274096582E+03  0.27095061897E+03  0.78859962992E+02 0.  0.
         23    2    1    2    0    0 -0.22759537570E+03 -0.72903195386E+02  0.40739891868E+03  0.48164110171E+03  0.94285422939E+02 0.  0.
        -11    1    3    3    0    0 -0.47563593622E+02 -0.24427499380E+02  0.15377873782E+03  0.16280939276E+03  0.00000000000E+00 0.  1.
         12    1    3    3    0    0  0.13625682528E+02 -0.59954879462E+02  0.88962227997E+02  0.10814122621E+03  0.00000000000E+00 0. -1.
        -11    1    4    4    0    0 -0.20649891775E+03 -0.49864815203E+02  0.39406126525E+03  0.44767464033E+03  0.00000000000E+00 0. -1.
         11    1    4    4    0    0 -0.21096457948E+02 -0.23038380183E+02  0.13337653428E+02  0.33966461375E+02  0.00000000000E+00 0.  1.
         21    1    1    2  503  502 -0.23851182078E+02 -0.24082440801E+02  0.56664683839E+02  0.66028245744E+02  0.00000000000E+00 0.  1.
          1    1    1    2  501    0  0.28538446887E+03  0.18136801503E+03  0.36369379387E+03  0.49660026948E+03  0.00000000000E+00 0. -1.
<scales pt_clust_5="13000.00000" pt_clust_6="13000.00000" pt_clust_7="13000.00000" pt_clust_8="13000.00000" pt_clust_9="33.89458" pt_clust_10="325.58966"></scales>
<clustering>
<clus scale="   33.895">  1  9  2 -1</clus>
<clus scale="   78.860">  5  6 -1 -1</clus>
<clus scale="   94.285">  7  8 -1 -1</clus>
<clus scale="  125.697">  5  7 -1 -1</clus>
<clus scale="  325.590">  2 10  1 -1</clus>
<clus scale="  325.590">  2  5  1 -1</clus>
</clustering>
</event>
<event>
10    4  0.2857708E-005  0.2529264E+03  0.7546771E-02  0.1112143E+00
         21   -1    0    0  501  502  0.00000000000E+00  0.00000000000E+00  0.40138185933E+03  0.40138185933E+03  0.00000000000E+00 0. -1.
          4   -1    0    0  503    0 -0.00000000000E+00 -0.00000000000E+00 -0.34949348902E+03  0.34949348902E+03  0.00000000000E+00 0. -1.
         23    2    1    2    0    0  0.17645628520E+03 -0.16113072199E+03 -0.14970933812E+03  0.29669984283E+03  0.92292906872E+02 0.  0.
         24    2    1    2    0    0 -0.58799935515E+02  0.21859351422E+03  0.11143479751E+03  0.26462195743E+03  0.79790409097E+02 0.  0.
        -13    1    4    4    0    0 -0.34915603771E+02  0.46825337345E+02 -0.13847009349E+00  0.58410022926E+02  0.00000000000E+00 0.  1.
         14    1    4    4    0    0 -0.23884331744E+02  0.17176817688E+03  0.11157326760E+03  0.20621193451E+03  0.00000000000E+00 0. -1.
        -11    1    3    3    0    0  0.42868298021E+02 -0.20512154253E+02  0.60974481885E+01  0.47912611301E+02  0.00000000000E+00 0.  1.
         11    1    3    3    0    0  0.13358798718E+03 -0.14061856774E+03 -0.15580678631E+03  0.24878723153E+03  0.00000000000E+00 0. -1.
         21    1    1    2  503  502  0.12103691902E+02 -0.19475165780E+02 -0.59228408514E+01  0.23682514301E+02  0.00000000000E+00 0. -1.
          3    1    1    2  501    0 -0.12976004158E+03 -0.37987626449E+02  0.96085751778E+02  0.16587103379E+03  0.00000000000E+00 0. -1.
<scales pt_clust_5="13000.00000" pt_clust_6="13000.00000" pt_clust_7="13000.00000" pt_clust_8="13000.00000" pt_clust_9="22.92992" pt_clust_10="134.58538"></scales>
<clustering>
<clus scale="   22.930">  2  9  1 -1</clus>
<clus scale="   79.790">  5  6 -1 -1</clus>
<clus scale="   92.293">  7  8 -1 -1</clus>
<clus scale="  134.585">  1 10  2 -1</clus>
<clus scale="  248.637">  1  5  2 -1</clus>
<clus scale="  134.585">  1  5  2 -1</clus>
</clustering>
</event>
<event>
10    4  0.2857708E-005  0.1876280E+03  0.7546771E-02  0.1161654E+00
          2   -1    0    0  503    0 -0.00000000000E+00  0.00000000000E+00  0.64581940240E+03  0.64581940240E+03  0.00000000000E+00 0. -1.
         21   -1    0    0  501  502  0.00000000000E+00 -0.00000000000E+00 -0.16222400041E+03  0.16222400041E+03  0.00000000000E+00 0. -1.
         23    2    1    2    0    0 -0.55766355126E+02  0.17259035680E+03  0.16617772134E+03  0.26240827717E+03  0.91355083217E+02 0.  0.
         24    2    1    2    0    0  0.13173933820E+03 -0.73236230484E+02  0.87184347323E+00  0.17149816544E+03  0.81805024009E+02 0.  0.
        -13    1    4    4    0    0  0.90238504191E+02 -0.82219789965E+02  0.22040768058E+02  0.12405191235E+03  0.00000000000E+00 0.  1.
         14    1    4    4    0    0  0.41500834010E+02  0.89835594801E+01 -0.21168924585E+02  0.47446253093E+02  0.00000000000E+00 0. -1.
        -13    1    3    3    0    0 -0.31055322579E+00  0.10630355570E+03  0.13196954853E+03  0.16945944688E+03  0.00000000000E+00 0.  1.
         13    1    3    3    0    0 -0.55455801900E+02  0.66286801101E+02  0.34208172818E+02  0.92948830289E+02  0.00000000000E+00 0. -1.
         21    1    1    2  503  502 -0.94292113303E+01  0.38709757418E+02  0.32643783751E+02  0.51507008875E+02  0.00000000000E+00 0. -1.
          1    1    1    2  501    0 -0.66543771745E+02 -0.13806388374E+03  0.28390205343E+03  0.32262995132E+03  0.00000000000E+00 0. -1.
<scales pt_clust_5="13000.00000" pt_clust_6="13000.00000" pt_clust_7="13000.00000" pt_clust_8="13000.00000" pt_clust_9="39.84163" pt_clust_10="138.38893"></scales>
<clustering>
<clus scale="   39.842">  1  9  2 -1</clus>
<clus scale="   81.805">  5  6 -1 -1</clus>
<clus scale="   91.355">  7  8 -1 -1</clus>
<clus scale="  138.389">  2 10  1 -1</clus>
<clus scale="  183.168">  2  5  1 -1</clus>
<clus scale="  138.389">  2  5  1 -1</clus>
</clustering>
</event>
<event>
10    4  0.2857708E-005  0.1754593E+03  0.7546771E-02  0.1173500E+00
          2   -1    0    0  503    0 -0.00000000000E+00  0.00000000000E+00  0.60363253400E+03  0.60363253400E+03  0.00000000000E+00 0. -1.
         21   -1    0    0  501  502  0.00000000000E+00 -0.00000000000E+00 -0.22814525572E+03  0.22814525572E+03  0.00000000000E+00 0. -1.
         23    2    1    2    0    0 -0.21567723772E+03  0.11466555700E+03  0.21769384546E+03  0.33940868432E+03  0.90237374788E+02 0.  0.
         24    2    1    2    0    0  0.83342614163E+02 -0.38563799731E+02  0.11475042591E+03  0.16753719342E+03  0.80423211501E+02 0.  0.
        -13    1    4    4    0    0  0.11215578967E+02 -0.40222159629E+02  0.14869804346E+02  0.44325189431E+02  0.00000000000E+00 0.  1.
         14    1    4    4    0    0  0.72127035195E+02  0.16583598977E+01  0.99880621565E+02  0.12321200399E+03  0.00000000000E+00 0. -1.
        -13    1    3    3    0    0 -0.12308550773E+03  0.11277430071E+03  0.12667852218E+03  0.20956033283E+03  0.00000000000E+00 0.  1.
         13    1    3    3    0    0 -0.92591729989E+02  0.18912562859E+01  0.91015323277E+02  0.12984835149E+03  0.00000000000E+00 0. -1.
         21    1    1    2  503  502  0.95440631728E+02 -0.59426108666E+02  0.16312025459E+03  0.19811257919E+03  0.00000000000E+00 0.  1.
          1    1    1    2  501    0  0.36893991831E+02 -0.16675648603E+02 -0.12007724768E+03  0.12671933278E+03  0.00000000000E+00 0. -1.
<scales pt_clust_5="13000.00000" pt_clust_6="13000.00000" pt_clust_7="13000.00000" pt_clust_8="13000.00000" pt_clust_9="119.13633" pt_clust_10="40.48758"></scales>
<clustering>
<clus scale="   40.488">  2 10  1 -1</clus>
<clus scale="   80.423">  5  6 -1 -1</clus>
<clus scale="   90.237">  7  8 -1 -1</clus>
<clus scale="  119.136">  1  9  2 -1</clus>
<clus scale="  170.620">  2  5  1 -1</clus>
<clus scale="   40.488">  2  5  1 -1</clus>
</clustering>
</event>
<event>
10    4  0.2857708E-005  0.1121933E+03  0.7546771E-02  0.1261624E+00
          2   -1    0    0  503    0 -0.00000000000E+00  0.00000000000E+00  0.90290989462E+02  0.90290989462E+02  0.00000000000E+00 0. -1.
         21   -1    0    0  501  502  0.00000000000E+00 -0.00000000000E+00 -0.11487100444E+04  0.11487100444E+04  0.00000000000E+00 0.  1.
         23    2    1    2    0    0 -0.41568662788E+02 -0.15939468308E+02  0.32118226604E+02  0.10737353446E+03  0.92279331636E+02 0.  0.
         24    2    1    2    0    0  0.39682553736E+02  0.80182824997E+02 -0.89351859547E+03  0.90145462559E+03  0.78999816738E+02 0.  0.
        -13    1    4    4    0    0  0.42553411196E+02  0.61548704340E+02 -0.36455120862E+03  0.37215133953E+03  0.00000000000E+00 0.  1.
         14    1    4    4    0    0 -0.28708574598E+01  0.18634120657E+02 -0.52896738685E+03  0.52930328605E+03  0.00000000000E+00 0. -1.
        -11    1    3    3    0    0  0.28274844775E+02 -0.12872573898E+02  0.18470098562E+02  0.36142973684E+02  0.00000000000E+00 0.  1.
         11    1    3    3    0    0 -0.69843507563E+02 -0.30668944099E+01  0.13648128042E+02  0.71230560780E+02  0.00000000000E+00 0. -1.
         21    1    1    2  503  502  0.39373056170E+02 -0.49461920755E+02 -0.59295457909E+02  0.86675662591E+02  0.00000000000E+00 0.  1.
          1    1    1    2  501    0 -0.37486947119E+02 -0.14781435935E+02 -0.13772322817E+03  0.14349721123E+03  0.00000000000E+00 0. -1.
<scales pt_clust_5="13000.00000" pt_clust_6="13000.00000" pt_clust_7="13000.00000" pt_clust_8="13000.00000" pt_clust_9="62.42897" pt_clust_10="40.29593"></scales>
<clustering>
<clus scale="   40.296">  2 10  1 -1</clus>
<clus scale="   62.429">  1  9  2 -1</clus>
<clus scale="   79.000">  5  6 -1 -1</clus>
<clus scale="   92.279">  7  8 -1 -1</clus>
<clus scale="  101.552">  2  5  1 -1</clus>
<clus scale="   40.296">  2  5  1 -1</clus>
</clustering>
</event>
<event>
10    4  0.2857708E-005  0.1138381E+03  0.7546771E-02  0.1260234E+00
         -3   -1    0    0    0  501 -0.00000000000E+00  0.00000000000E+00  0.28125473353E+03  0.28125473353E+03  0.00000000000E+00 0.  1.
         21   -1    0    0  503  502  0.00000000000E+00 -0.00000000000E+00 -0.36762197476E+03  0.36762197476E+03  0.00000000000E+00 0. -1.
         23    2    1    2    0    0  0.13131672803E+02 -0.40117894000E+02  0.11639997500E+03  0.15683638615E+03  0.96264279933E+02 0.  0.
         24    2    1    2    0    0 -0.51289032800E+02  0.51550319306E+02 -0.95985209668E+02  0.14418491567E+03  0.79297724600E+02 0.  0.
        -11    1    4    4    0    0 -0.11165404820E+02  0.57515914070E+02 -0.27811213994E+02  0.64855302481E+02  0.00000000000E+00 0.  1.
         12    1    4    4    0    0 -0.40123627980E+02 -0.59655947634E+01 -0.68173995674E+02  0.79329613193E+02  0.00000000000E+00 0. -1.
        -11    1    3    3    0    0 -0.18522117432E+02  0.20871570852E+02  0.89716720681E+01  0.29311809969E+02  0.00000000000E+00 0. -1.
         11    1    3    3    0    0  0.31653790235E+02 -0.60989464851E+02  0.10742830294E+03  0.12752457618E+03  0.00000000000E+00 0.  1.
         21    1    1    2  503  501  0.45021726541E+01 -0.21193751862E+02  0.11819561092E+03  0.12016508277E+03  0.00000000000E+00 0.  1.
         -4    1    1    2    0  502  0.33655187343E+02  0.97613265552E+01 -0.22497761749E+03  0.22769032369E+03  0.00000000000E+00 0.  1.
<scales pt_clust_5="13000.00000" pt_clust_6="13000.00000" pt_clust_7="13000.00000" pt_clust_8="13000.00000" pt_clust_9="21.66667" pt_clust_10="35.02944"></scales>
<clustering>
<clus scale="   21.667">  1  9  2 -1</clus>
<clus scale="   35.029">  2 10  1 -1</clus>
<clus scale="   79.298">  5  6 -1 -1</clus>
<clus scale="   96.264">  7  8 -1 -1</clus>
<clus scale="   99.902">  2  5  1 -1</clus>
<clus scale="   35.029">  2  5  1 -1</clus>
</clustering>
</event>
<event>
10    4  0.2857708E-005  0.1297801E+03  0.7546771E-02  0.1241070E+00
          2   -1    0    0  503    0 -0.00000000000E+00  0.00000000000E+00  0.67772983128E+03  0.67772983128E+03  0.00000000000E+00 0. -1.
         21   -1    0    0  501  502  0.00000000000E+00 -0.00000000000E+00 -0.11413584507E+03  0.11413584507E+03  0.00000000000E+00 0.  1.
         24    2    1    2    0    0  0.61856048148E+02  0.44251375296E+02  0.40531745740E+03  0.41928967133E+03  0.75744519958E+02 0.  0.
         23    2    1    2    0    0 -0.68195967603E+02 -0.34512037824E+02 -0.59726086562E+02  0.14906539506E+03  0.11318796683E+03 0.  0.
        -13    1    3    3    0    0  0.40708069448E+02 -0.15737888776E+02  0.17326773951E+03  0.17867998661E+03  0.00000000000E+00 0.  1.
         14    1    3    3    0    0  0.21147978700E+02  0.59989264072E+02  0.23204971789E+03  0.24060968472E+03  0.00000000000E+00 0. -1.
        -11    1    4    4    0    0 -0.76908872660E+02 -0.10747706433E+01 -0.78364793446E+02  0.10980514868E+03  0.00000000000E+00 0.  1.
         11    1    4    4    0    0  0.87129050569E+01 -0.33437267181E+02  0.18638706884E+02  0.39260246374E+02  0.00000000000E+00 0. -1.
         21    1    1    2  503  502 -0.87264213281E+01 -0.23594663639E+02  0.76372622081E+02  0.80409178487E+02  0.00000000000E+00 0.  1.
          1    1    1    2  501    0  0.15066340782E+02  0.13855326167E+02  0.14162999329E+03  0.14310143146E+03  0.00000000000E+00 0. -1.
<scales pt_clust_5="13000.00000" pt_clust_6="13000.00000" pt_clust_7="13000.00000" pt_clust_8="13000.00000" pt_clust_9="24.83294" pt_clust_10="20.46864"></scales>
<clustering>
<clus scale="   20.469">  2 10  1 -1</clus>
<clus scale="   24.833">  1  9  2 -1</clus>
<clus scale="   75.745">  5  6 -1 -1</clus>
<clus scale="   98.836">  1  5  2 -1</clus>
<clus scale="  113.188">  7  8 -1 -1</clus>
<clus scale="   20.469">  2  5  1 -1</clus>
</clustering>
</event>
<event>
10    4  0.2857708E-005  0.2503540E+03  0.7546771E-02  0.1119414E+00
         -3   -1    0    0    0  501 -0.00000000000E+00  0.00000000000E+00  0.18187660739E+04  0.18187660739E+04  0.00000000000E+00 0.  1.
         21   -1    0    0  503  502  0.00000000000E+00 -0.00000000000E+00 -0.20994295430E+03  0.20994295430E+03  0.00000000000E+00 0.  1.
         23    2    1    2    0    0 -0.46268556897E+02 -0.18753149111E+03  0.75104281710E+02  0.22628026179E+03  0.90847477820E+02 0.  0.
         24    2    1    2    0    0  0.31971398720E+03  0.23595903634E+02  0.85995580095E+03  0.92121600883E+03  0.79631369727E+02 0.  0.
        -11    1    4    4    0    0  0.75215188413E+02  0.40154648376E+02  0.21999452404E+03  0.23593921031E+03  0.00000000000E+00 0.  1.
         12    1    4    4    0    0  0.24449879879E+03 -0.16558744742E+02  0.63996127692E+03  0.68527679852E+03  0.00000000000E+00 0. -1.
        -13    1    3    3    0    0 -0.73400554203E+02 -0.14909791887E+03  0.62762393335E+02  0.17764275607E+03  0.00000000000E+00 0.  1.
         13    1    3    3    0    0  0.27131997306E+02 -0.38433572249E+02  0.12341888375E+02  0.48637505716E+02  0.00000000000E+00 0. -1.
         21    1    1    2  503  501 -0.71696364724E+02  0.26294586977E+03  0.57382144588E+03  0.63525738949E+03  0.00000000000E+00 0. -1.
         -4    1    1    2    0  502 -0.20174906558E+03 -0.99010282292E+02  0.99941591023E+02  0.24595536806E+03  0.00000000000E+00 0.  1.
<scales pt_clust_5="13000.00000" pt_clust_6="13000.00000" pt_clust_7="13000.00000" pt_clust_8="13000.00000" pt_clust_9="214.11139" pt_clust_10="237.35203"></scales>
<clustering>
<clus scale="   79.631">  5  6 -1 -1</clus>
<clus scale="   90.847">  7  8 -1 -1</clus>
<clus scale="  213.453">  1  7  2 -1</clus>
<clus scale="  214.111">  1  9  2 -1</clus>
<clus scale="  237.352">  2 10  1 -1</clus>
<clus scale="  237.352">  2  5  1 -1</clus>
</clustering>
</event>
<event>
10    4  0.2857708E-005  0.1689853E+03  0.7546771E-02  0.1180213E+00
         21   -1    0    0  501  502  0.00000000000E+00  0.00000000000E+00  0.61732776869E+02  0.61732776869E+02  0.00000000000E+00 0. -1.
          2   -1    0    0  503    0 -0.00000000000E+00 -0.00000000000E+00 -0.13402469083E+04  0.13402469083E+04  0.00000000000E+00 0. -1.
         24    2    1    2    0    0 -0.76059761574E+02 -0.11902758261E+03 -0.88252729852E+03  0.89745133893E+03  0.81313100856E+02 0.  0.
         23    2    1    2    0    0  0.19141195153E+02  0.10443858749E+03 -0.20785365172E+03  0.25042952670E+03  0.90763447511E+02 0.  0.
        -11    1    3    3    0    0 -0.79908015662E+02 -0.50884242189E+02 -0.51391092412E+03  0.52256955039E+03  0.00000000000E+00 0.  1.
         12    1    3    3    0    0  0.38482540883E+01 -0.68143340420E+02 -0.36861637440E+03  0.37488178854E+03  0.00000000000E+00 0. -1.
        -13    1    4    4    0    0 -0.34233927166E+02  0.64370406846E+02 -0.11135767259E+03  0.13310162393E+03  0.00000000000E+00 0.  1.
         13    1    4    4    0    0  0.53375122319E+02  0.40068180643E+02 -0.96495979125E+02  0.11732790278E+03  0.00000000000E+00 0. -1.
         21    1    1    2  503  502  0.44527644166E+01 -0.47608909919E+02 -0.16157718657E+03  0.16850407305E+03  0.00000000000E+00 0. -1.
          1    1    1    2  501    0  0.52465802004E+02  0.62197905038E+02 -0.26555994595E+02  0.85594746451E+02  0.00000000000E+00 0. -1.
<scales pt_clust_5="13000.00000" pt_clust_6="13000.00000" pt_clust_7="13000.00000" pt_clust_8="13000.00000" pt_clust_9="47.81669" pt_clust_10="79.78817"></scales>
<clustering>
<clus scale="   47.817">  2  9  1 -1</clus>
<clus scale="   79.788">  1 10  2 -1</clus>
<clus scale="   81.313">  5  6 -1 -1</clus>
<clus scale="   90.763">  7  8 -1 -1</clus>
<clus scale="  164.103">  2  5  1 -1</clus>
<clus scale="   79.788">  1  5  2 -1</clus>
</clustering>
</event>
<event>
10    4  0.2857708E-005  0.9369215E+02  0.7546771E-02  0.1299627E+00
         -1   -1    0    0    0  501 -0.00000000000E+00  0.00000000000E+00  0.19282659431E+02  0.19282659431E+02  0.00000000000E+00 0.  1.
         21   -1    0    0  503  502  0.00000000000E+00 -0.00000000000E+00 -0.11489079510E+04  0.11489079510E+04  0.00000000000E+00 0. -1.
         23    2    1    2    0    0  0.24643854243E+02 -0.31107057564E+02 -0.23699604909E+03  0.25698405654E+03  0.91097252699E+02 0.  0.
         24    2    1    2    0    0 -0.60533158691E+01 -0.14431312828E+02 -0.62272923983E+03  0.62826962954E+03  0.81768672661E+02 0.  0.
        -11    1    4    4    0    0  0.19244374179E+02  0.14520908345E+02 -0.66882801164E+02  0.71095089903E+02  0.00000000000E+00 0.  1.
         12    1    4    4    0    0 -0.25297690048E+02 -0.28952221173E+02 -0.55584643867E+03  0.55717453963E+03  0.00000000000E+00 0. -1.
        -11    1    3    3    0    0  0.27535514619E+02 -0.62252236645E+02 -0.16457956938E+03  0.17810103927E+03  0.00000000000E+00 0. -1.
         11    1    3    3    0    0 -0.28916603762E+01  0.31145179080E+02 -0.72416479713E+02  0.78883017270E+02  0.00000000000E+00 0.  1.
         21    1    1    2  503  501  0.59890605898E+01  0.31084636927E+02 -0.38759301029E+02  0.50044049755E+02  0.00000000000E+00 0. -1.
         -2    1    1    2    0  502 -0.24579598964E+02  0.14453733465E+02 -0.23114070160E+03  0.23289287458E+03  0.00000000000E+00 0.  1.
<scales pt_clust_5="13000.00000" pt_clust_6="13000.00000" pt_clust_7="13000.00000" pt_clust_8="13000.00000" pt_clust_9="32.14479" pt_clust_10="28.51433"></scales>
<clustering>
<clus scale="   28.514">  2 10  1 -1</clus>
<clus scale="   32.145">  1  9  2 -1</clus>
<clus scale="   81.769">  5  6 -1 -1</clus>
<clus scale="   84.650">  2  5  1 -1</clus>
<clus scale="   91.097">  7  8 -1 -1</clus>
<clus scale="   28.514">  2  5  1 -1</clus>
</clustering>
</event>
<event>
10    4  0.2857708E-005  0.1037061E+03  0.7546771E-02  0.1279405E+00
         21   -1    0    0  501  502  0.00000000000E+00  0.00000000000E+00  0.27235021484E+03  0.27235021484E+03  0.00000000000E+00 0.  1.
          4   -1    0    0  503    0 -0.00000000000E+00 -0.00000000000E+00 -0.11421339116E+03  0.11421339116E+03  0.00000000000E+00 0. -1.
         23    2    1    2    0    0  0.23132232920E+02  0.25279523958E+02  0.35732000378E+02  0.10606475156E+03  0.93801925039E+02 0.  0.
         24    2    1    2    0    0 -0.29078655206E+02 -0.22692249960E+02  0.13319246856E+03  0.15956292618E+03  0.79747020830E+02 0.  0.
        -11    1    4    4    0    0 -0.25274624991E+02  0.20422062321E+02  0.99623664356E+02  0.10478903472E+03  0.00000000000E+00 0.  1.
         12    1    4    4    0    0 -0.38040302153E+01 -0.43114312281E+02  0.33568804205E+02  0.54773891455E+02  0.00000000000E+00 0. -1.
        -11    1    3    3    0    0  0.48164832118E+02 -0.66790069329E+01  0.42895809939E+02  0.64842198428E+02  0.00000000000E+00 0. -1.
         11    1    3    3    0    0 -0.25032599198E+02  0.31958530891E+02 -0.71638095612E+01  0.41222553133E+02  0.00000000000E+00 0.  1.
         21    1    1    2  503  502  0.22792088884E+02  0.17070247562E+02 -0.59392808450E+02  0.65866367465E+02  0.00000000000E+00 0.  1.
          3    1    1    2  501    0 -0.16845666598E+02 -0.19657521561E+02  0.48605163193E+02  0.55069560794E+02  0.00000000000E+00 0. -1.
<scales pt_clust_5="13000.00000" pt_clust_6="13000.00000" pt_clust_7="13000.00000" pt_clust_8="13000.00000" pt_clust_9="28.10506" pt_clust_10="25.88812"></scales>
<clustering>
<clus scale="   25.888">  1 10  2 -1</clus>
<clus scale="   28.105">  2  9  1 -1</clus>
<clus scale="   79.747">  5  6 -1 -1</clus>
<clus scale="   91.191">  1  5  2 -1</clus>
<clus scale="   93.802">  7  8 -1 -1</clus>
<clus scale="   25.888">  1  5  2 -1</clus>
</clustering>
</event>
<event>
10    4  0.2857708E-005  0.9335518E+02  0.7546771E-02  0.1302132E+00
         21   -1    0    0  503  502  0.00000000000E+00  0.00000000000E+00  0.27492079524E+03  0.27492079524E+03  0.00000000000E+00 0.  1.
         -1   -1    0    0    0  501 -0.00000000000E+00 -0.00000000000E+00 -0.20885288761E+03  0.20885288761E+03  0.00000000000E+00 0.  1.
         24    2    1    2    0    0 -0.11280360474E+02 -0.22833396292E+02 -0.90307895937E+02  0.12306086547E+03  0.79623175165E+02 0.  0.
         23    2    1    2    0    0 -0.46024693289E+02  0.13547507278E+02  0.23983516143E+02  0.10608900238E+03  0.91530650787E+02 0.  0.
        -13    1    3    3    0    0 -0.11114789782E+02 -0.52111808581E+02 -0.67201782420E+02  0.85762804910E+02  0.00000000000E+00 0.  1.
         14    1    3    3    0    0 -0.16557069245E+00  0.29278412289E+02 -0.23106113517E+02  0.37298060562E+02  0.00000000000E+00 0. -1.
        -13    1    4    4    0    0 -0.73695042301E+02  0.80699308055E+01  0.10676507981E+02  0.74900406312E+02  0.00000000000E+00 0.  1.
         13    1    4    4    0    0  0.27670349012E+02  0.54775764720E+01  0.13307008162E+02  0.31188596068E+02  0.00000000000E+00 0. -1.
         21    1    1    2  503  501  0.26658826547E+02  0.21509647999E+02 -0.54756879758E+02  0.64588496427E+02  0.00000000000E+00 0. -1.
         -2    1    1    2    0  502  0.30646227217E+02 -0.12223758984E+02  0.18714916718E+03  0.19003531857E+03  0.00000000000E+00 0.  1.
<scales pt_clust_5="13000.00000" pt_clust_6="13000.00000" pt_clust_7="13000.00000" pt_clust_8="13000.00000" pt_clust_9="35.21346" pt_clust_10="32.99411"></scales>
<clustering>
<clus scale="   32.994">  1 10  2 -1</clus>
<clus scale="   35.213">  2  9  1 -1</clus>
<clus scale="   79.623">  5  6 -1 -1</clus>
<clus scale="   81.714">  2  5  1 -1</clus>
<clus scale="   91.531">  7  8 -1 -1</clus>
<clus scale="   32.994">  1  5  2 -1</clus>
</clustering>
</event>
<event>
10    4  0.2857708E-005  0.9270360E+02  0.7546771E-02  0.1303519E+00
         21   -1    0    0  501  502  0.00000000000E+00  0.00000000000E+00  0.13775364898E+03  0.13775364898E+03  0.00000000000E+00 0.  1.
          2   -1    0    0  503    0 -0.00000000000E+00 -0.00000000000E+00 -0.11192062504E+03  0.11192062504E+03  0.00000000000E+00 0. -1.
         23    2    1    2    0    0  0.42107741088E+01 -0.10824374580E+02 -0.93226357213E+01  0.92607340021E+02  0.91401915655E+02 0.  0.
         24    2    1    2    0    0  0.85586355493E+01  0.25723594737E+02  0.54927291505E+02  0.10064943777E+03  0.79864562867E+02 0.  0.
        -11    1    4    4    0    0 -0.15770626649E+02  0.39679536706E+02  0.58446024894E+02  0.72381738885E+02  0.00000000000E+00 0.  1.
         12    1    4    4    0    0  0.24329262198E+02 -0.13955941969E+02 -0.35187333893E+01  0.28267698881E+02  0.00000000000E+00 0. -1.
        -11    1    3    3    0    0 -0.26413151738E+02  0.28771701067E+02 -0.15802552866E+02  0.42132956745E+02  0.00000000000E+00 0.  1.
         11    1    3    3    0    0  0.30623925847E+02 -0.39596075647E+02  0.64799171443E+01  0.50474383276E+02  0.00000000000E+00 0. -1.
         21    1    1    2  503  502 -0.22890139844E+02  0.89007678992E+01 -0.12213357242E+01  0.24590116556E+02  0.00000000000E+00 0.  1.
          1    1    1    2  501    0  0.10120730186E+02 -0.23799988056E+02 -0.18550296114E+02  0.31827379673E+02  0.00000000000E+00 0. -1.
<scales pt_clust_5="13000.00000" pt_clust_6="13000.00000" pt_clust_7="13000.00000" pt_clust_8="13000.00000" pt_clust_9="24.55977" pt_clust_10="21.96032"></scales>
<clustering>
<clus scale="   24.560">  2  9  1 -1</clus>
<clus scale="   21.960">  1 10  2 -1</clus>
<clus scale="   79.865">  5  6 -1 -1</clus>
<clus scale="   81.351">  1  5  2 -1</clus>
<clus scale="   91.402">  7  8 -1 -1</clus>
<clus scale="   21.960">  1  5  2 -1</clus>
</clustering>
</event>
<event>
10    4  0.2857708E-005  0.2828776E+03  0.7546771E-02  0.1097728E+00
          2   -1    0    0  503    0 -0.00000000000E+00  0.00000000000E+00  0.72235355347E+03  0.72235355347E+03  0.00000000000E+00 0. -1.
         21   -1    0    0  501  502  0.00000000000E+00 -0.00000000000E+00 -0.37665316853E+03  0.37665316853E+03  0.00000000000E+00 0. -1.
         24    2    1    2    0    0 -0.25172655773E+03 -0.14625712667E+03 -0.31354185241E+02  0.30229082315E+03  0.75094938976E+02 0.  0.
         23    2    1    2    0    0 -0.90506819309E+00  0.26800347253E+03  0.14797367655E+03  0.31401939368E+03  0.69894851158E+02 0.  0.
        -11    1    3    3    0    0 -0.50050428488E+02  0.16257344913E+01 -0.11760381635E+02  0.51439235809E+02  0.00000000000E+00 0.  1.
         12    1    3    3    0    0 -0.20167612924E+03 -0.14788286116E+03 -0.19593803607E+02  0.25085158734E+03  0.00000000000E+00 0. -1.
        -11    1    4    4    0    0  0.17842954957E+02  0.98431221285E+02  0.23295978368E+02  0.10271211697E+03  0.00000000000E+00 0.  1.
         11    1    4    4    0    0 -0.18748023150E+02  0.16957225124E+03  0.12467769819E+03  0.21130727671E+03  0.00000000000E+00 0. -1.
         21    1    1    2  503  502 -0.10278022057E+02  0.56228292086E+02  0.14262215923E+03  0.15365005327E+03  0.00000000000E+00 0. -1.
          1    1    1    2  501    0  0.26290964798E+03 -0.17797463795E+03  0.86458734406E+02  0.32904645190E+03  0.00000000000E+00 0. -1.
<scales pt_clust_5="13000.00000" pt_clust_6="13000.00000" pt_clust_7="13000.00000" pt_clust_8="13000.00000" pt_clust_9="57.15994" pt_clust_10="260.66243"></scales>
<clustering>
<clus scale="   57.160">  1  9  2 -1</clus>
<clus scale="   69.895">  7  8 -1 -1</clus>
<clus scale="   75.095">  5  6 -1 -1</clus>
<clus scale="  296.511">  1  5  2 -1</clus>
<clus scale="  260.662">  2 10  1 -1</clus>
<clus scale="  260.662">  2  5  1 -1</clus>
</clustering>
</event>
<event>
10    4  0.2857708E-005  0.2560418E+03  0.7546771E-02  0.1135306E+00
          2   -1    0    0  503    0 -0.00000000000E+00  0.00000000000E+00  0.30615694408E+03  0.30615694408E+03  0.00000000000E+00 0. -1.
         21   -1    0    0  501  502  0.00000000000E+00 -0.00000000000E+00 -0.39343509497E+03  0.39343509497E+03  0.00000000000E+00 0. -1.
         23    2    1    2    0    0 -0.86141938197E+02 -0.55793671776E+02 -0.77877975653E+01  0.13911588310E+03  0.93590660923E+02 0.  0.
         24    2    1    2    0    0 -0.12601590168E+03  0.20489870151E+03 -0.45210898856E+02  0.25746631348E+03  0.79883614382E+02 0.  0.
        -11    1    4    4    0    0 -0.22229679486E+02  0.47394658039E+02  0.22605714344E+02  0.57021316906E+02  0.00000000000E+00 0.  1.
         12    1    4    4    0    0 -0.10378622219E+03  0.15750404347E+03 -0.67816613200E+02  0.20044499658E+03  0.00000000000E+00 0. -1.
        -11    1    3    3    0    0 -0.95736775890E+02 -0.15572712008E+02  0.23431377592E+00  0.96995332465E+02  0.00000000000E+00 0.  1.
         11    1    3    3    0    0  0.95948376929E+01 -0.40220959768E+02 -0.80221113412E+01  0.42120550630E+02  0.00000000000E+00 0. -1.
         21    1    1    2  503  502  0.18789181009E+03 -0.16612080540E+03 -0.66265068439E+02  0.25940415105E+03  0.00000000000E+00 0. -1.
          1    1    1    2  501    0  0.24266029785E+02  0.17015775668E+02  0.31985613967E+02  0.43605691417E+02  0.00000000000E+00 0. -1.
<scales pt_clust_5="13000.00000" pt_clust_6="13000.00000" pt_clust_7="13000.00000" pt_clust_8="13000.00000" pt_clust_9="243.26118" pt_clust_10="29.63744"></scales>
<clustering>
<clus scale="   29.637">  2 10  1 -1</clus>
<clus scale="   79.884">  5  6 -1 -1</clus>
<clus scale="   93.591">  7  8 -1 -1</clus>
<clus scale="  134.804">  1  7  2 -1</clus>
<clus scale="  243.261">  2  9  1 -1</clus>
<clus scale="   29.637">  2  5  1 -1</clus>
</clustering>
</event>
<event>
10    4  0.2857708E-005  0.2457710E+03  0.7546771E-02  0.1116007E+00
         21   -1    0    0  501  502  0.00000000000E+00  0.00000000000E+00  0.49567676024E+02  0.49567676024E+02  0.00000000000E+00 0. -1.
          2   -1    0    0  503    0 -0.00000000000E+00 -0.00000000000E+00 -0.13833372806E+04  0.13833372806E+04  0.00000000000E+00 0. -1.
         24    2    1    2    0    0  0.10445227579E+03 -0.15247684508E+02 -0.24440089394E+03  0.27773528481E+03  0.79134832205E+02 0.  0.
         23    2    1    2    0    0  0.83911945701E+01 -0.19003958681E+02 -0.21365376682E+03  0.23369710022E+03  0.92384197680E+02 0.  0.
        -13    1    3    3    0    0  0.20129142699E+02  0.25825860891E+02 -0.33133623054E+02  0.46583199260E+02  0.00000000000E+00 0.  1.
         14    1    3    3    0    0  0.84323133095E+02 -0.41073545399E+02 -0.21126727088E+03  0.23115208555E+03  0.00000000000E+00 0. -1.
        -13    1    4    4    0    0 -0.41294486765E+01 -0.55710537735E+02 -0.12960938938E+03  0.14113578631E+03  0.00000000000E+00 0. -1.
         13    1    4    4    0    0  0.12520643247E+02  0.36706579054E+02 -0.84044377440E+02  0.92561313908E+02  0.00000000000E+00 0.  1.
         21    1    1    2  503  502  0.78254590041E+02  0.48549300115E+02 -0.35026333267E+03  0.36216738895E+03  0.00000000000E+00 0. -1.
          1    1    1    2  501    0 -0.19109806040E+03 -0.14297656927E+02 -0.52545161113E+03  0.55930518264E+03  0.00000000000E+00 0. -1.
<scales pt_clust_5="13000.00000" pt_clust_6="13000.00000" pt_clust_7="13000.00000" pt_clust_8="13000.00000" pt_clust_9="92.09134" pt_clust_10="150.20391"></scales>
<clustering>
<clus scale="   79.135">  5  6 -1 -1</clus>
<clus scale="   92.091">  2  9  1 -1</clus>
<clus scale="   92.384">  7  8 -1 -1</clus>
<clus scale="   92.824">  5  7 -1 -1</clus>
<clus scale="  150.204">  1 10  2 -1</clus>
<clus scale="  150.204">  1  5  2 -1</clus>
</clustering>
</event>
<event>
10    4  0.2857708E-005  0.1009982E+03  0.7546771E-02  0.1289383E+00
         -1   -1    0    0    0  501 -0.00000000000E+00  0.00000000000E+00  0.30408861050E+03  0.30408861050E+03  0.00000000000E+00 0.  1.
         21   -1    0    0  503  502  0.00000000000E+00 -0.00000000000E+00 -0.10466624491E+03  0.10466624491E+03  0.00000000000E+00 0. -1.
         23    2    1    2    0    0  0.88228212586E+00  0.19883297865E+02  0.11355094492E+03  0.15200720629E+03  0.99076988835E+02 0.  0.
         24    2    1    2    0    0 -0.11538996568E+02 -0.17839953781E+02 -0.59264511908E+02  0.10131043429E+03  0.79373228053E+02 0.  0.
        -13    1    4    4    0    0  0.29140911623E+02  0.66707621175E+01 -0.40284021353E+02  0.50164670575E+02  0.00000000000E+00 0.  1.
         14    1    4    4    0    0 -0.40679908192E+02 -0.24510715898E+02 -0.18980490555E+02  0.51145763715E+02  0.00000000000E+00 0. -1.
        -13    1    3    3    0    0 -0.25467326928E+02 -0.32163631735E+02  0.33559336541E+02  0.53002952902E+02  0.00000000000E+00 0. -1.
         13    1    3    3    0    0  0.26349609054E+02  0.52046929600E+02  0.79991608379E+02  0.99004253389E+02  0.00000000000E+00 0.  1.
         21    1    1    2  503  501 -0.20956960887E+02 -0.22663184212E+01  0.84077549573E+02  0.86679667460E+02  0.00000000000E+00 0.  1.
         -2    1    1    2    0  502  0.31613675329E+02  0.22297433662E+00  0.61058383007E+02  0.68757547374E+02  0.00000000000E+00 0.  1.
<scales pt_clust_5="13000.00000" pt_clust_6="13000.00000" pt_clust_7="13000.00000" pt_clust_8="13000.00000" pt_clust_9="21.07915" pt_clust_10="25.39814"></scales>
<clustering>
<clus scale="   21.079">  1  9  2 -1</clus>
<clus scale="   25.398">  2 10  1 -1</clus>
<clus scale="   79.373">  5  6 -1 -1</clus>
<clus scale="   81.759">  2  5  1 -1</clus>
<clus scale="   99.077">  7  8 -1 -1</clus>
<clus scale="   25.398">  2  5  1 -1</clus>
</clustering>
</event>
<event>
10    4  0.2857708E-005  0.2470103E+03  0.7546771E-02  0.1116316E+00
          2   -1    0    0  503    0 -0.00000000000E+00  0.00000000000E+00  0.12013803456E+04  0.12013803456E+04  0.00000000000E+00 0. -1.
         21   -1    0    0  501  502  0.00000000000E+00 -0.00000000000E+00 -0.11269387927E+03  0.11269387927E+03  0.00000000000E+00 0. -1.
         23    2    1    2    0    0 -0.13880653337E+03  0.10909451344E+03  0.39950548314E+03  0.44788147528E+03  0.99117699087E+02 0.  0.
         24    2    1    2    0    0  0.21819945330E+03 -0.22587581151E+03  0.33098765116E+03  0.46335400133E+03  0.80704533220E+02 0.  0.
        -11    1    4    4    0    0  0.34558720400E+02 -0.94618889577E+01  0.15666103949E+02  0.39105745246E+02  0.00000000000E+00 0.  1.
         12    1    4    4    0    0  0.18364073290E+03 -0.21641392255E+03  0.31532154721E+03  0.42424825609E+03  0.00000000000E+00 0. -1.
        -13    1    3    3    0    0 -0.12272026016E+03  0.69605467119E+02  0.37011526554E+03  0.39609404577E+03  0.00000000000E+00 0. -1.
         13    1    3    3    0    0 -0.16086273200E+02  0.39489046320E+02  0.29390217600E+02  0.51787429511E+02  0.00000000000E+00 0.  1.
         21    1    1    2  503  502 -0.25152114516E+02  0.26477166240E+02  0.24694008515E+03  0.24962586976E+03  0.00000000000E+00 0. -1.
          1    1    1    2  501    0 -0.54240805423E+02  0.90304131833E+02  0.11125324687E+03  0.15321287850E+03  0.00000000000E+00 0. -1.
<scales pt_clust_5="13000.00000" pt_clust_6="13000.00000" pt_clust_7="13000.00000" pt_clust_8="13000.00000" pt_clust_9="36.51944" pt_clust_10="110.29319"></scales>
<clustering>
<clus scale="   36.519">  1  9  2 -1</clus>
<clus scale="   80.705">  5  6 -1 -1</clus>
<clus scale="   99.118">  7  8 -1 -1</clus>
<clus scale="  110.293">  2 10  1 -1</clus>
<clus scale="  240.214">  2  5  1 -1</clus>
<clus scale="  110.293">  2  5  1 -1</clus>
</clustering>
</event>
<event>
10    4  0.2857708E-005  0.1908803E+03  0.7546771E-02  0.1186716E+00
         -3   -1    0    0    0  501 -0.00000000000E+00  0.00000000000E+00  0.16013909369E+03  0.16013909369E+03  0.00000000000E+00 0.  1.
         21   -1    0    0  503  502  0.00000000000E+00 -0.00000000000E+00 -0.82276260407E+03  0.82276260407E+03  0.00000000000E+00 0.  1.
         24    2    1    2    0    0  0.18336835094E+02  0.35137390565E+02  0.58182226371E+02  0.10667720635E+03  0.80149729584E+02 0.  0.
         23    2    1    2    0    0  0.10376665906E+03 -0.15719025799E+03 -0.48737258252E+03  0.53045419938E+03  0.91505883415E+02 0.  0.
        -13    1    3    3    0    0 -0.45244135269E+01  0.57345078585E+02  0.38481921473E+02  0.69208284446E+02  0.00000000000E+00 0.  1.
         14    1    3    3    0    0  0.22861248621E+02 -0.22207688020E+02  0.19700304898E+02  0.37468921906E+02  0.00000000000E+00 0. -1.
        -13    1    4    4    0    0  0.79778024267E+02 -0.96770777570E+02 -0.41325793673E+03  0.43186946965E+03  0.00000000000E+00 0.  1.
         13    1    4    4    0    0  0.23988634790E+02 -0.60419480423E+02 -0.74114645799E+02  0.98584729728E+02  0.00000000000E+00 0. -1.
         21    1    1    2  503  501 -0.14330038277E+01  0.29201687782E+02  0.29753779398E+02  0.41714259645E+02  0.00000000000E+00 0.  1.
         -4    1    1    2    0  502 -0.12067049032E+03  0.92851179647E+02 -0.26318693363E+03  0.30405603239E+03  0.00000000000E+00 0.  1.
<scales pt_clust_5="13000.00000" pt_clust_6="13000.00000" pt_clust_7="13000.00000" pt_clust_8="13000.00000" pt_clust_9="29.23683" pt_clust_10="167.51712"></scales>
<clustering>
<clus scale="   29.237">  1  9  2 -1</clus>
<clus scale="   80.150">  5  6 -1 -1</clus>
<clus scale="   91.506">  7  8 -1 -1</clus>
<clus scale="   98.463">  1  5  2 -1</clus>
<clus scale="  167.517">  2 10  1 -1</clus>
<clus scale="  167.517">  2  5  1 -1</clus>
</clustering>
</event>
<event>
10    4  0.2857708E-005  0.9672001E+02  0.7546771E-02  0.1290431E+00
         21   -1    0    0  501  502  0.00000000000E+00  0.00000000000E+00  0.13770879470E+03  0.13770879470E+03  0.00000000000E+00 0. -1.
          2   -1    0    0  503    0 -0.00000000000E+00 -0.00000000000E+00 -0.31812629967E+03  0.31812629967E+03  0.00000000000E+00 0. -1.
         24    2    1    2    0    0 -0.95279066062E+01 -0.40968755106E+02 -0.17941441054E+03  0.20134474308E+03  0.81123085229E+02 0.  0.
         23    2    1    2    0    0  0.23018377705E+02  0.87771055367E+02 -0.30330510930E+02  0.12944621063E+03  0.87193908503E+02 0.  0.
        -13    1    3    3    0    0 -0.62579647968E+01 -0.62804056174E+02 -0.94734387672E+02  0.11383371997E+03  0.00000000000E+00 0.  1.
         14    1    3    3    0    0 -0.32699418094E+01  0.21835301068E+02 -0.84680022868E+02  0.87511023107E+02  0.00000000000E+00 0. -1.
        -11    1    4    4    0    0  0.33282051665E+02  0.32365759542E+02 -0.51423954940E+02  0.69279582096E+02  0.00000000000E+00 0.  1.
         11    1    4    4    0    0 -0.10263673960E+02  0.55405295825E+02  0.21093444009E+02  0.60166628531E+02  0.00000000000E+00 0. -1.
         21    1    1    2  503  502  0.17904690693E+02  0.19983450411E+02 -0.22376187931E+02  0.34937229791E+02  0.00000000000E+00 0. -1.
          1    1    1    2  501    0 -0.31395161792E+02 -0.66785750672E+02  0.51703604429E+02  0.90106910877E+02  0.00000000000E+00 0. -1.
<scales pt_clust_5="13000.00000" pt_clust_6="13000.00000" pt_clust_7="13000.00000" pt_clust_8="13000.00000" pt_clust_9="26.83125" pt_clust_10="72.09386"></scales>
<clustering>
<clus scale="   26.831">  2  9  1 -1</clus>
<clus scale="   72.094">  1 10  2 -1</clus>
<clus scale="   81.123">  5  6 -1 -1</clus>
<clus scale="   87.194">  7  8 -1 -1</clus>
<clus scale="   91.285">  2  5  1 -1</clus>
<clus scale="   72.094">  1  5  2 -1</clus>
</clustering>
</event>
<event>
10    4  0.2857708E-005  0.1335976E+03  0.7546771E-02  0.1224366E+00
          2   -1    0    0  503    0 -0.00000000000E+00  0.00000000000E+00  0.70362685534E+03  0.70362685534E+03  0.00000000000E+00 0. -1.
         21   -1    0    0  501  502  0.00000000000E+00 -0.00000000000E+00 -0.64637126542E+02  0.64637126542E+02  0.00000000000E+00 0.  1.
         23    2    1    2    0    0 -0.10094801659E+03  0.25344603783E+02  0.37123379536E+03  0.39585932153E+03  0.89762022179E+02 0.  0.
         24    2    1    2    0    0  0.10136374806E+03 -0.85694925919E+02  0.13820318845E+03  0.20794481553E+03  0.80763204865E+02 0.  0.
        -11    1    4    4    0    0  0.99106815813E+02 -0.86659628913E+02  0.89529417175E+02  0.15920919811E+03  0.00000000000E+00 0.  1.
         12    1    4    4    0    0  0.22569322423E+01  0.96470299365E+00  0.48673771274E+02  0.48735617417E+02  0.00000000000E+00 0. -1.
        -13    1    3    3    0    0 -0.45370515894E+02  0.49647119829E+02  0.12158467201E+03  0.13894658214E+03  0.00000000000E+00 0.  1.
         13    1    3    3    0    0 -0.55577500696E+02 -0.24302516046E+02  0.24964912335E+03  0.25691273939E+03  0.00000000000E+00 0. -1.
         21    1    1    2  503  502  0.25283653528E+02 -0.50225984168E+01  0.61384312475E+02  0.66577199165E+02  0.00000000000E+00 0. -1.
          1    1    1    2  501    0 -0.25699384994E+02  0.65372920553E+02  0.68168432510E+02  0.97882645661E+02  0.00000000000E+00 0. -1.
<scales pt_clust_5="13000.00000" pt_clust_6="13000.00000" pt_clust_7="13000.00000" pt_clust_8="13000.00000" pt_clust_9="25.77770" pt_clust_10="68.49347"></scales>
<clustering>
<clus scale="   25.778">  1  9  2 -1</clus>
<clus scale="   68.493">  2 10  1 -1</clus>
<clus scale="   80.763">  5  6 -1 -1</clus>
<clus scale="   89.762">  7  8 -1 -1</clus>
<clus scale="  127.725">  2  5  1 -1</clus>
<clus scale="   68.493">  2  5  1 -1</clus>
</clustering>
</event>
<event>
10    4  0.2857708E-005  0.9619052E+02  0.7546771E-02  0.1294580E+00
         21   -1    0    0  503  502  0.00000000000E+00  0.00000000000E+00  0.16891866493E+03  0.16891866493E+03  0.00000000000E+00 0.  1.
         -1   -1    0    0    0  501 -0.00000000000E+00 -0.00000000000E+00 -0.19567904103E+03  0.19567904103E+03  0.00000000000E+00 0.  1.
         23    2    1    2    0    0  0.78992316390E+01 -0.15283141321E+02 -0.12064780589E+03  0.15174278764E+03  0.90410222132E+02 0.  0.
         24    2    1    2    0    0  0.28864721409E+01  0.42877979038E+02  0.11671889941E+03  0.14754130029E+03  0.79361709928E+02 0.  0.
        -11    1    4    4    0    0  0.30891050942E+02  0.48544691378E+02  0.55318116375E+02  0.79818156384E+02  0.00000000000E+00 0.  1.
         12    1    4    4    0    0 -0.28004578801E+02 -0.56667123401E+01  0.61400783035E+02  0.67723143901E+02  0.00000000000E+00 0. -1.
        -11    1    3    3    0    0 -0.67110897764E+01  0.19781589755E+02 -0.11045413850E+03  0.11241203997E+03  0.00000000000E+00 0.  1.
         11    1    3    3    0    0  0.14610321415E+02 -0.35064731077E+02 -0.10193667392E+02  0.39330747669E+02  0.00000000000E+00 0. -1.
         21    1    1    2  503  501 -0.30212757671E+02 -0.14062326970E+02 -0.24823322910E+02  0.41554267244E+02  0.00000000000E+00 0.  1.
         -2    1    1    2    0  502  0.19427053891E+02 -0.13532510746E+02  0.19918532920E+01  0.23759350780E+02  0.00000000000E+00 0.  1.
<scales pt_clust_5="13000.00000" pt_clust_6="13000.00000" pt_clust_7="13000.00000" pt_clust_8="13000.00000" pt_clust_9="32.70539" pt_clust_10="23.67571"></scales>
<clustering>
<clus scale="   23.676">  1 10  2 -1</clus>
<clus scale="   32.705">  2  9  1 -1</clus>
<clus scale="   79.362">  5  6 -1 -1</clus>
<clus scale="   85.889">  1  5  2 -1</clus>
<clus scale="   90.410">  7  8 -1 -1</clus>
<clus scale="   23.676">  1  5  2 -1</clus>
</clustering>
</event>
<event>
10    4  0.2857708E-005  0.2197086E+03  0.7546771E-02  0.1170319E+00
         21   -1    0    0  501  502  0.00000000000E+00  0.00000000000E+00  0.18113333223E+03  0.18113333223E+03  0.00000000000E+00 0.  1.
          2   -1    0    0  503    0 -0.00000000000E+00 -0.00000000000E+00 -0.58975006711E+03  0.58975006711E+03  0.00000000000E+00 0. -1.
         24    2    1    2    0    0 -0.60934398808E+02 -0.12447968421E+02  0.51228746696E+01  0.91967912169E+02  0.67556643995E+02 0.  0.
         23    2    1    2    0    0  0.24968710630E+03  0.95152961360E+02 -0.27850295502E+03  0.39648271365E+03  0.90757419342E+02 0.  0.
        -11    1    3    3    0    0 -0.36884885300E+02 -0.38632497563E+02 -0.81237694101E+01  0.54027402871E+02  0.00000000000E+00 0.  1.
         12    1    3    3    0    0 -0.24049513508E+02  0.26184529143E+02  0.13246644080E+02  0.37940509298E+02  0.00000000000E+00 0. -1.
        -13    1    4    4    0    0  0.13133249231E+03  0.30303494158E+02 -0.80921565304E+02  0.15720949407E+03  0.00000000000E+00 0.  1.
         13    1    4    4    0    0  0.11835461399E+03  0.64849467202E+02 -0.19758138971E+03  0.23927321958E+03  0.00000000000E+00 0. -1.
         21    1    1    2  503  502 -0.24124221577E+02 -0.14819861581E+02 -0.95996957290E+02  0.10008507468E+03  0.00000000000E+00 0.  1.
          1    1    1    2  501    0 -0.16462848591E+03 -0.67885131358E+02 -0.39239697249E+02  0.18234769884E+03  0.00000000000E+00 0. -1.
<scales pt_clust_5="13000.00000" pt_clust_6="13000.00000" pt_clust_7="13000.00000" pt_clust_8="13000.00000" pt_clust_9="28.31265" pt_clust_10="200.08739"></scales>
<clustering>
<clus scale="   28.313">  2  9  1 -1</clus>
<clus scale="   67.557">  5  6 -1 -1</clus>
<clus scale="   90.757">  7  8 -1 -1</clus>
<clus scale="   93.436">  2  5  1 -1</clus>
<clus scale="  200.087">  1 10  2 -1</clus>
<clus scale="  200.087">  1  5  2 -1</clus>
</clustering>
</event>
<event>
10    4  0.2857708E-005  0.1098425E+03  0.7546771E-02  0.1265159E+00
         21   -1    0    0  503  502  0.00000000000E+00  0.00000000000E+00  0.17105791056E+03  0.17105791056E+03  0.00000000000E+00 0. -1.
         -1   -1    0    0    0  501 -0.00000000000E+00 -0.00000000000E+00 -0.28290763789E+03  0.28290763789E+03  0.00000000000E+00 0.  1.
         23    2    1    2    0    0  0.25215164350E+02 -0.47025054467E+02 -0.16270097185E+02  0.10686857556E+03  0.91153804748E+02 0.  0.
         24    2    1    2    0    0 -0.91589770449E+02 -0.93840303524E+01  0.48387733099E+02  0.13137848052E+03  0.80263231636E+02 0.  0.
        -13    1    4    4    0    0  0.58736827379E+01 -0.20719208974E+02  0.19606901615E+02  0.29124154242E+02  0.00000000000E+00 0.  1.
         14    1    4    4    0    0 -0.97463453187E+02  0.11335178621E+02  0.28780831484E+02  0.10225432628E+03  0.00000000000E+00 0. -1.
        -11    1    3    3    0    0  0.35566575263E+02  0.14379158063E+02  0.94263005394E+01  0.39504387154E+02  0.00000000000E+00 0. -1.
         11    1    3    3    0    0 -0.10351410913E+02 -0.61404212530E+02 -0.25696397724E+02  0.67364188411E+02  0.00000000000E+00 0.  1.
         21    1    1    2  503  501  0.25033669431E+02 -0.30903269405E+02 -0.10368622586E+03  0.11105192524E+03  0.00000000000E+00 0.  1.
         -2    1    1    2    0  502  0.41340936668E+02  0.87312354224E+02 -0.40281137380E+02  0.10466656712E+03  0.00000000000E+00 0.  1.
<scales pt_clust_5="13000.00000" pt_clust_6="13000.00000" pt_clust_7="13000.00000" pt_clust_8="13000.00000" pt_clust_9="39.77055" pt_clust_10="90.71210"></scales>
<clustering>
<clus scale="   39.771">  2  9  1 -1</clus>
<clus scale="   80.263">  5  6 -1 -1</clus>
<clus scale="   90.712">  1 10  2 -1</clus>
<clus scale="   91.154">  7  8 -1 -1</clus>
<clus scale="  100.988">  1  5  2 -1</clus>
<clus scale="   90.712">  1  5  2 -1</clus>
</clustering>
</event>
<event>
10    4  0.2857708E-005  0.1406785E+03  0.7546771E-02  0.1235784E+00
         21   -1    0    0  501  502  0.00000000000E+00  0.00000000000E+00  0.46733463722E+03  0.46733463722E+03  0.00000000000E+00 0.  1.
          2   -1    0    0  503    0 -0.00000000000E+00 -0.00000000000E+00 -0.42407613070E+03  0.42407613070E+03  0.00000000000E+00 0. -1.
         23    2    1    2    0    0  0.10182898589E+03 -0.13556915886E+02  0.16712359490E+03  0.21611044122E+03  0.90666942690E+02 0.  0.
         24    2    1    2    0    0  0.15609691833E+02 -0.17140447937E+02 -0.19432972967E+02  0.87878597782E+02  0.82507878868E+02 0.  0.
        -11    1    4    4    0    0  0.14986190986E+02  0.19197679537E+02 -0.39468920250E+02  0.46378146638E+02  0.00000000000E+00 0.  1.
         12    1    4    4    0    0  0.62350084753E+00 -0.36338127474E+02  0.20035947283E+02  0.41500451144E+02  0.00000000000E+00 0. -1.
        -11    1    3    3    0    0  0.35454734956E+02 -0.49768928445E+02  0.81841836905E+02  0.10213750896E+03  0.00000000000E+00 0.  1.
         11    1    3    3    0    0  0.66374250931E+02  0.36212012559E+02  0.85281757992E+02  0.11397293225E+03  0.00000000000E+00 0. -1.
         21    1    1    2  503  502 -0.77605760458E+02  0.76071579267E+02 -0.33338077927E+03  0.35064552359E+03  0.00000000000E+00 0. -1.
          1    1    1    2  501    0 -0.39832917262E+02 -0.45374215444E+02  0.22894866386E+03  0.23677620533E+03  0.00000000000E+00 0. -1.
<scales pt_clust_5="13000.00000" pt_clust_6="13000.00000" pt_clust_7="13000.00000" pt_clust_8="13000.00000" pt_clust_9="107.56374" pt_clust_10="60.37782"></scales>
<clustering>
<clus scale="   60.378">  1 10  2 -1</clus>
<clus scale="   82.508">  5  6 -1 -1</clus>
<clus scale="   86.419">  1  5  2 -1</clus>
<clus scale="   90.667">  7  8 -1 -1</clus>
<clus scale="  107.564">  2  9  1 -1</clus>
<clus scale="   60.378">  1  5  2 -1</clus>
</clustering>
</event>
<event>
10    4  0.2857708E-005  0.1528983E+03  0.7546771E-02  0.1211027E+00
          2   -1    0    0  503    0 -0.00000000000E+00  0.00000000000E+00  0.20286304598E+04  0.20286304598E+04  0.00000000000E+00 0. -1.
         21   -1    0    0  501  502  0.00000000000E+00 -0.00000000000E+00 -0.43669269686E+02  0.43669269686E+02  0.00000000000E+00 0. -1.
         24    2    1    2    0    0 -0.47777497607E+02 -0.68959417446E+02  0.60539885655E+03  0.61634449449E+03  0.79590639199E+02 0.  0.
         23    2    1    2    0    0 -0.11558170407E+03 -0.57496686751E+02  0.30494349830E+03  0.34539669723E+03  0.98200519336E+02 0.  0.
        -11    1    3    3    0    0 -0.54078750276E+02 -0.92912910404E+01  0.32482356430E+03  0.32942554127E+03  0.00000000000E+00 0.  1.
         12    1    3    3    0    0  0.63012526693E+01 -0.59668126405E+02  0.28057529225E+03  0.28691895322E+03  0.00000000000E+00 0. -1.
        -13    1    4    4    0    0 -0.28257986607E+02 -0.63156340707E+02  0.18014958340E+03  0.19297955741E+03  0.00000000000E+00 0.  1.
         13    1    4    4    0    0 -0.87323717467E+02  0.56596539561E+01  0.12479391490E+03  0.15241713982E+03  0.00000000000E+00 0. -1.
         21    1    1    2  503  502  0.90383142033E+02  0.14254321630E+03  0.95288722396E+03  0.96771986776E+03  0.00000000000E+00 0. -1.
          1    1    1    2  501    0  0.72976059649E+02 -0.16087112100E+02  0.12173161132E+03  0.14283867002E+03  0.00000000000E+00 0. -1.
<scales pt_clust_5="13000.00000" pt_clust_6="13000.00000" pt_clust_7="13000.00000" pt_clust_8="13000.00000" pt_clust_9="117.19453" pt_clust_10="74.72818"></scales>
<clustering>
<clus scale="   74.728">  2 10  1 -1</clus>
<clus scale="   79.591">  5  6 -1 -1</clus>
<clus scale="   98.201">  7  8 -1 -1</clus>
<clus scale="  112.870">  1  5  2 -1</clus>
<clus scale="  117.195">  1  9  2 -1</clus>
<clus scale="   74.728">  2  5  1 -1</clus>
</clustering>
</event>
<event>
10    4  0.2857708E-005  0.1265742E+03  0.7546771E-02  0.1235958E+00
          2   -1    0    0  503    0 -0.00000000000E+00  0.00000000000E+00  0.96688555165E+03  0.96688555165E+03  0.00000000000E+00 0. -1.
         21   -1    0    0  501  502  0.00000000000E+00 -0.00000000000E+00 -0.66870115525E+02  0.66870115525E+02  0.00000000000E+00 0. -1.
         23    2    1    2    0    0 -0.61983387362E+02  0.51563632404E+02  0.48339351999E+03  0.49858670728E+03  0.91753261626E+02 0.  0.
         24    2    1    2    0    0  0.64896179111E+01 -0.81838436670E+02  0.13479578020E+03  0.17687270717E+03  0.79839885551E+02 0.  0.
        -11    1    4    4    0    0  0.30420338479E+02 -0.18884225700E+01  0.28476586038E+02  0.41711857851E+02  0.00000000000E+00 0.  1.
         12    1    4    4    0    0 -0.23930720568E+02 -0.79950014100E+02  0.10631919416E+03  0.13516084932E+03  0.00000000000E+00 0. -1.
        -13    1    3    3    0    0 -0.85451267008E+02  0.45447999946E+02  0.41087625662E+03  0.42212170992E+03  0.00000000000E+00 0. -1.
         13    1    3    3    0    0  0.23467879646E+02  0.61156324582E+01  0.72517263366E+02  0.76464997362E+02  0.00000000000E+00 0.  1.
         21    1    1    2  503  502 -0.45525820767E+02  0.63203993465E+01  0.24322793392E+03  0.24753257491E+03  0.00000000000E+00 0. -1.
          1    1    1    2  501    0  0.10101959022E+03  0.23954404919E+02  0.38598202021E+02  0.11076367781E+03  0.00000000000E+00 0. -1.
<scales pt_clust_5="13000.00000" pt_clust_6="13000.00000" pt_clust_7="13000.00000" pt_clust_8="13000.00000" pt_clust_9="45.96246" pt_clust_10="99.40165"></scales>
<clustering>
<clus scale="   45.962">  1  9  2 -1</clus>
<clus scale="   79.840">  5  6 -1 -1</clus>
<clus scale="   91.753">  7  8 -1 -1</clus>
<clus scale="   99.402">  2 10  1 -1</clus>
<clus scale="  118.223">  2  5  1 -1</clus>
<clus scale="   99.402">  2  5  1 -1</clus>
</clustering>
</event>
<event>
10    4  0.2857708E-005  0.4748597E+03  0.7546771E-02  0.1020679E+00
         21   -1    0    0  501  502  0.00000000000E+00  0.00000000000E+00  0.36813826899E+03  0.36813826899E+03  0.00000000000E+00 0. -1.
          2   -1    0    0  503    0 -0.00000000000E+00 -0.00000000000E+00 -0.23386044610E+04  0.23386044610E+04  0.00000000000E+00 0. -1.
         24    2    1    2    0    0  0.52313009801E+03  0.53594899859E+02 -0.16142044432E+04  0.16995676831E+04  0.79604097452E+02 0.  0.
         23    2    1    2    0    0 -0.36817164467E+03  0.11341417730E+03 -0.39004211363E+03  0.55545229437E+03  0.89337927924E+02 0.  0.
        -11    1    3    3    0    0  0.94807019143E+02 -0.11494591871E+02 -0.22661070504E+03  0.24591239936E+03  0.00000000000E+00 0.  1.
         12    1    3    3    0    0  0.42832307886E+03  0.65089491730E+02 -0.13875937381E+04  0.14536552837E+04  0.00000000000E+00 0. -1.
        -11    1    4    4    0    0 -0.28475319854E+03  0.68072872040E+02 -0.33803169778E+03  0.44719540326E+03  0.00000000000E+00 0. -1.
         11    1    4    4    0    0 -0.83418446128E+02  0.45341305259E+02 -0.52010415843E+02  0.10825689111E+03  0.00000000000E+00 0.  1.
         21    1    1    2  503  502 -0.97006242882E+01 -0.51908187694E+02 -0.16897070268E+03  0.17703011163E+03  0.00000000000E+00 0. -1.
          1    1    1    2  501    0 -0.14525782905E+03 -0.11510088946E+03  0.20275106742E+03  0.27469264095E+03  0.00000000000E+00 0. -1.
<scales pt_clust_5="13000.00000" pt_clust_6="13000.00000" pt_clust_7="13000.00000" pt_clust_8="13000.00000" pt_clust_9="52.80684" pt_clust_10="185.99492"></scales>
<clustering>
<clus scale="   52.807">  2  9  1 -1</clus>
<clus scale="   79.604">  5  6 -1 -1</clus>
<clus scale="   89.338">  7  8 -1 -1</clus>
<clus scale="  185.995">  1 10  2 -1</clus>
<clus scale="  473.125">  2  5  1 -1</clus>
<clus scale="  185.995">  1  5  2 -1</clus>
</clustering>
</event>
<event>
10    4  0.2857708E-005  0.1704225E+03  0.7546771E-02  0.1181640E+00
         -3   -1    0    0    0  501 -0.00000000000E+00  0.00000000000E+00  0.10884621153E+03  0.10884621153E+03  0.00000000000E+00 0.  1.
         21   -1    0    0  503  502  0.00000000000E+00 -0.00000000000E+00 -0.47593922186E+03  0.47593922186E+03  0.00000000000E+00 0. -1.
         24    2    1    2    0    0  0.25541940596E+02 -0.14907010446E+03 -0.19206510290E+02  0.17164302415E+03  0.78855253009E+02 0.  0.
         23    2    1    2    0    0 -0.24804758418E+02  0.86378539239E+02 -0.21420236467E+03  0.25536771257E+03  0.10608245618E+03 0.  0.
        -11    1    3    3    0    0 -0.10533807475E+02 -0.50698180674E+02  0.25507626723E+02  0.57722661448E+02  0.00000000000E+00 0.  1.
         12    1    3    3    0    0  0.36075748071E+02 -0.98371923787E+02 -0.44714137014E+02  0.11392036270E+03  0.00000000000E+00 0. -1.
        -11    1    4    4    0    0  0.89033273651E+01  0.40173919603E+02 -0.87044333352E+01  0.42059246476E+02  0.00000000000E+00 0.  1.
         11    1    4    4    0    0 -0.33708085783E+02  0.46204619636E+02 -0.20549793134E+03  0.21330846609E+03  0.00000000000E+00 0. -1.
         21    1    1    2  503  501  0.18975910423E+02  0.47337589212E+02 -0.54049832494E+02  0.74312293205E+02  0.00000000000E+00 0. -1.
         -4    1    1    2    0  502 -0.19713092601E+02  0.15353976010E+02 -0.79634302865E+02  0.83462403464E+02  0.00000000000E+00 0.  1.
<scales pt_clust_5="13000.00000" pt_clust_6="13000.00000" pt_clust_7="13000.00000" pt_clust_8="13000.00000" pt_clust_9="52.27117" pt_clust_10="24.98701"></scales>
<clustering>
<clus scale="   24.987">  2 10  1 -1</clus>
<clus scale="   52.271">  2  9  1 -1</clus>
<clus scale="   78.855">  5  6 -1 -1</clus>
<clus scale="  106.082">  7  8 -1 -1</clus>
<clus scale="  154.947">  1  5  2 -1</clus>
<clus scale="   24.987">  2  5  1 -1</clus>
</clustering>
</event>
<event>
10    4  0.2857708E-005  0.3454905E+03  0.7546771E-02  0.1064729E+00
         21   -1    0    0  501  502  0.00000000000E+00  0.00000000000E+00  0.81970792784E+02  0.81970792784E+02  0.00000000000E+00 0. -1.
          2   -1    0    0  503    0 -0.00000000000E+00 -0.00000000000E+00 -0.28434323231E+04  0.28434323231E+04  0.00000000000E+00 0. -1.
         24    2    1    2    0    0  0.31910030879E+03  0.19750045259E+03 -0.10196156586E+04  0.10895207070E+04  0.81288645943E+02 0.  0.
         23    2    1    2    0    0 -0.18150882464E+03 -0.23111116265E+03 -0.53746984528E+03  0.61924683580E+03  0.90746824426E+02 0.  0.
        -11    1    3    3    0    0  0.14073499555E+03  0.50056849802E+02 -0.47022883018E+03  0.49338340053E+03  0.00000000000E+00 0.  1.
         12    1    3    3    0    0  0.17836531324E+03  0.14744360279E+03 -0.54938682838E+03  0.59613730647E+03  0.00000000000E+00 0. -1.
        -11    1    4    4    0    0 -0.48533064950E+02 -0.74776909578E+02 -0.88624398306E+02  0.12570333557E+03  0.00000000000E+00 0.  1.
         11    1    4    4    0    0 -0.13297575969E+03 -0.15633425308E+03 -0.44884544698E+03  0.49354350023E+03  0.00000000000E+00 0. -1.
         21    1    1    2  503  502  0.89259768096E+01  0.17933835695E+02 -0.72806731890E+02  0.75512354839E+02  0.00000000000E+00 0. -1.
          1    1    1    2  501    0 -0.14651746096E+03  0.15676874367E+02 -0.11315692946E+04  0.11411232182E+04  0.00000000000E+00 0. -1.
<scales pt_clust_5="13000.00000" pt_clust_6="13000.00000" pt_clust_7="13000.00000" pt_clust_8="13000.00000" pt_clust_9="20.03236" pt_clust_10="144.70023"></scales>
<clustering>
<clus scale="   20.032">  2  9  1 -1</clus>
<clus scale="   81.289">  5  6 -1 -1</clus>
<clus scale="   90.747">  7  8 -1 -1</clus>
<clus scale="  144.700">  1 10  2 -1</clus>
<clus scale="  343.128">  2  5  1 -1</clus>
<clus scale="  144.700">  1  5  2 -1</clus>
</clustering>
</event>
<event>
10    4  0.2857708E-005  0.1191441E+03  0.7546771E-02  0.1247202E+00
          2   -1    0    0  503    0 -0.00000000000E+00  0.00000000000E+00  0.60287267554E+03  0.60287267554E+03  0.00000000000E+00 0. -1.
         21   -1    0    0  501  502  0.00000000000E+00 -0.00000000000E+00 -0.13808906875E+03  0.13808906875E+03  0.00000000000E+00 0.  1.
         23    2    1    2    0    0 -0.31109130060E+02 -0.80177242949E+02  0.43858264952E+03  0.45575338294E+03  0.89220162221E+02 0.  0.
         24    2    1    2    0    0 -0.21150086402E+02  0.55048053103E+02 -0.81472793622E+02  0.12892459818E+03  0.80660533163E+02 0.  0.
        -13    1    4    4    0    0 -0.27089378027E+02  0.69777343357E+02 -0.84362869513E+02  0.11278211649E+03  0.00000000000E+00 0.  1.
         14    1    4    4    0    0  0.59392916252E+01 -0.14729290254E+02  0.28900758909E+01  0.16142481688E+02  0.00000000000E+00 0. -1.
        -13    1    3    3    0    0 -0.25028923705E+02 -0.99271190168E+02  0.33677381060E+03  0.35199121541E+03  0.00000000000E+00 0. -1.
         13    1    3    3    0    0 -0.60802063551E+01  0.19093947219E+02  0.10180883892E+03  0.10376216753E+03  0.00000000000E+00 0.  1.
         21    1    1    2  503  502  0.74538278677E+02  0.59157258069E+01  0.10175670777E+03  0.12627501089E+03  0.00000000000E+00 0.  1.
          1    1    1    2  501    0 -0.22279062215E+02  0.19213464040E+02  0.59170431361E+01  0.30008752275E+02  0.00000000000E+00 0. -1.
<scales pt_clust_5="13000.00000" pt_clust_6="13000.00000" pt_clust_7="13000.00000" pt_clust_8="13000.00000" pt_clust_9="72.78884" pt_clust_10="29.41962"></scales>
<clustering>
<clus scale="   29.420">  2 10  1 -1</clus>
<clus scale="   72.789">  1  9  2 -1</clus>
<clus scale="   80.661">  5  6 -1 -1</clus>
<clus scale="   89.220">  7  8 -1 -1</clus>
<clus scale="  112.877">  2  5  1 -1</clus>
<clus scale="   29.420">  2  5  1 -1</clus>
</clustering>
</event>
<event>
10    4  0.2857708E-005  0.2581978E+03  0.7546771E-02  0.1115385E+00
          2   -1    0    0  503    0 -0.00000000000E+00  0.00000000000E+00  0.63825103917E+03  0.63825103917E+03  0.00000000000E+00 0. -1.
         21   -1    0    0  501  502  0.00000000000E+00 -0.00000000000E+00 -0.46622871419E+03  0.46622871419E+03  0.00000000000E+00 0. -1.
         24    2    1    2    0    0  0.16911928261E+03 -0.10926729343E+03  0.42396595919E+03  0.47614523917E+03  0.80165335820E+02 0.  0.
         23    2    1    2    0    0  0.11958371308E+03  0.15685477668E+03  0.90801566021E+01  0.21980671367E+03  0.96586006886E+02 0.  0.
        -11    1    3    3    0    0  0.71443937955E+02 -0.91585329272E+01  0.99658020961E+02  0.12296274288E+03  0.00000000000E+00 0.  1.
         12    1    3    3    0    0  0.97675344651E+02 -0.10010876050E+03  0.32430793823E+03  0.35318249628E+03  0.00000000000E+00 0. -1.
        -11    1    4    4    0    0 -0.15063491200E+02  0.14495450044E+02 -0.95318092296E+01  0.22975687722E+02  0.00000000000E+00 0.  1.
         11    1    4    4    0    0  0.13464720428E+03  0.14235932664E+03  0.18611965832E+02  0.19683102595E+03  0.00000000000E+00 0. -1.
         21    1    1    2  503  502 -0.18675133264E+02  0.19447281809E+02  0.95935500734E-01  0.26962317701E+02  0.00000000000E+00 0. -1.
          1    1    1    2  501    0 -0.27002786242E+03 -0.67034765062E+02 -0.26111972631E+03  0.38156548282E+03  0.00000000000E+00 0. -1.
<scales pt_clust_5="13000.00000" pt_clust_6="13000.00000" pt_clust_7="13000.00000" pt_clust_8="13000.00000" pt_clust_9="26.96215" pt_clust_10="239.45198"></scales>
<clustering>
<clus scale="   26.962">  2  9  1 -1</clus>
<clus scale="   80.165">  5  6 -1 -1</clus>
<clus scale="   96.586">  7  8 -1 -1</clus>
<clus scale="  215.315">  1  5  2 -1</clus>
<clus scale="  239.452">  2 10  1 -1</clus>
<clus scale="   26.962">  2  5  1 -1</clus>
</clustering>
</event>
<event>
10    4  0.2867303E-005  0.1806475E+03  0.7546771E-02  0.1168386E+00
          4   -1    0    0  503    0 -0.00000000000E+00  0.00000000000E+00  0.77138819438E+03  0.77138819438E+03  0.00000000000E+00 0. -1.
         21   -1    0    0  501  502  0.00000000000E+00 -0.00000000000E+00 -0.48626216690E+03  0.48626216690E+03  0.00000000000E+00 0. -1.
         23    2    1    2    0    0  0.10950493549E+03 -0.10996466560E+03  0.57712047671E+03  0.60440068129E+03  0.90269487298E+02 0.  0.
         24    2    1    2    0    0 -0.97000552468E+02  0.67567724929E+02  0.61327136632E+02  0.15531411496E+03  0.79918408308E+02 0.  0.
        -11    1    4    4    0    0 -0.99435214787E+02  0.66968827848E+02  0.29594886069E+02  0.12348296694E+03  0.00000000000E+00 0.  1.
         12    1    4    4    0    0  0.24346623188E+01  0.59889708124E+00  0.31732250563E+02  0.31831148017E+02  0.00000000000E+00 0. -1.
        -13    1    3    3    0    0  0.99294408967E+02 -0.40685614338E+02  0.39387153565E+03  0.40822724733E+03  0.00000000000E+00 0.  1.
         13    1    3    3    0    0  0.10210526525E+02 -0.69279051259E+02  0.18324894106E+03  0.19617343397E+03  0.00000000000E+00 0. -1.
         21    1    1    2  503  502  0.16661563711E+02 -0.12743532429E+02  0.68441849623E+02  0.71584160984E+02  0.00000000000E+00 0.  1.
          3    1    1    2  501    0 -0.29165946736E+02  0.55140473097E+02 -0.42176343548E+03  0.42635140405E+03  0.00000000000E+00 0. -1.
<scales pt_clust_5="13000.00000" pt_clust_6="13000.00000" pt_clust_7="13000.00000" pt_clust_8="13000.00000" pt_clust_9="20.97630" pt_clust_10="62.31656"></scales>
<clustering>
<clus scale="   20.976">  1  9  2 -1</clus>
<clus scale="   62.317">  2 10  1 -1</clus>
<clus scale="   79.918">  5  6 -1 -1</clus>
<clus scale="   90.269">  7  8 -1 -1</clus>
<clus scale="  175.704">  2  5  1 -1</clus>
<clus scale="   62.317">  2  5  1 -1</clus>
</clustering>
</event>
<event>
10    4  0.2857708E-005  0.1107707E+03  0.7546771E-02  0.1262128E+00
          2   -1    0    0  503    0 -0.00000000000E+00  0.00000000000E+00  0.45994376242E+03  0.45994376242E+03  0.00000000000E+00 0. -1.
         21   -1    0    0  501  502  0.00000000000E+00 -0.00000000000E+00 -0.10001890117E+03  0.10001890117E+03  0.00000000000E+00 0. -1.
         24    2    1    2    0    0  0.28300913109E+02 -0.76385947133E+02  0.17929337495E+03  0.21273301112E+03  0.80457846833E+02 0.  0.
         23    2    1    2    0    0  0.66387290688E+02  0.18700891827E+02  0.17607884874E+01  0.11219613155E+03  0.88475283774E+02 0.  0.
        -13    1    3    3    0    0  0.19634925327E+02 -0.92758718888E+02  0.13753013382E+03  0.16704564625E+03  0.00000000000E+00 0.  1.
         14    1    3    3    0    0  0.86659877815E+01  0.16372771755E+02  0.41763241126E+02  0.45687364867E+02  0.00000000000E+00 0. -1.
        -11    1    4    4    0    0  0.70316708291E+02 -0.35413930974E+01 -0.27192731167E+02  0.75474668321E+02  0.00000000000E+00 0. -1.
         11    1    4    4    0    0 -0.39294176021E+01  0.22242284924E+02  0.28953519655E+02  0.36721463230E+02  0.00000000000E+00 0.  1.
         21    1    1    2  503  502 -0.76110165703E+02 -0.53462540785E+01  0.13788632729E+03  0.15758800401E+03  0.00000000000E+00 0. -1.
          1    1    1    2  501    0 -0.18578038094E+02  0.63031309385E+02  0.40984370518E+02  0.77445516907E+02  0.00000000000E+00 0. -1.
<scales pt_clust_5="13000.00000" pt_clust_6="13000.00000" pt_clust_7="13000.00000" pt_clust_8="13000.00000" pt_clust_9="78.37993" pt_clust_10="65.71217"></scales>
<clustering>
<clus scale="   65.712">  2 10  1 -1</clus>
<clus scale="   78.380">  1  9  2 -1</clus>
<clus scale="   80.458">  5  6 -1 -1</clus>
<clus scale="   88.475">  7  8 -1 -1</clus>
<clus scale="  104.478">  1  5  2 -1</clus>
<clus scale="   65.712">  2  5  1 -1</clus>
</clustering>
</event>
<event>
10    4  0.2857708E-005  0.2061435E+03  0.7546771E-02  0.1180146E+00
         -1   -1    0    0    0  501 -0.00000000000E+00  0.00000000000E+00  0.27069837806E+03  0.27069837806E+03  0.00000000000E+00 0.  1.
         21   -1    0    0  503  502  0.00000000000E+00 -0.00000000000E+00 -0.28172254779E+03  0.28172254779E+03  0.00000000000E+00 0.  1.
         24    2    1    2    0    0 -0.16965452168E+02  0.43295458031E+02  0.14993385703E+02  0.93523430935E+02  0.79746518831E+02 0.  0.
         23    2    1    2    0    0  0.84191660282E+02 -0.17468486962E+03 -0.10585037176E+03  0.23896424370E+03  0.91085505038E+02 0.  0.
        -11    1    3    3    0    0  0.30846402153E+02  0.70470007680E+01 -0.15419851241E+00  0.31641500009E+02  0.00000000000E+00 0.  1.
         12    1    3    3    0    0 -0.47811854321E+02  0.36248457263E+02  0.15147584215E+02  0.61881930926E+02  0.00000000000E+00 0. -1.
        -13    1    4    4    0    0  0.10053031481E+03 -0.15099274127E+03 -0.73655641700E+02  0.19578126996E+03  0.00000000000E+00 0.  1.
         13    1    4    4    0    0 -0.16338654523E+02 -0.23692128354E+02 -0.32194730063E+02  0.43182973744E+02  0.00000000000E+00 0. -1.
         21    1    1    2  503  501  0.32862218420E+02 -0.67179988291E+01  0.20682850237E+02  0.39406055393E+02  0.00000000000E+00 0.  1.
         -2    1    1    2    0  502 -0.10008842653E+03  0.13810741042E+03  0.59149966094E+02  0.18052719581E+03  0.00000000000E+00 0.  1.
<scales pt_clust_5="13000.00000" pt_clust_6="13000.00000" pt_clust_7="13000.00000" pt_clust_8="13000.00000" pt_clust_9="33.54187" pt_clust_10="184.92867"></scales>
<clustering>
<clus scale="   33.542">  1  9  2 -1</clus>
<clus scale="   79.747">  5  6 -1 -1</clus>
<clus scale="   90.534">  1  5  2 -1</clus>
<clus scale="   91.086">  7  8 -1 -1</clus>
<clus scale="  184.929">  2 10  1 -1</clus>
<clus scale="  184.929">  2  5  1 -1</clus>
</clustering>
</event>
<event>
10    4  0.2857708E-005  0.3351893E+03  0.7546771E-02  0.1105050E+00
         21   -1    0    0  501  502  0.00000000000E+00  0.00000000000E+00  0.10333116414E+04  0.10333116414E+04  0.00000000000E+00 0.  1.
          2   -1    0    0  503    0 -0.00000000000E+00 -0.00000000000E+00 -0.28331090209E+03  0.28331090209E+03  0.00000000000E+00 0. -1.
         24    2    1    2    0    0 -0.32948990572E+02  0.92672988398E+02  0.77524319114E+02  0.14976867745E+03  0.82138407169E+02 0.  0.
         23    2    1    2    0    0  0.28312285970E+02 -0.33994565352E+03  0.75220730049E+03  0.83092187039E+03  0.90833357785E+02 0.  0.
        -11    1    3    3    0    0 -0.42667138363E+02  0.41642309741E+02  0.40133019353E+01  0.59755110653E+02  0.00000000000E+00 0.  1.
         12    1    3    3    0    0  0.97181477907E+01  0.51030678657E+02  0.73511017178E+02  0.90013566795E+02  0.00000000000E+00 0. -1.
        -11    1    4    4    0    0 -0.21315677882E+02 -0.24129656552E+03  0.53340002949E+03  0.58582760443E+03  0.00000000000E+00 0.  1.
         11    1    4    4    0    0  0.49627963852E+02 -0.98649088000E+02  0.21880727101E+03  0.24509426596E+03  0.00000000000E+00 0. -1.
         21    1    1    2  503  502 -0.30964401340E+02 -0.12872257363E+02 -0.64770712206E+02  0.72936508826E+02  0.00000000000E+00 0.  1.
          1    1    1    2  501    0  0.35601105943E+02  0.26014492249E+03 -0.14960168120E+02  0.26299548679E+03  0.00000000000E+00 0. -1.
<scales pt_clust_5="13000.00000" pt_clust_6="13000.00000" pt_clust_7="13000.00000" pt_clust_8="13000.00000" pt_clust_9="33.53340" pt_clust_10="322.64730"></scales>
<clustering>
<clus scale="   33.533">  2  9  1 -1</clus>
<clus scale="   82.138">  5  6 -1 -1</clus>
<clus scale="   90.833">  7  8 -1 -1</clus>
<clus scale="  128.041">  2  5  1 -1</clus>
<clus scale="  322.647">  1 10  2 -1</clus>
<clus scale="  322.647">  1  5  2 -1</clus>
</clustering>
</event>
<event>
10    4  0.2857708E-005  0.1336409E+03  0.7546771E-02  0.1226424E+00
         21   -1    0    0  501  502  0.00000000000E+00  0.00000000000E+00  0.10765020151E+04  0.10765020151E+04  0.00000000000E+00 0.  1.
          4   -1    0    0  503    0 -0.00000000000E+00 -0.00000000000E+00 -0.11576507999E+03  0.11576507999E+03  0.00000000000E+00 0. -1.
         24    2    1    2    0    0 -0.37238653207E+02 -0.85069639185E+02  0.38033827297E+03  0.39965549967E+03  0.80273007464E+02 0.  0.
         23    2    1    2    0    0 -0.51296593942E+02  0.99718063203E+02  0.56864161053E+03  0.58761107296E+03  0.96739129455E+02 0.  0.
        -13    1    3    3    0    0 -0.54981840348E+02 -0.86853072398E+02  0.34622668997E+03  0.36116392372E+03  0.00000000000E+00 0.  1.
         14    1    3    3    0    0  0.17743187141E+02  0.17834332138E+01  0.34111582999E+02  0.38491575944E+02  0.00000000000E+00 0. -1.
        -13    1    4    4    0    0 -0.54423191042E+02  0.14363244724E+02  0.31459663111E+03  0.31959228218E+03  0.00000000000E+00 0.  1.
         13    1    4    4    0    0  0.31265970993E+01  0.85354818479E+02  0.25404497941E+03  0.26801879078E+03  0.00000000000E+00 0. -1.
         21    1    1    2  503  502  0.73042441691E+02 -0.53799012219E+02  0.82536102175E+02  0.12264477227E+03  0.00000000000E+00 0. -1.
          3    1    1    2  501    0  0.15492805458E+02  0.39150588201E+02 -0.70779050601E+02  0.82355750142E+02  0.00000000000E+00 0. -1.
<scales pt_clust_5="13000.00000" pt_clust_6="13000.00000" pt_clust_7="13000.00000" pt_clust_8="13000.00000" pt_clust_9="89.77215" pt_clust_10="42.10460"></scales>
<clustering>
<clus scale="   42.105">  1 10  2 -1</clus>
<clus scale="   80.273">  5  6 -1 -1</clus>
<clus scale="   89.772">  2  9  1 -1</clus>
<clus scale="   96.739">  7  8 -1 -1</clus>
<clus scale="  122.251">  2  5  1 -1</clus>
<clus scale="   42.105">  1  5  2 -1</clus>
</clustering>
</event>
<event>
10    4  0.2857708E-005  0.1599447E+03  0.7546771E-02  0.1190253E+00
         21   -1    0    0  501  502  0.00000000000E+00  0.00000000000E+00  0.64704442407E+02  0.64704442407E+02  0.00000000000E+00 0.  1.
          2   -1    0    0  503    0 -0.00000000000E+00 -0.00000000000E+00 -0.10147376339E+04  0.10147376339E+04  0.00000000000E+00 0. -1.
         23    2    1    2    0    0  0.13313388507E+03 -0.38711578879E+02 -0.71506905257E+03  0.73387719803E+03  0.89603427102E+02 0.  0.
         24    2    1    2    0    0 -0.13222344582E+03  0.87919240225E+02 -0.13445073920E+03  0.22289677985E+03  0.79957118326E+02 0.  0.
        -13    1    4    4    0    0 -0.41078857963E+02 -0.23459851767E+01 -0.63916244595E+01  0.41639273303E+02  0.00000000000E+00 0.  1.
         14    1    4    4    0    0 -0.91144587857E+02  0.90265225402E+02 -0.12805911474E+03  0.18125750655E+03  0.00000000000E+00 0. -1.
        -13    1    3    3    0    0  0.73593138295E+02 -0.62748140620E+02 -0.50640892658E+03  0.51556113127E+03  0.00000000000E+00 0. -1.
         13    1    3    3    0    0  0.59540746773E+02  0.24036561741E+02 -0.20866012598E+03  0.21831606675E+03  0.00000000000E+00 0.  1.
         21    1    1    2  503  502 -0.20371359887E+02 -0.10461988723E+02 -0.56125489961E+02  0.60617787283E+02  0.00000000000E+00 0.  1.
          1    1    1    2  501    0  0.19460920640E+02 -0.38745672623E+02 -0.44387909735E+02  0.62050311118E+02  0.00000000000E+00 0. -1.
<scales pt_clust_5="13000.00000" pt_clust_6="13000.00000" pt_clust_7="13000.00000" pt_clust_8="13000.00000" pt_clust_9="22.90078" pt_clust_10="43.38860"></scales>
<clustering>
<clus scale="   22.901">  2  9  1 -1</clus>
<clus scale="   43.389">  1 10  2 -1</clus>
<clus scale="   79.957">  5  6 -1 -1</clus>
<clus scale="   89.603">  7  8 -1 -1</clus>
<clus scale="  154.747">  1  5  2 -1</clus>
<clus scale="   43.389">  1  5  2 -1</clus>
</clustering>
</event>
<event>
10    4  0.2857708E-005  0.1354631E+03  0.7546771E-02  0.1243967E+00
          2   -1    0    0  503    0 -0.00000000000E+00  0.00000000000E+00  0.21943842789E+03  0.21943842789E+03  0.00000000000E+00 0. -1.
         21   -1    0    0  501  502  0.00000000000E+00 -0.00000000000E+00 -0.91863267956E+03  0.91863267956E+03  0.00000000000E+00 0. -1.
         23    2    1    2    0    0  0.35709294645E+02  0.78828521177E+02 -0.60378851031E+03  0.61667930782E+03  0.90794900965E+02 0.  0.
         24    2    1    2    0    0  0.48545774446E+01  0.25606873081E+02 -0.10688827738E+03  0.13535295729E+03  0.78841869186E+02 0.  0.
        -11    1    4    4    0    0 -0.25681740409E+02 -0.18319895586E+01 -0.85031555279E+02  0.88844095861E+02  0.00000000000E+00 0.  1.
         12    1    4    4    0    0  0.30536317854E+02  0.27438862639E+02 -0.21856722098E+02  0.46508861434E+02  0.00000000000E+00 0. -1.
        -11    1    3    3    0    0  0.18842840898E+02 -0.16451435046E+02 -0.73629310307E+02  0.77762315452E+02  0.00000000000E+00 0.  1.
         11    1    3    3    0    0  0.16866453747E+02  0.95279956222E+02 -0.53015920000E+03  0.53891699237E+03  0.00000000000E+00 0. -1.
         21    1    1    2  503  502 -0.72607959790E+02 -0.70146409891E+02  0.18257355695E+03  0.20862775065E+03  0.00000000000E+00 0. -1.
          1    1    1    2  501    0  0.32044087700E+02 -0.34288984366E+02 -0.17109102094E+03  0.17741109168E+03  0.00000000000E+00 0. -1.
<scales pt_clust_5="13000.00000" pt_clust_6="13000.00000" pt_clust_7="13000.00000" pt_clust_8="13000.00000" pt_clust_9="100.53122" pt_clust_10="46.93142"></scales>
<clustering>
<clus scale="   46.931">  2 10  1 -1</clus>
<clus scale="   78.842">  5  6 -1 -1</clus>
<clus scale="   81.967">  2  5  1 -1</clus>
<clus scale="   90.795">  7  8 -1 -1</clus>
<clus scale="  100.531">  1  9  2 -1</clus>
<clus scale="   46.931">  2  5  1 -1</clus>
</clustering>
</event>
<event>
10    4  0.2857708E-005  0.1341265E+03  0.7546771E-02  0.1228783E+00
         -1   -1    0    0    0  501 -0.00000000000E+00  0.00000000000E+00  0.40606784869E+03  0.40606784869E+03  0.00000000000E+00 0.  1.
         21   -1    0    0  503  502  0.00000000000E+00 -0.00000000000E+00 -0.15926885685E+03  0.15926885685E+03  0.00000000000E+00 0.  1.
         23    2    1    2    0    0 -0.61476103056E+02 -0.36602766577E+02  0.15873823277E+03  0.20377693965E+03  0.10586850723E+03 0.  0.
         24    2    1    2    0    0  0.39239368393E+02  0.49907330445E+02 -0.13519091387E+02  0.10340353676E+03  0.80492583000E+02 0.  0.
        -11    1    4    4    0    0 -0.77532412066E+01  0.48771753059E+02 -0.24506099759E+02  0.55130260030E+02  0.00000000000E+00 0.  1.
         12    1    4    4    0    0  0.46992609600E+02  0.11355773866E+01  0.10987008372E+02  0.48273276727E+02  0.00000000000E+00 0. -1.
        -13    1    3    3    0    0 -0.37281409306E+02  0.35063181506E+02  0.76516926438E+02  0.92055256279E+02  0.00000000000E+00 0. -1.
         13    1    3    3    0    0 -0.24194693749E+02 -0.71665948083E+02  0.82221306328E+02  0.11172168337E+03  0.00000000000E+00 0.  1.
         21    1    1    2  503  501 -0.15444800324E+02 -0.35041574859E+02  0.17154639360E+03  0.17576865188E+03  0.00000000000E+00 0.  1.
         -2    1    1    2    0  502  0.37681534987E+02  0.21737010990E+02 -0.69966543140E+02  0.82387577247E+02  0.00000000000E+00 0.  1.
<scales pt_clust_5="13000.00000" pt_clust_6="13000.00000" pt_clust_7="13000.00000" pt_clust_8="13000.00000" pt_clust_9="38.29431" pt_clust_10="42.68056"></scales>
<clustering>
<clus scale="   38.294">  1  9  2 -1</clus>
<clus scale="   42.681">  2 10  1 -1</clus>
<clus scale="   80.493">  5  6 -1 -1</clus>
<clus scale="  105.869">  7  8 -1 -1</clus>
<clus scale="  115.156">  2  5  1 -1</clus>
<clus scale="   42.681">  2  5  1 -1</clus>
</clustering>
</event>
<event>
10    4  0.2857708E-005  0.2065798E+03  0.7546771E-02  0.1181636E+00
          4   -1    0    0  503    0 -0.00000000000E+00  0.00000000000E+00  0.18739621000E+03  0.18739621000E+03  0.00000000000E+00 0. -1.
         21   -1    0    0  501  502  0.00000000000E+00 -0.00000000000E+00 -0.52451438556E+03  0.52451438556E+03  0.00000000000E+00 0.  1.
         24    2    1    2    0    0  0.53565894370E+01 -0.41615101519E+02  0.71455507559E+00  0.89735811712E+02  0.79318948492E+02 0.  0.
         23    2    1    2    0    0  0.18538240695E+03 -0.36084558583E+02 -0.26253831685E+03  0.33671498281E+03  0.93711683705E+02 0.  0.
        -11    1    3    3    0    0  0.32275264702E+00 -0.64053456040E+02 -0.91663251196E+01  0.64706807340E+02  0.00000000000E+00 0.  1.
         12    1    3    3    0    0  0.50338367900E+01  0.22438354521E+02  0.98808801952E+01  0.25029004372E+02  0.00000000000E+00 0. -1.
        -13    1    4    4    0    0  0.32660820308E+02 -0.17797130702E+01 -0.19970803807E+01  0.32770182969E+02  0.00000000000E+00 0. -1.
         13    1    4    4    0    0  0.15272158664E+03 -0.34304845513E+02 -0.26054123647E+03  0.30394479984E+03  0.00000000000E+00 0.  1.
         21    1    1    2  503  502 -0.21922663713E+02  0.16796525846E+02  0.56439746739E+02  0.62834476816E+02  0.00000000000E+00 0. -1.
          3    1    1    2  501    0 -0.16881633267E+03  0.60903134256E+02 -0.13173416052E+03  0.22262532422E+03  0.00000000000E+00 0. -1.
<scales pt_clust_5="13000.00000" pt_clust_6="13000.00000" pt_clust_7="13000.00000" pt_clust_8="13000.00000" pt_clust_9="27.61750" pt_clust_10="184.10150"></scales>
<clustering>
<clus scale="   27.618">  1  9  2 -1</clus>
<clus scale="   79.319">  5  6 -1 -1</clus>
<clus scale="   87.003">  1  5  2 -1</clus>
<clus scale="   93.712">  7  8 -1 -1</clus>
<clus scale="  184.102">  2 10  1 -1</clus>
<clus scale="  184.102">  2  5  1 -1</clus>
</clustering>
</event>
<event>
10    4  0.2857708E-005  0.8949320E+02  0.7546771E-02  0.1305953E+00
         21   -1    0    0  501  502  0.00000000000E+00  0.00000000000E+00  0.36257272565E+03  0.36257272565E+03  0.00000000000E+00 0. -1.
          4   -1    0    0  503    0 -0.00000000000E+00 -0.00000000000E+00 -0.14646301622E+03  0.14646301622E+03  0.00000000000E+00 0. -1.
         23    2    1    2    0    0  0.15904883820E+02  0.43830614177E+01 -0.90954220350E+02  0.12505787748E+03  0.84229602650E+02 0.  0.
         24    2    1    2    0    0 -0.96763635981E+01 -0.66369237345E+02  0.10866175292E+03  0.15123217137E+03  0.81026448954E+02 0.  0.
        -13    1    4    4    0    0 -0.21552320300E+02  0.12665893247E+02  0.30595087120E+02  0.39509324443E+02  0.00000000000E+00 0.  1.
         14    1    4    4    0    0  0.11875956702E+02 -0.79035130593E+02  0.78066665801E+02  0.11172284692E+03  0.00000000000E+00 0. -1.
        -13    1    3    3    0    0  0.47719963129E+02  0.17777728749E+02 -0.59946992836E+02  0.78656750954E+02  0.00000000000E+00 0.  1.
         13    1    3    3    0    0 -0.31815079310E+02 -0.13394667332E+02 -0.31007227514E+02  0.46401126522E+02  0.00000000000E+00 0. -1.
         21    1    1    2  503  502  0.21424178450E+02 -0.71094522941E+01  0.19362711002E+01  0.22655879589E+02  0.00000000000E+00 0. -1.
          3    1    1    2  501    0 -0.27652698671E+02  0.69095628221E+02  0.19646590576E+03  0.21008981344E+03  0.00000000000E+00 0. -1.
<scales pt_clust_5="13000.00000" pt_clust_6="13000.00000" pt_clust_7="13000.00000" pt_clust_8="13000.00000" pt_clust_9="22.57299" pt_clust_10="73.69993"></scales>
<clustering>
<clus scale="   22.573">  2  9  1 -1</clus>
<clus scale="   73.700">  1 10  2 -1</clus>
<clus scale="   81.026">  5  6 -1 -1</clus>
<clus scale="   84.230">  7  8 -1 -1</clus>
<clus scale="   86.485">  1  5  2 -1</clus>
<clus scale="   73.700">  1  5  2 -1</clus>
</clustering>
</event>
<event>
10    4  0.2857708E-005  0.1184279E+03  0.7546771E-02  0.1251266E+00
          2   -1    0    0  503    0 -0.00000000000E+00  0.00000000000E+00  0.65041655358E+03  0.65041655358E+03  0.00000000000E+00 0. -1.
         21   -1    0    0  501  502  0.00000000000E+00 -0.00000000000E+00 -0.14695079622E+03  0.14695079622E+03  0.00000000000E+00 0. -1.
         24    2    1    2    0    0  0.86006181010E+02 -0.54858937273E+01  0.39486474193E+03  0.41161406908E+03  0.77979607858E+02 0.  0.
         23    2    1    2    0    0 -0.66335441553E+02  0.63399278398E+02  0.49668750493E+02  0.14058558135E+03  0.94220282315E+02 0.  0.
        -11    1    3    3    0    0  0.40629743603E+02  0.27684955146E+02  0.99914759383E+02  0.11135614913E+03  0.00000000000E+00 0.  1.
         12    1    3    3    0    0  0.45376437407E+02 -0.33170848873E+02  0.29494998255E+03  0.30025791995E+03  0.00000000000E+00 0. -1.
        -11    1    4    4    0    0 -0.26359955604E+00  0.64449234302E+02  0.33133775408E+02  0.72468064411E+02  0.00000000000E+00 0. -1.
         11    1    4    4    0    0 -0.66071841997E+02 -0.10499559040E+01  0.16534975085E+02  0.68117516934E+02  0.00000000000E+00 0.  1.
         21    1    1    2  503  502 -0.25778147254E+02 -0.20070379651E+02  0.14622452044E+03  0.14982971466E+03  0.00000000000E+00 0. -1.
          1    1    1    2  501    0  0.61074077969E+01 -0.37843005020E+02 -0.87292255505E+02  0.95337984718E+02  0.00000000000E+00 0. -1.
<scales pt_clust_5="13000.00000" pt_clust_6="13000.00000" pt_clust_7="13000.00000" pt_clust_8="13000.00000" pt_clust_9="32.67006" pt_clust_10="38.45912"></scales>
<clustering>
<clus scale="   32.670">  1  9  2 -1</clus>
<clus scale="   38.459">  2 10  1 -1</clus>
<clus scale="   77.980">  5  6 -1 -1</clus>
<clus scale="   94.220">  7  8 -1 -1</clus>
<clus scale="  105.965">  1  5  2 -1</clus>
<clus scale="   38.459">  2  5  1 -1</clus>
</clustering>
</event>
<event>
10    4  0.2857708E-005  0.9413693E+02  0.7546771E-02  0.1297547E+00
         -1   -1    0    0    0  501 -0.00000000000E+00  0.00000000000E+00  0.40621993246E+03  0.40621993246E+03  0.00000000000E+00 0.  1.
         21   -1    0    0  503  502  0.00000000000E+00 -0.00000000000E+00 -0.26440826180E+03  0.26440826180E+03  0.00000000000E+00 0. -1.
         24    2    1    2    0    0  0.10557744152E+02  0.10477847174E+02 -0.29330318343E+02  0.89233031318E+02  0.82951884012E+02 0.  0.
         23    2    1    2    0    0  0.67442631695E+02 -0.18121694738E+02 -0.13765312615E+03  0.17901585604E+03  0.90671876474E+02 0.  0.
        -13    1    3    3    0    0  0.60719057991E+01  0.45629971038E+02 -0.51217205928E+01  0.46316242494E+02  0.00000000000E+00 0.  1.
         14    1    3    3    0    0  0.44858383526E+01 -0.35152123864E+02 -0.24208597750E+02  0.42916788823E+02  0.00000000000E+00 0. -1.
        -13    1    4    4    0    0  0.19821292627E+02 -0.48999769756E+02 -0.40854816996E+02  0.66805517356E+02  0.00000000000E+00 0.  1.
         13    1    4    4    0    0  0.47621339068E+02  0.30878075017E+02 -0.96798309155E+02  0.11221033868E+03  0.00000000000E+00 0. -1.
         21    1    1    2  503  501 -0.44122626854E+02 -0.19686119289E+02  0.34339391493E+03  0.34677619628E+03  0.00000000000E+00 0.  1.
         -2    1    1    2    0  502 -0.33877748993E+02  0.27329966854E+02 -0.34598799783E+02  0.55603110627E+02  0.00000000000E+00 0.  1.
<scales pt_clust_5="13000.00000" pt_clust_6="13000.00000" pt_clust_7="13000.00000" pt_clust_8="13000.00000" pt_clust_9="48.46873" pt_clust_10="43.52734"></scales>
<clustering>
<clus scale="   43.527">  2 10  1 -1</clus>
<clus scale="   48.469">  1  9  2 -1</clus>
<clus scale="   82.952">  5  6 -1 -1</clus>
<clus scale="   86.726">  1  5  2 -1</clus>
<clus scale="   90.672">  7  8 -1 -1</clus>
<clus scale="   43.527">  2  5  1 -1</clus>
</clustering>
</event>
<event>
10    4  0.2857708E-005  0.1518884E+03  0.7546771E-02  0.1218507E+00
          2   -1    0    0  503    0 -0.00000000000E+00  0.00000000000E+00  0.18684549971E+03  0.18684549971E+03  0.00000000000E+00 0. -1.
         21   -1    0    0  501  502  0.00000000000E+00 -0.00000000000E+00 -0.39102848948E+03  0.39102848948E+03  0.00000000000E+00 0. -1.
         24    2    1    2    0    0 -0.12933617151E+02  0.90340586071E+02 -0.15118389506E+03  0.18391228956E+03  0.51365943779E+02 0.  0.
         23    2    1    2    0    0  0.10889021390E+01 -0.13657902297E+03  0.48628594065E+02  0.17167511407E+03  0.91937964982E+02 0.  0.
        -11    1    3    3    0    0  0.18413129757E+02  0.31037230765E+02 -0.38461636052E+02  0.52741354636E+02  0.00000000000E+00 0.  1.
         12    1    3    3    0    0 -0.31346746908E+02  0.59303355306E+02 -0.11272225901E+03  0.13117093492E+03  0.00000000000E+00 0. -1.
        -13    1    4    4    0    0 -0.39532219172E+02 -0.10610657572E+03  0.40453223225E+02  0.12024086257E+03  0.00000000000E+00 0. -1.
         13    1    4    4    0    0  0.40621121311E+02 -0.30472447255E+02  0.81753708402E+01  0.51434251493E+02  0.00000000000E+00 0.  1.
         21    1    1    2  503  502  0.52704413245E+01 -0.70590609716E+02 -0.57695607117E+01  0.71021824552E+02  0.00000000000E+00 0. -1.
          1    1    1    2  501    0  0.65742736870E+01  0.11682904662E+03 -0.95858128067E+02  0.15126476101E+03  0.00000000000E+00 0. -1.
<scales pt_clust_5="13000.00000" pt_clust_6="13000.00000" pt_clust_7="13000.00000" pt_clust_8="13000.00000" pt_clust_9="70.78709" pt_clust_10="120.90285"></scales>
<clustering>
<clus scale="   51.366">  5  6 -1 -1</clus>
<clus scale="   70.787">  1  9  2 -1</clus>
<clus scale="   91.938">  7  8 -1 -1</clus>
<clus scale="   98.264">  1  5  2 -1</clus>
<clus scale="  120.903">  2 10  1 -1</clus>
<clus scale="  120.903">  2  5  1 -1</clus>
</clustering>
</event>
<event>
10    4  0.2857708E-005  0.4704945E+03  0.7546771E-02  0.1025586E+00
          2   -1    0    0  503    0 -0.00000000000E+00  0.00000000000E+00  0.17922580384E+04  0.17922580384E+04  0.00000000000E+00 0. -1.
         21   -1    0    0  501  502  0.00000000000E+00 -0.00000000000E+00 -0.35062481558E+03  0.35062481558E+03  0.00000000000E+00 0. -1.
         23    2    1    2    0    0 -0.38241609641E+03  0.23071095316E+03  0.42841619953E+03  0.62571305907E+03  0.92232193740E+02 0.  0.
         24    2    1    2    0    0 -0.34694841604E+02 -0.51947135738E+03  0.29796027733E+03  0.60385995199E+03  0.69370682431E+02 0.  0.
        -13    1    4    4    0    0  0.10543267954E+02 -0.32926423396E+02  0.33951935701E+02  0.48456617656E+02  0.00000000000E+00 0.  1.
         14    1    4    4    0    0 -0.45238109558E+02 -0.48654493398E+03  0.26400834163E+03  0.55540333433E+03  0.00000000000E+00 0. -1.
        -11    1    3    3    0    0 -0.26537817169E+03  0.20665285301E+03  0.32437150255E+03  0.46727705629E+03  0.00000000000E+00 0. -1.
         11    1    3    3    0    0 -0.11703792472E+03  0.24058100148E+02  0.10404469698E+03  0.15843600278E+03  0.00000000000E+00 0.  1.
         21    1    1    2  503  502  0.10979051354E+03 -0.40940230364E+02  0.14360669641E+03  0.18534546820E+03  0.00000000000E+00 0.  1.
          1    1    1    2  501    0  0.30732042447E+03  0.32970063458E+03  0.57165004959E+03  0.72796437477E+03  0.00000000000E+00 0. -1.
<scales pt_clust_5="13000.00000" pt_clust_6="13000.00000" pt_clust_7="13000.00000" pt_clust_8="13000.00000" pt_clust_9="117.17534" pt_clust_10="465.35254"></scales>
<clustering>
<clus scale="   69.371">  5  6 -1 -1</clus>
<clus scale="   92.232">  7  8 -1 -1</clus>
<clus scale="  117.175">  1  9  2 -1</clus>
<clus scale="  419.654">  1  7  2 -1</clus>
<clus scale="  465.353">  2 10  1 -1</clus>
<clus scale="  465.353">  2  5  1 -1</clus>
</clustering>
</event>
<event>
10    4  0.2857708E-005  0.1118923E+03  0.7546771E-02  0.1261340E+00
         21   -1    0    0  501  502  0.00000000000E+00  0.00000000000E+00  0.33354586428E+03  0.33354586428E+03  0.00000000000E+00 0. -1.
          2   -1    0    0  503    0 -0.00000000000E+00 -0.00000000000E+00 -0.31372679382E+03  0.31372679382E+03  0.00000000000E+00 0. -1.
         23    2    1    2    0    0  0.38181703277E+02 -0.10852221526E+02 -0.13828256124E+03  0.16999786964E+03  0.90562662070E+02 0.  0.
         24    2    1    2    0    0 -0.92186622866E+02 -0.31785579154E+02  0.16667090671E+02  0.12675093168E+03  0.79242099249E+02 0.  0.
        -13    1    4    4    0    0 -0.57414097547E+02 -0.35651034933E+01  0.45624475913E+02  0.73421259608E+02  0.00000000000E+00 0.  1.
         14    1    4    4    0    0 -0.34772525319E+02 -0.28220475661E+02 -0.28957385242E+02  0.53329672075E+02  0.00000000000E+00 0. -1.
        -13    1    3    3    0    0  0.65085870697E+02  0.62963261900E+01 -0.10644435083E+03  0.12492483385E+03  0.00000000000E+00 0. -1.
         13    1    3    3    0    0 -0.26904167420E+02 -0.17148547716E+02 -0.31838210406E+02  0.45073035789E+02  0.00000000000E+00 0.  1.
         21    1    1    2  503  502  0.23641485238E+02  0.34512589768E+02 -0.99296790646E+02  0.10774920561E+03  0.00000000000E+00 0. -1.
          1    1    1    2  501    0  0.30363434351E+02  0.81252109126E+01  0.24073133168E+03  0.24277465116E+03  0.00000000000E+00 0. -1.
<scales pt_clust_5="13000.00000" pt_clust_6="13000.00000" pt_clust_7="13000.00000" pt_clust_8="13000.00000" pt_clust_9="42.94245" pt_clust_10="31.43179"></scales>
<clustering>
<clus scale="   31.432">  1 10  2 -1</clus>
<clus scale="   42.942">  2  9  1 -1</clus>
<clus scale="   79.242">  5  6 -1 -1</clus>
<clus scale="   90.563">  7  8 -1 -1</clus>
<clus scale="  102.945">  1  5  2 -1</clus>
<clus scale="   31.432">  1  5  2 -1</clus>
</clustering>
</event>
<event>
10    4  0.2857708E-005  0.4252936E+03  0.7546771E-02  0.1035512E+00
          2   -1    0    0  503    0 -0.00000000000E+00  0.00000000000E+00  0.14655651226E+04  0.14655651226E+04  0.00000000000E+00 0. -1.
         21   -1    0    0  501  502  0.00000000000E+00 -0.00000000000E+00 -0.12596328708E+04  0.12596328708E+04  0.00000000000E+00 0. -1.
         23    2    1    2    0    0  0.31059821735E+03  0.27337613579E+03  0.13189818401E+04  0.13851898797E+04  0.88499400752E+02 0.  0.
         24    2    1    2    0    0 -0.29114921164E+03 -0.39348643770E+03 -0.87656991767E+03  0.10070602326E+04  0.78715001761E+02 0.  0.
        -11    1    4    4    0    0 -0.10219955725E+03 -0.13282744306E+03 -0.37925918281E+03  0.41463888732E+03  0.00000000000E+00 0.  1.
         12    1    4    4    0    0 -0.18894965439E+03 -0.26065899463E+03 -0.49731073486E+03  0.59242134532E+03  0.00000000000E+00 0. -1.
        -11    1    3    3    0    0  0.17347869191E+03  0.13922700427E+03  0.84684338801E+03  0.87556995100E+03  0.00000000000E+00 0.  1.
         11    1    3    3    0    0  0.13711952544E+03  0.13414913152E+03  0.47213845212E+03  0.50961992869E+03  0.00000000000E+00 0. -1.
         21    1    1    2  503  502  0.66476233235E+02  0.94148684451E+01 -0.11826725994E+02  0.68173314286E+02  0.00000000000E+00 0. -1.
          1    1    1    2  501    0 -0.85925238946E+02  0.11069543346E+03 -0.22465294461E+03  0.26477456675E+03  0.00000000000E+00 0. -1.
<scales pt_clust_5="13000.00000" pt_clust_6="13000.00000" pt_clust_7="13000.00000" pt_clust_8="13000.00000" pt_clust_9="67.13963" pt_clust_10="133.95578"></scales>
<clustering>
<clus scale="   67.140">  2  9  1 -1</clus>
<clus scale="   78.715">  5  6 -1 -1</clus>
<clus scale="   88.499">  7  8 -1 -1</clus>
<clus scale="  133.956">  2 10  1 -1</clus>
<clus scale="  423.366">  2  5  1 -1</clus>
<clus scale="   67.140">  2  5  1 -1</clus>
</clustering>
</event>
<event>
10    4  0.2857708E-005  0.4068964E+03  0.7546771E-02  0.1082452E+00
         21   -1    0    0  501  502  0.00000000000E+00  0.00000000000E+00  0.69253099695E+03  0.69253099695E+03  0.00000000000E+00 0.  1.
          4   -1    0    0  503    0 -0.00000000000E+00 -0.00000000000E+00 -0.87433461377E+03  0.87433461377E+03  0.00000000000E+00 0. -1.
         24    2    1    2    0    0  0.62492785015E+02 -0.79306938581E+02  0.65709186858E+01  0.13134908714E+03  0.83752415093E+02 0.  0.
         23    2    1    2    0    0  0.10399801304E+02 -0.38823794485E+03  0.45838777139E+03  0.60758343187E+03  0.90561691870E+02 0.  0.
        -13    1    3    3    0    0  0.25068037006E+02  0.14895890951E+02  0.69803320080E+01  0.29983646901E+02  0.00000000000E+00 0.  1.
         14    1    3    3    0    0  0.37424748009E+02 -0.94202829532E+02 -0.40941332218E+00  0.10136544024E+03  0.00000000000E+00 0. -1.
        -13    1    4    4    0    0  0.28746467628E+02 -0.35597457001E+03  0.38371815069E+03  0.52419831463E+03  0.00000000000E+00 0.  1.
         13    1    4    4    0    0 -0.18346666324E+02 -0.32263374842E+02  0.74669620699E+02  0.83385117237E+02  0.00000000000E+00 0. -1.
         21    1    1    2  503  502 -0.44773329111E+02 -0.49045880968E+00 -0.86126325725E+02  0.97070260803E+02  0.00000000000E+00 0.  1.
          3    1    1    2  501    0 -0.28119257208E+02  0.46803534224E+03 -0.56063598118E+03  0.73086283091E+03  0.00000000000E+00 0. -1.
<scales pt_clust_5="13000.00000" pt_clust_6="13000.00000" pt_clust_7="13000.00000" pt_clust_8="13000.00000" pt_clust_9="44.77602" pt_clust_10="396.69053"></scales>
<clustering>
<clus scale="   44.776">  2  9  1 -1</clus>
<clus scale="   83.752">  5  6 -1 -1</clus>
<clus scale="   90.562">  7  8 -1 -1</clus>
<clus scale="  129.547">  2  5  1 -1</clus>
<clus scale="  396.691">  1 10  2 -1</clus>
<clus scale="  396.691">  1  5  2 -1</clus>
</clustering>
</event>
<event>
10    4  0.2857708E-005  0.9786552E+02  0.7546771E-02  0.1290879E+00
          2   -1    0    0  503    0 -0.00000000000E+00  0.00000000000E+00  0.76668072339E+03  0.76668072339E+03  0.00000000000E+00 0. -1.
         21   -1    0    0  501  502  0.00000000000E+00 -0.00000000000E+00 -0.43422422597E+02  0.43422422597E+02  0.00000000000E+00 0.  1.
         24    2    1    2    0    0  0.55819081715E+01 -0.34275367233E+02  0.17840569481E+03  0.19931458656E+03  0.81803141605E+02 0.  0.
         23    2    1    2    0    0  0.70582185583E+02  0.20417039707E+02  0.13358745817E+03  0.17854512224E+03  0.92919595688E+02 0.  0.
        -13    1    3    3    0    0 -0.31467749864E+02 -0.40512258012E+02  0.10270557162E+03  0.11480373153E+03  0.00000000000E+00 0.  1.
         14    1    3    3    0    0  0.37049658035E+02  0.62368907790E+01  0.75700123190E+02  0.84510855031E+02  0.00000000000E+00 0. -1.
        -13    1    4    4    0    0  0.49561529093E+02  0.27487072462E+02  0.16005966539E+02  0.58890366644E+02  0.00000000000E+00 0.  1.
         13    1    4    4    0    0  0.21020656491E+02 -0.70700327550E+01  0.11758149163E+03  0.11965475560E+03  0.00000000000E+00 0. -1.
         21    1    1    2  503  502  0.15250595309E+02  0.21934003502E+02  0.20175145446E+03  0.20351248253E+03  0.00000000000E+00 0. -1.
          1    1    1    2  501    0 -0.91414689063E+02 -0.80756759766E+01  0.20951369335E+03  0.22873095466E+03  0.00000000000E+00 0. -1.
<scales pt_clust_5="13000.00000" pt_clust_6="13000.00000" pt_clust_7="13000.00000" pt_clust_8="13000.00000" pt_clust_9="26.71481" pt_clust_10="85.49132"></scales>
<clustering>
<clus scale="   26.715">  1  9  2 -1</clus>
<clus scale="   81.803">  5  6 -1 -1</clus>
<clus scale="   85.491">  2 10  1 -1</clus>
<clus scale="   87.381">  1  5  2 -1</clus>
<clus scale="   92.920">  7  8 -1 -1</clus>
<clus scale="   85.491">  2  5  1 -1</clus>
</clustering>
</event>
<event>
10    4  0.2857708E-005  0.2130485E+03  0.7546771E-02  0.1173938E+00
         21   -1    0    0  501  502  0.00000000000E+00  0.00000000000E+00  0.54916539523E+03  0.54916539523E+03  0.00000000000E+00 0.  1.
          2   -1    0    0  503    0 -0.00000000000E+00 -0.00000000000E+00 -0.48533587039E+03  0.48533587039E+03  0.00000000000E+00 0. -1.
         24    2    1    2    0    0  0.43474407208E+02  0.11243327871E+02 -0.21424541091E+03  0.23320729058E+03  0.80424547118E+02 0.  0.
         23    2    1    2    0    0 -0.80800605530E+02 -0.22222247208E+03  0.52458950680E+01  0.25332604215E+03  0.90746896734E+02 0.  0.
        -11    1    3    3    0    0  0.26024831100E+02 -0.32803731955E+02 -0.12970300333E+03  0.13629470180E+03  0.00000000000E+00 0.  1.
         12    1    3    3    0    0  0.17449576108E+02  0.44047059825E+02 -0.84542407574E+02  0.96912588780E+02  0.00000000000E+00 0. -1.
        -11    1    4    4    0    0 -0.96506152507E+02 -0.19130912867E+03 -0.11983560278E+02  0.21460714318E+03  0.00000000000E+00 0.  1.
         11    1    4    4    0    0  0.15705546978E+02 -0.30913343405E+02  0.17229455346E+02  0.38718898975E+02  0.00000000000E+00 0. -1.
         21    1    1    2  503  502 -0.69746803675E+01  0.30824946558E+02 -0.11434956794E+03  0.11863661823E+03  0.00000000000E+00 0. -1.
          1    1    1    2  501    0  0.44300878689E+02  0.18015419765E+03  0.38717860861E+03  0.42933131466E+03  0.00000000000E+00 0. -1.
<scales pt_clust_5="13000.00000" pt_clust_6="13000.00000" pt_clust_7="13000.00000" pt_clust_8="13000.00000" pt_clust_9="31.60417" pt_clust_10="192.75547"></scales>
<clustering>
<clus scale="   31.604">  2  9  1 -1</clus>
<clus scale="   80.425">  5  6 -1 -1</clus>
<clus scale="   90.747">  7  8 -1 -1</clus>
<clus scale="   94.364">  2  5  1 -1</clus>
<clus scale="  192.755">  1 10  2 -1</clus>
<clus scale="  192.755">  1  5  2 -1</clus>
</clustering>
</event>
<event>
10    4  0.2857708E-005  0.1239070E+03  0.7546771E-02  0.1239546E+00
         21   -1    0    0  503  502  0.00000000000E+00  0.00000000000E+00  0.18096434217E+03  0.18096434217E+03  0.00000000000E+00 0. -1.
         -3   -1    0    0    0  501 -0.00000000000E+00 -0.00000000000E+00 -0.51182679136E+03  0.51182679136E+03  0.00000000000E+00 0.  1.
         23    2    1    2    0    0  0.16665248326E+02  0.53474391702E+02 -0.37976753750E+03  0.39434552715E+03  0.90265005290E+02 0.  0.
         24    2    1    2    0    0 -0.66423210951E+02 -0.77884722219E+02  0.16054261093E+02  0.13134562601E+03  0.80720884934E+02 0.  0.
        -13    1    4    4    0    0 -0.10230780203E+02 -0.31043872055E+02 -0.30440553909E+02  0.44665626358E+02  0.00000000000E+00 0.  1.
         14    1    4    4    0    0 -0.56192430748E+02 -0.46840850164E+02  0.46494815002E+02  0.86679999651E+02  0.00000000000E+00 0. -1.
        -13    1    3    3    0    0 -0.25287785161E+02  0.99678424644E+01 -0.34972547044E+02  0.44293442048E+02  0.00000000000E+00 0. -1.
         13    1    3    3    0    0  0.41953033487E+02  0.43506549238E+02 -0.34479499045E+03  0.35005208510E+03  0.00000000000E+00 0.  1.
         21    1    1    2  503  501  0.19665872094E+02  0.25770419477E+02 -0.60702815888E+02  0.68816370886E+02  0.00000000000E+00 0.  1.
         -4    1    1    2    0  502  0.30092090531E+02 -0.13600889603E+01  0.93553643099E+02  0.98283609475E+02  0.00000000000E+00 0.  1.
<scales pt_clust_5="13000.00000" pt_clust_6="13000.00000" pt_clust_7="13000.00000" pt_clust_8="13000.00000" pt_clust_9="33.25718" pt_clust_10="30.12281"></scales>
<clustering>
<clus scale="   30.123">  1 10  2 -1</clus>
<clus scale="   33.257">  2  9  1 -1</clus>
<clus scale="   80.721">  5  6 -1 -1</clus>
<clus scale="   90.265">  7  8 -1 -1</clus>
<clus scale="  117.137">  1  5  2 -1</clus>
<clus scale="   30.123">  1  5  2 -1</clus>
</clustering>
</event>
<event>
10    4  0.2857708E-005  0.3340721E+03  0.7546771E-02  0.1089807E+00
         -1   -1    0    0    0  501 -0.00000000000E+00  0.00000000000E+00  0.27288014690E+03  0.27288014690E+03  0.00000000000E+00 0.  1.
         21   -1    0    0  503  502  0.00000000000E+00 -0.00000000000E+00 -0.11157452913E+04  0.11157452913E+04  0.00000000000E+00 0.  1.
         24    2    1    2    0    0  0.89093565508E+02  0.16048266043E+03  0.27981853765E+01  0.19998431399E+03  0.79331886956E+02 0.  0.
         23    2    1    2    0    0 -0.28189818635E+03 -0.22041409322E+03 -0.87501112779E+03  0.94972808250E+03  0.91049420513E+02 0.  0.
        -13    1    3    3    0    0  0.32135156734E+02  0.38856126826E+02  0.35612162633E+02  0.61730810927E+02  0.00000000000E+00 0.  1.
         14    1    3    3    0    0  0.56958408774E+02  0.12162653360E+03 -0.32813977257E+02  0.13825350307E+03  0.00000000000E+00 0. -1.
        -11    1    4    4    0    0 -0.10422433016E+03 -0.73933721559E+02 -0.43119162677E+03  0.44972783456E+03  0.00000000000E+00 0. -1.
         11    1    4    4    0    0 -0.17767385619E+03 -0.14648037166E+03 -0.44381950102E+03  0.50000024794E+03  0.00000000000E+00 0.  1.
         21    1    1    2  503  501 -0.58439027549E+01 -0.20522201362E+02  0.10449280869E+02  0.23759196510E+02  0.00000000000E+00 0. -1.
         -2    1    1    2    0  502  0.19864852360E+03  0.80453634148E+02  0.18898517102E+02  0.21515384525E+03  0.00000000000E+00 0.  1.
<scales pt_clust_5="13000.00000" pt_clust_6="13000.00000" pt_clust_7="13000.00000" pt_clust_8="13000.00000" pt_clust_9="21.33804" pt_clust_10="321.42534"></scales>
<clustering>
<clus scale="   21.338">  1  9  2 -1</clus>
<clus scale="   79.332">  5  6 -1 -1</clus>
<clus scale="   91.049">  7  8 -1 -1</clus>
<clus scale="  192.441">  1  5  2 -1</clus>
<clus scale="  321.425">  2 10  1 -1</clus>
<clus scale="  321.425">  2  5  1 -1</clus>
</clustering>
</event>
<event>
10    4  0.2857708E-005  0.1193806E+03  0.7546771E-02  0.1250732E+00
         21   -1    0    0  501  502  0.00000000000E+00  0.00000000000E+00  0.33369760853E+03  0.33369760853E+03  0.00000000000E+00 0. -1.
          2   -1    0    0  503    0 -0.00000000000E+00 -0.00000000000E+00 -0.39334591180E+03  0.39334591180E+03  0.00000000000E+00 0. -1.
         24    2    1    2    0    0 -0.30239055511E+02 -0.37782900250E+02 -0.72145471885E+02  0.11457786885E+03  0.74707234498E+02 0.  0.
         23    2    1    2    0    0  0.47277985232E+02  0.37599437988E+02  0.15173863687E+03  0.18861299449E+03  0.94346818417E+02 0.  0.
        -11    1    3    3    0    0 -0.31000488536E+02 -0.18179470207E+02  0.38012226329E+01  0.36138244561E+02  0.00000000000E+00 0.  1.
         12    1    3    3    0    0  0.76143302533E+00 -0.19603430044E+02 -0.75946694518E+02  0.78439624285E+02  0.00000000000E+00 0. -1.
        -13    1    4    4    0    0 -0.22107641837E+02  0.30953613304E+02  0.80030070521E+02  0.88609740953E+02  0.00000000000E+00 0.  1.
         13    1    4    4    0    0  0.69385627069E+02  0.66458246838E+01  0.71708566350E+02  0.10000325353E+03  0.00000000000E+00 0. -1.
         21    1    1    2  503  502 -0.17066300785E+02 -0.31384810767E+02 -0.27864177645E+03  0.28092259530E+03  0.00000000000E+00 0. -1.
          1    1    1    2  501    0  0.27371064158E-01  0.31568273030E+02  0.13940030819E+03  0.14293006169E+03  0.00000000000E+00 0. -1.
<scales pt_clust_5="13000.00000" pt_clust_6="13000.00000" pt_clust_7="13000.00000" pt_clust_8="13000.00000" pt_clust_9="35.56062" pt_clust_10="31.56828"></scales>
<clustering>
<clus scale="   31.568">  1 10  2 -1</clus>
<clus scale="   35.561">  2  9  1 -1</clus>
<clus scale="   74.707">  5  6 -1 -1</clus>
<clus scale="   94.347">  7  8 -1 -1</clus>
<clus scale="  104.554">  2  5  1 -1</clus>
<clus scale="   31.568">  1  5  2 -1</clus>
</clustering>
</event>
<event>
10    4  0.2857708E-005  0.1282665E+03  0.7546771E-02  0.1245749E+00
         21   -1    0    0  501  502  0.00000000000E+00  0.00000000000E+00  0.60535955151E+02  0.60535955151E+02  0.00000000000E+00 0.  1.
          2   -1    0    0  503    0 -0.00000000000E+00 -0.00000000000E+00 -0.67376164060E+03  0.67376164060E+03  0.00000000000E+00 0. -1.
         23    2    1    2    0    0  0.78946981386E+01 -0.72278580410E+01 -0.36691790365E+02  0.99827728748E+02  0.92221037493E+02 0.  0.
         24    2    1    2    0    0  0.75813017626E+02  0.41722647217E+02 -0.31199602609E+03  0.33342614129E+03  0.79643445851E+02 0.  0.
        -11    1    4    4    0    0  0.88996178213E+02  0.41108574898E+02 -0.29992964615E+03  0.31554401802E+03  0.00000000000E+00 0.  1.
         12    1    4    4    0    0 -0.13183160587E+02  0.61407231902E+00 -0.12066379938E+02  0.17882123271E+02  0.00000000000E+00 0. -1.
        -13    1    3    3    0    0  0.32348145565E+02 -0.61396236842E+01  0.19688481457E+02  0.38363182904E+02  0.00000000000E+00 0.  1.
         13    1    3    3    0    0 -0.24453447426E+02 -0.10882343568E+01 -0.56380271822E+02  0.61464545844E+02  0.00000000000E+00 0. -1.
         21    1    1    2  503  502  0.21242150418E+02 -0.53483619660E+01 -0.10887724294E+03  0.11105893913E+03  0.00000000000E+00 0.  1.
          1    1    1    2  501    0 -0.10494986618E+03 -0.29146427210E+02 -0.15566062606E+03  0.18998478659E+03  0.00000000000E+00 0. -1.
<scales pt_clust_5="13000.00000" pt_clust_6="13000.00000" pt_clust_7="13000.00000" pt_clust_8="13000.00000" pt_clust_9="21.90511" pt_clust_10="100.54457"></scales>
<clustering>
<clus scale="   21.905">  2  9  1 -1</clus>
<clus scale="   79.643">  5  6 -1 -1</clus>
<clus scale="   92.221">  7  8 -1 -1</clus>
<clus scale="   93.147">  2  7  1 -1</clus>
<clus scale="  100.545">  1 10  2 -1</clus>
<clus scale="  100.545">  1  5  2 -1</clus>
</clustering>
</event>
<event>
10    4  0.2857708E-005  0.1615463E+03  0.7546771E-02  0.1205843E+00
         21   -1    0    0  501  502  0.00000000000E+00  0.00000000000E+00  0.11127293382E+03  0.11127293382E+03  0.00000000000E+00 0.  1.
         -3   -1    0    0    0  501 -0.00000000000E+00 -0.00000000000E+00 -0.40142985901E+03  0.40142985901E+03  0.00000000000E+00 0.  1.
         24    2    1    2    0    0 -0.41148957197E+02 -0.64764444203E+02 -0.90451383385E+02  0.14005425980E+03  0.74471961313E+02 0.  0.
         23    2    1    2    0    0  0.13767488991E+03 -0.30573661131E+02 -0.91390192418E+02  0.19145161113E+03  0.91719289501E+02 0.  0.
        -11    1    3    3    0    0 -0.25059484398E+02 -0.47892701910E+02 -0.10093107001E+03  0.11449353496E+03  0.00000000000E+00 0.  1.
         12    1    3    3    0    0 -0.16089472799E+02 -0.16871742292E+02  0.10479686622E+02  0.25560724845E+02  0.00000000000E+00 0. -1.
        -11    1    4    4    0    0  0.11671620644E+03 -0.30295157147E+02 -0.11015134122E+03  0.16332111733E+03  0.00000000000E+00 0.  1.
         11    1    4    4    0    0  0.20958683474E+02 -0.27850398414E+00  0.18761148800E+02  0.28130493805E+02  0.00000000000E+00 0. -1.
         21    1    1    2  503  502 -0.21064954250E+02  0.56402717118E+02 -0.48834334241E+02  0.77522841773E+02  0.00000000000E+00 0.  1.
         -4    1    1    2    0  503 -0.75460978468E+02  0.38935388216E+02 -0.59481015139E+02  0.10367408012E+03  0.00000000000E+00 0.  1.
<scales pt_clust_5="13000.00000" pt_clust_6="13000.00000" pt_clust_7="13000.00000" pt_clust_8="13000.00000" pt_clust_9="43.70154" pt_clust_10="142.75261"></scales>
<clustering>
<clus scale="   43.702">  9 10 -1 -1</clus>
<clus scale="   74.472">  5  6 -1 -1</clus>
<clus scale="   91.719">  7  8 -1 -1</clus>
<clus scale="  106.929">  2  5  1 -1</clus>
<clus scale="  142.753">  1  9  2 -1</clus>
<clus scale="  142.753">  1  5  2 -1</clus>
</clustering>
</event>
<event>
10    4  0.2857708E-005  0.1457829E+03  0.7546771E-02  0.1206337E+00
          2   -1    0    0  503    0 -0.00000000000E+00  0.00000000000E+00  0.72737248474E+03  0.72737248474E+03  0.00000000000E+00 0. -1.
         21   -1    0    0  501  502  0.00000000000E+00 -0.00000000000E+00 -0.52388182539E+02  0.52388182539E+02  0.00000000000E+00 0. -1.
         24    2    1    2    0    0 -0.35437459424E+02 -0.12631138015E+03  0.26113455187E+03  0.30264037471E+03  0.78673781771E+02 0.  0.
         23    2    1    2    0    0  0.57577712006E+02  0.95098248690E+02  0.18592126556E+03  0.23160860665E+03  0.81957061077E+02 0.  0.
        -11    1    3    3    0    0 -0.48381518335E+02 -0.49397747250E+02  0.81988561770E+02  0.10725219350E+03  0.00000000000E+00 0.  1.
         12    1    3    3    0    0  0.12944058911E+02 -0.76913632905E+02  0.17914599010E+03  0.19538818121E+03  0.00000000000E+00 0. -1.
        -11    1    4    4    0    0  0.60204068039E+02  0.56747741736E+02  0.66479983616E+02  0.10613399183E+03  0.00000000000E+00 0. -1.
         11    1    4    4    0    0 -0.26263560331E+01  0.38350506954E+02  0.11944128195E+03  0.12547461481E+03  0.00000000000E+00 0.  1.
         21    1    1    2  503  502 -0.13743003806E+02 -0.24494999839E+02  0.37049640189E+02  0.46492483359E+02  0.00000000000E+00 0.  1.
          1    1    1    2  501    0 -0.83972487754E+01  0.55708131304E+02  0.19087884458E+03  0.19901920257E+03  0.00000000000E+00 0. -1.
<scales pt_clust_5="13000.00000" pt_clust_6="13000.00000" pt_clust_7="13000.00000" pt_clust_8="13000.00000" pt_clust_9="28.08692" pt_clust_10="54.46408"></scales>
<clustering>
<clus scale="   28.087">  2  9  1 -1</clus>
<clus scale="   54.464">  2 10  1 -1</clus>
<clus scale="   78.674">  5  6 -1 -1</clus>
<clus scale="   81.957">  7  8 -1 -1</clus>
<clus scale="  143.963">  1  5  2 -1</clus>
<clus scale="   28.087">  2  5  1 -1</clus>
</clustering>
</event>
<event>
10    4  0.2857708E-005  0.1469843E+03  0.7546771E-02  0.1218549E+00
          2   -1    0    0  503    0 -0.00000000000E+00  0.00000000000E+00  0.21020126612E+03  0.21020126612E+03  0.00000000000E+00 0. -1.
         21   -1    0    0  501  502  0.00000000000E+00 -0.00000000000E+00 -0.51902944438E+03  0.51902944438E+03  0.00000000000E+00 0. -1.
         24    2    1    2    0    0  0.19628447888E+02  0.70645534084E+02 -0.12125382668E+03  0.16260135797E+03  0.79753643656E+02 0.  0.
         23    2    1    2    0    0 -0.12868767464E+03  0.43507524671E+01  0.70317604155E+02  0.17288946338E+03  0.91469964707E+02 0.  0.
        -11    1    3    3    0    0 -0.22816420961E+02 -0.32668771213E+01 -0.27952838994E+02  0.36230136067E+02  0.00000000000E+00 0.  1.
         12    1    3    3    0    0  0.42444868850E+02  0.73912411205E+02 -0.93300987687E+02  0.12637122190E+03  0.00000000000E+00 0. -1.
        -13    1    4    4    0    0 -0.98274626349E+02 -0.19904845459E+02  0.95326032961E+01  0.10072226954E+03  0.00000000000E+00 0. -1.
         13    1    4    4    0    0 -0.30413048292E+02  0.24255597926E+02  0.60785000859E+02  0.72167193839E+02  0.00000000000E+00 0.  1.
         21    1    1    2  503  502  0.10645033116E+03  0.81196621295E+02 -0.75909312334E+02  0.15390512666E+03  0.00000000000E+00 0.  1.
          1    1    1    2  501    0  0.26088955899E+01 -0.15619290785E+03 -0.18198264340E+03  0.23983476248E+03  0.00000000000E+00 0. -1.
<scales pt_clust_5="13000.00000" pt_clust_6="13000.00000" pt_clust_7="13000.00000" pt_clust_8="13000.00000" pt_clust_9="115.05486" pt_clust_10="145.51882"></scales>
<clustering>
<clus scale="   79.754">  5  6 -1 -1</clus>
<clus scale="   91.470">  7  8 -1 -1</clus>
<clus scale="  108.336">  1  5  2 -1</clus>
<clus scale="  145.519">  2 10  1 -1</clus>
<clus scale="  115.055">  2  9  1 -1</clus>
<clus scale="  145.519">  2  5  1 -1</clus>
</clustering>
</event>
<event>
10    4  0.2857708E-005  0.1083549E+03  0.7546771E-02  0.1267792E+00
         21   -1    0    0  501  502  0.00000000000E+00  0.00000000000E+00  0.24363106892E+03  0.24363106892E+03  0.00000000000E+00 0. -1.
          2   -1    0    0  503    0 -0.00000000000E+00 -0.00000000000E+00 -0.25432086189E+03  0.25432086189E+03  0.00000000000E+00 0. -1.
         24    2    1    2    0    0 -0.17955450372E+01  0.64852884995E+02 -0.12347556608E+03  0.16068320975E+03  0.79773164675E+02 0.  0.
         23    2    1    2    0    0  0.54750240717E+02  0.56564777058E+01  0.16066972864E+03  0.19224563572E+03  0.90077955974E+02 0.  0.
        -11    1    3    3    0    0  0.95895888315E+01  0.78411528648E+02 -0.74416352407E+02  0.10852705444E+03  0.00000000000E+00 0.  1.
         12    1    3    3    0    0 -0.11385133869E+02 -0.13558643652E+02 -0.49059213674E+02  0.52156155314E+02  0.00000000000E+00 0. -1.
        -11    1    4    4    0    0  0.43114390438E+02  0.45131074755E+02  0.11442419365E+03  0.13034017287E+03  0.00000000000E+00 0. -1.
         11    1    4    4    0    0  0.11635850279E+02 -0.39474597049E+02  0.46245534992E+02  0.61905462850E+02  0.00000000000E+00 0.  1.
         21    1    1    2  503  502 -0.53355305069E+02 -0.22811251335E+02 -0.71264880288E+02  0.91901169356E+02  0.00000000000E+00 0. -1.
          1    1    1    2  501    0  0.40060938907E+00 -0.47698111367E+02  0.23380924763E+02  0.53121915992E+02  0.00000000000E+00 0. -1.
<scales pt_clust_5="13000.00000" pt_clust_6="13000.00000" pt_clust_7="13000.00000" pt_clust_8="13000.00000" pt_clust_9="58.99206" pt_clust_10="47.69979"></scales>
<clustering>
<clus scale="   47.700">  1 10  2 -1</clus>
<clus scale="   58.992">  2  9  1 -1</clus>
<clus scale="   79.773">  5  6 -1 -1</clus>
<clus scale="   90.078">  7  8 -1 -1</clus>
<clus scale="   99.953">  2  5  1 -1</clus>
<clus scale="   47.700">  1  5  2 -1</clus>
</clustering>
</event>
<event>
10    4  0.2857708E-005  0.1613683E+03  0.7546771E-02  0.1188017E+00
         21   -1    0    0  503  502  0.00000000000E+00  0.00000000000E+00  0.80808741512E+03  0.80808741512E+03  0.00000000000E+00 0. -1.
         -1   -1    0    0    0  501 -0.00000000000E+00 -0.00000000000E+00 -0.16216531304E+03  0.16216531304E+03  0.00000000000E+00 0.  1.
         23    2    1    2    0    0 -0.12736986679E+03 -0.11445791570E+03 -0.47044611856E+02  0.19841201604E+03  0.88489746131E+02 0.  0.
         24    2    1    2    0    0  0.87119007242E+02  0.12673684729E+03  0.64564417307E+03  0.66885537869E+03  0.82820103300E+02 0.  0.
        -13    1    4    4    0    0  0.52471552741E+02  0.34630986884E+02  0.13641951407E+03  0.15020936362E+03  0.00000000000E+00 0.  1.
         14    1    4    4    0    0  0.34647454501E+02  0.92105860404E+02  0.50922465899E+03  0.51864601507E+03  0.00000000000E+00 0. -1.
        -13    1    3    3    0    0 -0.12275597029E+03 -0.72291036712E+02 -0.59222461720E+02  0.15428001232E+03  0.00000000000E+00 0.  1.
         13    1    3    3    0    0 -0.46138965042E+01 -0.42166878988E+02  0.12177849864E+02  0.44132003714E+02  0.00000000000E+00 0. -1.
         21    1    1    2  503  501  0.33354967129E+02  0.30851941956E+02  0.12497912423E+02  0.47123178687E+02  0.00000000000E+00 0.  1.
         -2    1    1    2    0  502  0.68958924239E+01 -0.43130873545E+02  0.34824628447E+02  0.55862154734E+02  0.00000000000E+00 0.  1.
<scales pt_clust_5="13000.00000" pt_clust_6="13000.00000" pt_clust_7="13000.00000" pt_clust_8="13000.00000" pt_clust_9="44.51152" pt_clust_10="43.67868"></scales>
<clustering>
<clus scale="   43.679">  1 10  2 -1</clus>
<clus scale="   44.512">  2  9  1 -1</clus>
<clus scale="   82.820">  5  6 -1 -1</clus>
<clus scale="   88.490">  7  8 -1 -1</clus>
<clus scale="  158.330">  1  5  2 -1</clus>
<clus scale="   43.679">  1  5  2 -1</clus>
</clustering>
</event>
<event>
10    4  0.2857708E-005  0.1298674E+03  0.7546771E-02  0.1230586E+00
          2   -1    0    0  503    0 -0.00000000000E+00  0.00000000000E+00  0.12872537883E+04  0.12872537883E+04  0.00000000000E+00 0. -1.
         21   -1    0    0  501  502  0.00000000000E+00 -0.00000000000E+00 -0.75557036139E+02  0.75557036139E+02  0.00000000000E+00 0.  1.
         23    2    1    2    0    0  0.12947794476E+03 -0.32435392656E+02  0.90878919282E+03  0.92306269814E+03  0.91270777538E+02 0.  0.
         24    2    1    2    0    0 -0.87210529566E+02 -0.16248603054E+01  0.37033498727E+02  0.12402946940E+03  0.80021950817E+02 0.  0.
        -11    1    4    4    0    0 -0.10130992746E+03 -0.10010949148E+02  0.29601717886E+02  0.10601972555E+03  0.00000000000E+00 0.  1.
         12    1    4    4    0    0  0.14099397890E+02  0.83860888428E+01  0.74317808416E+01  0.18009743846E+02  0.00000000000E+00 0. -1.
        -13    1    3    3    0    0 -0.97856269269E+00 -0.31222530811E+02  0.17609445958E+03  0.17884368233E+03  0.00000000000E+00 0. -1.
         13    1    3    3    0    0  0.13045650746E+03 -0.12128618447E+01  0.73269473324E+03  0.74421901581E+03  0.00000000000E+00 0.  1.
         21    1    1    2  503  502 -0.41734005102E+02  0.55672201256E+02  0.28090143895E+03  0.28939028937E+03  0.00000000000E+00 0. -1.
          1    1    1    2  501    0 -0.53341009636E+00 -0.21611948295E+02 -0.15027378363E+02  0.26328367513E+02  0.00000000000E+00 0. -1.
<scales pt_clust_5="13000.00000" pt_clust_6="13000.00000" pt_clust_7="13000.00000" pt_clust_8="13000.00000" pt_clust_9="68.27334" pt_clust_10="21.61853"></scales>
<clustering>
<clus scale="   21.619">  2 10  1 -1</clus>
<clus scale="   68.273">  1  9  2 -1</clus>
<clus scale="   80.022">  5  6 -1 -1</clus>
<clus scale="   91.271">  7  8 -1 -1</clus>
<clus scale="  122.224">  2  5  1 -1</clus>
<clus scale="   21.619">  2  5  1 -1</clus>
</clustering>
</event>
<event>
10    4  0.2857708E-005  0.1603575E+03  0.7546771E-02  0.1216193E+00
         -1   -1    0    0    0  501 -0.00000000000E+00  0.00000000000E+00  0.52443931300E+03  0.52443931300E+03  0.00000000000E+00 0.  1.
         21   -1    0    0  503  502  0.00000000000E+00 -0.00000000000E+00 -0.84072686945E+02  0.84072686945E+02  0.00000000000E+00 0.  1.
         24    2    1    2    0    0 -0.39921910373E+02  0.13824574224E+02  0.82822146294E+02  0.12145868869E+03  0.78152590246E+02 0.  0.
         23    2    1    2    0    0 -0.33900486404E+02  0.10380857693E+03  0.15478437920E+03  0.21292936328E+03  0.97238089648E+02 0.  0.
        -13    1    3    3    0    0 -0.57771754543E+02  0.16437152755E+02  0.84130091894E+02  0.10337131118E+03  0.00000000000E+00 0.  1.
         14    1    3    3    0    0  0.17849844171E+02 -0.26125785313E+01 -0.13079455999E+01  0.18087377510E+02  0.00000000000E+00 0. -1.
        -13    1    4    4    0    0  0.26115007555E+02  0.38714019167E+02  0.18119773400E+02  0.50090868306E+02  0.00000000000E+00 0.  1.
         13    1    4    4    0    0 -0.60015493959E+02  0.65094557766E+02  0.13666460580E+03  0.16283849497E+03  0.00000000000E+00 0. -1.
         21    1    1    2  503  501  0.16623189140E+02  0.12789336512E+02  0.90177308051E+02  0.92584255859E+02  0.00000000000E+00 0.  1.
         -2    1    1    2    0  502  0.57199207637E+02 -0.13042248767E+03  0.11258279251E+03  0.18153969211E+03  0.00000000000E+00 0.  1.
<scales pt_clust_5="13000.00000" pt_clust_6="13000.00000" pt_clust_7="13000.00000" pt_clust_8="13000.00000" pt_clust_9="20.97373" pt_clust_10="127.51196"></scales>
<clustering>
<clus scale="   20.974">  1  9  2 -1</clus>
<clus scale="   78.153">  5  6 -1 -1</clus>
<clus scale="   87.679">  1  5  2 -1</clus>
<clus scale="   97.238">  7  8 -1 -1</clus>
<clus scale="  127.512">  2 10  1 -1</clus>
<clus scale="  127.512">  2  5  1 -1</clus>
</clustering>
</event>
<event>
10    4  0.2857708E-005  0.9415258E+02  0.7546771E-02  0.1309748E+00
         21   -1    0    0  503  502  0.00000000000E+00  0.00000000000E+00  0.25152510036E+02  0.25152510036E+02  0.00000000000E+00 0. -1.
          4   -1    0    0  502    0 -0.00000000000E+00 -0.00000000000E+00 -0.67242803725E+03  0.67242803725E+03  0.00000000000E+00 0. -1.
         23    2    1    2    0    0  0.17995468820E+02 -0.30887084387E+02 -0.33398003366E+03  0.34808477561E+03  0.91337282921E+02 0.  0.
         24    2    1    2    0    0  0.29568122237E+02  0.63281211047E+01 -0.77164822559E+02  0.10559607347E+03  0.65435479077E+02 0.  0.
        -11    1    4    4    0    0  0.42032520736E+02  0.25092635350E+02 -0.46260670366E+02  0.67352971508E+02  0.00000000000E+00 0.  1.
         12    1    4    4    0    0 -0.12464398499E+02 -0.18764514245E+02 -0.30904152193E+02  0.38243101960E+02  0.00000000000E+00 0. -1.
        -13    1    3    3    0    0 -0.35307451929E+02 -0.53313567599E+01 -0.85235214294E+02  0.92412560198E+02  0.00000000000E+00 0.  1.
         13    1    3    3    0    0  0.53302920749E+02 -0.25555727627E+02 -0.24874481936E+03  0.25567221541E+03  0.00000000000E+00 0. -1.
         21    1    1    2  503  501 -0.20446461243E+02  0.78135791565E+01 -0.44001927679E+02  0.49145492530E+02  0.00000000000E+00 0.  1.
          3    1    1    2  501    0 -0.27117129814E+02  0.16745384126E+02 -0.19212874332E+03  0.19475420567E+03  0.00000000000E+00 0. -1.
<scales pt_clust_5="13000.00000" pt_clust_6="13000.00000" pt_clust_7="13000.00000" pt_clust_8="13000.00000" pt_clust_9="21.88858" pt_clust_10="33.12168"></scales>
<clustering>
<clus scale="   21.889">  1  9  2 -1</clus>
<clus scale="   33.122">  1 10  2 -1</clus>
<clus scale="   65.435">  5  6 -1 -1</clus>
<clus scale="   69.311">  1  5  2 -1</clus>
<clus scale="   91.337">  7  8 -1 -1</clus>
<clus scale="   21.889">  1  5  2 -1</clus>
</clustering>
</event>
<event>
10    4  0.2857708E-005  0.1058110E+03  0.7546771E-02  0.1273579E+00
         21   -1    0    0  501  502  0.00000000000E+00  0.00000000000E+00  0.40859054735E+02  0.40859054735E+02  0.00000000000E+00 0. -1.
          2   -1    0    0  503    0 -0.00000000000E+00 -0.00000000000E+00 -0.88005462983E+03  0.88005462983E+03  0.00000000000E+00 0. -1.
         24    2    1    2    0    0  0.28045346250E+02  0.80265063640E+02 -0.22943408642E+03  0.25720197945E+03  0.79270652398E+02 0.  0.
         23    2    1    2    0    0 -0.38278336180E+02  0.11804432783E+02 -0.94860616753E+02  0.13736802761E+03  0.90922289588E+02 0.  0.
        -13    1    3    3    0    0  0.18709384418E+02  0.20943100400E+02 -0.10177580667E+02  0.29870347635E+02  0.00000000000E+00 0.  1.
         14    1    3    3    0    0  0.93359618328E+01  0.59321963240E+02 -0.21925650575E+03  0.22733163181E+03  0.00000000000E+00 0. -1.
        -13    1    4    4    0    0 -0.56333845942E+02  0.37524910577E+02 -0.60236691082E+02  0.90609492134E+02  0.00000000000E+00 0.  1.
         13    1    4    4    0    0  0.18055509762E+02 -0.25720477793E+02 -0.34623925672E+02  0.46758535473E+02  0.00000000000E+00 0. -1.
         21    1    1    2  503  502  0.25010864197E+02 -0.20461564477E+02 -0.22770755183E+03  0.22998901736E+03  0.00000000000E+00 0. -1.
          1    1    1    2  501    0 -0.14777874267E+02 -0.71607931945E+02 -0.28719332010E+03  0.29635466015E+03  0.00000000000E+00 0. -1.
<scales pt_clust_5="13000.00000" pt_clust_6="13000.00000" pt_clust_7="13000.00000" pt_clust_8="13000.00000" pt_clust_9="32.31438" pt_clust_10="80.85474"></scales>
<clustering>
<clus scale="   32.314">  2  9  1 -1</clus>
<clus scale="   79.271">  5  6 -1 -1</clus>
<clus scale="   80.855">  1 10  2 -1</clus>
<clus scale="   90.922">  7  8 -1 -1</clus>
<clus scale="   95.984">  2  5  1 -1</clus>
<clus scale="   80.855">  1  5  2 -1</clus>
</clustering>
</event>
<event>
10    4  0.2857708E-005  0.1196175E+03  0.7546771E-02  0.1248012E+00
         21   -1    0    0  503  502  0.00000000000E+00  0.00000000000E+00  0.94249644008E+02  0.94249644008E+02  0.00000000000E+00 0.  1.
         -1   -1    0    0    0  501 -0.00000000000E+00 -0.00000000000E+00 -0.85423580990E+03  0.85423580990E+03  0.00000000000E+00 0.  1.
         23    2    1    2    0    0  0.21282185741E+01  0.36775093287E+02 -0.29828749734E+03  0.31396074537E+03  0.90768836971E+02 0.  0.
         24    2    1    2    0    0 -0.76748449174E+02 -0.89667038610E+02 -0.35135908586E+02  0.14539520222E+03  0.77296380854E+02 0.  0.
        -13    1    4    4    0    0 -0.55010532434E+02 -0.94632159027E+02 -0.72622608196E+01  0.10970024901E+03  0.00000000000E+00 0.  1.
         14    1    4    4    0    0 -0.21737916741E+02  0.49651204164E+01 -0.27873647766E+02  0.35694953211E+02  0.00000000000E+00 0. -1.
        -13    1    3    3    0    0 -0.25208004132E+02  0.51555553932E+02 -0.25026299822E+03  0.25675861600E+03  0.00000000000E+00 0. -1.
         13    1    3    3    0    0  0.27336222706E+02 -0.14780460645E+02 -0.48024499120E+02  0.57202129370E+02  0.00000000000E+00 0.  1.
         21    1    1    2  503  501  0.83099799817E+02 -0.37504532068E+01 -0.42369558115E+03  0.43178419160E+03  0.00000000000E+00 0.  1.
         -2    1    1    2    0  502 -0.84795692168E+01  0.56642398530E+02 -0.28671788162E+01  0.57345314715E+02  0.00000000000E+00 0.  1.
<scales pt_clust_5="13000.00000" pt_clust_6="13000.00000" pt_clust_7="13000.00000" pt_clust_8="13000.00000" pt_clust_9="82.58870" pt_clust_10="57.27359"></scales>
<clustering>
<clus scale="   57.274">  1 10  2 -1</clus>
<clus scale="   77.296">  5  6 -1 -1</clus>
<clus scale="   82.589">  2  9  1 -1</clus>
<clus scale="   90.769">  7  8 -1 -1</clus>
<clus scale="  109.746">  1  5  2 -1</clus>
<clus scale="   57.274">  1  5  2 -1</clus>
</clustering>
</event>
<event>
10    4  0.2857708E-005  0.9860068E+02  0.7546771E-02  0.1288403E+00
          4   -1    0    0  503    0 -0.00000000000E+00  0.00000000000E+00  0.66345805594E+03  0.66345805594E+03  0.00000000000E+00 0. -1.
         21   -1    0    0  501  502  0.00000000000E+00 -0.00000000000E+00 -0.90850212797E+02  0.90850212797E+02  0.00000000000E+00 0.  1.
         24    2    1    2    0    0  0.17300778343E+02  0.39191586345E+02  0.54817671960E+03  0.55579075668E+03  0.81057707364E+02 0.  0.
         23    2    1    2    0    0  0.37131842010E+02 -0.47524931099E+02 -0.30405405273E+02  0.11333175648E+03  0.91006623881E+02 0.  0.
        -11    1    3    3    0    0  0.23348262320E+02 -0.18016029123E+02  0.11121706882E+03  0.11506065816E+03  0.00000000000E+00 0.  1.
         12    1    3    3    0    0 -0.60474839779E+01  0.57207615468E+02  0.43695965078E+03  0.44073009852E+03  0.00000000000E+00 0. -1.
        -11    1    4    4    0    0  0.36424340995E+02  0.12729674916E+02 -0.36055272278E+02  0.52808710450E+02  0.00000000000E+00 0.  1.
         11    1    4    4    0    0  0.70750101523E+00 -0.60254606015E+02  0.56498670048E+01  0.60523046031E+02  0.00000000000E+00 0. -1.
         21    1    1    2  503  502 -0.23525039371E+02 -0.30382422250E+01  0.44909499398E+02  0.50788990239E+02  0.00000000000E+00 0. -1.
          3    1    1    2  501    0 -0.30907580981E+02  0.11371586979E+02  0.99270294083E+01  0.34396765333E+02  0.00000000000E+00 0. -1.
<scales pt_clust_5="13000.00000" pt_clust_6="13000.00000" pt_clust_7="13000.00000" pt_clust_8="13000.00000" pt_clust_9="23.72042" pt_clust_10="33.69250"></scales>
<clustering>
<clus scale="   23.720">  1  9  2 -1</clus>
<clus scale="   33.692">  2 10  1 -1</clus>
<clus scale="   81.058">  5  6 -1 -1</clus>
<clus scale="   89.500">  1  5  2 -1</clus>
<clus scale="   91.007">  7  8 -1 -1</clus>
<clus scale="   33.692">  2  5  1 -1</clus>
</clustering>
</event>
<event>
10    4  0.2857708E-005  0.1470695E+03  0.7546771E-02  0.1233834E+00
         21   -1    0    0  501  502  0.00000000000E+00  0.00000000000E+00  0.28381463250E+03  0.28381463250E+03  0.00000000000E+00 0.  1.
          2   -1    0    0  503    0 -0.00000000000E+00 -0.00000000000E+00 -0.29515233184E+03  0.29515233184E+03  0.00000000000E+00 0. -1.
         24    2    1    2    0    0  0.17816763189E+01  0.18410101947E+01  0.15030726823E+02  0.79712058554E+02  0.78240180476E+02 0.  0.
         23    2    1    2    0    0 -0.84608768646E+02  0.91916700350E+02  0.18586786794E+03  0.24165769531E+03  0.90797873536E+02 0.  0.
        -11    1    3    3    0    0 -0.63739109573E+01 -0.23325395804E+02  0.37756759476E+02  0.44836076060E+02  0.00000000000E+00 0.  1.
         12    1    3    3    0    0  0.81555872762E+01  0.25166405999E+02 -0.22726032653E+02  0.34875982493E+02  0.00000000000E+00 0. -1.
        -13    1    4    4    0    0  0.15537848801E+02  0.35904746220E+02  0.56645166864E+02  0.68842214342E+02  0.00000000000E+00 0. -1.
         13    1    4    4    0    0 -0.10014661745E+03  0.56011954131E+02  0.12922270107E+03  0.17281548097E+03  0.00000000000E+00 0.  1.
         21    1    1    2  503  502  0.26357225560E+02 -0.29668164361E+02 -0.14067061810E+03  0.14616130169E+03  0.00000000000E+00 0. -1.
          1    1    1    2  501    0  0.56469866767E+02 -0.64089546184E+02 -0.71565675999E+02  0.11143590877E+03  0.00000000000E+00 0. -1.
<scales pt_clust_5="13000.00000" pt_clust_6="13000.00000" pt_clust_7="13000.00000" pt_clust_8="13000.00000" pt_clust_9="39.68505" pt_clust_10="115.69436"></scales>
<clustering>
<clus scale="   39.685">  2  9  1 -1</clus>
<clus scale="   78.240">  5  6 -1 -1</clus>
<clus scale="   78.717">  2  5  1 -1</clus>
<clus scale="   90.798">  7  8 -1 -1</clus>
<clus scale="  115.694">  1 10  2 -1</clus>
<clus scale="  115.694">  1  5  2 -1</clus>
</clustering>
</event>
<event>
10    4  0.2857708E-005  0.1140798E+03  0.7546771E-02  0.1257730E+00
         21   -1    0    0  503  502  0.00000000000E+00  0.00000000000E+00  0.24607255468E+03  0.24607255468E+03  0.00000000000E+00 0.  1.
         -1   -1    0    0    0  501 -0.00000000000E+00 -0.00000000000E+00 -0.15352385967E+03  0.15352385967E+03  0.00000000000E+00 0.  1.
         23    2    1    2    0    0  0.31637545030E+02 -0.76044603654E+02 -0.75250182738E+02  0.14575481846E+03  0.93798513330E+02 0.  0.
         24    2    1    2    0    0 -0.47064157011E+02  0.38976675960E+02  0.54509755327E+02  0.11560501573E+03  0.81602635322E+02 0.  0.
        -11    1    4    4    0    0 -0.69056159169E+02  0.38451321627E+02  0.35984477512E+02  0.86845494275E+02  0.00000000000E+00 0.  1.
         12    1    4    4    0    0  0.21992002158E+02  0.52535433311E+00  0.18525277815E+02  0.28759521453E+02  0.00000000000E+00 0. -1.
        -13    1    3    3    0    0  0.15685139912E+02 -0.97128558420E+02 -0.59617856282E+02  0.11504029408E+03  0.00000000000E+00 0.  1.
         13    1    3    3    0    0  0.15952405118E+02  0.21083954766E+02 -0.15632326456E+02  0.30714524382E+02  0.00000000000E+00 0. -1.
         21    1    1    2  503  501 -0.47877510595E+01  0.20108680279E+02 -0.12392700842E+01  0.20707906053E+02  0.00000000000E+00 0. -1.
         -2    1    1    2    0  502  0.20214363041E+02  0.16959247416E+02  0.11452839251E+03  0.11752867410E+03  0.00000000000E+00 0.  1.
<scales pt_clust_5="13000.00000" pt_clust_6="13000.00000" pt_clust_7="13000.00000" pt_clust_8="13000.00000" pt_clust_9="20.67079" pt_clust_10="26.48442"></scales>
<clustering>
<clus scale="   20.671">  2  9  1 -1</clus>
<clus scale="   26.484">  1 10  2 -1</clus>
<clus scale="   81.603">  5  6 -1 -1</clus>
<clus scale="   93.799">  7  8 -1 -1</clus>
<clus scale="  104.283">  1  5  2 -1</clus>
<clus scale="   26.484">  1  5  2 -1</clus>
</clustering>
</event>
<event>
10    4  0.2857708E-005  0.1232532E+03  0.7546771E-02  0.1243441E+00
         -3   -1    0    0    0  501 -0.00000000000E+00  0.00000000000E+00  0.47235505627E+02  0.47235505627E+02  0.00000000000E+00 0.  1.
         21   -1    0    0  503  502  0.00000000000E+00 -0.00000000000E+00 -0.47000967133E+03  0.47000967133E+03  0.00000000000E+00 0. -1.
         23    2    1    2    0    0 -0.80632951723E+02  0.93871807580E+00 -0.14340060760E+03  0.19102786622E+03  0.97084279468E+02 0.  0.
         24    2    1    2    0    0  0.65920269560E+02  0.12683893798E+02 -0.20191370461E+03  0.22716742980E+03  0.79558368211E+02 0.  0.
        -13    1    4    4    0    0  0.24691634322E+02  0.39068567925E+02 -0.52523287985E+02  0.69962315470E+02  0.00000000000E+00 0.  1.
         14    1    4    4    0    0  0.41228635238E+02 -0.26384674128E+02 -0.14939041662E+03  0.15720511433E+03  0.00000000000E+00 0. -1.
        -13    1    3    3    0    0 -0.37582611479E+02 -0.47987658609E+02 -0.65847060179E+02  0.89727941013E+02  0.00000000000E+00 0.  1.
         13    1    3    3    0    0 -0.43050340244E+02  0.48926376685E+02 -0.77553547416E+02  0.10129992521E+03  0.00000000000E+00 0. -1.
         21    1    1    2  503  501 -0.14555829964E+02  0.13932781093E+02 -0.16570543042E+02  0.26087879784E+02  0.00000000000E+00 0.  1.
         -4    1    1    2    0  502  0.29268512127E+02 -0.27555392967E+02 -0.60889310455E+02  0.72962001147E+02  0.00000000000E+00 0.  1.
<scales pt_clust_5="13000.00000" pt_clust_6="13000.00000" pt_clust_7="13000.00000" pt_clust_8="13000.00000" pt_clust_9="20.14931" pt_clust_10="37.33555"></scales>
<clustering>
<clus scale="   20.149">  1  9  2 -1</clus>
<clus scale="   37.336">  2 10  1 -1</clus>
<clus scale="   79.558">  5  6 -1 -1</clus>
<clus scale="   97.084">  7  8 -1 -1</clus>
<clus scale="  109.980">  2  5  1 -1</clus>
<clus scale="   37.336">  2  5  1 -1</clus>
</clustering>
</event>
<event>
10    4  0.2857708E-005  0.1411563E+03  0.7546771E-02  0.1220555E+00
         21   -1    0    0  501  502  0.00000000000E+00  0.00000000000E+00  0.68713225724E+02  0.68713225724E+02  0.00000000000E+00 0. -1.
          2   -1    0    0  503    0 -0.00000000000E+00 -0.00000000000E+00 -0.79903683891E+03  0.79903683891E+03  0.00000000000E+00 0. -1.
         24    2    1    2    0    0  0.41388311364E+02 -0.85714828856E+02 -0.29350024327E+03  0.31926386623E+03  0.82018286241E+02 0.  0.
         23    2    1    2    0    0  0.55566687510E+02  0.43072087417E+02 -0.21719761817E+03  0.24616379852E+03  0.92081208110E+02 0.  0.
        -13    1    3    3    0    0  0.46535817814E+02 -0.89806634803E+02 -0.29554770494E+03  0.31237679154E+03  0.00000000000E+00 0.  1.
         14    1    3    3    0    0 -0.51475064505E+01  0.40918059476E+01  0.20474616706E+01  0.68870746956E+01  0.00000000000E+00 0. -1.
        -13    1    4    4    0    0  0.25773228468E+02 -0.20817511791E+02 -0.25175309324E+02  0.41610386953E+02  0.00000000000E+00 0.  1.
         13    1    4    4    0    0  0.29793459043E+02  0.63889599208E+02 -0.19202230885E+03  0.20455341157E+03  0.00000000000E+00 0. -1.
         21    1    1    2  503  502  0.36370406387E+02  0.55367547699E+02 -0.11359810566E+03  0.13150247682E+03  0.00000000000E+00 0. -1.
          1    1    1    2  501    0 -0.13332540526E+03 -0.12724806260E+02 -0.10602764608E+03  0.17081992307E+03  0.00000000000E+00 0. -1.
<scales pt_clust_5="13000.00000" pt_clust_6="13000.00000" pt_clust_7="13000.00000" pt_clust_8="13000.00000" pt_clust_9="66.24479" pt_clust_10="106.98664"></scales>
<clustering>
<clus scale="   66.245">  2  9  1 -1</clus>
<clus scale="   82.018">  5  6 -1 -1</clus>
<clus scale="   92.081">  7  8 -1 -1</clus>
<clus scale="  117.268">  2  5  1 -1</clus>
<clus scale="  106.987">  1 10  2 -1</clus>
<clus scale="  106.987">  1  5  2 -1</clus>
</clustering>
</event>
<event>
10    4  0.2857708E-005  0.1311569E+03  0.7546771E-02  0.1228787E+00
          2   -1    0    0  503    0 -0.00000000000E+00  0.00000000000E+00  0.24104604936E+03  0.24104604936E+03  0.00000000000E+00 0. -1.
         21   -1    0    0  501  502  0.00000000000E+00 -0.00000000000E+00 -0.17844646268E+03  0.17844646268E+03  0.00000000000E+00 0.  1.
         23    2    1    2    0    0  0.70274266785E+02 -0.45395862975E+02  0.70071406960E+02  0.14176801409E+03  0.90492600785E+02 0.  0.
         24    2    1    2    0    0 -0.45076375506E+02  0.61426339829E+02 -0.58906468707E+02  0.12420644112E+03  0.78435917191E+02 0.  0.
        -13    1    4    4    0    0 -0.34458429783E+02  0.70344279645E+02 -0.71065789085E+02  0.10576411225E+03  0.00000000000E+00 0.  1.
         14    1    4    4    0    0 -0.10617945723E+02 -0.89179398155E+01  0.12159320378E+02  0.18442328866E+02  0.00000000000E+00 0. -1.
        -13    1    3    3    0    0  0.58449312718E+00 -0.53118250842E+02  0.29758314533E+02  0.60888812507E+02  0.00000000000E+00 0.  1.
         13    1    3    3    0    0  0.69689773658E+02  0.77223878665E+01  0.40313092428E+02  0.80879201579E+02  0.00000000000E+00 0. -1.
         21    1    1    2  503  502  0.33484299080E+02 -0.61757276795E+02  0.24870160566E+02  0.74523046158E+02  0.00000000000E+00 0.  1.
          1    1    1    2  501    0 -0.58682190360E+02  0.45726799941E+02  0.26564487857E+02  0.78995010686E+02  0.00000000000E+00 0. -1.
<scales pt_clust_5="13000.00000" pt_clust_6="13000.00000" pt_clust_7="13000.00000" pt_clust_8="13000.00000" pt_clust_9="70.25069" pt_clust_10="57.16804"></scales>
<clustering>
<clus scale="   70.251">  1  9  2 -1</clus>
<clus scale="   57.168">  2 10  1 -1</clus>
<clus scale="   78.436">  5  6 -1 -1</clus>
<clus scale="   90.493">  7  8 -1 -1</clus>
<clus scale="  123.148">  2  5  1 -1</clus>
<clus scale="   57.168">  2  5  1 -1</clus>
</clustering>
</event>
<event>
10    4  0.2857708E-005  0.1202862E+03  0.7546771E-02  0.1246100E+00
         21   -1    0    0  501  502  0.00000000000E+00  0.00000000000E+00  0.13757024992E+03  0.13757024992E+03  0.00000000000E+00 0. -1.
          2   -1    0    0  503    0 -0.00000000000E+00 -0.00000000000E+00 -0.48035216281E+03  0.48035216281E+03  0.00000000000E+00 0. -1.
         23    2    1    2    0    0 -0.28643380376E+02  0.58344034358E+02 -0.17198585977E+03  0.20585531999E+03  0.92589455240E+02 0.  0.
         24    2    1    2    0    0  0.48135789389E+02 -0.83268398237E+02 -0.15440656756E+03  0.19943270718E+03  0.81739441051E+02 0.  0.
        -13    1    4    4    0    0  0.43518927544E+02 -0.61741440176E+02 -0.45198156883E+02  0.88027131473E+02  0.00000000000E+00 0.  1.
         14    1    4    4    0    0  0.46168618451E+01 -0.21526958061E+02 -0.10920841068E+03  0.11140557571E+03  0.00000000000E+00 0. -1.
        -13    1    3    3    0    0 -0.50242817220E+02  0.24428186635E+01 -0.10191041861E+03  0.11364876360E+03  0.00000000000E+00 0. -1.
         13    1    3    3    0    0  0.21599436843E+02  0.55901215694E+02 -0.70075441157E+02  0.92206556390E+02  0.00000000000E+00 0.  1.
         21    1    1    2  503  502 -0.12628189051E+02 -0.17909252535E+02 -0.10856848354E+03  0.11075797083E+03  0.00000000000E+00 0. -1.
          1    1    1    2  501    0 -0.68642199620E+01  0.42833616414E+02  0.92178997980E+02  0.10187641474E+03  0.00000000000E+00 0. -1.
<scales pt_clust_5="13000.00000" pt_clust_6="13000.00000" pt_clust_7="13000.00000" pt_clust_8="13000.00000" pt_clust_9="21.91375" pt_clust_10="43.17543"></scales>
<clustering>
<clus scale="   21.914">  2  9  1 -1</clus>
<clus scale="   43.175">  1 10  2 -1</clus>
<clus scale="   81.739">  5  6 -1 -1</clus>
<clus scale="   92.589">  7  8 -1 -1</clus>
<clus scale="  112.149">  1  5  2 -1</clus>
<clus scale="   43.175">  1  5  2 -1</clus>
</clustering>
</event>
<event>
10    4  0.2857708E-005  0.8921988E+02  0.7546771E-02  0.1310316E+00
         21   -1    0    0  503  502  0.00000000000E+00  0.00000000000E+00  0.45709592690E+02  0.45709592690E+02  0.00000000000E+00 0.  1.
         -1   -1    0    0    0  501 -0.00000000000E+00 -0.00000000000E+00 -0.56749520114E+03  0.56749520114E+03  0.00000000000E+00 0.  1.
         23    2    1    2    0    0 -0.29408091101E+02 -0.24521432065E+00 -0.32794222807E+03  0.34091155933E+03  0.88372452622E+02 0.  0.
         24    2    1    2    0    0 -0.22725548562E+02 -0.12885382421E+02 -0.35021569100E+02  0.90873230751E+02  0.79680299494E+02 0.  0.
        -11    1    4    4    0    0  0.10079235431E+02 -0.38200040691E+02 -0.52595693775E+01  0.39855955210E+02  0.00000000000E+00 0.  1.
         12    1    4    4    0    0 -0.32804783993E+02  0.25314658270E+02 -0.29761999722E+02  0.51017275541E+02  0.00000000000E+00 0. -1.
        -11    1    3    3    0    0 -0.52191038623E+02 -0.16699121824E+02 -0.28023338144E+03  0.28554073834E+03  0.00000000000E+00 0.  1.
         11    1    3    3    0    0  0.22782947522E+02  0.16453907503E+02 -0.47708846634E+02  0.55370820990E+02  0.00000000000E+00 0. -1.
         21    1    1    2  503  501  0.27987980088E+02  0.16010007808E+02 -0.15307418721E+03  0.15643322591E+03  0.00000000000E+00 0. -1.
         -2    1    1    2    0  502  0.24145659575E+02 -0.28794110667E+01 -0.57476240791E+01  0.24986777843E+02  0.00000000000E+00 0.  1.
<scales pt_clust_5="13000.00000" pt_clust_6="13000.00000" pt_clust_7="13000.00000" pt_clust_8="13000.00000" pt_clust_9="33.15925" pt_clust_10="24.31674"></scales>
<clustering>
<clus scale="   24.317">  1 10  2 -1</clus>
<clus scale="   33.159">  2  9  1 -1</clus>
<clus scale="   79.680">  5  6 -1 -1</clus>
<clus scale="   80.619">  1  5  2 -1</clus>
<clus scale="   88.372">  7  8 -1 -1</clus>
<clus scale="   24.317">  1  5  2 -1</clus>
</clustering>
</event>
<event>
10    4  0.2857708E-005  0.1306135E+03  0.7546771E-02  0.1231348E+00
         21   -1    0    0  501  502  0.00000000000E+00  0.00000000000E+00  0.50143834928E+02  0.50143834928E+02  0.00000000000E+00 0. -1.
          2   -1    0    0  503    0 -0.00000000000E+00 -0.00000000000E+00 -0.59641704294E+03  0.59641704294E+03  0.00000000000E+00 0. -1.
         23    2    1    2    0    0 -0.65290165209E+02 -0.36423027429E+02 -0.36208132584E+03  0.38239487025E+03  0.97639682836E+02 0.  0.
         24    2    1    2    0    0  0.60830335393E+02  0.47215431541E+02 -0.52820392397E+02  0.12320991647E+03  0.80380737646E+02 0.  0.
        -13    1    4    4    0    0  0.49743341281E+02  0.22994226472E+02 -0.71929425985E+02  0.90426637532E+02  0.00000000000E+00 0.  1.
         14    1    4    4    0    0  0.11086994112E+02  0.24221205068E+02  0.19109033588E+02  0.32783278940E+02  0.00000000000E+00 0. -1.
        -13    1    3    3    0    0  0.24908967790E+02 -0.16260239324E+02 -0.10814627426E+03  0.11216268852E+03  0.00000000000E+00 0.  1.
         13    1    3    3    0    0 -0.90199132998E+02 -0.20162788106E+02 -0.25393505159E+03  0.27023218173E+03  0.00000000000E+00 0. -1.
         21    1    1    2  503  502 -0.15502911330E+02 -0.19915509926E+02 -0.96552799926E+02  0.99796848492E+02  0.00000000000E+00 0. -1.
          1    1    1    2  501    0  0.19962741146E+02  0.91231058146E+01 -0.34818689844E+02  0.41159242658E+02  0.00000000000E+00 0. -1.
<scales pt_clust_5="13000.00000" pt_clust_6="13000.00000" pt_clust_7="13000.00000" pt_clust_8="13000.00000" pt_clust_9="24.56871" pt_clust_10="21.94863"></scales>
<clustering>
<clus scale="   21.949">  1 10  2 -1</clus>
<clus scale="   24.569">  2  9  1 -1</clus>
<clus scale="   80.381">  5  6 -1 -1</clus>
<clus scale="   97.640">  7  8 -1 -1</clus>
<clus scale="  118.269">  1  5  2 -1</clus>
<clus scale="   21.949">  1  5  2 -1</clus>
</clustering>
</event>
<event>
10    4  0.2857708E-005  0.3378676E+03  0.7546771E-02  0.1077831E+00
         21   -1    0    0  501  502  0.00000000000E+00  0.00000000000E+00  0.31605815035E+03  0.31605815035E+03  0.00000000000E+00 0.  1.
          2   -1    0    0  503    0 -0.00000000000E+00 -0.00000000000E+00 -0.15674037280E+04  0.15674037280E+04  0.00000000000E+00 0. -1.
         24    2    1    2    0    0 -0.15072085396E+03  0.19300294362E+03 -0.28159335495E+03  0.38614986510E+03  0.99247109280E+02 0.  0.
         23    2    1    2    0    0 -0.29249286126E+03 -0.16943704470E+03 -0.80295304463E+03  0.87586941618E+03  0.90292061145E+02 0.  0.
        -11    1    3    3    0    0 -0.10681886722E+03  0.74614720884E+02 -0.96722601576E+02  0.16227411569E+03  0.00000000000E+00 0.  1.
         12    1    3    3    0    0 -0.43901986742E+02  0.11838822274E+03 -0.18487075338E+03  0.22387574942E+03  0.00000000000E+00 0. -1.
        -13    1    4    4    0    0 -0.14836844574E+02 -0.35697585783E+02 -0.58197794988E+02  0.69867252194E+02  0.00000000000E+00 0. -1.
         13    1    4    4    0    0 -0.27765601669E+03 -0.13373945892E+03 -0.74475524964E+03  0.80600216398E+03  0.00000000000E+00 0.  1.
         21    1    1    2  503  502  0.11405839328E+03  0.37515250314E+02 -0.24925111524E+03  0.27666374814E+03  0.00000000000E+00 0.  1.
          1    1    1    2  501    0  0.32915532194E+03 -0.61081149231E+02  0.82451937154E+02  0.34477884896E+03  0.00000000000E+00 0. -1.
<scales pt_clust_5="13000.00000" pt_clust_6="13000.00000" pt_clust_7="13000.00000" pt_clust_8="13000.00000" pt_clust_9="120.06961" pt_clust_10="325.57929"></scales>
<clustering>
<clus scale="   90.292">  7  8 -1 -1</clus>
<clus scale="   99.247">  5  6 -1 -1</clus>
<clus scale="  120.070">  2  9  1 -1</clus>
<clus scale="  256.257">  2  5  1 -1</clus>
<clus scale="  325.579">  1 10  2 -1</clus>
<clus scale="  325.579">  1  5  2 -1</clus>
</clustering>
</event>
<event>
10    4  0.2857708E-005  0.1476817E+03  0.7546771E-02  0.1204902E+00
         -1   -1    0    0    0  501 -0.00000000000E+00  0.00000000000E+00  0.30487841790E+03  0.30487841790E+03  0.00000000000E+00 0.  1.
         21   -1    0    0  503  502  0.00000000000E+00 -0.00000000000E+00 -0.16057848733E+03  0.16057848733E+03  0.00000000000E+00 0.  1.
         24    2    1    2    0    0 -0.73183892776E+02  0.65223493453E+02  0.78215231016E+02  0.14954304084E+03  0.81458654800E+02 0.  0.
         23    2    1    2    0    0  0.14872441679E+03 -0.43897651734E+02 -0.12912214691E+02  0.17960920763E+03  0.89703880620E+02 0.  0.
        -11    1    3    3    0    0 -0.32981337840E+02  0.46640697417E+01 -0.10431565312E+02  0.34904723851E+02  0.00000000000E+00 0.  1.
         12    1    3    3    0    0 -0.40202554935E+02  0.60559423712E+02  0.88646796328E+02  0.11463831699E+03  0.00000000000E+00 0. -1.
        -13    1    4    4    0    0  0.10023963009E+03  0.10879342792E+02  0.13724377576E+02  0.10175805659E+03  0.00000000000E+00 0.  1.
         13    1    4    4    0    0  0.48484786700E+02 -0.54776994526E+02 -0.26636592267E+02  0.77851151040E+02  0.00000000000E+00 0. -1.
         21    1    1    2  503  501 -0.23314779855E+02 -0.36548717721E+01  0.77646671608E+02  0.81153820977E+02  0.00000000000E+00 0.  1.
         -2    1    1    2    0  502 -0.52225744162E+02 -0.17670969948E+02  0.13502426344E+01  0.55150835781E+02  0.00000000000E+00 0.  1.
<scales pt_clust_5="13000.00000" pt_clust_6="13000.00000" pt_clust_7="13000.00000" pt_clust_8="13000.00000" pt_clust_9="23.59951" pt_clust_10="58.05029"></scales>
<clustering>
<clus scale="   23.600">  1  9  2 -1</clus>
<clus scale="   58.050">  2 10  1 -1</clus>
<clus scale="   81.459">  5  6 -1 -1</clus>
<clus scale="   89.704">  7  8 -1 -1</clus>
<clus scale="  142.824">  1  5  2 -1</clus>
<clus scale="   58.050">  2  5  1 -1</clus>
</clustering>
</event>
<event>
10    4  0.2857708E-005  0.2128442E+03  0.7546771E-02  0.1140203E+00
         21   -1    0    0  501  502  0.00000000000E+00  0.00000000000E+00  0.18360745740E+03  0.18360745740E+03  0.00000000000E+00 0. -1.
          2   -1    0    0  503    0 -0.00000000000E+00 -0.00000000000E+00 -0.81805732891E+03  0.81805732891E+03  0.00000000000E+00 0. -1.
         23    2    1    2    0    0 -0.50475926494E+02 -0.20409977574E+03 -0.44421604412E+03  0.50010805118E+03  0.92604705003E+02 0.  0.
         24    2    1    2    0    0  0.41174293322E+02  0.14918221698E+03 -0.91600151356E+02  0.19762170506E+03  0.81933474757E+02 0.  0.
        -11    1    4    4    0    0  0.60830109809E+02  0.74122058558E+02 -0.37154623934E+02  0.10283407949E+03  0.00000000000E+00 0.  1.
         12    1    4    4    0    0 -0.19655816487E+02  0.75060158426E+02 -0.54445527422E+02  0.94787625569E+02  0.00000000000E+00 0. -1.
        -11    1    3    3    0    0 -0.33021700383E+02 -0.25731788985E+02 -0.39816253909E+02  0.57774490357E+02  0.00000000000E+00 0.  1.
         11    1    3    3    0    0 -0.17454226111E+02 -0.17836798676E+03 -0.40439979021E+03  0.44233356082E+03  0.00000000000E+00 0. -1.
         21    1    1    2  503  502  0.54398638573E+02 -0.16635003589E+02 -0.17865990950E+03  0.18749746261E+03  0.00000000000E+00 0. -1.
          1    1    1    2  501    0 -0.45097005401E+02  0.71552562347E+02  0.80026233469E+02  0.11643756747E+03  0.00000000000E+00 0. -1.
<scales pt_clust_5="13000.00000" pt_clust_6="13000.00000" pt_clust_7="13000.00000" pt_clust_8="13000.00000" pt_clust_9="56.88528" pt_clust_10="83.35012"></scales>
<clustering>
<clus scale="   56.885">  2  9  1 -1</clus>
<clus scale="   81.933">  5  6 -1 -1</clus>
<clus scale="   83.350">  1 10  2 -1</clus>
<clus scale="   92.605">  7  8 -1 -1</clus>
<clus scale="  208.423">  1  5  2 -1</clus>
<clus scale="   83.350">  1  5  2 -1</clus>
</clustering>
</event>
<event>
10    4  0.2857708E-005  0.2033200E+03  0.7546771E-02  0.1177704E+00
         21   -1    0    0  501  502  0.00000000000E+00  0.00000000000E+00  0.14567689135E+03  0.14567689135E+03  0.00000000000E+00 0. -1.
          2   -1    0    0  503    0 -0.00000000000E+00 -0.00000000000E+00 -0.88524806449E+03  0.88524806449E+03  0.00000000000E+00 0. -1.
         24    2    1    2    0    0 -0.42707131751E+02 -0.31371988568E+02 -0.17054305651E+03  0.19656246945E+03  0.82120457286E+02 0.  0.
         23    2    1    2    0    0  0.68813398891E+02 -0.16902234126E+03 -0.54517725070E+02  0.21185473725E+03  0.92770747747E+02 0.  0.
        -11    1    3    3    0    0 -0.38090655715E+01  0.27172736624E+02 -0.48886140822E+02  0.56059980028E+02  0.00000000000E+00 0.  1.
         12    1    3    3    0    0 -0.38898066179E+02 -0.58544725192E+02 -0.12165691569E+03  0.14050248942E+03  0.00000000000E+00 0. -1.
        -13    1    4    4    0    0  0.37402380085E+02 -0.13448022359E+02 -0.33057009889E+02  0.51696743072E+02  0.00000000000E+00 0. -1.
         13    1    4    4    0    0  0.31411018806E+02 -0.15557431890E+03 -0.21460715180E+02  0.16015799418E+03  0.00000000000E+00 0.  1.
         21    1    1    2  503  502  0.82692198995E+01  0.20356498364E+03 -0.54158378384E+03  0.57863639488E+03  0.00000000000E+00 0. -1.
          1    1    1    2  501    0 -0.34375487039E+02 -0.31706538136E+01  0.27073392282E+02  0.43871354258E+02  0.00000000000E+00 0. -1.
<scales pt_clust_5="13000.00000" pt_clust_6="13000.00000" pt_clust_7="13000.00000" pt_clust_8="13000.00000" pt_clust_9="180.92159" pt_clust_10="34.52140"></scales>
<clustering>
<clus scale="   34.521">  1 10  2 -1</clus>
<clus scale="   82.120">  5  6 -1 -1</clus>
<clus scale="   92.771">  7  8 -1 -1</clus>
<clus scale="   99.692">  2  5  1 -1</clus>
<clus scale="  180.922">  2  9  1 -1</clus>
<clus scale="   34.521">  1  5  2 -1</clus>
</clustering>
</event>
<event>
10    4  0.2857708E-005  0.1419585E+03  0.7546771E-02  0.1212695E+00
         21   -1    0    0  503  502  0.00000000000E+00  0.00000000000E+00  0.15117616724E+04  0.15117616724E+04  0.00000000000E+00 0. -1.
         -1   -1    0    0    0  501 -0.00000000000E+00 -0.00000000000E+00 -0.78044290692E+02  0.78044290692E+02  0.00000000000E+00 0.  1.
         23    2    1    2    0    0  0.81587913287E+02  0.87628669467E+02  0.17229407516E+03  0.22823607051E+03  0.89839213260E+02 0.  0.
         24    2    1    2    0    0 -0.11832158729E+03 -0.26729784881E+02  0.12031373359E+04  0.12132402960E+04  0.98478867371E+02 0.  0.
        -13    1    4    4    0    0 -0.35271357149E+01 -0.35143854073E+02  0.16478460219E+03  0.16852743481E+03  0.00000000000E+00 0.  1.
         14    1    4    4    0    0 -0.11479445157E+03  0.84140691914E+01  0.10383527337E+04  0.10447128612E+04  0.00000000000E+00 0. -1.
        -13    1    3    3    0    0  0.86620852122E+02  0.29997250535E+02  0.11087104136E+03  0.14385894089E+03  0.00000000000E+00 0.  1.
         13    1    3    3    0    0 -0.50329388349E+01  0.57631418932E+02  0.61423033803E+02  0.84377129621E+02  0.00000000000E+00 0. -1.
         21    1    1    2  503  501 -0.24919264803E+01 -0.66825640503E+02  0.79059844326E+02  0.10354870792E+03  0.00000000000E+00 0. -1.
         -2    1    1    2    0  502  0.39225600479E+02  0.59267559169E+01 -0.20773873649E+02  0.44780888725E+02  0.00000000000E+00 0.  1.
<scales pt_clust_5="13000.00000" pt_clust_6="13000.00000" pt_clust_7="13000.00000" pt_clust_8="13000.00000" pt_clust_9="66.46490" pt_clust_10="39.67084"></scales>
<clustering>
<clus scale="   39.671">  1 10  2 -1</clus>
<clus scale="   66.465">  2  9  1 -1</clus>
<clus scale="   89.839">  7  8 -1 -1</clus>
<clus scale="   98.479">  5  6 -1 -1</clus>
<clus scale="  136.107">  2  7  1 -1</clus>
<clus scale="   39.671">  1  5  2 -1</clus>
</clustering>
</event>
<event>
10    4  0.2857708E-005  0.8819926E+02  0.7546771E-02  0.1307345E+00
         -1   -1    0    0    0  501 -0.00000000000E+00  0.00000000000E+00  0.46482322760E+03  0.46482322760E+03  0.00000000000E+00 0.  1.
         21   -1    0    0  503  502  0.00000000000E+00 -0.00000000000E+00 -0.86985535697E+02  0.86985535697E+02  0.00000000000E+00 0.  1.
         24    2    1    2    0    0  0.48916394436E+02  0.31559061031E+02  0.23700746583E+03  0.25786711189E+03  0.83271366969E+02 0.  0.
         23    2    1    2    0    0  0.15746749122E+00  0.40382602468E+02  0.37520026089E+02  0.99966161539E+02  0.83394854261E+02 0.  0.
        -11    1    3    3    0    0 -0.16909201842E+02 -0.13243417543E+02  0.40561831057E+02  0.45897400295E+02  0.00000000000E+00 0.  1.
         12    1    3    3    0    0  0.65825596278E+02  0.44802478574E+02  0.19644563478E+03  0.21196971160E+03  0.00000000000E+00 0. -1.
        -13    1    4    4    0    0 -0.29010726633E+02  0.20124918988E+02  0.50959003421E+02  0.61995601889E+02  0.00000000000E+00 0. -1.
         13    1    4    4    0    0  0.29168194124E+02  0.20257683480E+02 -0.13438977332E+02  0.37970559650E+02  0.00000000000E+00 0.  1.
         21    1    1    2  503  501 -0.31697981225E+02  0.13557289921E+02  0.10097421683E+03  0.10669749101E+03  0.00000000000E+00 0.  1.
         -2    1    1    2    0  502 -0.17375880702E+02 -0.85498953420E+02  0.23359831473E+01  0.87277998851E+02  0.00000000000E+00 0.  1.
<scales pt_clust_5="13000.00000" pt_clust_6="13000.00000" pt_clust_7="13000.00000" pt_clust_8="13000.00000" pt_clust_9="34.47553" pt_clust_10="86.48284"></scales>
<clustering>
<clus scale="   34.476">  1  9  2 -1</clus>
<clus scale="   83.271">  5  6 -1 -1</clus>
<clus scale="   83.395">  7  8 -1 -1</clus>
<clus scale="   86.483">  2 10  1 -1</clus>
<clus scale="   88.083">  1  5  2 -1</clus>
<clus scale="   86.483">  2  5  1 -1</clus>
</clustering>
</event>
<event>
10    4  0.2857708E-005  0.1297863E+03  0.7546771E-02  0.1247593E+00
         21   -1    0    0  501  502  0.00000000000E+00  0.00000000000E+00  0.82225014749E+02  0.82225014749E+02  0.00000000000E+00 0. -1.
          2   -1    0    0  503    0 -0.00000000000E+00 -0.00000000000E+00 -0.52018090228E+03  0.52018090228E+03  0.00000000000E+00 0. -1.
         23    2    1    2    0    0 -0.11605520226E+03  0.29839057548E+02 -0.71805450679E+02  0.16563430684E+03  0.88991693600E+02 0.  0.
         24    2    1    2    0    0  0.65605865166E+01 -0.21640107082E+02 -0.64032035181E+02  0.10612246729E+03  0.81550849200E+02 0.  0.
        -11    1    4    4    0    0 -0.11895210587E+02 -0.48584872921E+02 -0.27352312296E+02  0.57009954390E+02  0.00000000000E+00 0.  1.
         12    1    4    4    0    0  0.18455797103E+02  0.26944765839E+02 -0.36679722885E+02  0.49112512904E+02  0.00000000000E+00 0. -1.
        -11    1    3    3    0    0 -0.75588364652E+02 -0.21394251776E+02 -0.60997459632E+02  0.99458559015E+02  0.00000000000E+00 0. -1.
         11    1    3    3    0    0 -0.40466837605E+02  0.51233309324E+02 -0.10807991048E+02  0.66175747828E+02  0.00000000000E+00 0.  1.
         21    1    1    2  503  502  0.88449280907E+02  0.11171261708E+02 -0.13964158313E+03  0.16567390899E+03  0.00000000000E+00 0. -1.
          1    1    1    2  501    0  0.21045334834E+02 -0.19370212173E+02 -0.16247681854E+03  0.16497523390E+03  0.00000000000E+00 0. -1.
<scales pt_clust_5="13000.00000" pt_clust_6="13000.00000" pt_clust_7="13000.00000" pt_clust_8="13000.00000" pt_clust_9="94.47208" pt_clust_10="28.60266"></scales>
<clustering>
<clus scale="   28.603">  1 10  2 -1</clus>
<clus scale="   81.551">  5  6 -1 -1</clus>
<clus scale="   86.642">  1  5  2 -1</clus>
<clus scale="   88.992">  7  8 -1 -1</clus>
<clus scale="   94.472">  2  9  1 -1</clus>
<clus scale="   28.603">  1  5  2 -1</clus>
</clustering>
</event>
<event>
10    4  0.2857708E-005  0.1836695E+03  0.7546771E-02  0.1181132E+00
         21   -1    0    0  501  502  0.00000000000E+00  0.00000000000E+00  0.93749142959E+02  0.93749142959E+02  0.00000000000E+00 0. -1.
          2   -1    0    0  503    0 -0.00000000000E+00 -0.00000000000E+00 -0.89282271096E+03  0.89282271096E+03  0.00000000000E+00 0. -1.
         23    2    1    2    0    0 -0.30598620003E+02  0.82110517489E+02 -0.57343033481E+02  0.13793113443E+03  0.89768378211E+02 0.  0.
         24    2    1    2    0    0  0.22069290783E+02 -0.19825767592E+03 -0.33702329333E+03  0.39999606808E+03  0.81357203586E+02 0.  0.
        -11    1    4    4    0    0  0.28090450561E+02 -0.93358540114E+02 -0.94889344690E+02  0.13604733794E+03  0.00000000000E+00 0.  1.
         12    1    4    4    0    0 -0.60211597782E+01 -0.10489913581E+03 -0.24213394864E+03  0.26394873014E+03  0.00000000000E+00 0. -1.
        -11    1    3    3    0    0 -0.43077801893E+02  0.13106559763E+01 -0.26236605118E+02  0.50455666512E+02  0.00000000000E+00 0.  1.
         11    1    3    3    0    0  0.12479181891E+02  0.80799861513E+02 -0.31106428363E+02  0.87475467913E+02  0.00000000000E+00 0. -1.
         21    1    1    2  503  502 -0.41503811126E+02 -0.20080828977E+02 -0.13042894276E+03  0.13833840804E+03  0.00000000000E+00 0. -1.
          1    1    1    2  501    0  0.50033140345E+02  0.13622798741E+03 -0.27427829843E+03  0.31030624337E+03  0.00000000000E+00 0. -1.
<scales pt_clust_5="13000.00000" pt_clust_6="13000.00000" pt_clust_7="13000.00000" pt_clust_8="13000.00000" pt_clust_9="46.10646" pt_clust_10="164.66778"></scales>
<clustering>
<clus scale="   46.106">  2  9  1 -1</clus>
<clus scale="   81.357">  5  6 -1 -1</clus>
<clus scale="   89.768">  7  8 -1 -1</clus>
<clus scale="  125.198">  2  7  1 -1</clus>
<clus scale="  164.668">  1 10  2 -1</clus>
<clus scale="  164.668">  1  5  2 -1</clus>
</clustering>
</event>
<event>
10    4  0.2857708E-005  0.1169914E+03  0.7546771E-02  0.1250817E+00
          2   -1    0    0  503    0 -0.00000000000E+00  0.00000000000E+00  0.11096313239E+04  0.11096313239E+04  0.00000000000E+00 0. -1.
         21   -1    0    0  501  502  0.00000000000E+00 -0.00000000000E+00 -0.48258901674E+02  0.48258901674E+02  0.00000000000E+00 0. -1.
         24    2    1    2    0    0  0.42740203655E+02  0.65987936892E+02  0.64262528773E+03  0.65238700334E+03  0.80376668714E+02 0.  0.
         23    2    1    2    0    0 -0.10626035348E+03 -0.47798846573E+02  0.20529345607E+03  0.25212943469E+03  0.88588127181E+02 0.  0.
        -13    1    3    3    0    0  0.56555277852E+02  0.72859633721E+02  0.46282348996E+03  0.47192436740E+03  0.00000000000E+00 0.  1.
         14    1    3    3    0    0 -0.13815074197E+02 -0.68716968293E+01  0.17980179776E+03  0.18046263594E+03  0.00000000000E+00 0. -1.
        -13    1    4    4    0    0 -0.27050722056E+02  0.10435485435E+02  0.11515509254E+03  0.11874904740E+03  0.00000000000E+00 0.  1.
         13    1    4    4    0    0 -0.79209631420E+02 -0.58234332008E+02  0.90138363525E+02  0.13338038729E+03  0.00000000000E+00 0. -1.
         21    1    1    2  503  502 -0.32756916595E+02  0.48798726047E+01  0.84795017891E+02  0.91033091789E+02  0.00000000000E+00 0.  1.
          1    1    1    2  501    0  0.96277066416E+02 -0.23068962923E+02  0.12865866054E+03  0.16234069576E+03  0.00000000000E+00 0. -1.
<scales pt_clust_5="13000.00000" pt_clust_6="13000.00000" pt_clust_7="13000.00000" pt_clust_8="13000.00000" pt_clust_9="33.11840" pt_clust_10="94.30484"></scales>
<clustering>
<clus scale="   33.118">  1  9  2 -1</clus>
<clus scale="   80.377">  5  6 -1 -1</clus>
<clus scale="   88.588">  7  8 -1 -1</clus>
<clus scale="   94.305">  2 10  1 -1</clus>
<clus scale="  110.903">  1  5  2 -1</clus>
<clus scale="   94.305">  2  5  1 -1</clus>
</clustering>
</event>
<event>
10    4  0.2857708E-005  0.1285128E+03  0.7546771E-02  0.1235392E+00
          2   -1    0    0  503    0 -0.00000000000E+00  0.00000000000E+00  0.11734028497E+04  0.11734028497E+04  0.00000000000E+00 0. -1.
         21   -1    0    0  501  502  0.00000000000E+00 -0.00000000000E+00 -0.45071420951E+02  0.45071420951E+02  0.00000000000E+00 0.  1.
         23    2    1    2    0    0  0.76491508332E+02  0.50379513078E+01  0.30381300462E+03  0.32628861382E+03  0.91025193954E+02 0.  0.
         24    2    1    2    0    0 -0.99151052705E+02 -0.84866957068E+02  0.16623937579E+03  0.22247813589E+03  0.69481358861E+02 0.  0.
        -11    1    4    4    0    0 -0.91294347913E+02 -0.48318043726E+02  0.87722509055E+02  0.13551579209E+03  0.00000000000E+00 0.  1.
         12    1    4    4    0    0 -0.78567047919E+01 -0.36548913341E+02  0.78516866736E+02  0.86962343797E+02  0.00000000000E+00 0. -1.
        -13    1    3    3    0    0  0.40697548426E+02  0.46221400846E+02  0.19610879195E+03  0.20555137222E+03  0.00000000000E+00 0. -1.
         13    1    3    3    0    0  0.35793959906E+02 -0.41183449539E+02  0.10770421267E+03  0.12073724160E+03  0.00000000000E+00 0.  1.
         21    1    1    2  503  502 -0.23117593456E+02  0.67674648514E+02  0.30524083531E+03  0.31350637748E+03  0.00000000000E+00 0.  1.
          1    1    1    2  501    0  0.45777137828E+02  0.12154357246E+02  0.35303821301E+03  0.35620114345E+03  0.00000000000E+00 0. -1.
<scales pt_clust_5="13000.00000" pt_clust_6="13000.00000" pt_clust_7="13000.00000" pt_clust_8="13000.00000" pt_clust_9="71.34241" pt_clust_10="47.36325"></scales>
<clustering>
<clus scale="   47.363">  2 10  1 -1</clus>
<clus scale="   69.481">  5  6 -1 -1</clus>
<clus scale="   71.342">  1  9  2 -1</clus>
<clus scale="   91.025">  7  8 -1 -1</clus>
<clus scale="  114.270">  2  5  1 -1</clus>
<clus scale="   47.363">  2  5  1 -1</clus>
</clustering>
</event>
<event>
10    4  0.2857708E-005  0.9714382E+02  0.7546771E-02  0.1292459E+00
         21   -1    0    0  501  502  0.00000000000E+00  0.00000000000E+00  0.96570769318E+02  0.96570769318E+02  0.00000000000E+00 0.  1.
          2   -1    0    0  503    0 -0.00000000000E+00 -0.00000000000E+00 -0.38205635799E+03  0.38205635799E+03  0.00000000000E+00 0. -1.
         23    2    1    2    0    0  0.23914820101E+01  0.87629299599E+01 -0.11306905511E+03  0.14604156870E+03  0.91983805287E+02 0.  0.
         24    2    1    2    0    0 -0.55903829438E+02 -0.78805120421E+01  0.67191095802E+01  0.98899814429E+02  0.80923953467E+02 0.  0.
        -11    1    4    4    0    0 -0.70421466051E+02 -0.16575086815E+02  0.22497291183E+02  0.75763081341E+02  0.00000000000E+00 0.  1.
         12    1    4    4    0    0  0.14517636613E+02  0.86945747724E+01 -0.15778181603E+02  0.23136733088E+02  0.00000000000E+00 0. -1.
        -11    1    3    3    0    0  0.45779165406E+02  0.33086687992E+01 -0.39978420799E+02  0.60868328415E+02  0.00000000000E+00 0. -1.
         11    1    3    3    0    0 -0.43387683396E+02  0.54542611607E+01 -0.73090634315E+02  0.85173240281E+02  0.00000000000E+00 0.  1.
         21    1    1    2  503  502  0.30780224720E+02 -0.12220391174E+02 -0.19881353061E+03  0.20155292146E+03  0.00000000000E+00 0. -1.
          1    1    1    2  501    0  0.22732122708E+02  0.11337973256E+02  0.19677887478E+02  0.32132822720E+02  0.00000000000E+00 0. -1.
<scales pt_clust_5="13000.00000" pt_clust_6="13000.00000" pt_clust_7="13000.00000" pt_clust_8="13000.00000" pt_clust_9="33.44781" pt_clust_10="25.40274"></scales>
<clustering>
<clus scale="   25.403">  1 10  2 -1</clus>
<clus scale="   33.448">  2  9  1 -1</clus>
<clus scale="   80.924">  5  6 -1 -1</clus>
<clus scale="   86.744">  1  5  2 -1</clus>
<clus scale="   91.984">  7  8 -1 -1</clus>
<clus scale="   25.403">  1  5  2 -1</clus>
</clustering>
</event>
<event>
10    4  0.2857708E-005  0.3088985E+03  0.7546771E-02  0.1081607E+00
          4   -1    0    0  503    0 -0.00000000000E+00  0.00000000000E+00  0.98026380536E+03  0.98026380536E+03  0.00000000000E+00 0. -1.
         21   -1    0    0  501  502  0.00000000000E+00 -0.00000000000E+00 -0.18930497241E+03  0.18930497241E+03  0.00000000000E+00 0. -1.
         23    2    1    2    0    0 -0.21879622623E+03  0.75095265555E+02  0.46528989818E+03  0.52902085940E+03  0.99283900035E+02 0.  0.
         24    2    1    2    0    0  0.27633492335E+03 -0.12355425398E+03  0.91683138563E+02  0.32589530213E+03  0.78583118507E+02 0.  0.
        -11    1    4    4    0    0  0.24961367557E+03 -0.10587519367E+03  0.10558118574E+03  0.29097066939E+03  0.00000000000E+00 0.  1.
         12    1    4    4    0    0  0.26721247780E+02 -0.17679060310E+02 -0.13898047176E+02  0.34924632735E+02  0.00000000000E+00 0. -1.
        -13    1    3    3    0    0 -0.48528516941E+01  0.33413005425E+02  0.62963676949E+02  0.71445109812E+02  0.00000000000E+00 0.  1.
         13    1    3    3    0    0 -0.21394337453E+03  0.41682260130E+02  0.40232622123E+03  0.45757574959E+03  0.00000000000E+00 0. -1.
         21    1    1    2  503  502 -0.89379714502E+02  0.66489250747E+02  0.25076677207E+03  0.27439666143E+03  0.00000000000E+00 0. -1.
          3    1    1    2  501    0  0.31841017378E+02 -0.18030262323E+02 -0.16780975861E+02  0.40255954814E+02  0.00000000000E+00 0. -1.
<scales pt_clust_5="13000.00000" pt_clust_6="13000.00000" pt_clust_7="13000.00000" pt_clust_8="13000.00000" pt_clust_9="108.73062" pt_clust_10="36.59154"></scales>
<clustering>
<clus scale="   36.592">  2 10  1 -1</clus>
<clus scale="   78.583">  5  6 -1 -1</clus>
<clus scale="   99.284">  7  8 -1 -1</clus>
<clus scale="  108.731">  1  9  2 -1</clus>
<clus scale="  302.880">  2  5  1 -1</clus>
<clus scale="   36.592">  2  5  1 -1</clus>
</clustering>
</event>
<event>
10    4  0.2857708E-005  0.9722676E+02  0.7546771E-02  0.1291216E+00
         -3   -1    0    0    0  501 -0.00000000000E+00  0.00000000000E+00  0.21475446240E+03  0.21475446240E+03  0.00000000000E+00 0.  1.
         21   -1    0    0  503  502  0.00000000000E+00 -0.00000000000E+00 -0.54918626099E+03  0.54918626099E+03  0.00000000000E+00 0. -1.
         24    2    1    2    0    0 -0.17249226132E+02  0.30743343962E+01  0.94865268995E+02  0.12563601484E+03  0.80486033754E+02 0.  0.
         23    2    1    2    0    0 -0.21042067373E+01  0.77402370147E+02 -0.45110560842E+03  0.46645569865E+03  0.89939392151E+02 0.  0.
        -11    1    3    3    0    0  0.28920390536E+02  0.11778747591E+02  0.58167242286E+02  0.66019360484E+02  0.00000000000E+00 0.  1.
         12    1    3    3    0    0 -0.46169616668E+02 -0.87044131944E+01  0.36698026709E+02  0.59616654357E+02  0.00000000000E+00 0. -1.
        -11    1    4    4    0    0  0.19736892817E+02  0.57337886521E+01 -0.19286106176E+02  0.28184661818E+02  0.00000000000E+00 0.  1.
         11    1    4    4    0    0 -0.21841099554E+02  0.71668581495E+02 -0.43181950225E+03  0.43827103683E+03  0.00000000000E+00 0. -1.
         21    1    1    2  503  501 -0.20958150296E+02 -0.21694141830E+02  0.76353698269E+02  0.82096084516E+02  0.00000000000E+00 0.  1.
         -4    1    1    2    0  502  0.40311583166E+02 -0.58782562714E+02 -0.54545157432E+02  0.89752925388E+02  0.00000000000E+00 0.  1.
<scales pt_clust_5="13000.00000" pt_clust_6="13000.00000" pt_clust_7="13000.00000" pt_clust_8="13000.00000" pt_clust_9="30.16421" pt_clust_10="72.16348"></scales>
<clustering>
<clus scale="   30.164">  1  9  2 -1</clus>
<clus scale="   72.163">  2 10  1 -1</clus>
<clus scale="   80.486">  5  6 -1 -1</clus>
<clus scale="   88.555">  1  5  2 -1</clus>
<clus scale="   89.939">  7  8 -1 -1</clus>
<clus scale="   72.163">  2  5  1 -1</clus>
</clustering>
</event>
<event>
10    4  0.2857708E-005  0.1116921E+03  0.7546771E-02  0.1262575E+00
         -1   -1    0    0    0  501 -0.00000000000E+00  0.00000000000E+00  0.44329784084E+03  0.44329784084E+03  0.00000000000E+00 0.  1.
         21   -1    0    0  503  502  0.00000000000E+00 -0.00000000000E+00 -0.12626614593E+03  0.12626614593E+03  0.00000000000E+00 0. -1.
         24    2    1    2    0    0  0.41452453502E+02 -0.34351866239E+02  0.16888631640E+03  0.19449811007E+03  0.80053546677E+02 0.  0.
         23    2    1    2    0    0 -0.16865564442E+01  0.66229624981E+02 -0.67619187999E+02  0.13281184982E+03  0.93152698127E+02 0.  0.
        -11    1    3    3    0    0  0.26556431151E+02  0.24202140450E+02  0.58286158131E+02  0.68470897961E+02  0.00000000000E+00 0.  1.
         12    1    3    3    0    0  0.14896022350E+02 -0.58554006689E+02  0.11060015827E+03  0.12602721210E+03  0.00000000000E+00 0. -1.
        -11    1    4    4    0    0 -0.26489671338E+02  0.14198705124E+02 -0.68886520772E+02  0.75157558893E+02  0.00000000000E+00 0.  1.
         11    1    4    4    0    0  0.24803114894E+02  0.52030919856E+02  0.12673327728E+01  0.57654290923E+02  0.00000000000E+00 0. -1.
         21    1    1    2  503  501  0.19874858553E+02 -0.40660901769E+01  0.14183662347E+03  0.14328004345E+03  0.00000000000E+00 0.  1.
         -2    1    1    2    0  502 -0.59640755610E+02 -0.27811668565E+02  0.73927943028E+02  0.98973983442E+02  0.00000000000E+00 0.  1.
<scales pt_clust_5="13000.00000" pt_clust_6="13000.00000" pt_clust_7="13000.00000" pt_clust_8="13000.00000" pt_clust_9="20.28652" pt_clust_10="61.22132"></scales>
<clustering>
<clus scale="   20.287">  1  9  2 -1</clus>
<clus scale="   61.221">  2 10  1 -1</clus>
<clus scale="   80.054">  5  6 -1 -1</clus>
<clus scale="   93.153">  7  8 -1 -1</clus>
<clus scale="  101.026">  1  5  2 -1</clus>
<clus scale="   61.221">  2  5  1 -1</clus>
</clustering>
</event>
<event>
10    4  0.2857708E-005  0.9965411E+02  0.7546771E-02  0.1287242E+00
          2   -1    0    0  503    0 -0.00000000000E+00  0.00000000000E+00  0.43072585741E+03  0.43072585741E+03  0.00000000000E+00 0. -1.
         21   -1    0    0  501  502  0.00000000000E+00 -0.00000000000E+00 -0.14289521886E+03  0.14289521886E+03  0.00000000000E+00 0. -1.
         24    2    1    2    0    0  0.11689443505E+02 -0.25566515271E+02  0.23070352025E+03  0.24563443415E+03  0.79510195542E+02 0.  0.
         23    2    1    2    0    0 -0.72852429436E+02  0.38677925662E+02  0.13939318384E+03  0.18610835634E+03  0.91664617988E+02 0.  0.
        -13    1    3    3    0    0  0.45262115107E+02 -0.90246527866E+01  0.11088360380E+03  0.12010527471E+03  0.00000000000E+00 0.  1.
         14    1    3    3    0    0 -0.33572671602E+02 -0.16541862485E+02  0.11981991645E+03  0.12552915944E+03  0.00000000000E+00 0. -1.
        -11    1    4    4    0    0 -0.30486157551E+02  0.60444521539E+02  0.47804270246E+02  0.82874569320E+02  0.00000000000E+00 0.  1.
         11    1    4    4    0    0 -0.42366271885E+02 -0.21766595877E+02  0.91588913591E+02  0.10323378702E+03  0.00000000000E+00 0. -1.
         21    1    1    2  503  502  0.30871369879E+02  0.66974303357E+01  0.17244614644E+02  0.35989912274E+02  0.00000000000E+00 0.  1.
          1    1    1    2  501    0  0.30291616052E+02 -0.19808840726E+02 -0.99510680178E+02  0.10588837350E+03  0.00000000000E+00 0. -1.
<scales pt_clust_5="13000.00000" pt_clust_6="13000.00000" pt_clust_7="13000.00000" pt_clust_8="13000.00000" pt_clust_9="31.58951" pt_clust_10="55.98913"></scales>
<clustering>
<clus scale="   31.590">  2  9  1 -1</clus>
<clus scale="   55.989">  2 10  1 -1</clus>
<clus scale="   79.510">  5  6 -1 -1</clus>
<clus scale="   88.603">  1  5  2 -1</clus>
<clus scale="   91.665">  7  8 -1 -1</clus>
<clus scale="   31.590">  2  5  1 -1</clus>
</clustering>
</event>
<event>
10    4  0.2857708E-005  0.2361214E+03  0.7546771E-02  0.1149110E+00
          2   -1    0    0  502    0 -0.00000000000E+00  0.00000000000E+00  0.15818015289E+04  0.15818015289E+04  0.00000000000E+00 0. -1.
         21   -1    0    0  503  502  0.00000000000E+00 -0.00000000000E+00 -0.68544968564E+02  0.68544968564E+02  0.00000000000E+00 0.  1.
         24    2    1    2    0    0 -0.85881520427E+02  0.36711448064E+02  0.58629919621E+03  0.59913767665E+03  0.80596787386E+02 0.  0.
         23    2    1    2    0    0  0.20815555268E+03  0.11012094854E+03  0.29992664733E+03  0.39284737074E+03  0.94433603648E+02 0.  0.
        -11    1    3    3    0    0 -0.57976919539E+02 -0.56495082380E+01  0.16880490165E+03  0.17857305217E+03  0.00000000000E+00 0.  1.
         12    1    3    3    0    0 -0.27904600888E+02  0.42360956302E+02  0.41749429456E+03  0.42056462447E+03  0.00000000000E+00 0. -1.
        -13    1    4    4    0    0  0.13529133992E+03  0.28546668041E+02  0.20906313059E+03  0.25065125471E+03  0.00000000000E+00 0.  1.
         13    1    4    4    0    0  0.72864212765E+02  0.81574280499E+02  0.90863516741E+02  0.14219611603E+03  0.00000000000E+00 0. -1.
         21    1    1    2  503  501 -0.65798215099E+02 -0.42403118455E+02  0.19003090189E+03  0.20552170990E+03  0.00000000000E+00 0.  1.
          1    1    1    2  501    0 -0.56475817159E+02 -0.10442927815E+03  0.43699981493E+03  0.45283974021E+03  0.00000000000E+00 0. -1.
<scales pt_clust_5="13000.00000" pt_clust_6="13000.00000" pt_clust_7="13000.00000" pt_clust_8="13000.00000" pt_clust_9="49.80110" pt_clust_10="224.93836"></scales>
<clustering>
<clus scale="   49.801">  9 10 -1 -1</clus>
<clus scale="   80.597">  5  6 -1 -1</clus>
<clus scale="   94.434">  7  8 -1 -1</clus>
<clus scale="  123.366">  1  5  2 -1</clus>
<clus scale="  224.938">  2  9  1 -1</clus>
<clus scale="  224.938">  2  5  1 -1</clus>
</clustering>
</event>
<event>
10    4  0.2857708E-005  0.1872513E+03  0.7546771E-02  0.1162290E+00
         21   -1    0    0  501  502  0.00000000000E+00  0.00000000000E+00  0.77137473671E+03  0.77137473671E+03  0.00000000000E+00 0. -1.
          2   -1    0    0  503    0 -0.00000000000E+00 -0.00000000000E+00 -0.13090697871E+03  0.13090697871E+03  0.00000000000E+00 0. -1.
         23    2    1    2    0    0  0.10410720388E+03 -0.26479098178E+02  0.20320423534E+03  0.24748409995E+03  0.91744023936E+02 0.  0.
         24    2    1    2    0    0 -0.16811667695E+03  0.17771188362E+03  0.22986014426E+03  0.34496986385E+03  0.79522263520E+02 0.  0.
        -11    1    4    4    0    0 -0.10952154404E+03  0.11010135929E+03  0.19419635120E+03  0.24865538552E+03  0.00000000000E+00 0.  1.
         12    1    4    4    0    0 -0.58595132911E+02  0.67610524326E+02  0.35663793056E+02  0.96314478328E+02  0.00000000000E+00 0. -1.
        -13    1    3    3    0    0  0.79824641375E+02 -0.23015680851E+02  0.60712296962E+02  0.10289644279E+03  0.00000000000E+00 0.  1.
         13    1    3    3    0    0  0.24282562507E+02 -0.34634173274E+01  0.14249193838E+03  0.14458765717E+03  0.00000000000E+00 0. -1.
         21    1    1    2  503  502  0.11015341652E+02 -0.23056108907E+02 -0.27181809930E+02  0.37306469958E+02  0.00000000000E+00 0.  1.
          1    1    1    2  501    0  0.52994131421E+02 -0.12817667653E+03  0.23458518833E+03  0.27252128165E+03  0.00000000000E+00 0. -1.
<scales pt_clust_5="13000.00000" pt_clust_6="13000.00000" pt_clust_7="13000.00000" pt_clust_8="13000.00000" pt_clust_9="25.55234" pt_clust_10="143.60545"></scales>
<clustering>
<clus scale="   25.552">  2  9  1 -1</clus>
<clus scale="   79.522">  5  6 -1 -1</clus>
<clus scale="   91.744">  7  8 -1 -1</clus>
<clus scale="  143.605">  1 10  2 -1</clus>
<clus scale="  181.576">  1  5  2 -1</clus>
<clus scale="  143.605">  1  5  2 -1</clus>
</clustering>
</event>
<event>
10    4  0.2857708E-005  0.4658973E+03  0.7546771E-02  0.1079041E+00
         21   -1    0    0  501  502  0.00000000000E+00  0.00000000000E+00  0.42884113517E+03  0.42884113517E+03  0.00000000000E+00 0. -1.
          2   -1    0    0  503    0 -0.00000000000E+00 -0.00000000000E+00 -0.11176525608E+04  0.11176525608E+04  0.00000000000E+00 0. -1.
         24    2    1    2    0    0 -0.41105508010E+02 -0.28226350064E+02  0.23367624196E+00  0.94590679319E+02  0.80380049656E+02 0.  0.
         23    2    1    2    0    0 -0.24827734768E+03 -0.29126066653E+03 -0.44458287791E+03  0.59632984998E+03  0.10714913627E+03 0.  0.
        -11    1    3    3    0    0 -0.20108339945E+02  0.26008499248E+02 -0.12294512991E+02  0.35099037283E+02  0.00000000000E+00 0.  1.
         12    1    3    3    0    0 -0.20997168065E+02 -0.54234849312E+02  0.12528189233E+02  0.59491642036E+02  0.00000000000E+00 0. -1.
        -11    1    4    4    0    0 -0.79571958881E+02 -0.17500183043E+03 -0.20348379687E+03  0.27993390806E+03  0.00000000000E+00 0.  1.
         11    1    4    4    0    0 -0.16870538880E+03 -0.11625883610E+03 -0.24109908104E+03  0.31639594191E+03  0.00000000000E+00 0. -1.
         21    1    1    2  503  502  0.43044494242E+03  0.33408035153E+03 -0.37610296373E+03  0.66207701143E+03  0.00000000000E+00 0. -1.
          1    1    1    2  501    0 -0.14106208673E+03 -0.14593334935E+02  0.13164073975E+03  0.19349615526E+03  0.00000000000E+00 0. -1.
<scales pt_clust_5="13000.00000" pt_clust_6="13000.00000" pt_clust_7="13000.00000" pt_clust_8="13000.00000" pt_clust_9="453.40861" pt_clust_10="143.08182"></scales>
<clustering>
<clus scale="   80.380">  5  6 -1 -1</clus>
<clus scale="   94.590">  2  5  1 -1</clus>
<clus scale="  107.149">  7  8 -1 -1</clus>
<clus scale="  143.082">  1 10  2 -1</clus>
<clus scale="  453.409">  1  9  2 -1</clus>
<clus scale="  143.082">  1  5  2 -1</clus>
</clustering>
</event>
<event>
10    4  0.2857708E-005  0.1022089E+03  0.7546771E-02  0.1283378E+00
         21   -1    0    0  501  502  0.00000000000E+00  0.00000000000E+00  0.42295473504E+02  0.42295473504E+02  0.00000000000E+00 0.  1.
          2   -1    0    0  503    0 -0.00000000000E+00 -0.00000000000E+00 -0.10579027584E+04  0.10579027584E+04  0.00000000000E+00 0. -1.
         24    2    1    2    0    0  0.48568867612E+01  0.19338358056E+02 -0.79058497132E+03  0.79456767804E+03  0.76913176226E+02 0.  0.
         23    2    1    2    0    0  0.16769886939E+02 -0.26994269064E+02 -0.82611753582E+02  0.12803845124E+03  0.92516071558E+02 0.  0.
        -11    1    3    3    0    0  0.18744834198E+02  0.24281635207E+02 -0.12124023153E+03  0.12506062673E+03  0.00000000000E+00 0.  1.
         12    1    3    3    0    0 -0.13887947437E+02 -0.49432771513E+01 -0.66934473979E+03  0.66950705131E+03  0.00000000000E+00 0. -1.
        -13    1    4    4    0    0  0.32984626155E+02 -0.54727493766E+02 -0.42922162166E+02  0.76976594765E+02  0.00000000000E+00 0.  1.
         13    1    4    4    0    0 -0.16214739216E+02  0.27733224702E+02 -0.39689591416E+02  0.51061856478E+02  0.00000000000E+00 0. -1.
         21    1    1    2  503  502 -0.51226881552E+01  0.32133620712E+02 -0.14438310627E+03  0.14800436781E+03  0.00000000000E+00 0.  1.
          1    1    1    2  501    0 -0.16504085545E+02 -0.24477709704E+02  0.19725462798E+01  0.29587734804E+02  0.00000000000E+00 0. -1.
<scales pt_clust_5="13000.00000" pt_clust_6="13000.00000" pt_clust_7="13000.00000" pt_clust_8="13000.00000" pt_clust_9="31.09662" pt_clust_10="29.52191"></scales>
<clustering>
<clus scale="   29.522">  1 10  2 -1</clus>
<clus scale="   31.097">  2  9  1 -1</clus>
<clus scale="   76.913">  5  6 -1 -1</clus>
<clus scale="   88.335">  2  5  1 -1</clus>
<clus scale="   92.516">  7  8 -1 -1</clus>
<clus scale="   29.522">  1  5  2 -1</clus>
</clustering>
</event>
<event>
10    4  0.2857708E-005  0.1129810E+03  0.7546771E-02  0.1261017E+00
         21   -1    0    0  501  502  0.00000000000E+00  0.00000000000E+00  0.98126995156E+02  0.98126995156E+02  0.00000000000E+00 0.  1.
          2   -1    0    0  503    0 -0.00000000000E+00 -0.00000000000E+00 -0.48780770245E+03  0.48780770245E+03  0.00000000000E+00 0. -1.
         24    2    1    2    0    0  0.16446719153E+02 -0.45945892625E+02 -0.36785853655E+03  0.37930355025E+03  0.78547824249E+02 0.  0.
         23    2    1    2    0    0  0.15386353007E+02  0.38645537853E+02  0.43180888730E+02  0.11136514139E+03  0.93847685697E+02 0.  0.
        -13    1    3    3    0    0 -0.30026702410E+02 -0.31761436438E+02 -0.16258472203E+03  0.16835730913E+03  0.00000000000E+00 0.  1.
         14    1    3    3    0    0  0.46473421564E+02 -0.14184456187E+02 -0.20527381452E+03  0.21094624111E+03  0.00000000000E+00 0. -1.
        -13    1    4    4    0    0 -0.13664072132E+02 -0.18807248850E+02  0.40779966933E+02  0.46940655935E+02  0.00000000000E+00 0.  1.
         13    1    4    4    0    0  0.29050425139E+02  0.57452786703E+02  0.24009217967E+01  0.64424485455E+02  0.00000000000E+00 0. -1.
         21    1    1    2  503  502 -0.20535474879E+02 -0.24266922448E+02 -0.48261233224E+02  0.57790448051E+02  0.00000000000E+00 0.  1.
          1    1    1    2  501    0 -0.11297597282E+02  0.31567277220E+02 -0.16741826252E+02  0.37475557923E+02  0.00000000000E+00 0. -1.
<scales pt_clust_5="13000.00000" pt_clust_6="13000.00000" pt_clust_7="13000.00000" pt_clust_8="13000.00000" pt_clust_9="31.78977" pt_clust_10="32.58010"></scales>
<clustering>
<clus scale="   31.790">  2  9  1 -1</clus>
<clus scale="   32.580">  1 10  2 -1</clus>
<clus scale="   78.548">  5  6 -1 -1</clus>
<clus scale="   93.848">  7  8 -1 -1</clus>
<clus scale="  100.633">  2  5  1 -1</clus>
<clus scale="   32.580">  1  5  2 -1</clus>
</clustering>
</event>
<event>
10    4  0.2857708E-005  0.9532917E+02  0.7546771E-02  0.1293291E+00
          2   -1    0    0  503    0 -0.00000000000E+00  0.00000000000E+00  0.48361237788E+03  0.48361237788E+03  0.00000000000E+00 0. -1.
         21   -1    0    0  501  502  0.00000000000E+00 -0.00000000000E+00 -0.10231325186E+03  0.10231325186E+03  0.00000000000E+00 0. -1.
         24    2    1    2    0    0 -0.58855006410E+01  0.14159927732E+02  0.30120692325E+03  0.31207264083E+03  0.80178425219E+02 0.  0.
         23    2    1    2    0    0  0.92719649309E+01  0.12130349685E+02 -0.50536868043E+02  0.10067130644E+03  0.85718272214E+02 0.  0.
        -11    1    3    3    0    0  0.30430471995E+02  0.56893490106E+01  0.55484416984E+02  0.63536626020E+02  0.00000000000E+00 0.  1.
         12    1    3    3    0    0 -0.36315972636E+02  0.84705787213E+01  0.24572250627E+03  0.24853601481E+03  0.00000000000E+00 0. -1.
        -11    1    4    4    0    0  0.10180309888E+02  0.48093489193E+02 -0.39437598131E+02  0.63023381046E+02  0.00000000000E+00 0.  1.
         11    1    4    4    0    0 -0.90834495717E+00 -0.35963139508E+02 -0.11099269912E+02  0.37647925393E+02  0.00000000000E+00 0. -1.
         21    1    1    2  503  502 -0.53524674935E+02 -0.31556984984E+02  0.84209865664E+02  0.10465197372E+03  0.00000000000E+00 0.  1.
          1    1    1    2  501    0  0.50138210645E+02  0.52667075672E+01  0.46419205141E+02  0.68529708749E+02  0.00000000000E+00 0. -1.
<scales pt_clust_5="13000.00000" pt_clust_6="13000.00000" pt_clust_7="13000.00000" pt_clust_8="13000.00000" pt_clust_9="57.04598" pt_clust_10="50.41409"></scales>
<clustering>
<clus scale="   50.414">  2 10  1 -1</clus>
<clus scale="   57.046">  1  9  2 -1</clus>
<clus scale="   80.178">  5  6 -1 -1</clus>
<clus scale="   85.718">  7  8 -1 -1</clus>
<clus scale="   90.380">  1  5  2 -1</clus>
<clus scale="   50.414">  2  5  1 -1</clus>
</clustering>
</event>
<event>
10    4  0.2857708E-005  0.1810890E+03  0.7546771E-02  0.1167981E+00
         -3   -1    0    0    0  501 -0.00000000000E+00  0.00000000000E+00  0.29335542165E+03  0.29335542165E+03  0.00000000000E+00 0.  1.
         21   -1    0    0  503  502  0.00000000000E+00 -0.00000000000E+00 -0.28705433501E+03  0.28705433501E+03  0.00000000000E+00 0. -1.
         23    2    1    2    0    0  0.13809439044E+03  0.68346717874E+02  0.13380597187E+03  0.22346041811E+03  0.91044966012E+02 0.  0.
         24    2    1    2    0    0 -0.16078242838E+03 -0.41878411138E+02 -0.14873121351E+03  0.23709975753E+03  0.80563829045E+02 0.  0.
        -13    1    4    4    0    0 -0.38305426079E+02  0.39165112266E+01 -0.81346615138E+02  0.89999536231E+02  0.00000000000E+00 0.  1.
         14    1    4    4    0    0 -0.12247700230E+03 -0.45794922365E+02 -0.67384598377E+02  0.14710022130E+03  0.00000000000E+00 0. -1.
        -13    1    3    3    0    0  0.20571994224E+02 -0.17896445572E+01 -0.11675513020E+02  0.23721875522E+02  0.00000000000E+00 0.  1.
         13    1    3    3    0    0  0.11752239622E+03  0.70136362431E+02  0.14548148489E+03  0.19973854258E+03  0.00000000000E+00 0. -1.
         21    1    1    2  503  501 -0.87900527522E+01  0.20391487014E+02  0.51291330745E+02  0.55891666460E+02  0.00000000000E+00 0.  1.
         -4    1    1    2    0  502  0.31478090687E+02 -0.46859793749E+02 -0.30065002451E+02  0.63957914568E+02  0.00000000000E+00 0.  1.
<scales pt_clust_5="13000.00000" pt_clust_6="13000.00000" pt_clust_7="13000.00000" pt_clust_8="13000.00000" pt_clust_9="22.20535" pt_clust_10="54.90888"></scales>
<clustering>
<clus scale="   22.205">  1  9  2 -1</clus>
<clus scale="   54.909">  2 10  1 -1</clus>
<clus scale="   80.564">  5  6 -1 -1</clus>
<clus scale="   91.045">  7  8 -1 -1</clus>
<clus scale="  176.053">  2  5  1 -1</clus>
<clus scale="   54.909">  2  5  1 -1</clus>
</clustering>
</event>
<event>
10    4  0.2857708E-005  0.1186548E+03  0.7546771E-02  0.1247153E+00
          2   -1    0    0  503    0 -0.00000000000E+00  0.00000000000E+00  0.68230426497E+03  0.68230426497E+03  0.00000000000E+00 0. -1.
         21   -1    0    0  501  502  0.00000000000E+00 -0.00000000000E+00 -0.23165110578E+03  0.23165110578E+03  0.00000000000E+00 0. -1.
         23    2    1    2    0    0  0.65611447582E+01  0.80061748420E+02  0.45150010175E+02  0.12615881052E+03  0.86166059862E+02 0.  0.
         24    2    1    2    0    0 -0.15706199784E+02 -0.88454134087E+02  0.23012422852E+01  0.12044681746E+03  0.80195520901E+02 0.  0.
        -11    1    4    4    0    0 -0.15172929233E+02 -0.59943069531E+02  0.39651722812E+02  0.73455078029E+02  0.00000000000E+00 0.  1.
         12    1    4    4    0    0 -0.53327055065E+00 -0.28511064556E+02 -0.37350480527E+02  0.46991739435E+02  0.00000000000E+00 0. -1.
        -13    1    3    3    0    0  0.23576196439E+02  0.61789470865E+02 -0.87942199315E+01  0.66716669974E+02  0.00000000000E+00 0.  1.
         13    1    3    3    0    0 -0.17015051681E+02  0.18272277556E+02  0.53944230107E+02  0.59442140545E+02  0.00000000000E+00 0. -1.
         21    1    1    2  503  502 -0.10802408355E+03 -0.14117825168E+02  0.50122955245E+03  0.51293233458E+03  0.00000000000E+00 0. -1.
          1    1    1    2  501    0  0.11716913857E+03  0.22510210834E+02 -0.98027645713E+02  0.15441740818E+03  0.00000000000E+00 0. -1.
<scales pt_clust_5="13000.00000" pt_clust_6="13000.00000" pt_clust_7="13000.00000" pt_clust_8="13000.00000" pt_clust_9="108.94272" pt_clust_10="101.81885"></scales>
<clustering>
<clus scale="   80.196">  5  6 -1 -1</clus>
<clus scale="   86.166">  7  8 -1 -1</clus>
<clus scale="  108.943">  1  9  2 -1</clus>
<clus scale="  101.819">  2 10  1 -1</clus>
<clus scale="  114.393">  2  5  1 -1</clus>
<clus scale="  101.819">  2  5  1 -1</clus>
</clustering>
</event>
<event>
10    4  0.2857708E-005  0.1086596E+03  0.7546771E-02  0.1268869E+00
         21   -1    0    0  503  502  0.00000000000E+00  0.00000000000E+00  0.55422384749E+02  0.55422384749E+02  0.00000000000E+00 0.  1.
         -3   -1    0    0    0  501 -0.00000000000E+00 -0.00000000000E+00 -0.49628965996E+03  0.49628965996E+03  0.00000000000E+00 0.  1.
         23    2    1    2    0    0 -0.29735028263E+02 -0.42268574975E+02 -0.27120017990E+03  0.29191925368E+03  0.94849927518E+02 0.  0.
         24    2    1    2    0    0  0.76854620510E+02  0.32651098503E+02 -0.61923045248E+02  0.13197959754E+03  0.81310661703E+02 0.  0.
        -11    1    4    4    0    0  0.15624751571E+02  0.46677045874E+02 -0.94300956806E+01  0.50117922719E+02  0.00000000000E+00 0.  1.
         12    1    4    4    0    0  0.61229868939E+02 -0.14025947371E+02 -0.52492949567E+02  0.81861674819E+02  0.00000000000E+00 0. -1.
        -13    1    3    3    0    0 -0.44255659255E+02  0.14058741560E+02 -0.15751263549E+03  0.16421462155E+03  0.00000000000E+00 0. -1.
         13    1    3    3    0    0  0.14520630992E+02 -0.56327316535E+02 -0.11368754441E+03  0.12770463213E+03  0.00000000000E+00 0.  1.
         21    1    1    2  503  501 -0.54357075956E+01  0.23801220769E+02 -0.44393601014E+02  0.50663959953E+02  0.00000000000E+00 0. -1.
         -4    1    1    2    0  502 -0.41683884651E+02 -0.14183744296E+02 -0.63350449047E+02  0.77149233544E+02  0.00000000000E+00 0.  1.
<scales pt_clust_5="13000.00000" pt_clust_6="13000.00000" pt_clust_7="13000.00000" pt_clust_8="13000.00000" pt_clust_9="24.41403" pt_clust_10="43.80157"></scales>
<clustering>
<clus scale="   24.414">  2  9  1 -1</clus>
<clus scale="   43.802">  1 10  2 -1</clus>
<clus scale="   81.311">  5  6 -1 -1</clus>
<clus scale="   94.850">  7  8 -1 -1</clus>
<clus scale="   97.066">  1  5  2 -1</clus>
<clus scale="   43.802">  1  5  2 -1</clus>
</clustering>
</event>
<event>
10    4  0.2857708E-005  0.2578125E+03  0.7546771E-02  0.1132805E+00
          2   -1    0    0  503    0 -0.00000000000E+00  0.00000000000E+00  0.90184641494E+03  0.90184641494E+03  0.00000000000E+00 0. -1.
         21   -1    0    0  501  502  0.00000000000E+00 -0.00000000000E+00 -0.13457265044E+03  0.13457265044E+03  0.00000000000E+00 0.  1.
         24    2    1    2    0    0  0.85400510757E+02 -0.71232962809E+02  0.16703322947E+03  0.21647935767E+03  0.81214717417E+02 0.  0.
         23    2    1    2    0    0  0.98554306850E+02  0.22020787678E+03  0.34303957478E+03  0.42936919913E+03  0.92072248260E+02 0.  0.
        -11    1    3    3    0    0  0.34284881973E+02 -0.27614653345E+00  0.83404280373E+01  0.35285863014E+02  0.00000000000E+00 0.  1.
         12    1    3    3    0    0  0.51115628784E+02 -0.70956816275E+02  0.15869280143E+03  0.18119349466E+03  0.00000000000E+00 0. -1.
        -13    1    4    4    0    0  0.57095298709E+02  0.19445227814E+03  0.23184629543E+03  0.30793549050E+03  0.00000000000E+00 0. -1.
         13    1    4    4    0    0  0.41459008141E+02  0.25755598645E+02  0.11119327935E+03  0.12143370863E+03  0.00000000000E+00 0.  1.
         21    1    1    2  503  502 -0.20922514034E+03 -0.15262385373E+03  0.19767053853E+03  0.32579570574E+03  0.00000000000E+00 0. -1.
          1    1    1    2  501    0  0.25270322731E+02  0.36489397526E+01  0.59530421717E+02  0.64774802833E+02  0.00000000000E+00 0. -1.
<scales pt_clust_5="13000.00000" pt_clust_6="13000.00000" pt_clust_7="13000.00000" pt_clust_8="13000.00000" pt_clust_9="240.81114" pt_clust_10="25.53242"></scales>
<clustering>
<clus scale="   25.532">  2 10  1 -1</clus>
<clus scale="   81.215">  5  6 -1 -1</clus>
<clus scale="   92.072">  7  8 -1 -1</clus>
<clus scale="  140.347">  1  5  2 -1</clus>
<clus scale="  240.811">  2  9  1 -1</clus>
<clus scale="   25.532">  2  5  1 -1</clus>
</clustering>
</event>
<event>
10    4  0.2857708E-005  0.1061849E+03  0.7546771E-02  0.1271519E+00
         21   -1    0    0  503  502  0.00000000000E+00  0.00000000000E+00  0.58912218662E+02  0.58912218662E+02  0.00000000000E+00 0. -1.
         -1   -1    0    0    0  501 -0.00000000000E+00 -0.00000000000E+00 -0.51351156566E+03  0.51351156566E+03  0.00000000000E+00 0.  1.
         23    2    1    2    0    0  0.73610956468E+02  0.46125905677E+02 -0.12529381617E+03  0.17714394468E+03  0.90195702118E+02 0.  0.
         24    2    1    2    0    0 -0.43848908381E+02  0.64017148456E+01 -0.70347565649E+02  0.11635006061E+03  0.81393168588E+02 0.  0.
        -11    1    4    4    0    0 -0.33006631190E+02  0.39348162430E+02 -0.62306796939E+02  0.80745603806E+02  0.00000000000E+00 0.  1.
         12    1    4    4    0    0 -0.10842277191E+02 -0.32946447584E+02 -0.80407687092E+01  0.35604456807E+02  0.00000000000E+00 0. -1.
        -13    1    3    3    0    0  0.49714657502E+02  0.54058518275E+02 -0.13202806451E+03  0.15108037724E+03  0.00000000000E+00 0. -1.
         13    1    3    3    0    0  0.23896298967E+02 -0.79326125975E+01  0.67342483445E+01  0.26063567440E+02  0.00000000000E+00 0.  1.
         21    1    1    2  503  501 -0.41311499566E+02 -0.70834311075E+02 -0.20465354304E+03  0.22047043407E+03  0.00000000000E+00 0.  1.
         -2    1    1    2    0  502  0.11549451479E+02  0.18306690552E+02 -0.54304422143E+02  0.58459344956E+02  0.00000000000E+00 0.  1.
<scales pt_clust_5="13000.00000" pt_clust_6="13000.00000" pt_clust_7="13000.00000" pt_clust_8="13000.00000" pt_clust_9="78.99083" pt_clust_10="21.64544"></scales>
<clustering>
<clus scale="   21.645">  1 10  2 -1</clus>
<clus scale="   78.991">  2  9  1 -1</clus>
<clus scale="   81.393">  5  6 -1 -1</clus>
<clus scale="   90.196">  7  8 -1 -1</clus>
<clus scale="   98.817">  1  5  2 -1</clus>
<clus scale="   21.645">  1  5  2 -1</clus>
</clustering>
</event>
<event>
10    4  0.2857708E-005  0.2439160E+03  0.7546771E-02  0.1152984E+00
          2   -1    0    0  503    0 -0.00000000000E+00  0.00000000000E+00  0.94700152077E+03  0.94700152077E+03  0.00000000000E+00 0. -1.
         21   -1    0    0  501  502  0.00000000000E+00 -0.00000000000E+00 -0.12896067429E+03  0.12896067429E+03  0.00000000000E+00 0. -1.
         23    2    1    2    0    0  0.47231028332E+02 -0.22583811117E+02  0.87002930311E+01  0.10159070980E+03  0.86626662504E+02 0.  0.
         24    2    1    2    0    0  0.12006012600E+03  0.15263805181E+03  0.48411000087E+03  0.52773418002E+03  0.80175202559E+02 0.  0.
        -13    1    4    4    0    0  0.45320843484E+02  0.15150743442E+02  0.17307894389E+03  0.17955457303E+03  0.00000000000E+00 0.  1.
         14    1    4    4    0    0  0.74739282516E+02  0.13748730836E+03  0.31103105698E+03  0.34817960698E+03  0.00000000000E+00 0. -1.
        -13    1    3    3    0    0  0.63547198710E+02 -0.41700279693E+02  0.48217660283E+01  0.76160417659E+02  0.00000000000E+00 0. -1.
         13    1    3    3    0    0 -0.16316170378E+02  0.19116468575E+02  0.38785270027E+01  0.25430292140E+02  0.00000000000E+00 0.  1.
         21    1    1    2  503  502  0.37739472841E+02  0.19404829007E+02  0.94917110788E+02  0.10397150148E+03  0.00000000000E+00 0. -1.
          1    1    1    2  501    0 -0.20503062717E+03 -0.14945906970E+03  0.23031344179E+03  0.34266580376E+03  0.00000000000E+00 0. -1.
<scales pt_clust_5="13000.00000" pt_clust_6="13000.00000" pt_clust_7="13000.00000" pt_clust_8="13000.00000" pt_clust_9="42.43601" pt_clust_10="230.36268"></scales>
<clustering>
<clus scale="   42.436">  1  9  2 -1</clus>
<clus scale="   80.175">  5  6 -1 -1</clus>
<clus scale="   86.627">  7  8 -1 -1</clus>
<clus scale="  102.115">  1  7  2 -1</clus>
<clus scale="  230.363">  2 10  1 -1</clus>
<clus scale="  230.363">  2  5  1 -1</clus>
</clustering>
</event>
<event>
10    4  0.2857708E-005  0.9444423E+02  0.7546771E-02  0.1299598E+00
         21   -1    0    0  503  502  0.00000000000E+00  0.00000000000E+00  0.13068469861E+03  0.13068469861E+03  0.00000000000E+00 0.  1.
         -1   -1    0    0    0  501 -0.00000000000E+00 -0.00000000000E+00 -0.14883184238E+03  0.14883184238E+03  0.00000000000E+00 0.  1.
         24    2    1    2    0    0 -0.17929069684E+02 -0.21671289363E+02 -0.52108004962E+02  0.99654253406E+02  0.80153787924E+02 0.  0.
         23    2    1    2    0    0 -0.17005253774E+01  0.34964150187E+01  0.73689006535E+02  0.11811978550E+03  0.92233927260E+02 0.  0.
        -11    1    3    3    0    0 -0.23447613828E+02  0.26520427545E+02 -0.29760407609E+02  0.46247221889E+02  0.00000000000E+00 0.  1.
         12    1    3    3    0    0  0.55185441444E+01 -0.48191716908E+02 -0.22347597352E+02  0.53407031517E+02  0.00000000000E+00 0. -1.
        -11    1    4    4    0    0  0.22348144545E+02 -0.81034404897E+01  0.85631967094E+02  0.88870349953E+02  0.00000000000E+00 0.  1.
         11    1    4    4    0    0 -0.24048669922E+02  0.11599855508E+02 -0.11942960559E+02  0.29249435546E+02  0.00000000000E+00 0. -1.
         21    1    1    2  503  501  0.22502263956E+02 -0.49678808332E+01 -0.25741718921E+02  0.34549498058E+02  0.00000000000E+00 0.  1.
         -2    1    1    2    0  502 -0.28726688944E+01  0.23142755177E+02 -0.13986426429E+02  0.27193004027E+02  0.00000000000E+00 0.  1.
<scales pt_clust_5="13000.00000" pt_clust_6="13000.00000" pt_clust_7="13000.00000" pt_clust_8="13000.00000" pt_clust_9="23.04413" pt_clust_10="22.30478"></scales>
<clustering>
<clus scale="   23.044">  2  9  1 -1</clus>
<clus scale="   22.305">  1 10  2 -1</clus>
<clus scale="   80.154">  5  6 -1 -1</clus>
<clus scale="   82.688">  2  5  1 -1</clus>
<clus scale="   92.234">  7  8 -1 -1</clus>
<clus scale="   22.305">  1  5  2 -1</clus>
</clustering>
</event>
<event>
10    4  0.2857708E-005  0.3073954E+03  0.7546771E-02  0.1081938E+00
          2   -1    0    0  503    0 -0.00000000000E+00  0.00000000000E+00  0.15028624320E+04  0.15028624320E+04  0.00000000000E+00 0. -1.
         21   -1    0    0  501  502  0.00000000000E+00 -0.00000000000E+00 -0.31737986737E+03  0.31737986737E+03  0.00000000000E+00 0. -1.
         24    2    1    2    0    0  0.45620345746E+02  0.40212544134E+03  0.91583948682E+03  0.10045170987E+04  0.80663184587E+02 0.  0.
         23    2    1    2    0    0 -0.34266253756E+01 -0.18620321439E+03  0.97981891649E+02  0.22909429383E+03  0.90555869847E+02 0.  0.
        -13    1    3    3    0    0  0.32788895693E+02  0.27086257191E+03  0.51918413098E+03  0.58650985193E+03  0.00000000000E+00 0.  1.
         14    1    3    3    0    0  0.12831450054E+02  0.13126286943E+03  0.39665535584E+03  0.41800724673E+03  0.00000000000E+00 0. -1.
        -13    1    4    4    0    0  0.26667494411E+02 -0.51773698114E+02 -0.29597980494E+01  0.58313218734E+02  0.00000000000E+00 0. -1.
         13    1    4    4    0    0 -0.30094119787E+02 -0.13442951628E+03  0.10094168970E+03  0.17078107510E+03  0.00000000000E+00 0.  1.
         21    1    1    2  503  502  0.12069576791E+02 -0.78061748517E+02  0.34769153368E+03  0.35655113778E+03  0.00000000000E+00 0. -1.
          1    1    1    2  501    0 -0.54263297161E+02 -0.13786047843E+03 -0.17603034749E+03  0.23007976914E+03  0.00000000000E+00 0. -1.
<scales pt_clust_5="13000.00000" pt_clust_6="13000.00000" pt_clust_7="13000.00000" pt_clust_8="13000.00000" pt_clust_9="78.98931" pt_clust_10="149.76035"></scales>
<clustering>
<clus scale="   78.989">  1  9  2 -1</clus>
<clus scale="   80.663">  5  6 -1 -1</clus>
<clus scale="   90.556">  7  8 -1 -1</clus>
<clus scale="  149.760">  2 10  1 -1</clus>
<clus scale="  304.628">  1  5  2 -1</clus>
<clus scale="  149.760">  2  5  1 -1</clus>
</clustering>
</event>
<event>
10    4  0.2857708E-005  0.2580407E+03  0.7546771E-02  0.1109339E+00
          2   -1    0    0  502    0 -0.00000000000E+00  0.00000000000E+00  0.17900823639E+04  0.17900823639E+04  0.00000000000E+00 0. -1.
         21   -1    0    0  503  502  0.00000000000E+00 -0.00000000000E+00 -0.38142179816E+03  0.38142179816E+03  0.00000000000E+00 0.  1.
         23    2    1    2    0    0  0.21670097653E+03 -0.52422975917E+02  0.39172222471E+03  0.46113970249E+03  0.97447638488E+02 0.  0.
         24    2    1    2    0    0 -0.37346006688E+03  0.13583472720E+03 -0.21885092353E+03  0.46039205987E+03  0.78368535758E+02 0.  0.
        -13    1    4    4    0    0 -0.17294520497E+03  0.97746605663E+02 -0.13241861336E+03  0.23874490991E+03  0.00000000000E+00 0.  1.
         14    1    4    4    0    0 -0.20051486190E+03  0.38088121540E+02 -0.86432310172E+02  0.22164714997E+03  0.00000000000E+00 0. -1.
        -13    1    3    3    0    0  0.13759134177E+03 -0.89355969330E+01  0.15322400431E+03  0.20612815848E+03  0.00000000000E+00 0. -1.
         13    1    3    3    0    0  0.79109634763E+02 -0.43487378984E+02  0.23849822040E+03  0.25501154401E+03  0.00000000000E+00 0.  1.
         21    1    1    2  503  501  0.46460755467E+02  0.26505505535E+01  0.37719242350E+03  0.38005230109E+03  0.00000000000E+00 0. -1.
          1    1    1    2  501    0  0.11029833488E+03 -0.86062301839E+02  0.85859684106E+03  0.86992009860E+03  0.00000000000E+00 0. -1.
<scales pt_clust_5="13000.00000" pt_clust_6="13000.00000" pt_clust_7="13000.00000" pt_clust_8="13000.00000" pt_clust_9="35.20023" pt_clust_10="187.76562"></scales>
<clustering>
<clus scale="   35.200">  9 10 -1 -1</clus>
<clus scale="   78.369">  5  6 -1 -1</clus>
<clus scale="   97.448">  7  8 -1 -1</clus>
<clus scale="  187.766">  2  9  1 -1</clus>
<clus scale="  251.457">  2  5  1 -1</clus>
<clus scale="  187.766">  2  5  1 -1</clus>
</clustering>
</event>
<event>
10    4  0.2857708E-005  0.2599708E+03  0.7546771E-02  0.1107664E+00
         21   -1    0    0  501  502  0.00000000000E+00  0.00000000000E+00  0.43975453350E+03  0.43975453350E+03  0.00000000000E+00 0. -1.
          2   -1    0    0  503    0 -0.00000000000E+00 -0.00000000000E+00 -0.44000864200E+03  0.44000864200E+03  0.00000000000E+00 0. -1.
         23    2    1    2    0    0  0.20227002836E+03 -0.20084950180E+03 -0.84758589991E+02  0.31068957656E+03  0.89946137541E+02 0.  0.
         24    2    1    2    0    0 -0.13599104015E+03  0.15559298300E+03 -0.17781345375E+02  0.22224227314E+03  0.79829270109E+02 0.  0.
        -11    1    4    4    0    0 -0.96249140050E+02  0.49708954660E+02 -0.12128214112E+02  0.10900445271E+03  0.00000000000E+00 0.  1.
         12    1    4    4    0    0 -0.39741900095E+02  0.10588402834E+03 -0.56531312635E+01  0.11323782042E+03  0.00000000000E+00 0. -1.
        -11    1    3    3    0    0  0.37557976482E+02 -0.79175339541E+02  0.34966967553E+01  0.87701555728E+02  0.00000000000E+00 0.  1.
         11    1    3    3    0    0  0.16471205188E+03 -0.12167416226E+03 -0.88255286746E+02  0.22298802084E+03  0.00000000000E+00 0. -1.
         21    1    1    2  503  502 -0.39283211584E+02 -0.11972848378E+02 -0.11416197351E+03  0.12132384764E+03  0.00000000000E+00 0. -1.
          1    1    1    2  501    0 -0.26995776635E+02  0.57229367180E+02  0.21644780037E+03  0.22550747817E+03  0.00000000000E+00 0. -1.
<scales pt_clust_5="13000.00000" pt_clust_6="13000.00000" pt_clust_7="13000.00000" pt_clust_8="13000.00000" pt_clust_9="41.06726" pt_clust_10="63.36289"></scales>
<clustering>
<clus scale="   41.067">  2  9  1 -1</clus>
<clus scale="   63.363">  1 10  2 -1</clus>
<clus scale="   79.829">  5  6 -1 -1</clus>
<clus scale="   89.946">  7  8 -1 -1</clus>
<clus scale="  256.646">  1  5  2 -1</clus>
<clus scale="   63.363">  1  5  2 -1</clus>
</clustering>
</event>
<event>
10    4  0.2857708E-005  0.5887416E+03  0.7546771E-02  0.9929043E-01
          2   -1    0    0  502    0 -0.00000000000E+00  0.00000000000E+00  0.93815693020E+03  0.93815693020E+03  0.00000000000E+00 0. -1.
         21   -1    0    0  503  502  0.00000000000E+00 -0.00000000000E+00 -0.36373129320E+03  0.36373129320E+03  0.00000000000E+00 0.  1.
         24    2    1    2    0    0 -0.72822753388E+02 -0.47423693313E+03  0.36655642589E+03  0.60926025989E+03  0.81428672875E+02 0.  0.
         23    2    1    2    0    0 -0.13110232843E+02 -0.45869122533E+02  0.88173188727E+02  0.13464542761E+03  0.89883398686E+02 0.  0.
        -13    1    3    3    0    0 -0.86310758776E+02 -0.35101245985E+03  0.25362533400E+03  0.44157117671E+03  0.00000000000E+00 0.  1.
         14    1    3    3    0    0  0.13488005388E+02 -0.12322447329E+03  0.11293109189E+03  0.16768908319E+03  0.00000000000E+00 0. -1.
        -13    1    4    4    0    0 -0.32270380914E+02  0.45100561343E+01  0.70927528448E+02  0.78054035017E+02  0.00000000000E+00 0. -1.
         13    1    4    4    0    0  0.19160148071E+02 -0.50379178668E+02  0.17245660278E+02  0.56591392595E+02  0.00000000000E+00 0.  1.
         21    1    1    2  503  501 -0.12814037632E+02  0.49002265402E+02  0.50798588492E+02  0.71735055361E+02  0.00000000000E+00 0.  1.
          1    1    1    2  501    0  0.98747023862E+02  0.47110379026E+03  0.68897433887E+02  0.48624748053E+03  0.00000000000E+00 0. -1.
<scales pt_clust_5="13000.00000" pt_clust_6="13000.00000" pt_clust_7="13000.00000" pt_clust_8="13000.00000" pt_clust_9="44.85763" pt_clust_10="544.99300"></scales>
<clustering>
<clus scale="   44.858">  9 10 -1 -1</clus>
<clus scale="   81.429">  5  6 -1 -1</clus>
<clus scale="   89.883">  7  8 -1 -1</clus>
<clus scale="   92.154">  5  7 -1 -1</clus>
<clus scale="  544.993">  2  9  1 -1</clus>
<clus scale="  544.993">  2  5  1 -1</clus>
</clustering>
</event>
<event>
10    4  0.2857708E-005  0.9360991E+02  0.7546771E-02  0.1299057E+00
          2   -1    0    0  503    0 -0.00000000000E+00  0.00000000000E+00  0.48535372915E+03  0.48535372915E+03  0.00000000000E+00 0. -1.
         21   -1    0    0  501  502  0.00000000000E+00 -0.00000000000E+00 -0.22734248945E+03  0.22734248945E+03  0.00000000000E+00 0.  1.
         23    2    1    2    0    0 -0.34888390205E+02 -0.57318721252E+02  0.15558907945E+03  0.19177014071E+03  0.89806400937E+02 0.  0.
         24    2    1    2    0    0  0.24744277533E+02  0.32870588491E+02 -0.16438090630E+03  0.18807691271E+03  0.81603234492E+02 0.  0.
        -11    1    4    4    0    0  0.37264970662E+01  0.50679633441E+02 -0.14692274354E+03  0.15546255046E+03  0.00000000000E+00 0.  1.
         12    1    4    4    0    0  0.21017780467E+02 -0.17809044950E+02 -0.17458162754E+02  0.32614362243E+02  0.00000000000E+00 0. -1.
        -13    1    3    3    0    0 -0.24668149067E+02  0.10711540404E+02  0.99315277769E+02  0.10289207489E+03  0.00000000000E+00 0.  1.
         13    1    3    3    0    0 -0.10220241138E+02 -0.68030261656E+02  0.56273801679E+02  0.88878065828E+02  0.00000000000E+00 0. -1.
         21    1    1    2  503  502  0.52743346045E+02  0.38241908548E+02  0.27894786705E+03  0.28645456298E+03  0.00000000000E+00 0. -1.
          1    1    1    2  501    0 -0.42599233373E+02 -0.13793775787E+02 -0.12144800495E+02  0.46394602202E+02  0.00000000000E+00 0. -1.
<scales pt_clust_5="13000.00000" pt_clust_6="13000.00000" pt_clust_7="13000.00000" pt_clust_8="13000.00000" pt_clust_9="64.34191" pt_clust_10="44.77681"></scales>
<clustering>
<clus scale="   44.777">  2 10  1 -1</clus>
<clus scale="   64.342">  1  9  2 -1</clus>
<clus scale="   81.603">  5  6 -1 -1</clus>
<clus scale="   85.771">  2  5  1 -1</clus>
<clus scale="   89.806">  7  8 -1 -1</clus>
<clus scale="   44.777">  2  5  1 -1</clus>
</clustering>
</event>
<event>
10    4  0.2857708E-005  0.1938499E+03  0.7546771E-02  0.1181495E+00
         -3   -1    0    0    0  501 -0.00000000000E+00  0.00000000000E+00  0.20487981617E+03  0.20487981617E+03  0.00000000000E+00 0.  1.
         21   -1    0    0  503  502  0.00000000000E+00 -0.00000000000E+00 -0.55225534101E+03  0.55225534101E+03  0.00000000000E+00 0.  1.
         24    2    1    2    0    0  0.78780642831E+01 -0.67392519222E+02 -0.11474786333E+03  0.15637110050E+03  0.81737588592E+02 0.  0.
         23    2    1    2    0    0  0.17107100151E+03  0.15267028261E+02 -0.30039325044E+03  0.35954489989E+03  0.97662994124E+02 0.  0.
        -11    1    3    3    0    0 -0.20993697595E+02 -0.59218486500E+02 -0.36721587871E+02  0.72773892969E+02  0.00000000000E+00 0.  1.
         12    1    3    3    0    0  0.28871761878E+02 -0.81740327214E+01 -0.78026275463E+02  0.83597207534E+02  0.00000000000E+00 0. -1.
        -13    1    4    4    0    0  0.55141239986E+02  0.41748365440E+02 -0.16748628189E+03  0.18120468257E+03  0.00000000000E+00 0.  1.
         13    1    4    4    0    0  0.11592976153E+03 -0.26481337179E+02 -0.13290696854E+03  0.17834021732E+03  0.00000000000E+00 0. -1.
         21    1    1    2  503  501 -0.21301087523E+02  0.39967225236E+01  0.73157212155E+02  0.76299985654E+02  0.00000000000E+00 0.  1.
         -4    1    1    2    0  502 -0.15764797827E+03  0.48128768437E+02 -0.53916232308E+01  0.16491917113E+03  0.00000000000E+00 0.  1.
<scales pt_clust_5="13000.00000" pt_clust_6="13000.00000" pt_clust_7="13000.00000" pt_clust_8="13000.00000" pt_clust_9="21.67280" pt_clust_10="167.45079"></scales>
<clustering>
<clus scale="   21.673">  1  9  2 -1</clus>
<clus scale="   81.738">  5  6 -1 -1</clus>
<clus scale="   97.663">  7  8 -1 -1</clus>
<clus scale="  105.627">  1  5  2 -1</clus>
<clus scale="  167.451">  2 10  1 -1</clus>
<clus scale="  167.451">  2  5  1 -1</clus>
</clustering>
</event>
<event>
10    4  0.2857708E-005  0.1259995E+03  0.7546771E-02  0.1236287E+00
          2   -1    0    0  502    0 -0.00000000000E+00  0.00000000000E+00  0.43478991825E+02  0.43478991825E+02  0.00000000000E+00 0. -1.
         21   -1    0    0  503  502  0.00000000000E+00 -0.00000000000E+00 -0.11920443631E+04  0.11920443631E+04  0.00000000000E+00 0. -1.
         23    2    1    2    0    0 -0.99279900293E+02 -0.78447530462E+01 -0.38208631935E+03  0.40488412847E+03  0.89572112294E+02 0.  0.
         24    2    1    2    0    0  0.29032268589E+02  0.11855776061E+03 -0.50588053486E+03  0.52643452812E+03  0.79494538353E+02 0.  0.
        -13    1    4    4    0    0 -0.25057716519E+02  0.16259057947E+02 -0.97088788912E+02  0.10157991462E+03  0.00000000000E+00 0.  1.
         14    1    4    4    0    0  0.54089985108E+02  0.10229870266E+03 -0.40879174595E+03  0.42485461350E+03  0.00000000000E+00 0. -1.
        -13    1    3    3    0    0 -0.53109241696E+02  0.32325179622E+02 -0.11349433820E+03  0.12940816665E+03  0.00000000000E+00 0. -1.
         13    1    3    3    0    0 -0.46170658597E+02 -0.40169932668E+02 -0.26859198114E+03  0.27547596182E+03  0.00000000000E+00 0.  1.
         21    1    1    2  503  501  0.60541314009E+01 -0.56443719075E+02 -0.17606817711E+03  0.18499337535E+03  0.00000000000E+00 0. -1.
          1    1    1    2  501    0  0.64193500303E+02 -0.54269288487E+02 -0.84530339928E+02  0.11921132296E+03  0.00000000000E+00 0. -1.
<scales pt_clust_5="13000.00000" pt_clust_6="13000.00000" pt_clust_7="13000.00000" pt_clust_8="13000.00000" pt_clust_9="56.76747" pt_clust_10="88.28320"></scales>
<clustering>
<clus scale="   56.767">  2  9  1 -1</clus>
<clus scale="   79.495">  5  6 -1 -1</clus>
<clus scale="   88.283">  2 10  1 -1</clus>
<clus scale="   89.572">  7  8 -1 -1</clus>
<clus scale="  119.047">  2  5  1 -1</clus>
<clus scale="   56.767">  2  5  1 -1</clus>
</clustering>
</event>
<event>
10    4  0.2857708E-005  0.1125976E+03  0.7546771E-02  0.1258852E+00
         21   -1    0    0  501  502  0.00000000000E+00  0.00000000000E+00  0.20690498821E+03  0.20690498821E+03  0.00000000000E+00 0.  1.
          2   -1    0    0  503    0 -0.00000000000E+00 -0.00000000000E+00 -0.27968485956E+03  0.27968485956E+03  0.00000000000E+00 0. -1.
         23    2    1    2    0    0  0.49292277148E+02 -0.71895384971E+02  0.87915857034E+01  0.12581954442E+03  0.90302773007E+02 0.  0.
         24    2    1    2    0    0 -0.58527570772E+02  0.33715113901E+02  0.54900483251E+02  0.11960941022E+03  0.82037567646E+02 0.  0.
        -11    1    4    4    0    0 -0.15567007756E+02  0.22581126090E+02  0.68011365083E+02  0.73333380983E+02  0.00000000000E+00 0.  1.
         12    1    4    4    0    0 -0.42960563016E+02  0.11133987811E+02 -0.13110881832E+02  0.46276029233E+02  0.00000000000E+00 0. -1.
        -13    1    3    3    0    0 -0.20608851715E+02 -0.60399371365E+01  0.19728281592E+02  0.29161802142E+02  0.00000000000E+00 0.  1.
         13    1    3    3    0    0  0.69901128863E+02 -0.65855447834E+02 -0.10936695888E+02  0.96657742280E+02  0.00000000000E+00 0. -1.
         21    1    1    2  503  502 -0.57882582817E+02  0.17796847371E+02 -0.15683512900E+03  0.16812013223E+03  0.00000000000E+00 0. -1.
          1    1    1    2  501    0  0.67117876441E+02  0.20383423699E+02  0.20363188699E+02  0.73040760905E+02  0.00000000000E+00 0. -1.
<scales pt_clust_5="13000.00000" pt_clust_6="13000.00000" pt_clust_7="13000.00000" pt_clust_8="13000.00000" pt_clust_9="60.55676" pt_clust_10="59.35039"></scales>
<clustering>
<clus scale="   60.557">  2  9  1 -1</clus>
<clus scale="   59.350">  1 10  2 -1</clus>
<clus scale="   82.038">  5  6 -1 -1</clus>
<clus scale="   90.303">  7  8 -1 -1</clus>
<clus scale="  106.084">  1  5  2 -1</clus>
<clus scale="   59.350">  1  5  2 -1</clus>
</clustering>
</event>
<event>
10    4  0.2857708E-005  0.9708118E+02  0.7546771E-02  0.1295468E+00
         21   -1    0    0  503  502  0.00000000000E+00  0.00000000000E+00  0.12986593285E+03  0.12986593285E+03  0.00000000000E+00 0.  1.
         -1   -1    0    0    0  501 -0.00000000000E+00 -0.00000000000E+00 -0.44451298846E+03  0.44451298846E+03  0.00000000000E+00 0.  1.
         23    2    1    2    0    0 -0.16298076469E+02  0.27960612098E+02 -0.37923639152E+03  0.39179948617E+03  0.92947154809E+02 0.  0.
         24    2    1    2    0    0 -0.21175207264E+02 -0.13034462227E+02  0.69967297892E+02  0.10715211761E+03  0.77251970369E+02 0.  0.
        -11    1    4    4    0    0  0.20082550048E+01  0.30944842345E+02  0.21606517526E+02  0.37794946164E+02  0.00000000000E+00 0.  1.
         12    1    4    4    0    0 -0.23183462268E+02 -0.43979304572E+02  0.48360780366E+02  0.69357171446E+02  0.00000000000E+00 0. -1.
        -11    1    3    3    0    0 -0.47493028679E+02  0.42704427989E+02 -0.25199058018E+03  0.25995866680E+03  0.00000000000E+00 0.  1.
         11    1    3    3    0    0  0.31194952210E+02 -0.14743815891E+02 -0.12724581133E+03  0.13184081937E+03  0.00000000000E+00 0. -1.
         21    1    1    2  503  501  0.20275962096E+02  0.12963167946E+01 -0.33196184860E+02  0.38920197397E+02  0.00000000000E+00 0. -1.
         -2    1    1    2    0  502  0.17197321636E+02 -0.16222466665E+02  0.27818222879E+02  0.36507120131E+02  0.00000000000E+00 0.  1.
<scales pt_clust_5="13000.00000" pt_clust_6="13000.00000" pt_clust_7="13000.00000" pt_clust_8="13000.00000" pt_clust_9="20.31736" pt_clust_10="23.78935"></scales>
<clustering>
<clus scale="   20.317">  2  9  1 -1</clus>
<clus scale="   23.789">  1 10  2 -1</clus>
<clus scale="   77.252">  5  6 -1 -1</clus>
<clus scale="   82.179">  1  5  2 -1</clus>
<clus scale="   92.947">  7  8 -1 -1</clus>
<clus scale="   23.789">  1  5  2 -1</clus>
</clustering>
</event>
<event>
10    4  0.2857708E-005  0.1290552E+03  0.7546771E-02  0.1231937E+00
          2   -1    0    0  503    0 -0.00000000000E+00  0.00000000000E+00  0.52204538521E+03  0.52204538521E+03  0.00000000000E+00 0. -1.
         21   -1    0    0  501  502  0.00000000000E+00 -0.00000000000E+00 -0.17313082478E+03  0.17313082478E+03  0.00000000000E+00 0. -1.
         24    2    1    2    0    0  0.79831220649E+02 -0.33660512095E+02  0.32721564212E+03  0.34772397651E+03  0.79597949230E+02 0.  0.
         23    2    1    2    0    0 -0.53799432519E+02 -0.20523246511E+01 -0.48348951674E+02  0.11642776931E+03  0.91209721866E+02 0.  0.
        -13    1    3    3    0    0  0.58881901403E+02  0.18243308653E+02  0.16718965467E+03  0.17819168683E+03  0.00000000000E+00 0.  1.
         14    1    3    3    0    0  0.20949319245E+02 -0.51903820748E+02  0.16002598745E+03  0.16953228968E+03  0.00000000000E+00 0. -1.
        -13    1    4    4    0    0 -0.48070535561E+02  0.40558674939E+02 -0.27480011806E+02  0.68636240797E+02  0.00000000000E+00 0.  1.
         13    1    4    4    0    0 -0.57288969579E+01 -0.42610999590E+02 -0.20868939868E+02  0.47791528513E+02  0.00000000000E+00 0. -1.
         21    1    1    2  503  502 -0.11883384556E+01 -0.31984472206E+02  0.13208013411E+03  0.13590283454E+03  0.00000000000E+00 0. -1.
          1    1    1    2  501    0 -0.24843449675E+02  0.67697308952E+02 -0.62032264123E+02  0.95121629629E+02  0.00000000000E+00 0. -1.
<scales pt_clust_5="13000.00000" pt_clust_6="13000.00000" pt_clust_7="13000.00000" pt_clust_8="13000.00000" pt_clust_9="32.00654" pt_clust_10="70.85104"></scales>
<clustering>
<clus scale="   32.007">  1  9  2 -1</clus>
<clus scale="   70.851">  2 10  1 -1</clus>
<clus scale="   79.598">  5  6 -1 -1</clus>
<clus scale="   91.210">  7  8 -1 -1</clus>
<clus scale="  121.127">  1  5  2 -1</clus>
<clus scale="   70.851">  2  5  1 -1</clus>
</clustering>
</event>
<event>
10    4  0.2857708E-005  0.1511895E+03  0.7546771E-02  0.1222737E+00
         21   -1    0    0  503  502  0.00000000000E+00  0.00000000000E+00  0.12165144486E+04  0.12165144486E+04  0.00000000000E+00 0.  1.
         -3   -1    0    0    0  501 -0.00000000000E+00 -0.00000000000E+00 -0.37930456599E+02  0.37930456599E+02  0.00000000000E+00 0.  1.
         23    2    1    2    0    0 -0.75512142507E+01 -0.58393327450E+01  0.17257877594E+03  0.19516392558E+03  0.90633356436E+02 0.  0.
         24    2    1    2    0    0  0.11171836278E+03  0.53471967649E+02  0.56778821060E+03  0.58670490821E+03  0.80616085943E+02 0.  0.
        -13    1    4    4    0    0  0.11530701441E+03  0.46372205204E+02  0.56462910622E+03  0.57814541127E+03  0.00000000000E+00 0.  1.
         14    1    4    4    0    0 -0.35886516281E+01  0.70997624454E+01  0.31591043815E+01  0.85594969351E+01  0.00000000000E+00 0. -1.
        -11    1    3    3    0    0  0.31383215013E+02  0.23393146013E+02  0.51682582164E+02  0.64832358927E+02  0.00000000000E+00 0. -1.
         11    1    3    3    0    0 -0.38934429263E+02 -0.29232478758E+02  0.12089619378E+03  0.13033156666E+03  0.00000000000E+00 0.  1.
         21    1    1    2  503  501  0.11395530976E+01  0.36096114354E+02  0.49779572675E+02  0.61499869174E+02  0.00000000000E+00 0.  1.
         -4    1    1    2    0  502 -0.10530670162E+03 -0.83728749258E+02  0.38843743282E+03  0.41107620227E+03  0.00000000000E+00 0.  1.
<scales pt_clust_5="13000.00000" pt_clust_6="13000.00000" pt_clust_7="13000.00000" pt_clust_8="13000.00000" pt_clust_9="36.11410" pt_clust_10="127.90356"></scales>
<clustering>
<clus scale="   36.114">  2  9  1 -1</clus>
<clus scale="   80.616">  5  6 -1 -1</clus>
<clus scale="   90.633">  7  8 -1 -1</clus>
<clus scale="   91.174">  2  7  1 -1</clus>
<clus scale="  127.904">  1 10  2 -1</clus>
<clus scale="  127.904">  1  5  2 -1</clus>
</clustering>
</event>
<event>
10    4  0.2857708E-005  0.1623965E+03  0.7546771E-02  0.1187998E+00
          2   -1    0    0  503    0 -0.00000000000E+00  0.00000000000E+00  0.10823674115E+04  0.10823674115E+04  0.00000000000E+00 0. -1.
         21   -1    0    0  501  502  0.00000000000E+00 -0.00000000000E+00 -0.10061844990E+03  0.10061844990E+03  0.00000000000E+00 0.  1.
         23    2    1    2    0    0 -0.10963415325E+03 -0.64829832558E+02  0.60871703614E+03  0.62829818319E+03  0.89440606917E+02 0.  0.
         24    2    1    2    0    0  0.14227745164E+03  0.10095095833E+03  0.42260323520E+02  0.19493146808E+03  0.76015610714E+02 0.  0.
        -11    1    4    4    0    0  0.86097720203E+02  0.91869886931E+02  0.53704211283E+02  0.13688329284E+03  0.00000000000E+00 0.  1.
         12    1    4    4    0    0  0.56179731432E+02  0.90810713957E+01 -0.11443887763E+02  0.58048175239E+02  0.00000000000E+00 0. -1.
        -13    1    3    3    0    0 -0.18463698469E+02 -0.56360595674E+02  0.16775497721E+03  0.17793020341E+03  0.00000000000E+00 0.  1.
         13    1    3    3    0    0 -0.91170454781E+02 -0.84692368835E+01  0.44096205893E+03  0.45036797979E+03  0.00000000000E+00 0. -1.
         21    1    1    2  503  502 -0.22779541268E+02  0.41298118439E+02  0.21515298699E+03  0.22026177584E+03  0.00000000000E+00 0.  1.
          1    1    1    2  501    0 -0.98637571174E+01 -0.77419244208E+02  0.11561861498E+03  0.13949443433E+03  0.00000000000E+00 0. -1.
<scales pt_clust_5="13000.00000" pt_clust_6="13000.00000" pt_clust_7="13000.00000" pt_clust_8="13000.00000" pt_clust_9="47.16399" pt_clust_10="72.54244"></scales>
<clustering>
<clus scale="   47.164">  1  9  2 -1</clus>
<clus scale="   72.542">  2 10  1 -1</clus>
<clus scale="   76.016">  5  6 -1 -1</clus>
<clus scale="   89.441">  7  8 -1 -1</clus>
<clus scale="  155.407">  2  5  1 -1</clus>
<clus scale="   72.542">  2  5  1 -1</clus>
</clustering>
</event>
<event>
10    4  0.2857708E-005  0.1008421E+03  0.7546771E-02  0.1282429E+00
         -3   -1    0    0    0  501 -0.00000000000E+00  0.00000000000E+00  0.78751050332E+02  0.78751050332E+02  0.00000000000E+00 0.  1.
         21   -1    0    0  503  502  0.00000000000E+00 -0.00000000000E+00 -0.29067949909E+03  0.29067949909E+03  0.00000000000E+00 0.  1.
         24    2    1    2    0    0  0.43429251768E+01  0.62721852025E+02 -0.11716388522E+02  0.10370294833E+03  0.81634159593E+02 0.  0.
         23    2    1    2    0    0  0.18841915681E+02 -0.10065440477E+02 -0.10411532080E+03  0.13914080316E+03  0.89798842977E+02 0.  0.
        -13    1    3    3    0    0  0.22195320017E+02 -0.10472014660E+02 -0.14141238750E+02  0.28324370339E+02  0.00000000000E+00 0.  1.
         14    1    3    3    0    0 -0.17852394840E+02  0.73193866686E+02  0.24248502275E+01  0.75378577995E+02  0.00000000000E+00 0. -1.
        -11    1    4    4    0    0  0.31974962454E+02 -0.44394254571E+02 -0.52912296604E+02  0.76111491871E+02  0.00000000000E+00 0. -1.
         11    1    4    4    0    0 -0.13133046773E+02  0.34328814094E+02 -0.51203024200E+02  0.63029311291E+02  0.00000000000E+00 0.  1.
         21    1    1    2  503  501  0.19339648289E+02 -0.16214136770E+02 -0.20548568499E+02  0.32544798271E+02  0.00000000000E+00 0. -1.
         -4    1    1    2    0  502 -0.42524489147E+02 -0.36442274778E+02 -0.75548170937E+02  0.94041999660E+02  0.00000000000E+00 0.  1.
<scales pt_clust_5="13000.00000" pt_clust_6="13000.00000" pt_clust_7="13000.00000" pt_clust_8="13000.00000" pt_clust_9="25.23728" pt_clust_10="55.25719"></scales>
<clustering>
<clus scale="   25.237">  2  9  1 -1</clus>
<clus scale="   55.257">  2 10  1 -1</clus>
<clus scale="   81.634">  5  6 -1 -1</clus>
<clus scale="   89.799">  7  8 -1 -1</clus>
<clus scale="   93.645">  1  5  2 -1</clus>
<clus scale="   25.237">  2  5  1 -1</clus>
</clustering>
</event>
<event>
10    4  0.2857708E-005  0.2346549E+03  0.7546771E-02  0.1153268E+00
         21   -1    0    0  501  502  0.00000000000E+00  0.00000000000E+00  0.54816878657E+03  0.54816878657E+03  0.00000000000E+00 0.  1.
          2   -1    0    0  503    0 -0.00000000000E+00 -0.00000000000E+00 -0.33643028670E+03  0.33643028670E+03  0.00000000000E+00 0. -1.
         24    2    1    2    0    0 -0.85959335887E+02  0.52738066278E+02 -0.10520142517E+03  0.16530432827E+03  0.78024803918E+02 0.  0.
         23    2    1    2    0    0 -0.13869397683E+03 -0.14075814446E+03  0.23470163510E+03  0.31993666551E+03  0.90695854247E+02 0.  0.
        -13    1    3    3    0    0 -0.67482910756E+02  0.69658245309E+02 -0.61230661120E+02  0.11469702806E+03  0.00000000000E+00 0.  1.
         14    1    3    3    0    0 -0.18476425131E+02 -0.16920179030E+02 -0.43970764047E+02  0.50607300214E+02  0.00000000000E+00 0. -1.
        -11    1    4    4    0    0 -0.14069263004E+03 -0.90857298425E+02  0.18184065593E+03  0.24721547074E+03  0.00000000000E+00 0.  1.
         11    1    4    4    0    0  0.19986532107E+01 -0.49900846036E+02  0.52860979174E+02  0.72721194772E+02  0.00000000000E+00 0. -1.
         21    1    1    2  503  502  0.13936963133E+02 -0.45072499158E+02 -0.86396418499E+02  0.98438357621E+02  0.00000000000E+00 0.  1.
          1    1    1    2  501    0  0.21071634958E+03  0.13309257734E+03  0.16863470843E+03  0.30091972187E+03  0.00000000000E+00 0. -1.
<scales pt_clust_5="13000.00000" pt_clust_6="13000.00000" pt_clust_7="13000.00000" pt_clust_8="13000.00000" pt_clust_9="47.17806" pt_clust_10="216.41911"></scales>
<clustering>
<clus scale="   47.178">  2  9  1 -1</clus>
<clus scale="   78.025">  5  6 -1 -1</clus>
<clus scale="   90.696">  7  8 -1 -1</clus>
<clus scale="  113.925">  2  5  1 -1</clus>
<clus scale="  216.419">  1 10  2 -1</clus>
<clus scale="  216.419">  1  5  2 -1</clus>
</clustering>
</event>
<event>
10    4  0.2857708E-005  0.1240565E+03  0.7546771E-02  0.1239731E+00
         21   -1    0    0  501  502  0.00000000000E+00  0.00000000000E+00  0.42117567409E+02  0.42117567409E+02  0.00000000000E+00 0. -1.
          2   -1    0    0  503    0 -0.00000000000E+00 -0.00000000000E+00 -0.11321251040E+04  0.11321251040E+04  0.00000000000E+00 0. -1.
         23    2    1    2    0    0  0.24525085583E+02  0.69682078966E+02 -0.43617258034E+03  0.45172983172E+03  0.91412521429E+02 0.  0.
         24    2    1    2    0    0 -0.12848027890E+02 -0.93618256819E+02 -0.49369458627E+03  0.50906795987E+03  0.80538148841E+02 0.  0.
        -13    1    4    4    0    0 -0.27188455315E+02 -0.87381735861E+02 -0.27525045563E+03  0.29006480860E+03  0.00000000000E+00 0.  1.
         14    1    4    4    0    0  0.14340427425E+02 -0.62365209583E+01 -0.21844413065E+03  0.21900315127E+03  0.00000000000E+00 0. -1.
        -13    1    3    3    0    0  0.38487423970E+02 -0.23917468483E+01 -0.22200143142E+03  0.22532562617E+03  0.00000000000E+00 0. -1.
         13    1    3    3    0    0 -0.13962338387E+02  0.72073825814E+02 -0.21417114891E+03  0.22640420554E+03  0.00000000000E+00 0.  1.
         21    1    1    2  503  502  0.21943444799E+02 -0.35367286260E+01 -0.16787807334E+03  0.16934305633E+03  0.00000000000E+00 0. -1.
          1    1    1    2  501    0 -0.33620502491E+02  0.27472906479E+02  0.77377033967E+01  0.44101823454E+02  0.00000000000E+00 0. -1.
<scales pt_clust_5="13000.00000" pt_clust_6="13000.00000" pt_clust_7="13000.00000" pt_clust_8="13000.00000" pt_clust_9="22.22663" pt_clust_10="43.05536"></scales>
<clustering>
<clus scale="   22.227">  2  9  1 -1</clus>
<clus scale="   43.055">  1 10  2 -1</clus>
<clus scale="   80.538">  5  6 -1 -1</clus>
<clus scale="   91.413">  7  8 -1 -1</clus>
<clus scale="  116.276">  1  5  2 -1</clus>
<clus scale="   43.055">  1  5  2 -1</clus>
</clustering>
</event>
<event>
10    4  0.2857708E-005  0.1548527E+03  0.7546771E-02  0.1194771E+00
         21   -1    0    0  501  502  0.00000000000E+00  0.00000000000E+00  0.64331954927E+03  0.64331954927E+03  0.00000000000E+00 0. -1.
          2   -1    0    0  503    0 -0.00000000000E+00 -0.00000000000E+00 -0.11708119471E+03  0.11708119471E+03  0.00000000000E+00 0. -1.
         24    2    1    2    0    0  0.27644925528E+02 -0.13209086879E+03  0.10731732606E+03  0.19389759607E+03  0.88696278182E+02 0.  0.
         23    2    1    2    0    0  0.84536228611E+02  0.14885206814E+03  0.29075505647E+03  0.34907448346E+03  0.89505195403E+02 0.  0.
        -13    1    3    3    0    0  0.39399557502E+02 -0.12516324494E+02  0.27469315228E+02  0.49634129279E+02  0.00000000000E+00 0.  1.
         14    1    3    3    0    0 -0.11754631974E+02 -0.11957454429E+03  0.79848010837E+02  0.14426346679E+03  0.00000000000E+00 0. -1.
        -11    1    4    4    0    0  0.10046342750E+03  0.10329330269E+03  0.20328388922E+03  0.24917212176E+03  0.00000000000E+00 0. -1.
         11    1    4    4    0    0 -0.15927198888E+02  0.45558765451E+02  0.87471167248E+02  0.99902361701E+02  0.00000000000E+00 0.  1.
         21    1    1    2  503  502 -0.55407866924E+02  0.48627680768E+02  0.15506677404E+02  0.75333525724E+02  0.00000000000E+00 0. -1.
          1    1    1    2  501    0 -0.56773287216E+02 -0.65388880121E+02  0.11265929463E+03  0.14209513873E+03  0.00000000000E+00 0. -1.
<scales pt_clust_5="13000.00000" pt_clust_6="13000.00000" pt_clust_7="13000.00000" pt_clust_8="13000.00000" pt_clust_9="73.72030" pt_clust_10="87.42059"></scales>
<clustering>
<clus scale="   73.720">  2  9  1 -1</clus>
<clus scale="   87.421">  1 10  2 -1</clus>
<clus scale="   88.696">  5  6 -1 -1</clus>
<clus scale="   89.505">  7  8 -1 -1</clus>
<clus scale="  154.387">  2  5  1 -1</clus>
<clus scale="   87.421">  1  5  2 -1</clus>
</clustering>
</event>
<event>
10    4  0.2857708E-005  0.2263264E+03  0.7546771E-02  0.1160489E+00
         21   -1    0    0  503  502  0.00000000000E+00  0.00000000000E+00  0.54878425352E+03  0.54878425352E+03  0.00000000000E+00 0.  1.
         -1   -1    0    0    0  501 -0.00000000000E+00 -0.00000000000E+00 -0.35832598284E+03  0.35832598284E+03  0.00000000000E+00 0.  1.
         24    2    1    2    0    0 -0.49780572060E+02 -0.49776280234E+02  0.12800722825E+03  0.16698213052E+03  0.80878909499E+02 0.  0.
         23    2    1    2    0    0  0.22176009656E+02 -0.10908167221E+03  0.70743616035E+02  0.16826440554E+03  0.10448762772E+03 0.  0.
        -13    1    3    3    0    0 -0.76199718812E+01 -0.59703579533E+02  0.52187061651E+02  0.79662229345E+02  0.00000000000E+00 0.  1.
         14    1    3    3    0    0 -0.42160600179E+02  0.99272992996E+01  0.75820166595E+02  0.87319901176E+02  0.00000000000E+00 0. -1.
        -11    1    4    4    0    0  0.28124775751E+02 -0.87868763582E+02 -0.19754863523E+01  0.92281228702E+02  0.00000000000E+00 0.  1.
         11    1    4    4    0    0 -0.59487660943E+01 -0.21212908631E+02  0.72719102387E+02  0.75983176839E+02  0.00000000000E+00 0. -1.
         21    1    1    2  503  501 -0.87736367109E+02 -0.73859771103E+02 -0.21249626792E+03  0.24146966638E+03  0.00000000000E+00 0.  1.
         -2    1    1    2    0  502  0.11534092951E+03  0.23271772355E+03  0.20420369432E+03  0.33039403392E+03  0.00000000000E+00 0.  1.
<scales pt_clust_5="13000.00000" pt_clust_6="13000.00000" pt_clust_7="13000.00000" pt_clust_8="13000.00000" pt_clust_9="226.32636" pt_clust_10="13000.00000"></scales>
<clustering>
<clus scale="   80.879">  5  6 -1 -1</clus>
<clus scale="  104.488">  7  8 -1 -1</clus>
<clus scale="  107.225">  2  5  1 -1</clus>
<clus scale="  157.022">  2  7  1 -1</clus>
<clus scale="  226.326">  2  9  1 -1</clus>
<clus scale="  226.326">  1  5  2 -1</clus>
</clustering>
</event>
<event>
10    4  0.2857708E-005  0.1132262E+03  0.7546771E-02  0.1258789E+00
         21   -1    0    0  501  502  0.00000000000E+00  0.00000000000E+00  0.57726252053E+03  0.57726252053E+03  0.00000000000E+00 0.  1.
          2   -1    0    0  503    0 -0.00000000000E+00 -0.00000000000E+00 -0.70413334720E+02  0.70413334720E+02  0.00000000000E+00 0. -1.
         23    2    1    2    0    0  0.59820572056E+02 -0.54056658466E+02  0.26852366113E+02  0.12480336312E+03  0.91401349636E+02 0.  0.
         24    2    1    2    0    0 -0.44989376456E+02  0.12182649710E+02  0.11591964302E+03  0.14850928853E+03  0.80281904535E+02 0.  0.
        -13    1    4    4    0    0 -0.11014597423E+02  0.44126156063E+02  0.66460724813E+02  0.80532396884E+02  0.00000000000E+00 0.  1.
         14    1    4    4    0    0 -0.33974779033E+02 -0.31943506352E+02  0.49458918206E+02  0.67976891651E+02  0.00000000000E+00 0. -1.
        -13    1    3    3    0    0  0.25674716827E+02 -0.68440926537E+01  0.54257039678E+02  0.60414063289E+02  0.00000000000E+00 0.  1.
         13    1    3    3    0    0  0.34145855229E+02 -0.47212565812E+02 -0.27404673565E+02  0.64389299834E+02  0.00000000000E+00 0. -1.
         21    1    1    2  503  502  0.64389371996E+00  0.60463355037E+02  0.21518470186E+03  0.22351887575E+03  0.00000000000E+00 0. -1.
          1    1    1    2  501    0 -0.15475089320E+02 -0.18589346281E+02  0.14889247481E+03  0.15084432784E+03  0.00000000000E+00 0. -1.
<scales pt_clust_5="13000.00000" pt_clust_6="13000.00000" pt_clust_7="13000.00000" pt_clust_8="13000.00000" pt_clust_9="51.44309" pt_clust_10="24.18765"></scales>
<clustering>
<clus scale="   24.188">  1 10  2 -1</clus>
<clus scale="   51.443">  1  9  2 -1</clus>
<clus scale="   80.282">  5  6 -1 -1</clus>
<clus scale="   91.401">  7  8 -1 -1</clus>
<clus scale="  104.456">  1  5  2 -1</clus>
<clus scale="   24.188">  1  5  2 -1</clus>
</clustering>
</event>
<event>
10    4  0.2857708E-005  0.9790456E+02  0.7546771E-02  0.1294789E+00
         21   -1    0    0  501  502  0.00000000000E+00  0.00000000000E+00  0.19484058650E+03  0.19484058650E+03  0.00000000000E+00 0. -1.
          2   -1    0    0  503    0 -0.00000000000E+00 -0.00000000000E+00 -0.15728091539E+03  0.15728091539E+03  0.00000000000E+00 0. -1.
         24    2    1    2    0    0 -0.28508689792E+02 -0.48034395277E+02 -0.19977066339E+01  0.94783040013E+02  0.76549234608E+02 0.  0.
         23    2    1    2    0    0 -0.51371300223E+02  0.77671297947E+01  0.10038636657E+02  0.10798804079E+03  0.94134499178E+02 0.  0.
        -11    1    3    3    0    0 -0.21679191798E+02 -0.38932854089E+02  0.34625406583E+02  0.56432909420E+02  0.00000000000E+00 0.  1.
         12    1    3    3    0    0 -0.68294979934E+01 -0.91015411882E+01 -0.36623113217E+02  0.38350130594E+02  0.00000000000E+00 0. -1.
        -13    1    4    4    0    0  0.11541065427E+02  0.36413986026E+02  0.66816064302E+01  0.38779097901E+02  0.00000000000E+00 0.  1.
         13    1    4    4    0    0 -0.62912365650E+02 -0.28646856231E+02  0.33570302270E+01  0.69208942887E+02  0.00000000000E+00 0. -1.
         21    1    1    2  503  502  0.19514697895E+02  0.71760153622E+02 -0.18410253426E+01  0.74389061400E+02  0.00000000000E+00 0. -1.
          1    1    1    2  501    0  0.60365292120E+02 -0.31492888139E+02  0.31359766422E+02  0.74961359687E+02  0.00000000000E+00 0. -1.
<scales pt_clust_5="13000.00000" pt_clust_6="13000.00000" pt_clust_7="13000.00000" pt_clust_8="13000.00000" pt_clust_9="72.66508" pt_clust_10="68.08649"></scales>
<clustering>
<clus scale="   68.086">  1 10  2 -1</clus>
<clus scale="   72.665">  2  9  1 -1</clus>
<clus scale="   76.549">  5  6 -1 -1</clus>
<clus scale="   81.141">  2  5  1 -1</clus>
<clus scale="   94.134">  7  8 -1 -1</clus>
<clus scale="   68.086">  1  5  2 -1</clus>
</clustering>
</event>
<event>
10    4  0.2857708E-005  0.1869641E+03  0.7546771E-02  0.1162105E+00
         21   -1    0    0  501  502  0.00000000000E+00  0.00000000000E+00  0.66563798545E+02  0.66563798545E+02  0.00000000000E+00 0. -1.
          2   -1    0    0  503    0 -0.00000000000E+00 -0.00000000000E+00 -0.78897025250E+03  0.78897025250E+03  0.00000000000E+00 0. -1.
         24    2    1    2    0    0 -0.10755765503E+03 -0.11794986337E+03 -0.40740702369E+03  0.44514362660E+03  0.81801869931E+02 0.  0.
         23    2    1    2    0    0  0.91211485578E+02  0.12668646260E+03 -0.16212863673E+03  0.24236537474E+03  0.89923773929E+02 0.  0.
        -13    1    3    3    0    0 -0.39659217536E+02 -0.11227351262E+02 -0.43713312415E+02  0.60081283560E+02  0.00000000000E+00 0.  1.
         14    1    3    3    0    0 -0.67898437495E+02 -0.10672251211E+03 -0.36369371128E+03  0.38506234304E+03  0.00000000000E+00 0. -1.
        -13    1    4    4    0    0 -0.15840461805E+02  0.20655157993E+02 -0.90121098960E+01  0.27545850988E+02  0.00000000000E+00 0.  1.
         13    1    4    4    0    0  0.10705194738E+03  0.10603130461E+03 -0.15311652684E+03  0.21481952375E+03  0.00000000000E+00 0. -1.
         21    1    1    2  503  502 -0.26123911624E+02 -0.63709313082E+01 -0.67064172943E+02  0.72254071282E+02  0.00000000000E+00 0.  1.
          1    1    1    2  501    0  0.42470081076E+02 -0.23656679228E+01 -0.85806620583E+02  0.95770978419E+02  0.00000000000E+00 0. -1.
<scales pt_clust_5="13000.00000" pt_clust_6="13000.00000" pt_clust_7="13000.00000" pt_clust_8="13000.00000" pt_clust_9="26.88954" pt_clust_10="39.30087"></scales>
<clustering>
<clus scale="   26.890">  2  9  1 -1</clus>
<clus scale="   39.301">  1 10  2 -1</clus>
<clus scale="   81.802">  5  6 -1 -1</clus>
<clus scale="   89.924">  7  8 -1 -1</clus>
<clus scale="  183.196">  2  5  1 -1</clus>
<clus scale="   39.301">  1  5  2 -1</clus>
</clustering>
</event>
<event>
10    4  0.2857708E-005  0.1073927E+03  0.7546771E-02  0.1272274E+00
         21   -1    0    0  501  502  0.00000000000E+00  0.00000000000E+00  0.41066219085E+02  0.41066219085E+02  0.00000000000E+00 0. -1.
          2   -1    0    0  503    0 -0.00000000000E+00 -0.00000000000E+00 -0.57875051438E+03  0.57875051438E+03  0.00000000000E+00 0. -1.
         24    2    1    2    0    0 -0.82050633754E+01  0.43031764214E+02 -0.26786022174E+03  0.28343247015E+03  0.81644417757E+02 0.  0.
         23    2    1    2    0    0 -0.50894492203E+01 -0.46947103235E+02 -0.22361283227E+03  0.24813173177E+03  0.96626727983E+02 0.  0.
        -13    1    3    3    0    0  0.34182743998E+02  0.19774470344E+02 -0.16667498967E+03  0.17128935123E+03  0.00000000000E+00 0.  1.
         14    1    3    3    0    0 -0.42387807374E+02  0.23257293870E+02 -0.10118523207E+03  0.11214311892E+03  0.00000000000E+00 0. -1.
        -13    1    4    4    0    0 -0.21900858386E+02 -0.14864219386E+02 -0.55028309312E+01  0.27034677069E+02  0.00000000000E+00 0.  1.
         13    1    4    4    0    0  0.16811409165E+02 -0.32082883850E+02 -0.21811000134E+03  0.22109705470E+03  0.00000000000E+00 0. -1.
         21    1    1    2  503  502  0.36163753539E+01  0.21497123688E+02 -0.60043369623E+02  0.63878092749E+02  0.00000000000E+00 0. -1.
          1    1    1    2  501    0  0.96781372418E+01 -0.17581784667E+02  0.13832128330E+02  0.24374438797E+02  0.00000000000E+00 0. -1.
<scales pt_clust_5="13000.00000" pt_clust_6="13000.00000" pt_clust_7="13000.00000" pt_clust_8="13000.00000" pt_clust_9="20.45468" pt_clust_10="20.06952"></scales>
<clustering>
<clus scale="   20.070">  1 10  2 -1</clus>
<clus scale="   20.455">  2  9  1 -1</clus>
<clus scale="   81.644">  5  6 -1 -1</clus>
<clus scale="   94.140">  2  5  1 -1</clus>
<clus scale="   96.627">  7  8 -1 -1</clus>
<clus scale="   20.070">  1  5  2 -1</clus>
</clustering>
</event>
<event>
10    4  0.2857708E-005  0.1023891E+03  0.7546771E-02  0.1282535E+00
         -1   -1    0    0    0  501 -0.00000000000E+00  0.00000000000E+00  0.24228261866E+03  0.24228261866E+03  0.00000000000E+00 0.  1.
         21   -1    0    0  503  502  0.00000000000E+00 -0.00000000000E+00 -0.13687849357E+03  0.13687849357E+03  0.00000000000E+00 0.  1.
         23    2    1    2    0    0 -0.24747044672E+02  0.31906593527E+02  0.12587429049E+03  0.16292542133E+03  0.95236069743E+02 0.  0.
         24    2    1    2    0    0  0.29311758585E+02 -0.15557648321E+02 -0.51091178064E+00  0.87519313860E+02  0.80982403367E+02 0.  0.
        -13    1    4    4    0    0  0.39934001078E+02  0.23889560422E+02  0.21184599576E+01  0.46582436732E+02  0.00000000000E+00 0.  1.
         14    1    4    4    0    0 -0.10622242494E+02 -0.39447208744E+02 -0.26293717383E+01  0.40936877128E+02  0.00000000000E+00 0. -1.
        -11    1    3    3    0    0  0.94364457969E+01  0.56348536115E+02  0.94708252007E+02  0.11060676756E+03  0.00000000000E+00 0.  1.
         11    1    3    3    0    0 -0.34183490469E+02 -0.24441942588E+02  0.31166038480E+02  0.52318653773E+02  0.00000000000E+00 0. -1.
         21    1    1    2  503  501  0.42458774293E+02 -0.34062132466E+02  0.26266352102E+02  0.60439206111E+02  0.00000000000E+00 0.  1.
         -2    1    1    2    0  502 -0.47023488206E+02  0.17713187260E+02 -0.46225605717E+02  0.68277170927E+02  0.00000000000E+00 0.  1.
<scales pt_clust_5="13000.00000" pt_clust_6="13000.00000" pt_clust_7="13000.00000" pt_clust_8="13000.00000" pt_clust_9="44.31093" pt_clust_10="50.24903"></scales>
<clustering>
<clus scale="   50.249">  2 10  1 -1</clus>
<clus scale="   44.311">  2  9  1 -1</clus>
<clus scale="   80.982">  5  6 -1 -1</clus>
<clus scale="   89.285">  2  5  1 -1</clus>
<clus scale="   95.236">  7  8 -1 -1</clus>
<clus scale="   50.249">  2  5  1 -1</clus>
</clustering>
</event>
<event>
10    4  0.2857708E-005  0.1318778E+03  0.7546771E-02  0.1229507E+00
         21   -1    0    0  503  502  0.00000000000E+00  0.00000000000E+00  0.17908104023E+04  0.17908104023E+04  0.00000000000E+00 0. -1.
         -3   -1    0    0    0  501 -0.00000000000E+00 -0.00000000000E+00 -0.50103028593E+02  0.50103028593E+02  0.00000000000E+00 0.  1.
         23    2    1    2    0    0  0.59859231883E+02 -0.57443574375E+02  0.32612264115E+03  0.34767426907E+03  0.87398675175E+02 0.  0.
         24    2    1    2    0    0  0.98024930215E+02  0.78430910569E+01  0.11731005231E+04  0.11800382203E+04  0.81577957948E+02 0.  0.
        -11    1    4    4    0    0  0.16537857989E+02  0.33703978397E+02  0.22707498896E+03  0.23015757541E+03  0.00000000000E+00 0.  1.
         12    1    4    4    0    0  0.81487072226E+02 -0.25860887340E+02  0.94602553412E+03  0.94988064494E+03  0.00000000000E+00 0. -1.
        -13    1    3    3    0    0  0.75655884251E+02 -0.20675638860E+02  0.18383814908E+03  0.19986935713E+03  0.00000000000E+00 0.  1.
         13    1    3    3    0    0 -0.15796652367E+02 -0.36767935514E+02  0.14228449207E+03  0.14780491194E+03  0.00000000000E+00 0. -1.
         21    1    1    2  503  501 -0.20240137553E+02 -0.11708154200E+02 -0.53709755253E+01  0.23991486428E+02  0.00000000000E+00 0.  1.
         -4    1    1    2    0  502 -0.13764402455E+03  0.61308637518E+02  0.24685518504E+03  0.28920945508E+03  0.00000000000E+00 0.  1.
<scales pt_clust_5="13000.00000" pt_clust_6="13000.00000" pt_clust_7="13000.00000" pt_clust_8="13000.00000" pt_clust_9="23.38256" pt_clust_10="103.61849"></scales>
<clustering>
<clus scale="   23.383">  2  9  1 -1</clus>
<clus scale="   81.578">  5  6 -1 -1</clus>
<clus scale="   87.399">  7  8 -1 -1</clus>
<clus scale="  119.349">  2  7  1 -1</clus>
<clus scale="  103.618">  1 10  2 -1</clus>
<clus scale="  103.618">  1  5  2 -1</clus>
</clustering>
</event>
<event>
10    4  0.2857708E-005  0.5005785E+03  0.7546771E-02  0.1013628E+00
         21   -1    0    0  501  502  0.00000000000E+00  0.00000000000E+00  0.11750388463E+04  0.11750388463E+04  0.00000000000E+00 0. -1.
          2   -1    0    0  503    0 -0.00000000000E+00 -0.00000000000E+00 -0.62690072206E+03  0.62690072206E+03  0.00000000000E+00 0. -1.
         24    2    1    2    0    0 -0.17233603188E+02  0.75583749515E+02  0.13442346446E+03  0.17451629379E+03  0.79852167975E+02 0.  0.
         23    2    1    2    0    0 -0.13094392347E+03  0.31588149976E+03  0.57372220724E+03  0.67406298006E+03  0.90974155856E+02 0.  0.
        -13    1    3    3    0    0 -0.26170914661E+02  0.10247286040E+02  0.91774850225E+02  0.95982012790E+02  0.00000000000E+00 0.  1.
         14    1    3    3    0    0  0.89373114725E+01  0.65336463475E+02  0.42648614238E+02  0.78534281000E+02  0.00000000000E+00 0. -1.
        -13    1    4    4    0    0  0.11958677216E+02  0.30690686889E+02  0.35612127050E+02  0.48509296176E+02  0.00000000000E+00 0.  1.
         13    1    4    4    0    0 -0.14290260068E+03  0.28519081287E+03  0.53811008019E+03  0.62555368389E+03  0.00000000000E+00 0. -1.
         21    1    1    2  503  502  0.31585445190E+02  0.17217002870E+03 -0.31227771173E+03  0.35799096130E+03  0.00000000000E+00 0. -1.
          1    1    1    2  501    0  0.11659208147E+03 -0.56363527797E+03  0.15227016432E+03  0.59536933325E+03  0.00000000000E+00 0. -1.
<scales pt_clust_5="13000.00000" pt_clust_6="13000.00000" pt_clust_7="13000.00000" pt_clust_8="13000.00000" pt_clust_9="175.04331" pt_clust_10="455.15289"></scales>
<clustering>
<clus scale="   79.852">  5  6 -1 -1</clus>
<clus scale="   90.974">  7  8 -1 -1</clus>
<clus scale="   91.922">  5  7 -1 -1</clus>
<clus scale="  175.043">  2  9  1 -1</clus>
<clus scale="  455.153">  1 10  2 -1</clus>
<clus scale="  455.153">  1  5  2 -1</clus>
</clustering>
</event>
<event>
10    4  0.2857708E-005  0.1083152E+03  0.7546771E-02  0.1268397E+00
          2   -1    0    0  503    0 -0.00000000000E+00  0.00000000000E+00  0.23766246380E+03  0.23766246380E+03  0.00000000000E+00 0. -1.
         21   -1    0    0  501  502  0.00000000000E+00 -0.00000000000E+00 -0.13356280919E+03  0.13356280919E+03  0.00000000000E+00 0.  1.
         24    2    1    2    0    0  0.44984934994E+02  0.57648698366E+01  0.13794382540E+03  0.16546044947E+03  0.79320761930E+02 0.  0.
         23    2    1    2    0    0 -0.48742756021E+02 -0.40739021254E+02 -0.10726945356E+02  0.11132947548E+03  0.90794606866E+02 0.  0.
        -13    1    3    3    0    0 -0.12745312005E+02  0.15598245367E+02  0.58628000400E+01  0.20979052909E+02  0.00000000000E+00 0.  1.
         14    1    3    3    0    0  0.57730246999E+02 -0.98333755307E+01  0.13208102536E+03  0.14448139656E+03  0.00000000000E+00 0. -1.
        -13    1    4    4    0    0 -0.70851671661E+02 -0.45055623626E+02 -0.21031605631E+02  0.86558055852E+02  0.00000000000E+00 0.  1.
         13    1    4    4    0    0  0.22108915640E+02  0.43166023720E+01  0.10304660276E+02  0.24771419624E+02  0.00000000000E+00 0. -1.
         21    1    1    2  503  502  0.24939295461E+02 -0.40310039966E+01  0.20252716392E+02  0.32378850699E+02  0.00000000000E+00 0. -1.
          1    1    1    2  501    0 -0.21181474434E+02  0.39005155414E+02 -0.43369941826E+02  0.62056497340E+02  0.00000000000E+00 0. -1.
<scales pt_clust_5="13000.00000" pt_clust_6="13000.00000" pt_clust_7="13000.00000" pt_clust_8="13000.00000" pt_clust_9="25.26297" pt_clust_10="43.71151"></scales>
<clustering>
<clus scale="   25.263">  1  9  2 -1</clus>
<clus scale="   43.712">  2 10  1 -1</clus>
<clus scale="   79.321">  5  6 -1 -1</clus>
<clus scale="   90.795">  7  8 -1 -1</clus>
<clus scale="   98.895">  1  5  2 -1</clus>
<clus scale="   43.712">  2  5  1 -1</clus>
</clustering>
</event>
<event>
10    4  0.2857708E-005  0.1075672E+03  0.7546771E-02  0.1267164E+00
          2   -1    0    0  503    0 -0.00000000000E+00  0.00000000000E+00  0.18223605357E+03  0.18223605357E+03  0.00000000000E+00 0. -1.
         21   -1    0    0  501  502  0.00000000000E+00 -0.00000000000E+00 -0.13731033557E+03  0.13731033557E+03  0.00000000000E+00 0.  1.
         24    2    1    2    0    0 -0.28503643291E+02  0.33739003577E+02  0.52951991857E+02  0.11158268783E+03  0.87726875802E+02 0.  0.
         23    2    1    2    0    0  0.17058300445E+02 -0.53299419630E+02 -0.66269805078E+02  0.12686560140E+03  0.92581747695E+02 0.  0.
        -11    1    3    3    0    0 -0.35064074057E+01  0.20539295370E+02 -0.22705205927E+02  0.30816942149E+02  0.00000000000E+00 0.  1.
         12    1    3    3    0    0 -0.24997235885E+02  0.13199708207E+02  0.75657197783E+02  0.80765745679E+02  0.00000000000E+00 0. -1.
        -11    1    4    4    0    0 -0.14460148138E+02 -0.66587344708E+02 -0.62484989824E+02  0.92451848617E+02  0.00000000000E+00 0.  1.
         11    1    4    4    0    0  0.31518448584E+02  0.13287925078E+02 -0.37848152535E+01  0.34413752781E+02  0.00000000000E+00 0. -1.
         21    1    1    2  503  502 -0.18492605498E+02  0.14555686889E+02  0.37712760751E+02  0.44453310365E+02  0.00000000000E+00 0. -1.
          1    1    1    2  501    0  0.29937948343E+02  0.50047291633E+01  0.20530770467E+02  0.36644789547E+02  0.00000000000E+00 0. -1.
<scales pt_clust_5="13000.00000" pt_clust_6="13000.00000" pt_clust_7="13000.00000" pt_clust_8="13000.00000" pt_clust_9="23.53390" pt_clust_10="27.37335"></scales>
<clustering>
<clus scale="   23.534">  1  9  2 -1</clus>
<clus scale="   27.373">  2 10  1 -1</clus>
<clus scale="   87.727">  5  6 -1 -1</clus>
<clus scale="   92.582">  7  8 -1 -1</clus>
<clus scale="  103.418">  1  5  2 -1</clus>
<clus scale="   27.373">  2  5  1 -1</clus>
</clustering>
</event>
<event>
10    4  0.2857708E-005  0.2901566E+03  0.7546771E-02  0.1090637E+00
         -1   -1    0    0    0  501 -0.00000000000E+00  0.00000000000E+00  0.10479234851E+04  0.10479234851E+04  0.00000000000E+00 0.  1.
         21   -1    0    0  503  502  0.00000000000E+00 -0.00000000000E+00 -0.16212999072E+03  0.16212999072E+03  0.00000000000E+00 0.  1.
         24    2    1    2    0    0  0.22087539051E+02  0.26794491928E+03  0.62499940366E+03  0.68534840436E+03  0.82436894848E+02 0.  0.
         23    2    1    2    0    0 -0.90987312396E+02 -0.24240564690E+03  0.87483255493E+02  0.28830141619E+03  0.91788876887E+02 0.  0.
        -13    1    3    3    0    0 -0.95209704966E+01  0.23564568459E+03  0.53319256551E+03  0.58302131133E+03  0.00000000000E+00 0.  1.
         14    1    3    3    0    0  0.31608509547E+02  0.32299234687E+02  0.91806838149E+02  0.10232709303E+03  0.00000000000E+00 0. -1.
        -13    1    4    4    0    0 -0.41846472018E+02 -0.21372815038E+03  0.67781685949E+02  0.22809034709E+03  0.00000000000E+00 0.  1.
         13    1    4    4    0    0 -0.49140840378E+02 -0.28677496517E+02  0.19701569544E+02  0.60211069099E+02  0.00000000000E+00 0. -1.
         21    1    1    2  503  501 -0.21325037941E+02  0.27065933449E+02  0.10766755221E+03  0.11304699817E+03  0.00000000000E+00 0. -1.
         -2    1    1    2    0  502  0.90224811286E+02 -0.52605205828E+02  0.65643283053E+02  0.12335665714E+03  0.00000000000E+00 0.  1.
<scales pt_clust_5="13000.00000" pt_clust_6="13000.00000" pt_clust_7="13000.00000" pt_clust_8="13000.00000" pt_clust_9="34.45754" pt_clust_10="101.21762"></scales>
<clustering>
<clus scale="   34.458">  1  9  2 -1</clus>
<clus scale="   82.437">  5  6 -1 -1</clus>
<clus scale="   91.789">  7  8 -1 -1</clus>
<clus scale="  101.218">  2 10  1 -1</clus>
<clus scale="  287.335">  1  5  2 -1</clus>
<clus scale="  101.218">  2  5  1 -1</clus>
</clustering>
</event>
<event>
10    4  0.2857708E-005  0.1847956E+03  0.7546771E-02  0.1184594E+00
          2   -1    0    0  503    0 -0.00000000000E+00  0.00000000000E+00  0.17637664449E+04  0.17637664449E+04  0.00000000000E+00 0. -1.
         21   -1    0    0  501  502  0.00000000000E+00 -0.00000000000E+00 -0.79805780536E+02  0.79805780536E+02  0.00000000000E+00 0. -1.
         23    2    1    2    0    0 -0.66492296181E+02 -0.14360686355E+02  0.24028092590E+03  0.26596760802E+03  0.91522622362E+02 0.  0.
         24    2    1    2    0    0  0.10295123438E+03  0.13385647181E+03  0.86036965917E+02  0.20607744017E+03  0.80926140029E+02 0.  0.
        -13    1    4    4    0    0  0.41067670854E+02  0.12084950492E+02 -0.31828549849E+01  0.42927033250E+02  0.00000000000E+00 0.  1.
         14    1    4    4    0    0  0.61883563522E+02  0.12177152132E+03  0.89219820902E+02  0.16315040692E+03  0.00000000000E+00 0. -1.
        -11    1    3    3    0    0  0.17987387353E+02  0.15758446869E+02  0.41657052133E+02  0.48033162960E+02  0.00000000000E+00 0. -1.
         11    1    3    3    0    0 -0.84479683534E+02 -0.30119133224E+02  0.19862387376E+03  0.21793444506E+03  0.00000000000E+00 0.  1.
         21    1    1    2  503  502 -0.32911131293E+01  0.35598172329E+02  0.22108365926E+03  0.22395545471E+03  0.00000000000E+00 0. -1.
          1    1    1    2  501    0 -0.33167825067E+02 -0.15509395778E+03  0.11365591133E+04  0.11475717225E+04  0.00000000000E+00 0. -1.
<scales pt_clust_5="13000.00000" pt_clust_6="13000.00000" pt_clust_7="13000.00000" pt_clust_8="13000.00000" pt_clust_9="35.74998" pt_clust_10="166.13368"></scales>
<clustering>
<clus scale="   35.750">  1  9  2 -1</clus>
<clus scale="   80.926">  5  6 -1 -1</clus>
<clus scale="   91.523">  7  8 -1 -1</clus>
<clus scale="  113.764">  1  7  2 -1</clus>
<clus scale="  166.134">  2 10  1 -1</clus>
<clus scale="  166.134">  2  5  1 -1</clus>
</clustering>
</event>
<event>
10    4  0.2857708E-005  0.9397905E+02  0.7546771E-02  0.1297997E+00
          2   -1    0    0  503    0 -0.00000000000E+00  0.00000000000E+00  0.16864501090E+03  0.16864501090E+03  0.00000000000E+00 0. -1.
         21   -1    0    0  501  502  0.00000000000E+00 -0.00000000000E+00 -0.27962786399E+03  0.27962786399E+03  0.00000000000E+00 0.  1.
         23    2    1    2    0    0  0.46987987059E+00  0.56577599647E+02  0.10384097677E+03  0.14926635696E+03  0.91083759776E+02 0.  0.
         24    2    1    2    0    0  0.36560956185E+01 -0.24265552553E+01 -0.17551813473E+03  0.19432449062E+03  0.83283472725E+02 0.  0.
        -13    1    4    4    0    0 -0.27744298108E+02 -0.17704788110E+02 -0.14255140050E+03  0.14630142646E+03  0.00000000000E+00 0.  1.
         14    1    4    4    0    0  0.31400393726E+02  0.15278232855E+02 -0.32966734228E+02  0.48023064156E+02  0.00000000000E+00 0. -1.
        -11    1    3    3    0    0  0.16848070226E+02 -0.21182921279E+02  0.34106117850E+02  0.43540795802E+02  0.00000000000E+00 0.  1.
         11    1    3    3    0    0 -0.16378190355E+02  0.77760520925E+02  0.69734858917E+02  0.10572556116E+03  0.00000000000E+00 0. -1.
         21    1    1    2  503  502 -0.42800371806E+01 -0.33659182239E+02  0.21734011654E+02  0.40294249340E+02  0.00000000000E+00 0. -1.
          1    1    1    2  501    0  0.15406169155E+00 -0.20491862152E+02 -0.61039706773E+02  0.64387777974E+02  0.00000000000E+00 0. -1.
<scales pt_clust_5="13000.00000" pt_clust_6="13000.00000" pt_clust_7="13000.00000" pt_clust_8="13000.00000" pt_clust_9="34.79927" pt_clust_10="20.49244"></scales>
<clustering>
<clus scale="   20.492">  2 10  1 -1</clus>
<clus scale="   34.799">  1  9  2 -1</clus>
<clus scale="   83.283">  5  6 -1 -1</clus>
<clus scale="   86.440">  2  5  1 -1</clus>
<clus scale="   91.084">  7  8 -1 -1</clus>
<clus scale="   20.492">  2  5  1 -1</clus>
</clustering>
</event>
<event>
10    4  0.2857708E-005  0.2500458E+03  0.7546771E-02  0.1147157E+00
         21   -1    0    0  501  502  0.00000000000E+00  0.00000000000E+00  0.29254314741E+03  0.29254314741E+03  0.00000000000E+00 0. -1.
          2   -1    0    0  503    0 -0.00000000000E+00 -0.00000000000E+00 -0.10554141830E+04  0.10554141830E+04  0.00000000000E+00 0. -1.
         23    2    1    2    0    0  0.57457153778E+02  0.14008799598E+02  0.14541097506E+03  0.18178744391E+03  0.91677435117E+02 0.  0.
         24    2    1    2    0    0 -0.23858797783E+03 -0.11533243321E+03 -0.78003819161E+03  0.82805804011E+03  0.83634586701E+02 0.  0.
        -13    1    4    4    0    0 -0.16681217361E+03 -0.12026616378E+03 -0.59418424319E+03  0.62876479407E+03  0.00000000000E+00 0.  1.
         14    1    4    4    0    0 -0.71775804216E+02  0.49337305649E+01 -0.18585394843E+03  0.19929324603E+03  0.00000000000E+00 0. -1.
        -13    1    3    3    0    0 -0.19869044846E+02  0.59854536446E+01  0.71751820129E+02  0.74692223760E+02  0.00000000000E+00 0.  1.
         13    1    3    3    0    0  0.77326198625E+02  0.80233459538E+01  0.73659154927E+02  0.10709522015E+03  0.00000000000E+00 0. -1.
         21    1    1    2  503  502 -0.29694167570E+02  0.71065155707E+01 -0.10109057032E+03  0.10560089753E+03  0.00000000000E+00 0. -1.
          1    1    1    2  501    0  0.21082499162E+03  0.94217118042E+02 -0.27153248708E+02  0.23251094886E+03  0.00000000000E+00 0. -1.
<scales pt_clust_5="13000.00000" pt_clust_6="13000.00000" pt_clust_7="13000.00000" pt_clust_8="13000.00000" pt_clust_9="30.53271" pt_clust_10="235.64416"></scales>
<clustering>
<clus scale="   30.533">  2  9  1 -1</clus>
<clus scale="   83.635">  5  6 -1 -1</clus>
<clus scale="   91.677">  7  8 -1 -1</clus>
<clus scale="  108.818">  2  7  1 -1</clus>
<clus scale="  235.644">  1 10  2 -1</clus>
<clus scale="  235.644">  1  5  2 -1</clus>
</clustering>
</event>
<event>
10    4  0.2857708E-005  0.1378140E+03  0.7546771E-02  0.1219136E+00
          2   -1    0    0  503    0 -0.00000000000E+00  0.00000000000E+00  0.98228638798E+03  0.98228638798E+03  0.00000000000E+00 0. -1.
         21   -1    0    0  501  502  0.00000000000E+00 -0.00000000000E+00 -0.32946112640E+02  0.32946112640E+02  0.00000000000E+00 0.  1.
         24    2    1    2    0    0  0.72463929100E+02  0.90931403558E+02  0.47715795600E+03  0.49751525352E+03  0.79512082931E+02 0.  0.
         23    2    1    2    0    0 -0.34203723533E+02 -0.72685375083E+02  0.23118968504E+03  0.26146434800E+03  0.91988457711E+02 0.  0.
        -11    1    3    3    0    0  0.77763676808E+02  0.38952087413E+02  0.33336749114E+03  0.34452625255E+03  0.00000000000E+00 0.  1.
         12    1    3    3    0    0 -0.52997477075E+01  0.51979316145E+02  0.14379046486E+03  0.15298900097E+03  0.00000000000E+00 0. -1.
        -13    1    4    4    0    0 -0.27359318753E+01 -0.72332194691E+02  0.21333933918E+03  0.22528449870E+03  0.00000000000E+00 0. -1.
         13    1    4    4    0    0 -0.31467791657E+02 -0.35318039264E+00  0.17850345858E+02  0.36179849301E+02  0.00000000000E+00 0.  1.
         21    1    1    2  503  502 -0.13626668315E+02  0.27162879291E+02  0.13451248146E+03  0.13790255897E+03  0.00000000000E+00 0.  1.
          1    1    1    2  501    0 -0.24633537253E+02 -0.45408907766E+02  0.10648015283E+03  0.11835034013E+03  0.00000000000E+00 0. -1.
<scales pt_clust_5="13000.00000" pt_clust_6="13000.00000" pt_clust_7="13000.00000" pt_clust_8="13000.00000" pt_clust_9="30.38928" pt_clust_10="49.46229"></scales>
<clustering>
<clus scale="   30.389">  1  9  2 -1</clus>
<clus scale="   49.462">  2 10  1 -1</clus>
<clus scale="   79.512">  5  6 -1 -1</clus>
<clus scale="   91.988">  7  8 -1 -1</clus>
<clus scale="  129.819">  1  5  2 -1</clus>
<clus scale="   49.462">  2  5  1 -1</clus>
</clustering>
</event>
<event>
10    4  0.2857708E-005  0.1482379E+03  0.7546771E-02  0.1202704E+00
         -3   -1    0    0    0  501 -0.00000000000E+00  0.00000000000E+00  0.45771617407E+02  0.45771617407E+02  0.00000000000E+00 0.  1.
         21   -1    0    0  503  502  0.00000000000E+00 -0.00000000000E+00 -0.10273461426E+04  0.10273461426E+04  0.00000000000E+00 0.  1.
         24    2    1    2    0    0  0.75055021258E+02  0.90405612424E+02 -0.22325054516E+03  0.26245405353E+03  0.72352562700E+02 0.  0.
         23    2    1    2    0    0 -0.10934341442E+03 -0.81762848272E+02 -0.73768006347E+03  0.75372056036E+03  0.72675040007E+02 0.  0.
        -13    1    3    3    0    0  0.58720766696E+02  0.99505969991E+02 -0.16618406812E+03  0.20240234930E+03  0.00000000000E+00 0.  1.
         14    1    3    3    0    0  0.16334254562E+02 -0.91003575670E+01 -0.57066477034E+02  0.60051704230E+02  0.00000000000E+00 0. -1.
        -13    1    4    4    0    0 -0.40212555455E+02  0.82689676315E+01 -0.20842413453E+03  0.21242891822E+03  0.00000000000E+00 0. -1.
         13    1    4    4    0    0 -0.69130858966E+02 -0.90031815904E+02 -0.52925592894E+03  0.54129164214E+03  0.00000000000E+00 0.  1.
         21    1    1    2  503  501  0.17161623045E+02  0.10929974181E+02  0.44227081693E+01  0.20821767184E+02  0.00000000000E+00 0. -1.
         -4    1    1    2    0  502  0.17126770117E+02 -0.19572738334E+02 -0.25066624766E+02  0.36121378956E+02  0.00000000000E+00 0.  1.
<scales pt_clust_5="13000.00000" pt_clust_6="13000.00000" pt_clust_7="13000.00000" pt_clust_8="13000.00000" pt_clust_9="20.34664" pt_clust_10="26.73211"></scales>
<clustering>
<clus scale="   20.347">  1  9  2 -1</clus>
<clus scale="   26.732">  2 10  1 -1</clus>
<clus scale="   72.353">  5  6 -1 -1</clus>
<clus scale="   72.675">  7  8 -1 -1</clus>
<clus scale="  148.080">  1  5  2 -1</clus>
<clus scale="   26.732">  2  5  1 -1</clus>
</clustering>
</event>
<event>
10    4  0.2857708E-005  0.2803394E+03  0.7546771E-02  0.1095743E+00
         21   -1    0    0  503  502  0.00000000000E+00  0.00000000000E+00  0.55250056063E+02  0.55250056063E+02  0.00000000000E+00 0.  1.
          2   -1    0    0  502    0 -0.00000000000E+00 -0.00000000000E+00 -0.23267524896E+04  0.23267524896E+04  0.00000000000E+00 0. -1.
         23    2    1    2    0    0  0.12421745263E+03 -0.15854507132E+03 -0.53724239382E+03  0.58093876956E+03  0.91071120987E+02 0.  0.
         24    2    1    2    0    0 -0.16466817357E+03  0.28624019500E+03 -0.13076148857E+04  0.13513776894E+04  0.85533113295E+02 0.  0.
        -13    1    4    4    0    0 -0.64420599149E+02  0.19532538806E+03 -0.77138853619E+03  0.79833720606E+03  0.00000000000E+00 0.  1.
         14    1    4    4    0    0 -0.10024757442E+03  0.90914806947E+02 -0.53622634950E+03  0.55304048333E+03  0.00000000000E+00 0. -1.
        -11    1    3    3    0    0  0.38446535470E+02 -0.11095061488E+02 -0.18865355258E+03  0.19285071786E+03  0.00000000000E+00 0. -1.
         11    1    3    3    0    0  0.85770917158E+02 -0.14745000984E+03 -0.34858884124E+03  0.38808805170E+03  0.00000000000E+00 0.  1.
         21    1    1    2  503  501  0.29770728637E+02 -0.26440596237E+02 -0.13687644123E+03  0.14255020722E+03  0.00000000000E+00 0. -1.
          1    1    1    2  501    0  0.10679992307E+02 -0.10125452744E+03 -0.28976871277E+03  0.30713587948E+03  0.00000000000E+00 0. -1.
<scales pt_clust_5="13000.00000" pt_clust_6="13000.00000" pt_clust_7="13000.00000" pt_clust_8="13000.00000" pt_clust_9="29.65779" pt_clust_10="142.09676"></scales>
<clustering>
<clus scale="   29.658">  9 10 -1 -1</clus>
<clus scale="   85.533">  5  6 -1 -1</clus>
<clus scale="   91.071">  7  8 -1 -1</clus>
<clus scale="  142.097">  1  9  2 -1</clus>
<clus scale="  278.590">  1  5  2 -1</clus>
<clus scale="  142.097">  1  5  2 -1</clus>
</clustering>
</event>
<event>
10    4  0.2857708E-005  0.1120100E+03  0.7546771E-02  0.1260316E+00
         -1   -1    0    0    0  501 -0.00000000000E+00  0.00000000000E+00  0.53075832412E+03  0.53075832412E+03  0.00000000000E+00 0.  1.
         21   -1    0    0  503  502  0.00000000000E+00 -0.00000000000E+00 -0.70358124879E+02  0.70358124879E+02  0.00000000000E+00 0. -1.
         24    2    1    2    0    0  0.37995601469E+02 -0.41942627762E+02  0.90554204973E+02  0.13525430067E+03  0.83010915285E+02 0.  0.
         23    2    1    2    0    0 -0.83218055136E+02 -0.90502408049E+01  0.65336568341E+02  0.14053494071E+03  0.92054607921E+02 0.  0.
        -13    1    3    3    0    0  0.68034764702E-01 -0.26508721699E+02  0.90504317595E+02  0.94306672395E+02  0.00000000000E+00 0.  1.
         14    1    3    3    0    0  0.37927566704E+02 -0.15433906063E+02  0.49887377840E-01  0.40947628273E+02  0.00000000000E+00 0. -1.
        -13    1    4    4    0    0 -0.50789231282E+02 -0.45486452071E+00  0.86899510386E+02  0.10065424890E+03  0.00000000000E+00 0.  1.
         13    1    4    4    0    0 -0.32428823854E+02 -0.85953762842E+01 -0.21562942045E+02  0.39880691815E+02  0.00000000000E+00 0. -1.
         21    1    1    2  503  501  0.70239382095E+02  0.33309136995E+02  0.16365417620E+03  0.18117880337E+03  0.00000000000E+00 0. -1.
         -2    1    1    2    0  502 -0.25016928428E+02  0.17683731571E+02  0.14085524972E+03  0.14414840424E+03  0.00000000000E+00 0.  1.
<scales pt_clust_5="13000.00000" pt_clust_6="13000.00000" pt_clust_7="13000.00000" pt_clust_8="13000.00000" pt_clust_9="75.89731" pt_clust_10="30.63596"></scales>
<clustering>
<clus scale="   30.636">  2 10  1 -1</clus>
<clus scale="   75.897">  1  9  2 -1</clus>
<clus scale="   83.011">  5  6 -1 -1</clus>
<clus scale="   92.055">  7  8 -1 -1</clus>
<clus scale="  104.704">  1  5  2 -1</clus>
<clus scale="   30.636">  2  5  1 -1</clus>
</clustering>
</event>
<event>
10    4  0.2857708E-005  0.3108139E+03  0.7546771E-02  0.1128102E+00
          2   -1    0    0  503    0 -0.00000000000E+00  0.00000000000E+00  0.21355808231E+04  0.21355808231E+04  0.00000000000E+00 0. -1.
         21   -1    0    0  501  502  0.00000000000E+00 -0.00000000000E+00 -0.97665174444E+02  0.97665174444E+02  0.00000000000E+00 0. -1.
         24    2    1    2    0    0  0.23547552496E+02  0.34632310334E+02  0.98131480156E+02  0.13308222711E+03  0.79543746632E+02 0.  0.
         23    2    1    2    0    0 -0.21335012089E+03 -0.14506583407E+03  0.53298990325E+03  0.59874359075E+03  0.88618735058E+02 0.  0.
        -11    1    3    3    0    0  0.32456636092E+02 -0.16476785246E+02  0.28396789960E+02  0.46165954539E+02  0.00000000000E+00 0.  1.
         12    1    3    3    0    0 -0.89090835956E+01  0.51109095580E+02  0.69734690196E+02  0.86916272575E+02  0.00000000000E+00 0. -1.
        -13    1    4    4    0    0 -0.20751979752E+03 -0.12291941677E+03  0.51792509628E+03  0.57133182542E+03  0.00000000000E+00 0. -1.
         13    1    4    4    0    0 -0.58303233730E+01 -0.22146417293E+02  0.15064806969E+02  0.27411765331E+02  0.00000000000E+00 0.  1.
         21    1    1    2  503  502 -0.14651750535E+03 -0.29263649421E+02  0.56096872275E+03  0.58052532111E+03  0.00000000000E+00 0. -1.
          1    1    1    2  501    0  0.33632007374E+03  0.13969717315E+03  0.84582554254E+03  0.92089485860E+03  0.00000000000E+00 0. -1.
<scales pt_clust_5="13000.00000" pt_clust_6="13000.00000" pt_clust_7="13000.00000" pt_clust_8="13000.00000" pt_clust_9="141.21391" pt_clust_10="297.91292"></scales>
<clustering>
<clus scale="   79.544">  5  6 -1 -1</clus>
<clus scale="   88.619">  7  8 -1 -1</clus>
<clus scale="   89.895">  1  5  2 -1</clus>
<clus scale="  141.214">  1  9  2 -1</clus>
<clus scale="  297.913">  2 10  1 -1</clus>
<clus scale="  297.913">  2  5  1 -1</clus>
</clustering>
</event>
<event>
10    4  0.2857708E-005  0.9933108E+02  0.7546771E-02  0.1289413E+00
          2   -1    0    0  502    0 -0.00000000000E+00  0.00000000000E+00  0.88625955107E+03  0.88625955107E+03  0.00000000000E+00 0. -1.
         21   -1    0    0  503  502  0.00000000000E+00 -0.00000000000E+00 -0.42124343347E+02  0.42124343347E+02  0.00000000000E+00 0. -1.
         23    2    1    2    0    0  0.27471007889E+02 -0.16627818128E+01  0.23319411410E+03  0.25307271525E+03  0.94386880632E+02 0.  0.
         24    2    1    2    0    0  0.77175450587E+02 -0.71906763149E+02  0.27566554816E+03  0.30584055312E+03  0.80126878975E+02 0.  0.
        -13    1    4    4    0    0  0.27546211897E+02 -0.44589409091E+02  0.47454460491E+02  0.70703147125E+02  0.00000000000E+00 0.  1.
         14    1    4    4    0    0  0.49629238691E+02 -0.27317354058E+02  0.22821108767E+03  0.23513740600E+03  0.00000000000E+00 0. -1.
        -13    1    3    3    0    0  0.31227967340E+02  0.43139978281E+02  0.12071321178E+03  0.13193908885E+03  0.00000000000E+00 0.  1.
         13    1    3    3    0    0 -0.37569594514E+01 -0.44802760093E+02  0.11248090233E+03  0.12113362640E+03  0.00000000000E+00 0. -1.
         21    1    1    2  503  501 -0.17274690837E+02  0.62910008206E+02  0.11426004873E+03  0.13157295623E+03  0.00000000000E+00 0.  1.
          1    1    1    2  501    0 -0.87371767640E+02  0.10659536756E+02  0.22101549674E+03  0.23789766981E+03  0.00000000000E+00 0. -1.
<scales pt_clust_5="13000.00000" pt_clust_6="13000.00000" pt_clust_7="13000.00000" pt_clust_8="13000.00000" pt_clust_9="65.23867" pt_clust_10="95.48722"></scales>
<clustering>
<clus scale="   65.239">  2  9  1 -1</clus>
<clus scale="   80.127">  5  6 -1 -1</clus>
<clus scale="   94.387">  7  8 -1 -1</clus>
<clus scale="   95.487">  2 10  1 -1</clus>
<clus scale="   85.896">  2  5  1 -1</clus>
<clus scale="   65.239">  2  5  1 -1</clus>
</clustering>
</event>
<event>
10    4  0.2857708E-005  0.1657101E+03  0.7546771E-02  0.1211814E+00
         21   -1    0    0  501  502  0.00000000000E+00  0.00000000000E+00  0.17491644828E+03  0.17491644828E+03  0.00000000000E+00 0.  1.
          2   -1    0    0  503    0 -0.00000000000E+00 -0.00000000000E+00 -0.43845121096E+03  0.43845121096E+03  0.00000000000E+00 0. -1.
         23    2    1    2    0    0 -0.27927778321E+02 -0.12367322435E+02 -0.15434988925E+03  0.17767760360E+03  0.82538058155E+02 0.  0.
         24    2    1    2    0    0  0.10384750776E+03  0.10880188951E+03 -0.79882037648E+02  0.18814862588E+03  0.79978806271E+02 0.  0.
        -13    1    4    4    0    0  0.10605614706E+03  0.61367173980E+02 -0.52232976684E+02  0.13319955039E+03  0.00000000000E+00 0.  1.
         14    1    4    4    0    0 -0.22086392956E+01  0.47434715530E+02 -0.27649060965E+02  0.54949075490E+02  0.00000000000E+00 0. -1.
        -13    1    3    3    0    0  0.20715822746E+02  0.35535422938E+01 -0.10319586440E+03  0.10531457356E+03  0.00000000000E+00 0. -1.
         13    1    3    3    0    0 -0.48643601067E+02 -0.15920864729E+02 -0.51154024851E+02  0.72363030043E+02  0.00000000000E+00 0.  1.
         21    1    1    2  503  502 -0.98832142804E+02 -0.97513374401E+02 -0.10137224365E+03  0.17190980897E+03  0.00000000000E+00 0.  1.
          1    1    1    2  501    0  0.22912413363E+02  0.10788073265E+01  0.72069407866E+02  0.75631620778E+02  0.00000000000E+00 0. -1.
<scales pt_clust_5="13000.00000" pt_clust_6="13000.00000" pt_clust_7="13000.00000" pt_clust_8="13000.00000" pt_clust_9="145.13180" pt_clust_10="22.93780"></scales>
<clustering>
<clus scale="   22.938">  1 10  2 -1</clus>
<clus scale="   79.979">  5  6 -1 -1</clus>
<clus scale="   82.538">  7  8 -1 -1</clus>
<clus scale="   87.188">  2  7  1 -1</clus>
<clus scale="  145.132">  1  9  2 -1</clus>
<clus scale="   22.938">  1  5  2 -1</clus>
</clustering>
</event>
<event>
10    4  0.2857708E-005  0.2279505E+03  0.7546771E-02  0.1164983E+00
         21   -1    0    0  503  502  0.00000000000E+00  0.00000000000E+00  0.21043696426E+04  0.21043696426E+04  0.00000000000E+00 0.  1.
         -1   -1    0    0    0  501 -0.00000000000E+00 -0.00000000000E+00 -0.59030049156E+02  0.59030049156E+02  0.00000000000E+00 0.  1.
         24    2    1    2    0    0  0.43629705409E+02  0.32907268250E+02  0.36356893375E+03  0.37632778649E+03  0.80335507713E+02 0.  0.
         23    2    1    2    0    0 -0.17285704427E+03 -0.13474343191E+03  0.30768736703E+03  0.38908113656E+03  0.93151837317E+02 0.  0.
        -11    1    3    3    0    0 -0.19740750403E+02  0.23882708637E+02  0.15852991611E+03  0.16152961122E+03  0.00000000000E+00 0.  1.
         12    1    3    3    0    0  0.63370455812E+02  0.90245596128E+01  0.20503901764E+03  0.21479817527E+03  0.00000000000E+00 0. -1.
        -11    1    4    4    0    0 -0.41807183669E+02 -0.72472542594E+01  0.11901309701E+03  0.12635062548E+03  0.00000000000E+00 0. -1.
         11    1    4    4    0    0 -0.13104986060E+03 -0.12749617765E+03  0.18867427002E+03  0.26273051107E+03  0.00000000000E+00 0.  1.
         21    1    1    2  503  501 -0.33777219061E+02 -0.23741742058E+02  0.11461427691E+03  0.12182365663E+03  0.00000000000E+00 0.  1.
         -2    1    1    2    0  502  0.16300455792E+03  0.12557790572E+03  0.12594690158E+04  0.12761671121E+04  0.00000000000E+00 0.  1.
<scales pt_clust_5="13000.00000" pt_clust_6="13000.00000" pt_clust_7="13000.00000" pt_clust_8="13000.00000" pt_clust_9="41.28645" pt_clust_10="208.04851"></scales>
<clustering>
<clus scale="   41.286">  2  9  1 -1</clus>
<clus scale="   80.336">  5  6 -1 -1</clus>
<clus scale="   93.152">  7  8 -1 -1</clus>
<clus scale="   94.571">  2  5  1 -1</clus>
<clus scale="  208.049">  1 10  2 -1</clus>
<clus scale="  208.049">  1  5  2 -1</clus>
</clustering>
</event>
<event>
10    4  0.2857708E-005  0.1204078E+03  0.7546771E-02  0.1246014E+00
          2   -1    0    0  503    0 -0.00000000000E+00  0.00000000000E+00  0.45188461153E+03  0.45188461153E+03  0.00000000000E+00 0. -1.
         21   -1    0    0  501  502  0.00000000000E+00 -0.00000000000E+00 -0.11064986284E+03  0.11064986284E+03  0.00000000000E+00 0.  1.
         23    2    1    2    0    0 -0.21758873535E+02  0.76444376586E+02  0.83839106319E+02  0.14734507496E+03  0.91457006718E+02 0.  0.
         24    2    1    2    0    0  0.66589260274E+00 -0.90777441597E+02 -0.28034730097E+02  0.12424764825E+03  0.80065877180E+02 0.  0.
        -13    1    4    4    0    0 -0.21080166018E+02 -0.91639966337E+02 -0.75098622060E+01  0.94332681823E+02  0.00000000000E+00 0.  1.
         14    1    4    4    0    0  0.21746058621E+02  0.86252473961E+00 -0.20524867891E+02  0.29914966429E+02  0.00000000000E+00 0. -1.
        -11    1    3    3    0    0  0.22404946321E+02  0.57363169950E+02  0.77239515272E+02  0.98784905759E+02  0.00000000000E+00 0.  1.
         11    1    3    3    0    0 -0.44163819856E+02  0.19081206637E+02  0.65995910470E+01  0.48560169202E+02  0.00000000000E+00 0. -1.
         21    1    1    2  503  502  0.24530597336E+02 -0.13370691986E+02  0.12329621704E+03  0.12642184442E+03  0.00000000000E+00 0.  1.
          1    1    1    2  501    0 -0.34376164041E+01  0.27703756997E+02  0.16213415543E+03  0.16451990674E+03  0.00000000000E+00 0. -1.
<scales pt_clust_5="13000.00000" pt_clust_6="13000.00000" pt_clust_7="13000.00000" pt_clust_8="13000.00000" pt_clust_9="27.70738" pt_clust_10="27.91623"></scales>
<clustering>
<clus scale="   27.916">  2 10  1 -1</clus>
<clus scale="   27.707">  1  9  2 -1</clus>
<clus scale="   80.066">  5  6 -1 -1</clus>
<clus scale="   91.457">  7  8 -1 -1</clus>
<clus scale="  112.001">  2  5  1 -1</clus>
<clus scale="   27.916">  2  5  1 -1</clus>
</clustering>
</event>
<event>
10    4  0.2857708E-005  0.1381467E+03  0.7546771E-02  0.1239822E+00
         21   -1    0    0  501  502  0.00000000000E+00  0.00000000000E+00  0.13168781817E+03  0.13168781817E+03  0.00000000000E+00 0. -1.
          2   -1    0    0  503    0 -0.00000000000E+00 -0.00000000000E+00 -0.50673596086E+03  0.50673596086E+03  0.00000000000E+00 0. -1.
         23    2    1    2    0    0  0.10432910427E+02 -0.10801282541E+03 -0.13577502422E+03  0.19813865099E+03  0.95123350136E+02 0.  0.
         24    2    1    2    0    0  0.91272755798E+01  0.73862219981E+01  0.28627931563E+02  0.85817697440E+02  0.80045332739E+02 0.  0.
        -13    1    4    4    0    0  0.16199578633E+02  0.40187847871E+02  0.29211787938E+02  0.52257229346E+02  0.00000000000E+00 0.  1.
         14    1    4    4    0    0 -0.70723030531E+01 -0.32801625873E+02 -0.58385637471E+00  0.33560468094E+02  0.00000000000E+00 0. -1.
        -11    1    3    3    0    0 -0.16726595241E+02 -0.10089277105E+03 -0.13587376120E+03  0.17006119257E+03  0.00000000000E+00 0. -1.
         11    1    3    3    0    0  0.27159505667E+02 -0.71200543671E+01  0.98736976376E-01  0.28077458419E+02  0.00000000000E+00 0.  1.
         21    1    1    2  503  502 -0.40916981666E+02  0.90379577316E+02 -0.29919755466E+03  0.31521713802E+03  0.00000000000E+00 0. -1.
          1    1    1    2  501    0  0.21356795660E+02  0.10247026099E+02  0.31296504632E+02  0.39250292571E+02  0.00000000000E+00 0. -1.
<scales pt_clust_5="13000.00000" pt_clust_6="13000.00000" pt_clust_7="13000.00000" pt_clust_8="13000.00000" pt_clust_9="100.18008" pt_clust_10="23.68785"></scales>
<clustering>
<clus scale="   23.688">  1 10  2 -1</clus>
<clus scale="   80.045">  5  6 -1 -1</clus>
<clus scale="   84.048">  1  5  2 -1</clus>
<clus scale="   95.123">  7  8 -1 -1</clus>
<clus scale="  100.180">  2  9  1 -1</clus>
<clus scale="   23.688">  1  5  2 -1</clus>
</clustering>
</event>
<event>
10    4  0.2857708E-005  0.1020051E+03  0.7546771E-02  0.1279265E+00
          4   -1    0    0  503    0 -0.00000000000E+00  0.00000000000E+00  0.36544060251E+03  0.36544060251E+03  0.00000000000E+00 0. -1.
         21   -1    0    0  501  502  0.00000000000E+00 -0.00000000000E+00 -0.91973368292E+02  0.91973368292E+02  0.00000000000E+00 0. -1.
         24    2    1    2    0    0 -0.39936668317E+02 -0.21093861142E+02  0.16945066665E+03  0.19940401686E+03  0.94913355540E+02 0.  0.
         23    2    1    2    0    0 -0.16438274172E+02  0.58579276433E+02  0.90671297450E+02  0.14056693079E+03  0.88521349775E+02 0.  0.
        -11    1    3    3    0    0  0.15041576025E+02 -0.23218129425E+02  0.79433579305E+01  0.28782416134E+02  0.00000000000E+00 0.  1.
         12    1    3    3    0    0 -0.54978244342E+02  0.21242682823E+01  0.16150730871E+03  0.17062160073E+03  0.00000000000E+00 0. -1.
        -11    1    4    4    0    0 -0.39418696151E+02  0.39284221631E+02  0.12786145412E+02  0.57101393940E+02  0.00000000000E+00 0. -1.
         11    1    4    4    0    0  0.22980421979E+02  0.19295054802E+02  0.77885152038E+02  0.83465536852E+02  0.00000000000E+00 0.  1.
         21    1    1    2  503  502 -0.79135637777E+01  0.18580941915E+02  0.24124949131E+02  0.31462502518E+02  0.00000000000E+00 0. -1.
          3    1    1    2  501    0  0.64288506267E+02 -0.56066357205E+02 -0.10779679009E+02  0.85980520630E+02  0.00000000000E+00 0. -1.
<scales pt_clust_5="13000.00000" pt_clust_6="13000.00000" pt_clust_7="13000.00000" pt_clust_8="13000.00000" pt_clust_9="20.19594" pt_clust_10="83.28370"></scales>
<clustering>
<clus scale="   20.196">  1  9  2 -1</clus>
<clus scale="   83.284">  2 10  1 -1</clus>
<clus scale="   88.521">  7  8 -1 -1</clus>
<clus scale="   94.913">  5  6 -1 -1</clus>
<clus scale="   96.086">  2  7  1 -1</clus>
<clus scale="   83.284">  2  5  1 -1</clus>
</clustering>
</event>
<event>
10    4  0.2857708E-005  0.1307151E+03  0.7546771E-02  0.1228451E+00
         21   -1    0    0  501  502  0.00000000000E+00  0.00000000000E+00  0.60713201579E+03  0.60713201579E+03  0.00000000000E+00 0. -1.
          2   -1    0    0  503    0 -0.00000000000E+00 -0.00000000000E+00 -0.59417693502E+03  0.59417693502E+03  0.00000000000E+00 0. -1.
         24    2    1    2    0    0 -0.12064272442E+03  0.75873889561E+02 -0.33367471256E+03  0.37207269993E+03  0.82387900529E+02 0.  0.
         23    2    1    2    0    0 -0.31458453394E+02 -0.35215221821E+02  0.17488600405E+03  0.20247713989E+03  0.90455135989E+02 0.  0.
        -13    1    3    3    0    0  0.10725733073E+02  0.18016384055E+02 -0.47147888907E+02  0.51599950317E+02  0.00000000000E+00 0.  1.
         14    1    3    3    0    0 -0.13136845749E+03  0.57857505507E+02 -0.28652682366E+03  0.32047274961E+03  0.00000000000E+00 0. -1.
        -13    1    4    4    0    0 -0.42461081480E+02 -0.58791196914E+02  0.10252846923E+03  0.12558437514E+03  0.00000000000E+00 0.  1.
         13    1    4    4    0    0  0.11002628086E+02  0.23575975093E+02  0.72357534816E+02  0.76892764751E+02  0.00000000000E+00 0. -1.
         21    1    1    2  503  502  0.70210080800E+02  0.12478219239E+02 -0.21571272407E+03  0.22719405962E+03  0.00000000000E+00 0. -1.
          1    1    1    2  501    0  0.81891097014E+02 -0.53136886980E+02  0.38745651336E+03  0.39956505137E+03  0.00000000000E+00 0. -1.
<scales pt_clust_5="13000.00000" pt_clust_6="13000.00000" pt_clust_7="13000.00000" pt_clust_8="13000.00000" pt_clust_9="71.31032" pt_clust_10="98.46962"></scales>
<clustering>
<clus scale="   71.310">  2  9  1 -1</clus>
<clus scale="   82.388">  5  6 -1 -1</clus>
<clus scale="   90.455">  7  8 -1 -1</clus>
<clus scale="   98.470">  1 10  2 -1</clus>
<clus scale="  125.268">  2  5  1 -1</clus>
<clus scale="   98.470">  1  5  2 -1</clus>
</clustering>
</event>
<event>
10    4  0.2857708E-005  0.1243125E+03  0.7546771E-02  0.1239374E+00
          2   -1    0    0  503    0 -0.00000000000E+00  0.00000000000E+00  0.10666926147E+04  0.10666926147E+04  0.00000000000E+00 0. -1.
         21   -1    0    0  501  502  0.00000000000E+00 -0.00000000000E+00 -0.35023319317E+02  0.35023319317E+02  0.00000000000E+00 0.  1.
         24    2    1    2    0    0  0.52176704404E+02 -0.44196962271E+02  0.62622270194E+03  0.63507340459E+03  0.80545495431E+02 0.  0.
         23    2    1    2    0    0 -0.35804685768E+02  0.62150532521E+02  0.16505707564E+03  0.20194186714E+03  0.91607943276E+02 0.  0.
        -11    1    3    3    0    0  0.62330869521E+02 -0.21146448513E+01  0.36953307153E+03  0.37475898918E+03  0.00000000000E+00 0.  1.
         12    1    3    3    0    0 -0.10154165117E+02 -0.42082317420E+02  0.25668963041E+03  0.26031441540E+03  0.00000000000E+00 0. -1.
        -13    1    4    4    0    0 -0.23360270513E+01  0.47694170418E+02  0.15767181904E+03  0.16474402397E+03  0.00000000000E+00 0. -1.
         13    1    4    4    0    0 -0.33468658717E+02  0.14456362103E+02  0.73852565949E+01  0.37197843170E+02  0.00000000000E+00 0.  1.
         21    1    1    2  503  502  0.16043825703E+02 -0.30115140335E+02  0.22366107641E+03  0.22624898479E+03  0.00000000000E+00 0.  1.
          1    1    1    2  501    0 -0.32415844339E+02  0.12161570085E+02  0.16728441418E+02  0.38451677512E+02  0.00000000000E+00 0. -1.
<scales pt_clust_5="13000.00000" pt_clust_6="13000.00000" pt_clust_7="13000.00000" pt_clust_8="13000.00000" pt_clust_9="34.12222" pt_clust_10="33.79111"></scales>
<clustering>
<clus scale="   34.122">  1  9  2 -1</clus>
<clus scale="   33.791">  2 10  1 -1</clus>
<clus scale="   80.545">  5  6 -1 -1</clus>
<clus scale="   91.608">  7  8 -1 -1</clus>
<clus scale="  116.401">  1  5  2 -1</clus>
<clus scale="   33.791">  2  5  1 -1</clus>
</clustering>
</event>
<event>
10    4  0.2857708E-005  0.1110451E+03  0.7546771E-02  0.1261803E+00
         21   -1    0    0  503  502  0.00000000000E+00  0.00000000000E+00  0.50678861480E+03  0.50678861480E+03  0.00000000000E+00 0. -1.
         -3   -1    0    0    0  501 -0.00000000000E+00 -0.00000000000E+00 -0.77113711176E+02  0.77113711176E+02  0.00000000000E+00 0.  1.
         24    2    1    2    0    0 -0.40811931990E+02 -0.38616427852E+02 -0.33495861434E+01  0.98168606682E+02  0.80430176660E+02 0.  0.
         23    2    1    2    0    0  0.13627434693E+02  0.37917972131E+02  0.23216653650E+03  0.25185723511E+03  0.88922925175E+02 0.  0.
        -13    1    3    3    0    0  0.13563723978E+01 -0.51637169868E+02 -0.12388202924E+02  0.53119719782E+02  0.00000000000E+00 0.  1.
         14    1    3    3    0    0 -0.42168304388E+02  0.13020742015E+02  0.90386167809E+01  0.45048886900E+02  0.00000000000E+00 0. -1.
        -13    1    4    4    0    0  0.14746061815E+02 -0.25577288905E+02  0.41780570971E+02  0.51159164940E+02  0.00000000000E+00 0.  1.
         13    1    4    4    0    0 -0.11186271217E+01  0.63495261036E+02  0.19038596553E+03  0.20069807017E+03  0.00000000000E+00 0. -1.
         21    1    1    2  503  501 -0.25115865878E+02 -0.12179769802E+02  0.21479595220E+01  0.27995843287E+02  0.00000000000E+00 0.  1.
         -4    1    1    2    0  502  0.52300363176E+02  0.12878225523E+02  0.19870999374E+03  0.20588064089E+03  0.00000000000E+00 0.  1.
<scales pt_clust_5="13000.00000" pt_clust_6="13000.00000" pt_clust_7="13000.00000" pt_clust_8="13000.00000" pt_clust_9="27.91332" pt_clust_10="52.33877"></scales>
<clustering>
<clus scale="   27.913">  2  9  1 -1</clus>
<clus scale="   52.339">  1 10  2 -1</clus>
<clus scale="   80.430">  5  6 -1 -1</clus>
<clus scale="   88.923">  7  8 -1 -1</clus>
<clus scale="  104.368">  2  5  1 -1</clus>
<clus scale="   52.339">  1  5  2 -1</clus>
</clustering>
</event>
<event>
10    4  0.2857708E-005  0.1017441E+03  0.7546771E-02  0.1281939E+00
          2   -1    0    0  503    0 -0.00000000000E+00  0.00000000000E+00  0.20640907640E+03  0.20640907640E+03  0.00000000000E+00 0. -1.
         21   -1    0    0  501  502  0.00000000000E+00 -0.00000000000E+00 -0.19545799478E+03  0.19545799478E+03  0.00000000000E+00 0. -1.
         23    2    1    2    0    0 -0.11820591980E+02  0.45706171820E+02  0.14268833237E+03  0.17619739006E+03  0.91960749958E+02 0.  0.
         24    2    1    2    0    0  0.15445251271E+02 -0.68647917923E+01 -0.57632483053E+02  0.10090143733E+03  0.81079687954E+02 0.  0.
        -13    1    4    4    0    0  0.45820598926E+02 -0.66506058155E+01 -0.15229893322E+02  0.48741229921E+02  0.00000000000E+00 0.  1.
         14    1    4    4    0    0 -0.30375347655E+02 -0.21418597681E+00 -0.42402589731E+02  0.52160207406E+02  0.00000000000E+00 0. -1.
        -11    1    3    3    0    0  0.25719289867E+02  0.58339859654E+02  0.88828745878E+02  0.10934151631E+03  0.00000000000E+00 0.  1.
         11    1    3    3    0    0 -0.37539881847E+02 -0.12633687834E+02  0.53859586488E+02  0.66855873744E+02  0.00000000000E+00 0. -1.
         21    1    1    2  503  502 -0.28455161099E+02 -0.73256258330E+01  0.10442840222E+02  0.31183551736E+02  0.00000000000E+00 0.  1.
          1    1    1    2  501    0  0.24830501807E+02 -0.31515754195E+02 -0.84547607914E+02  0.93584692052E+02  0.00000000000E+00 0. -1.
<scales pt_clust_5="13000.00000" pt_clust_6="13000.00000" pt_clust_7="13000.00000" pt_clust_8="13000.00000" pt_clust_9="29.38301" pt_clust_10="39.83900"></scales>
<clustering>
<clus scale="   29.383">  1  9  2 -1</clus>
<clus scale="   39.839">  2 10  1 -1</clus>
<clus scale="   81.080">  5  6 -1 -1</clus>
<clus scale="   91.961">  7  8 -1 -1</clus>
<clus scale="   92.027">  2  5  1 -1</clus>
<clus scale="   39.839">  2  5  1 -1</clus>
</clustering>
</event>
<event>
10    4  0.2857708E-005  0.1641818E+03  0.7546771E-02  0.1206582E+00
          4   -1    0    0  503    0 -0.00000000000E+00  0.00000000000E+00  0.44418328330E+03  0.44418328330E+03  0.00000000000E+00 0. -1.
         21   -1    0    0  501  502  0.00000000000E+00 -0.00000000000E+00 -0.40965573009E+03  0.40965573009E+03  0.00000000000E+00 0. -1.
         24    2    1    2    0    0  0.46112904277E+02 -0.72899743831E+01  0.32307941347E+03  0.33616075090E+03  0.80275770755E+02 0.  0.
         23    2    1    2    0    0  0.80246447265E+02  0.33276102798E+02 -0.73476876826E+02  0.15307894548E+03  0.10240859733E+03 0.  0.
        -11    1    3    3    0    0  0.44701307685E+02 -0.33682548817E+02  0.13365433083E+03  0.14490065960E+03  0.00000000000E+00 0.  1.
         12    1    3    3    0    0  0.14115965921E+01  0.26392574433E+02  0.18942508264E+03  0.19126009130E+03  0.00000000000E+00 0. -1.
        -13    1    4    4    0    0  0.10364900027E+03  0.27785194389E+02 -0.71526421006E+02  0.12896185942E+03  0.00000000000E+00 0. -1.
         13    1    4    4    0    0 -0.23402553003E+02  0.54909084084E+01 -0.19504558202E+01  0.24117086062E+02  0.00000000000E+00 0.  1.
         21    1    1    2  503  502  0.12685421180E+01  0.52546946294E+02  0.41835054486E+02  0.67178586974E+02  0.00000000000E+00 0. -1.
          3    1    1    2  501    0 -0.12762789366E+03 -0.78533074709E+02 -0.25691003793E+03  0.29742073003E+03  0.00000000000E+00 0. -1.
<scales pt_clust_5="13000.00000" pt_clust_6="13000.00000" pt_clust_7="13000.00000" pt_clust_8="13000.00000" pt_clust_9="52.56226" pt_clust_10="128.32825"></scales>
<clustering>
<clus scale="   52.562">  1  9  2 -1</clus>
<clus scale="   80.276">  5  6 -1 -1</clus>
<clus scale="  100.257">  1  5  2 -1</clus>
<clus scale="  102.409">  7  8 -1 -1</clus>
<clus scale="  128.328">  2 10  1 -1</clus>
<clus scale="  128.328">  2  5  1 -1</clus>
</clustering>
</event>
<event>
10    4  0.2857708E-005  0.1456775E+03  0.7546771E-02  0.1207916E+00
         -1   -1    0    0    0  501 -0.00000000000E+00  0.00000000000E+00  0.29189395803E+03  0.29189395803E+03  0.00000000000E+00 0.  1.
         21   -1    0    0  503  502  0.00000000000E+00 -0.00000000000E+00 -0.15476243962E+03  0.15476243962E+03  0.00000000000E+00 0. -1.
         24    2    1    2    0    0 -0.62188279272E+02  0.73050243004E+02  0.79221836424E+02  0.14814522107E+03  0.80418822906E+02 0.  0.
         23    2    1    2    0    0  0.98442485933E+02 -0.75629905935E+02 -0.49685844774E+02  0.16160598597E+03  0.90757951845E+02 0.  0.
        -13    1    3    3    0    0 -0.76812587571E+02  0.59409178345E+02  0.83057796332E+02  0.12778192991E+03  0.00000000000E+00 0.  1.
         14    1    3    3    0    0  0.14624308299E+02  0.13641064660E+02 -0.38359599081E+01  0.20363291156E+02  0.00000000000E+00 0. -1.
        -13    1    4    4    0    0  0.39529959846E+02 -0.37785947530E+02  0.24210848957E+02  0.59804354051E+02  0.00000000000E+00 0.  1.
         13    1    4    4    0    0  0.58912526087E+02 -0.37843958405E+02 -0.73896693732E+02  0.10180163192E+03  0.00000000000E+00 0. -1.
         21    1    1    2  503  501 -0.12299660847E+02  0.38970198744E+02  0.57030134693E+02  0.70159777011E+02  0.00000000000E+00 0.  1.
         -2    1    1    2    0  502 -0.23954545814E+02 -0.36390535813E+02  0.50565392067E+02  0.66745413602E+02  0.00000000000E+00 0.  1.
<scales pt_clust_5="13000.00000" pt_clust_6="13000.00000" pt_clust_7="13000.00000" pt_clust_8="13000.00000" pt_clust_9="40.86512" pt_clust_10="37.82872"></scales>
<clustering>
<clus scale="   40.865">  1  9  2 -1</clus>
<clus scale="   37.829">  2 10  1 -1</clus>
<clus scale="   80.419">  5  6 -1 -1</clus>
<clus scale="   90.758">  7  8 -1 -1</clus>
<clus scale="  139.471">  1  5  2 -1</clus>
<clus scale="   37.829">  2  5  1 -1</clus>
</clustering>
</event>
<event>
10    4  0.2857708E-005  0.1048290E+03  0.7546771E-02  0.1280280E+00
          4   -1    0    0  503    0 -0.00000000000E+00  0.00000000000E+00  0.12993246526E+03  0.12993246526E+03  0.00000000000E+00 0. -1.
         21   -1    0    0  501  502  0.00000000000E+00 -0.00000000000E+00 -0.22032820626E+03  0.22032820626E+03  0.00000000000E+00 0. -1.
         23    2    1    2    0    0 -0.10400936509E+02  0.27025651885E+02 -0.41750474146E+02  0.11183771595E+03  0.99629349476E+02 0.  0.
         24    2    1    2    0    0 -0.66838824135E+02 -0.60961657030E+01 -0.79842081976E+02  0.13174288788E+03  0.80478809665E+02 0.  0.
        -11    1    4    4    0    0 -0.13528774795E+02 -0.28591863648E+02  0.17925094182E+01  0.31681785056E+02  0.00000000000E+00 0.  1.
         12    1    4    4    0    0 -0.53310049341E+02  0.22495697945E+02 -0.81634591394E+02  0.10006110283E+03  0.00000000000E+00 0. -1.
        -13    1    3    3    0    0 -0.36388244668E+02 -0.99376451035E+01 -0.53208947191E+02  0.65223103280E+02  0.00000000000E+00 0. -1.
         13    1    3    3    0    0  0.25987308159E+02  0.36963296988E+02  0.11458473046E+02  0.46614612668E+02  0.00000000000E+00 0.  1.
         21    1    1    2  503  502  0.27022404817E+02  0.10998312777E+02  0.36739905541E+02  0.46914751466E+02  0.00000000000E+00 0. -1.
          3    1    1    2  501    0  0.50217355828E+02 -0.31927798958E+02 -0.55430904169E+01  0.59765316230E+02  0.00000000000E+00 0. -1.
<scales pt_clust_5="13000.00000" pt_clust_6="13000.00000" pt_clust_7="13000.00000" pt_clust_8="13000.00000" pt_clust_9="29.17487" pt_clust_10="65.12134"></scales>
<clustering>
<clus scale="   29.175">  1  9  2 -1</clus>
<clus scale="   65.121">  2 10  1 -1</clus>
<clus scale="   80.479">  5  6 -1 -1</clus>
<clus scale="   86.833">  2  5  1 -1</clus>
<clus scale="   99.629">  7  8 -1 -1</clus>
<clus scale="   65.121">  2  5  1 -1</clus>
</clustering>
</event>
<event>
10    4  0.2857708E-005  0.2109636E+03  0.7546771E-02  0.1170303E+00
         21   -1    0    0  501  502  0.00000000000E+00  0.00000000000E+00  0.44083809961E+03  0.44083809961E+03  0.00000000000E+00 0.  1.
          2   -1    0    0  503    0 -0.00000000000E+00 -0.00000000000E+00 -0.47788099654E+03  0.47788099654E+03  0.00000000000E+00 0. -1.
         24    2    1    2    0    0 -0.59666056563E+02  0.34119298744E+02 -0.34464743036E+02  0.11171215166E+03  0.81040862921E+02 0.  0.
         23    2    1    2    0    0  0.13428227656E+03  0.18641813318E+03  0.29086204869E+03  0.38176369185E+03  0.91429398290E+02 0.  0.
        -11    1    3    3    0    0  0.12098623402E+02  0.22386954188E+02 -0.29305595570E+02  0.38811987037E+02  0.00000000000E+00 0.  1.
         12    1    3    3    0    0 -0.71764679965E+02  0.11732344556E+02 -0.51591474662E+01  0.72900164621E+02  0.00000000000E+00 0. -1.
        -11    1    4    4    0    0 -0.10612328402E+02  0.39017990924E+02  0.52527494694E+02  0.66288481871E+02  0.00000000000E+00 0. -1.
         11    1    4    4    0    0  0.14489460496E+03  0.14740014225E+03  0.23833455400E+03  0.31547520998E+03  0.00000000000E+00 0.  1.
         21    1    1    2  503  502 -0.62054844622E+02 -0.17335946750E+03 -0.32034932837E+03  0.36949695655E+03  0.00000000000E+00 0. -1.
          1    1    1    2  501    0 -0.12561375373E+02 -0.47177964418E+02  0.26909125772E+02  0.55746296089E+02  0.00000000000E+00 0. -1.
<scales pt_clust_5="13000.00000" pt_clust_6="13000.00000" pt_clust_7="13000.00000" pt_clust_8="13000.00000" pt_clust_9="190.12179" pt_clust_10="48.82160"></scales>
<clustering>
<clus scale="   48.822">  1 10  2 -1</clus>
<clus scale="   81.041">  5  6 -1 -1</clus>
<clus scale="   91.429">  7  8 -1 -1</clus>
<clus scale="  105.583">  2  5  1 -1</clus>
<clus scale="  190.122">  2  9  1 -1</clus>
<clus scale="   48.822">  1  5  2 -1</clus>
</clustering>
</event>
<event>
10    4  0.2857708E-005  0.1227831E+03  0.7546771E-02  0.1249788E+00
         21   -1    0    0  501  502  0.00000000000E+00  0.00000000000E+00  0.84510703453E+02  0.84510703453E+02  0.00000000000E+00 0. -1.
          2   -1    0    0  503    0 -0.00000000000E+00 -0.00000000000E+00 -0.56852248653E+03  0.56852248653E+03  0.00000000000E+00 0. -1.
         23    2    1    2    0    0 -0.41484779634E+02  0.22826235262E+01 -0.15552260848E+02  0.98414806587E+02  0.87848756546E+02 0.  0.
         24    2    1    2    0    0 -0.24953025064E+02  0.96672065318E+02 -0.30738751189E+03  0.33310699703E+03  0.80653873595E+02 0.  0.
        -13    1    4    4    0    0  0.22664670926E+02  0.40066205815E+02 -0.64754985156E+02  0.79449331395E+02  0.00000000000E+00 0.  1.
         14    1    4    4    0    0 -0.47617695990E+02  0.56605859503E+02 -0.24263252674E+03  0.25365766563E+03  0.00000000000E+00 0. -1.
        -11    1    3    3    0    0  0.23502273548E+02 -0.11130071077E+02 -0.18625981263E+02  0.31986911731E+02  0.00000000000E+00 0.  1.
         11    1    3    3    0    0 -0.64987053182E+02  0.13412694603E+02  0.30737204153E+01  0.66427894856E+02  0.00000000000E+00 0. -1.
         21    1    1    2  503  502 -0.13874867765E+02 -0.45654017931E+02 -0.89602791720E+02  0.10151581942E+03  0.00000000000E+00 0.  1.
          1    1    1    2  501    0  0.80312672464E+02 -0.53300670913E+02 -0.71469218618E+02  0.11999556695E+03  0.00000000000E+00 0. -1.
<scales pt_clust_5="13000.00000" pt_clust_6="13000.00000" pt_clust_7="13000.00000" pt_clust_8="13000.00000" pt_clust_9="47.71584" pt_clust_10="92.57775"></scales>
<clustering>
<clus scale="   47.716">  2  9  1 -1</clus>
<clus scale="   80.654">  5  6 -1 -1</clus>
<clus scale="   87.849">  7  8 -1 -1</clus>
<clus scale="   97.930">  2  7  1 -1</clus>
<clus scale="   92.578">  1 10  2 -1</clus>
<clus scale="   92.578">  1  5  2 -1</clus>
</clustering>
</event>
<event>
10    4  0.2857708E-005  0.1274296E+03  0.7546771E-02  0.1234447E+00
         -1   -1    0    0    0  501 -0.00000000000E+00  0.00000000000E+00  0.43252877129E+03  0.43252877129E+03  0.00000000000E+00 0.  1.
         21   -1    0    0  503  502  0.00000000000E+00 -0.00000000000E+00 -0.11761321255E+03  0.11761321255E+03  0.00000000000E+00 0.  1.
         24    2    1    2    0    0 -0.96149180527E+02  0.31935581617E+02  0.20181585506E+03  0.23964525136E+03  0.80222570742E+02 0.  0.
         23    2    1    2    0    0  0.59501438053E+02 -0.76823044162E+02 -0.93616906933E+01  0.13387938172E+03  0.91617936842E+02 0.  0.
        -13    1    3    3    0    0 -0.10217063403E+03  0.90330307924E+01  0.18134830292E+03  0.20834500492E+03  0.00000000000E+00 0.  1.
         14    1    3    3    0    0  0.60214535031E+01  0.22902550824E+02  0.20467552141E+02  0.31300246440E+02  0.00000000000E+00 0. -1.
        -11    1    4    4    0    0  0.22286680289E+02  0.19696949180E+02  0.20053597332E+01  0.29810860319E+02  0.00000000000E+00 0. -1.
         11    1    4    4    0    0  0.37214757764E+02 -0.96519993342E+02 -0.11367050427E+02  0.10406852140E+03  0.00000000000E+00 0.  1.
         21    1    1    2  503  501  0.24629624569E+02  0.10935681027E+02  0.13562099588E+03  0.13827241970E+03  0.00000000000E+00 0.  1.
         -2    1    1    2    0  502  0.12018117905E+02  0.33951781518E+02 -0.13159601514E+02  0.38344931063E+02  0.00000000000E+00 0.  1.
<scales pt_clust_5="13000.00000" pt_clust_6="13000.00000" pt_clust_7="13000.00000" pt_clust_8="13000.00000" pt_clust_9="26.94824" pt_clust_10="36.81485"></scales>
<clustering>
<clus scale="   26.948">  1  9  2 -1</clus>
<clus scale="   36.815">  2 10  1 -1</clus>
<clus scale="   80.223">  5  6 -1 -1</clus>
<clus scale="   91.618">  7  8 -1 -1</clus>
<clus scale="  119.499">  1  5  2 -1</clus>
<clus scale="   36.815">  2  5  1 -1</clus>
</clustering>
</event>
<event>
10    4  0.2857708E-005  0.2559896E+03  0.7546771E-02  0.1151981E+00
         21   -1    0    0  501  502  0.00000000000E+00  0.00000000000E+00  0.35762839431E+03  0.35762839431E+03  0.00000000000E+00 0.  1.
          2   -1    0    0  503    0 -0.00000000000E+00 -0.00000000000E+00 -0.43108161057E+03  0.43108161057E+03  0.00000000000E+00 0. -1.
         24    2    1    2    0    0 -0.26276361803E+01 -0.44199696371E+02 -0.57904115351E+02  0.10773537086E+03  0.79331619975E+02 0.  0.
         23    2    1    2    0    0 -0.13731987375E+03  0.23692852174E+03 -0.10631653043E+03  0.30781648895E+03  0.91956044338E+02 0.  0.
        -13    1    3    3    0    0 -0.10022384625E+01 -0.49661857954E+02 -0.12120955395E+00  0.49672118026E+02  0.00000000000E+00 0.  1.
         14    1    3    3    0    0 -0.16253977178E+01  0.54621615837E+01 -0.57782905797E+02  0.58063252830E+02  0.00000000000E+00 0. -1.
        -11    1    4    4    0    0 -0.12612656684E+03  0.17068731653E+03 -0.11276230308E+03  0.24032770935E+03  0.00000000000E+00 0.  1.
         11    1    4    4    0    0 -0.11193306907E+02  0.66241205212E+02  0.64457726490E+01  0.67488779604E+02  0.00000000000E+00 0. -1.
         21    1    1    2  503  502  0.21185080875E+02  0.34127467430E+01 -0.82827869926E+02  0.85562319561E+02  0.00000000000E+00 0. -1.
          1    1    1    2  501    0  0.11876242905E+03 -0.19614157211E+03  0.17359529944E+03  0.28759582551E+03  0.00000000000E+00 0. -1.
<scales pt_clust_5="13000.00000" pt_clust_6="13000.00000" pt_clust_7="13000.00000" pt_clust_8="13000.00000" pt_clust_9="21.45820" pt_clust_10="238.90321"></scales>
<clustering>
<clus scale="   21.458">  2  9  1 -1</clus>
<clus scale="   79.332">  5  6 -1 -1</clus>
<clus scale="   90.453">  2  5  1 -1</clus>
<clus scale="   91.956">  7  8 -1 -1</clus>
<clus scale="  238.903">  1 10  2 -1</clus>
<clus scale="  238.903">  1  5  2 -1</clus>
</clustering>
</event>
<event>
10    4  0.2857708E-005  0.1211590E+03  0.7546771E-02  0.1258270E+00
          2   -1    0    0  502    0 -0.00000000000E+00  0.00000000000E+00  0.97837082120E+03  0.97837082120E+03  0.00000000000E+00 0. -1.
         21   -1    0    0  503  502  0.00000000000E+00 -0.00000000000E+00 -0.33973549404E+02  0.33973549404E+02  0.00000000000E+00 0. -1.
         24    2    1    2    0    0 -0.27818060982E+02 -0.12949137047E+02  0.29046015560E+03  0.30296127447E+03  0.80479234390E+02 0.  0.
         23    2    1    2    0    0 -0.42995699651E+02 -0.59395580763E+02  0.13545318509E+03  0.17908148693E+03  0.91357257000E+02 0.  0.
        -11    1    3    3    0    0  0.12152911666E+02  0.18352552104E+02  0.27898822786E+02  0.35536653522E+02  0.00000000000E+00 0.  1.
         12    1    3    3    0    0 -0.39970972648E+02 -0.31301689151E+02  0.26256133281E+03  0.26742462095E+03  0.00000000000E+00 0. -1.
        -13    1    4    4    0    0 -0.35193312473E+02 -0.79131651564E+02  0.13155704487E+03  0.15750442399E+03  0.00000000000E+00 0. -1.
         13    1    4    4    0    0 -0.78023871779E+01  0.19736070801E+02  0.38961402204E+01  0.21577062936E+02  0.00000000000E+00 0.  1.
         21    1    1    2  503  501  0.10315145875E+02  0.42710507583E+02  0.19930152520E+03  0.20408745096E+03  0.00000000000E+00 0. -1.
          1    1    1    2  501    0  0.60498614758E+02  0.29634210227E+02  0.31918240590E+03  0.32621415825E+03  0.00000000000E+00 0. -1.
<scales pt_clust_5="13000.00000" pt_clust_6="13000.00000" pt_clust_7="13000.00000" pt_clust_8="13000.00000" pt_clust_9="37.41114" pt_clust_10="92.08276"></scales>
<clustering>
<clus scale="   37.411">  9 10 -1 -1</clus>
<clus scale="   80.479">  5  6 -1 -1</clus>
<clus scale="   86.130">  1  5  2 -1</clus>
<clus scale="   91.357">  7  8 -1 -1</clus>
<clus scale="   92.083">  2  9  1 -1</clus>
<clus scale="   92.083">  2  5  1 -1</clus>
</clustering>
</event>
<event>
10    4  0.2857708E-005  0.1923668E+03  0.7546771E-02  0.1172784E+00
         21   -1    0    0  501  502  0.00000000000E+00  0.00000000000E+00  0.17144886017E+03  0.17144886017E+03  0.00000000000E+00 0. -1.
          2   -1    0    0  503    0 -0.00000000000E+00 -0.00000000000E+00 -0.85108798834E+03  0.85108798834E+03  0.00000000000E+00 0. -1.
         24    2    1    2    0    0 -0.41188070288E+02  0.97571138798E+02  0.38295681739E+02  0.13836026976E+03  0.80376742576E+02 0.  0.
         23    2    1    2    0    0  0.17026426953E+03 -0.12940857789E+02 -0.58636631235E+03  0.61764003707E+03  0.92175787785E+02 0.  0.
        -11    1    3    3    0    0 -0.25267942825E+02  0.16058782882E+02  0.46071205728E+02  0.54944603370E+02  0.00000000000E+00 0.  1.
         12    1    3    3    0    0 -0.15920127463E+02  0.81512355917E+02 -0.77755239895E+01  0.83415666387E+02  0.00000000000E+00 0. -1.
        -11    1    4    4    0    0  0.97711984668E+00 -0.21086737130E+02 -0.35614498136E+02  0.41400455595E+02  0.00000000000E+00 0.  1.
         11    1    4    4    0    0  0.16928714969E+03  0.81458793411E+01 -0.55075181421E+03  0.57623958147E+03  0.00000000000E+00 0. -1.
         21    1    1    2  503  502  0.28487685832E+02 -0.16555756750E+02 -0.81242951658E+02  0.87670168927E+02  0.00000000000E+00 0. -1.
          1    1    1    2  501    0 -0.15756388508E+03 -0.68074524259E+02 -0.50325545897E+02  0.17886637276E+03  0.00000000000E+00 0. -1.
<scales pt_clust_5="13000.00000" pt_clust_6="13000.00000" pt_clust_7="13000.00000" pt_clust_8="13000.00000" pt_clust_9="32.94907" pt_clust_10="168.84494"></scales>
<clustering>
<clus scale="   32.949">  2  9  1 -1</clus>
<clus scale="   80.377">  5  6 -1 -1</clus>
<clus scale="   92.176">  7  8 -1 -1</clus>
<clus scale="  131.597">  2  5  1 -1</clus>
<clus scale="  168.845">  1 10  2 -1</clus>
<clus scale="  168.845">  1  5  2 -1</clus>
</clustering>
</event>
<event>
10    4  0.2857708E-005  0.1026208E+03  0.7546771E-02  0.1279317E+00
         -3   -1    0    0    0  501 -0.00000000000E+00  0.00000000000E+00  0.48659093141E+03  0.48659093141E+03  0.00000000000E+00 0.  1.
         21   -1    0    0  503  502  0.00000000000E+00 -0.00000000000E+00 -0.49446966337E+02  0.49446966337E+02  0.00000000000E+00 0. -1.
         24    2    1    2    0    0  0.10062138904E+02 -0.46414703343E+02  0.26838354854E+03  0.28437200014E+03  0.81130351945E+02 0.  0.
         23    2    1    2    0    0 -0.37929437601E+02  0.41250391428E+02  0.59032869659E+02  0.12186468804E+03  0.90696667309E+02 0.  0.
        -11    1    3    3    0    0  0.37488472641E+02 -0.47992834265E+02  0.22437656762E+03  0.23249417588E+03  0.00000000000E+00 0.  1.
         12    1    3    3    0    0 -0.27426333737E+02  0.15781309219E+01  0.44006980926E+02  0.51877824257E+02  0.00000000000E+00 0. -1.
        -11    1    4    4    0    0 -0.60084694116E+02  0.53926322352E+02  0.48979911477E+02  0.94431194199E+02  0.00000000000E+00 0.  1.
         11    1    4    4    0    0  0.22155256516E+02 -0.12675930924E+02  0.10052958182E+02  0.27433493840E+02  0.00000000000E+00 0. -1.
         21    1    1    2  503  501 -0.16808957312E+02 -0.12119773536E+02  0.25024920212E+02  0.32491177081E+02  0.00000000000E+00 0. -1.
         -4    1    1    2    0  502  0.44676256008E+02  0.17284085451E+02  0.84702626661E+02  0.97310032495E+02  0.00000000000E+00 0.  1.
<scales pt_clust_5="13000.00000" pt_clust_6="13000.00000" pt_clust_7="13000.00000" pt_clust_8="13000.00000" pt_clust_9="20.72269" pt_clust_10="45.14416"></scales>
<clustering>
<clus scale="   20.723">  2  9  1 -1</clus>
<clus scale="   45.144">  2 10  1 -1</clus>
<clus scale="   81.130">  5  6 -1 -1</clus>
<clus scale="   90.697">  7  8 -1 -1</clus>
<clus scale="   94.272">  1  5  2 -1</clus>
<clus scale="   20.723">  2  5  1 -1</clus>
</clustering>
</event>
<event>
10    4  0.2857708E-005  0.2158676E+03  0.7546771E-02  0.1137712E+00
         21   -1    0    0  501  502  0.00000000000E+00  0.00000000000E+00  0.15522090579E+03  0.15522090579E+03  0.00000000000E+00 0. -1.
          2   -1    0    0  503    0 -0.00000000000E+00 -0.00000000000E+00 -0.10516071295E+04  0.10516071295E+04  0.00000000000E+00 0. -1.
         24    2    1    2    0    0  0.16434939430E+03 -0.40858237326E+02 -0.55478133612E+03  0.58584053832E+03  0.82138215684E+02 0.  0.
         23    2    1    2    0    0 -0.19446859118E+03  0.12948289047E+03  0.39072683271E+01  0.25084212695E+03  0.91228581179E+02 0.  0.
        -13    1    3    3    0    0  0.11145563043E+03  0.13577899070E+02 -0.32514742817E+03  0.34398774243E+03  0.00000000000E+00 0.  1.
         14    1    3    3    0    0  0.52893763875E+02 -0.54436136396E+02 -0.22963390794E+03  0.24185279589E+03  0.00000000000E+00 0. -1.
        -11    1    4    4    0    0 -0.52608802262E+01  0.41493097891E+02 -0.40717202162E+01  0.42023004876E+02  0.00000000000E+00 0.  1.
         11    1    4    4    0    0 -0.18920771096E+03  0.87989792577E+02  0.79789885433E+01  0.20881912207E+03  0.00000000000E+00 0. -1.
         21    1    1    2  503  502  0.36824269265E+02  0.29783346301E+00 -0.16174825766E+03  0.16588735446E+03  0.00000000000E+00 0. -1.
          1    1    1    2  501    0 -0.67050723843E+01 -0.88922486605E+02 -0.18376389830E+03  0.20425801560E+03  0.00000000000E+00 0. -1.
<scales pt_clust_5="13000.00000" pt_clust_6="13000.00000" pt_clust_7="13000.00000" pt_clust_8="13000.00000" pt_clust_9="36.82547" pt_clust_10="88.86758"></scales>
<clustering>
<clus scale="   36.825">  2  9  1 -1</clus>
<clus scale="   82.138">  5  6 -1 -1</clus>
<clus scale="   88.868">  1 10  2 -1</clus>
<clus scale="   91.229">  7  8 -1 -1</clus>
<clus scale="  212.186">  2  5  1 -1</clus>
<clus scale="   88.868">  1  5  2 -1</clus>
</clustering>
</event>
<event>
10    4  0.2857708E-005  0.1215432E+03  0.7546771E-02  0.1243356E+00
         21   -1    0    0  501  502  0.00000000000E+00  0.00000000000E+00  0.11125745272E+03  0.11125745272E+03  0.00000000000E+00 0. -1.
          2   -1    0    0  503    0 -0.00000000000E+00 -0.00000000000E+00 -0.60892378662E+03  0.60892378662E+03  0.00000000000E+00 0. -1.
         24    2    1    2    0    0  0.55571918787E+02  0.18792986057E+02 -0.39083151886E+03  0.40360089889E+03  0.81871820354E+02 0.  0.
         23    2    1    2    0    0 -0.85574218683E+02  0.14449642832E+02 -0.54605562978E+02  0.13707928781E+03  0.90979253451E+02 0.  0.
        -11    1    3    3    0    0  0.16210584596E+02 -0.16337671857E+02 -0.24985338163E+02  0.33970129493E+02  0.00000000000E+00 0.  1.
         12    1    3    3    0    0  0.39361334191E+02  0.35130657914E+02 -0.36584618069E+03  0.36963076939E+03  0.00000000000E+00 0. -1.
        -11    1    4    4    0    0 -0.77696652128E+02  0.41833194909E+02 -0.61750672506E+02  0.10770297815E+03  0.00000000000E+00 0.  1.
         11    1    4    4    0    0 -0.78775665556E+01 -0.27383552077E+02  0.71451095276E+01  0.29376309662E+02  0.00000000000E+00 0. -1.
         21    1    1    2  503  502  0.31086953955E+02 -0.79093453165E+01 -0.11097423921E+03  0.11551726372E+03  0.00000000000E+00 0. -1.
          1    1    1    2  501    0 -0.10846540588E+01 -0.25333283573E+02  0.58744987133E+02  0.63983788918E+02  0.00000000000E+00 0. -1.
<scales pt_clust_5="13000.00000" pt_clust_6="13000.00000" pt_clust_7="13000.00000" pt_clust_8="13000.00000" pt_clust_9="32.33363" pt_clust_10="25.35649"></scales>
<clustering>
<clus scale="   25.356">  1 10  2 -1</clus>
<clus scale="   32.334">  2  9  1 -1</clus>
<clus scale="   81.872">  5  6 -1 -1</clus>
<clus scale="   90.979">  7  8 -1 -1</clus>
<clus scale="  114.885">  2  5  1 -1</clus>
<clus scale="   25.356">  1  5  2 -1</clus>
</clustering>
</event>
<event>
10    4  0.2857708E-005  0.2802288E+03  0.7546771E-02  0.1097852E+00
         21   -1    0    0  501  502  0.00000000000E+00  0.00000000000E+00  0.11452618584E+03  0.11452618584E+03  0.00000000000E+00 0. -1.
          2   -1    0    0  503    0 -0.00000000000E+00 -0.00000000000E+00 -0.16241283853E+04  0.16241283853E+04  0.00000000000E+00 0. -1.
         24    2    1    2    0    0 -0.24709898307E+02 -0.26689923119E+03 -0.93768959384E+03  0.97832760640E+03  0.77571595157E+02 0.  0.
         23    2    1    2    0    0  0.93333050166E+01  0.19361143114E+03 -0.58669494671E+02  0.23638002016E+03  0.12190532178E+03 0.  0.
        -11    1    3    3    0    0 -0.17906441128E+02 -0.89083378111E+02 -0.20322049092E+03  0.22260965123E+03  0.00000000000E+00 0.  1.
         12    1    3    3    0    0 -0.68034571787E+01 -0.17781585308E+03 -0.73446910291E+03  0.75571795517E+03  0.00000000000E+00 0. -1.
        -11    1    4    4    0    0  0.51920679965E+02  0.30834343242E+02 -0.21224605568E+02  0.64007793375E+02  0.00000000000E+00 0.  1.
         11    1    4    4    0    0 -0.42587374948E+02  0.16277708789E+03 -0.37444889103E+02  0.17237222679E+03  0.00000000000E+00 0. -1.
         21    1    1    2  503  502  0.31165911152E+02  0.13653244125E+01 -0.17790678392E+03  0.18062115572E+03  0.00000000000E+00 0.  1.
          1    1    1    2  501    0 -0.15789317861E+02  0.71922475644E+02 -0.33533632701E+03  0.34332578883E+03  0.00000000000E+00 0. -1.
<scales pt_clust_5="13000.00000" pt_clust_6="13000.00000" pt_clust_7="13000.00000" pt_clust_8="13000.00000" pt_clust_9="31.19580" pt_clust_10="72.73798"></scales>
<clustering>
<clus scale="   31.196">  2  9  1 -1</clus>
<clus scale="   72.738">  1 10  2 -1</clus>
<clus scale="   77.572">  5  6 -1 -1</clus>
<clus scale="  121.905">  7  8 -1 -1</clus>
<clus scale="  263.978">  2  5  1 -1</clus>
<clus scale="   72.738">  1  5  2 -1</clus>
</clustering>
</event>
<event>
10    4  0.2857708E-005  0.1152203E+03  0.7546771E-02  0.1257260E+00
         21   -1    0    0  501  502  0.00000000000E+00  0.00000000000E+00  0.10839468711E+03  0.10839468711E+03  0.00000000000E+00 0. -1.
          2   -1    0    0  503    0 -0.00000000000E+00 -0.00000000000E+00 -0.55779513753E+03  0.55779513753E+03  0.00000000000E+00 0. -1.
         23    2    1    2    0    0 -0.36282375447E+02  0.37775587010E+02 -0.41619809434E+02  0.11031318928E+03  0.87711945873E+02 0.  0.
         24    2    1    2    0    0  0.70644103154E+02 -0.52805153610E+02 -0.59569350019E+02  0.13423676390E+03  0.81804815029E+02 0.  0.
        -11    1    4    4    0    0  0.86035994284E+02 -0.29277257401E+02 -0.53549725197E+02  0.10548423191E+03  0.00000000000E+00 0.  1.
         12    1    4    4    0    0 -0.15391891131E+02 -0.23527896208E+02 -0.60196248213E+01  0.28752531985E+02  0.00000000000E+00 0. -1.
        -11    1    3    3    0    0  0.18338350341E+02  0.19163122569E+02 -0.45296994728E+02  0.52491314437E+02  0.00000000000E+00 0.  1.
         11    1    3    3    0    0 -0.54620725788E+02  0.18612464441E+02  0.36771852950E+01  0.57821874839E+02  0.00000000000E+00 0. -1.
         21    1    1    2  503  502 -0.64900185153E+02 -0.97355935600E+02 -0.21437630864E+03  0.24422820053E+03  0.00000000000E+00 0. -1.
          1    1    1    2  501    0  0.30538457446E+02  0.11238550220E+03 -0.13383498233E+03  0.17741167093E+03  0.00000000000E+00 0. -1.
<scales pt_clust_5="13000.00000" pt_clust_6="13000.00000" pt_clust_7="13000.00000" pt_clust_8="13000.00000" pt_clust_9="13000.00000" pt_clust_10="115.22031"></scales>
<clustering>
<clus scale="   81.805">  5  6 -1 -1</clus>
<clus scale="   87.712">  7  8 -1 -1</clus>
<clus scale="  102.161">  2  7  1 -1</clus>
<clus scale="  112.910">  2  5  1 -1</clus>
<clus scale="  115.220">  1 10  2 -1</clus>
<clus scale="  115.220">  1  5  2 -1</clus>
</clustering>
</event>
<event>
10    4  0.2857708E-005  0.1103891E+03  0.7546771E-02  0.1267646E+00
          2   -1    0    0  503    0 -0.00000000000E+00  0.00000000000E+00  0.37200912469E+03  0.37200912469E+03  0.00000000000E+00 0. -1.
         21   -1    0    0  501  502  0.00000000000E+00 -0.00000000000E+00 -0.79176318796E+02  0.79176318796E+02  0.00000000000E+00 0. -1.
         24    2    1    2    0    0  0.27481044311E+02  0.19317526038E+02  0.11892758845E+03  0.14715000972E+03  0.79881033153E+02 0.  0.
         23    2    1    2    0    0 -0.82452476462E+02 -0.31513336955E+02  0.15434705097E+02  0.13270363919E+03  0.97880153509E+02 0.  0.
        -11    1    3    3    0    0  0.49128826001E+02  0.34626978678E+02  0.84480400156E+02  0.10368031253E+03  0.00000000000E+00 0.  1.
         12    1    3    3    0    0 -0.21647781689E+02 -0.15309452639E+02  0.34447188297E+02  0.43469697190E+02  0.00000000000E+00 0. -1.
        -13    1    4    4    0    0 -0.88713914786E+01 -0.43776507194E+02  0.33641260567E+02  0.55917962958E+02  0.00000000000E+00 0.  1.
         13    1    4    4    0    0 -0.73581084983E+02  0.12263170239E+02 -0.18206555470E+02  0.76785676227E+02  0.00000000000E+00 0. -1.
         21    1    1    2  503  502  0.25727163055E+02 -0.90665643679E+01  0.49487713476E+02  0.56507727731E+02  0.00000000000E+00 0. -1.
          1    1    1    2  501    0  0.29244269096E+02  0.21262375285E+02  0.10898279887E+03  0.11482406684E+03  0.00000000000E+00 0. -1.
<scales pt_clust_5="13000.00000" pt_clust_6="13000.00000" pt_clust_7="13000.00000" pt_clust_8="13000.00000" pt_clust_9="27.27800" pt_clust_10="42.32574"></scales>
<clustering>
<clus scale="   27.278">  1  9  2 -1</clus>
<clus scale="   42.326">  2 10  1 -1</clus>
<clus scale="   79.881">  5  6 -1 -1</clus>
<clus scale="   94.796">  1  5  2 -1</clus>
<clus scale="   97.880">  7  8 -1 -1</clus>
<clus scale="   42.326">  2  5  1 -1</clus>
</clustering>
</event>
<event>
10    4  0.2857708E-005  0.1160573E+03  0.7546771E-02  0.1255081E+00
         -3   -1    0    0    0  501 -0.00000000000E+00  0.00000000000E+00  0.45083306677E+02  0.45083306677E+02  0.00000000000E+00 0.  1.
         21   -1    0    0  503  502  0.00000000000E+00 -0.00000000000E+00 -0.67632109640E+03  0.67632109640E+03  0.00000000000E+00 0. -1.
         24    2    1    2    0    0 -0.10661028731E+02 -0.66471426352E+02 -0.13060577064E+03  0.16767546758E+03  0.80778010908E+02 0.  0.
         23    2    1    2    0    0  0.40260012508E+02  0.55749010699E+02 -0.31237354763E+03  0.33377785130E+03  0.95402305822E+02 0.  0.
        -13    1    3    3    0    0  0.33753185880E+02 -0.37919833978E+02 -0.78568620574E+02  0.93542607965E+02  0.00000000000E+00 0.  1.
         14    1    3    3    0    0 -0.44414214611E+02 -0.28551592374E+02 -0.52037150070E+02  0.74132859610E+02  0.00000000000E+00 0. -1.
        -11    1    4    4    0    0 -0.22638040621E+02  0.22669198700E+02 -0.18647017277E+03  0.18920226950E+03  0.00000000000E+00 0. -1.
         11    1    4    4    0    0  0.62898053129E+02  0.33079811999E+02 -0.12590337486E+03  0.14457558179E+03  0.00000000000E+00 0.  1.
         21    1    1    2  503  501 -0.55339838267E+02  0.26889098687E+02 -0.52653059055E+02  0.80980651736E+02  0.00000000000E+00 0. -1.
         -4    1    1    2    0  502  0.25740854490E+02 -0.16166683034E+02 -0.13560541239E+03  0.13897043247E+03  0.00000000000E+00 0.  1.
<scales pt_clust_5="13000.00000" pt_clust_6="13000.00000" pt_clust_7="13000.00000" pt_clust_8="13000.00000" pt_clust_9="57.78232" pt_clust_10="30.39660"></scales>
<clustering>
<clus scale="   30.397">  2 10  1 -1</clus>
<clus scale="   57.782">  1  9  2 -1</clus>
<clus scale="   80.778">  5  6 -1 -1</clus>
<clus scale="   95.402">  7  8 -1 -1</clus>
<clus scale="  104.369">  1  5  2 -1</clus>
<clus scale="   30.397">  2  5  1 -1</clus>
</clustering>
</event>
<event>
10    4  0.2857708E-005  0.1355533E+03  0.7546771E-02  0.1220405E+00
         -3   -1    0    0    0  501 -0.00000000000E+00  0.00000000000E+00  0.16422324091E+04  0.16422324091E+04  0.00000000000E+00 0.  1.
         21   -1    0    0  501  502  0.00000000000E+00 -0.00000000000E+00 -0.37737967305E+02  0.37737967305E+02  0.00000000000E+00 0. -1.
         24    2    1    2    0    0 -0.97913368436E+02  0.36525705082E+02  0.68605664884E+03  0.69914448695E+03  0.84900726501E+02 0.  0.
         23    2    1    2    0    0  0.11474528960E+03  0.82232209885E+02  0.28326825302E+03  0.32879614690E+03  0.89092004246E+02 0.  0.
        -13    1    3    3    0    0 -0.42522139263E+02 -0.17707931972E+02  0.13454550091E+03  0.14221179627E+03  0.00000000000E+00 0.  1.
         14    1    3    3    0    0 -0.55391229173E+02  0.54233637053E+02  0.55151114793E+03  0.55693269068E+03  0.00000000000E+00 0. -1.
        -13    1    4    4    0    0  0.12534783713E+03  0.64469841272E+02  0.21197203086E+03  0.25455958551E+03  0.00000000000E+00 0. -1.
         13    1    4    4    0    0 -0.10602547536E+02  0.17762368613E+02  0.71296222160E+02  0.74236561392E+02  0.00000000000E+00 0.  1.
         21    1    1    2  503  502  0.18087910173E+02 -0.31563606927E+02  0.67849839936E+02  0.76987236319E+02  0.00000000000E+00 0. -1.
         -4    1    1    2    0  503 -0.34919831332E+02 -0.87194308040E+02  0.56731970002E+03  0.57504250626E+03  0.00000000000E+00 0.  1.
<scales pt_clust_5="13000.00000" pt_clust_6="13000.00000" pt_clust_7="13000.00000" pt_clust_8="13000.00000" pt_clust_9="36.37903" pt_clust_10="96.61218"></scales>
<clustering>
<clus scale="   36.379">  2  9  1 -1</clus>
<clus scale="   84.901">  5  6 -1 -1</clus>
<clus scale="   89.092">  7  8 -1 -1</clus>
<clus scale="   96.612">  2 10  1 -1</clus>
<clus scale="  132.836">  1  5  2 -1</clus>
<clus scale="   36.379">  2  5  1 -1</clus>
</clustering>
</event>
<event>
10    4  0.2857708E-005  0.1718589E+03  0.7546771E-02  0.1177086E+00
          2   -1    0    0  503    0 -0.00000000000E+00  0.00000000000E+00  0.22197804206E+03  0.22197804206E+03  0.00000000000E+00 0. -1.
         21   -1    0    0  501  502  0.00000000000E+00 -0.00000000000E+00 -0.61354118852E+03  0.61354118852E+03  0.00000000000E+00 0.  1.
         24    2    1    2    0    0 -0.67809921155E+02  0.10575712871E+03  0.14978804352E+03  0.21211823433E+03  0.82309973117E+02 0.  0.
         23    2    1    2    0    0  0.66108095382E+02 -0.94617288453E+02 -0.31018727584E+03  0.34325889531E+03  0.91037418490E+02 0.  0.
        -13    1    3    3    0    0 -0.36382842368E+02  0.92533474803E+02  0.60132899121E+02  0.11619862622E+03  0.00000000000E+00 0.  1.
         14    1    3    3    0    0 -0.31427078787E+02  0.13223653907E+02  0.89655144401E+02  0.95919608116E+02  0.00000000000E+00 0. -1.
        -11    1    4    4    0    0  0.71108106094E+02 -0.50446575920E+02 -0.26856342980E+03  0.28236064811E+03  0.00000000000E+00 0.  1.
         11    1    4    4    0    0 -0.50000107113E+01 -0.44170712533E+02 -0.41623846041E+02  0.60898247200E+02  0.00000000000E+00 0. -1.
         21    1    1    2  503  502 -0.14834246609E+02  0.23313393537E+02  0.14718060853E+02  0.31307994282E+02  0.00000000000E+00 0. -1.
          1    1    1    2  501    0  0.16536072382E+02 -0.34453233795E+02 -0.24588197499E+03  0.24883410666E+03  0.00000000000E+00 0. -1.
<scales pt_clust_5="13000.00000" pt_clust_6="13000.00000" pt_clust_7="13000.00000" pt_clust_8="13000.00000" pt_clust_9="27.63276" pt_clust_10="38.01252"></scales>
<clustering>
<clus scale="   27.633">  1  9  2 -1</clus>
<clus scale="   38.013">  2 10  1 -1</clus>
<clus scale="   82.310">  5  6 -1 -1</clus>
<clus scale="   91.037">  7  8 -1 -1</clus>
<clus scale="  167.400">  1  5  2 -1</clus>
<clus scale="   38.013">  2  5  1 -1</clus>
</clustering>
</event>
<event>
10    4  0.2857708E-005  0.2576251E+03  0.7546771E-02  0.1108579E+00
         21   -1    0    0  501  502  0.00000000000E+00  0.00000000000E+00  0.43228422121E+03  0.43228422121E+03  0.00000000000E+00 0. -1.
          2   -1    0    0  503    0 -0.00000000000E+00 -0.00000000000E+00 -0.23914288534E+03  0.23914288534E+03  0.00000000000E+00 0. -1.
         24    2    1    2    0    0  0.13776979823E+02 -0.68869860639E+02  0.43455316920E+02  0.12079557594E+03  0.88149553149E+02 0.  0.
         23    2    1    2    0    0 -0.26437982702E+02 -0.15848718245E+03  0.36185031321E+02  0.18764645239E+03  0.89914852347E+02 0.  0.
        -13    1    3    3    0    0  0.25878849674E+02 -0.30487007761E+01 -0.16583352645E+02  0.30887165972E+02  0.00000000000E+00 0.  1.
         14    1    3    3    0    0 -0.12101869851E+02 -0.65821159863E+02  0.60038669566E+02  0.89908409967E+02  0.00000000000E+00 0. -1.
        -13    1    4    4    0    0  0.32035633501E+02 -0.36510649515E+02  0.14180348899E+02  0.50600312615E+02  0.00000000000E+00 0.  1.
         13    1    4    4    0    0 -0.58473616203E+02 -0.12197653294E+03  0.22004682423E+02  0.13704613978E+03  0.00000000000E+00 0. -1.
         21    1    1    2  503  502  0.16965021170E+00  0.15655708280E+03 -0.65788484354E+02  0.16981835481E+03  0.00000000000E+00 0.  1.
          1    1    1    2  501    0  0.12491352667E+02  0.70799960296E+02  0.17928947198E+03  0.19316672341E+03  0.00000000000E+00 0. -1.
<scales pt_clust_5="13000.00000" pt_clust_6="13000.00000" pt_clust_7="13000.00000" pt_clust_8="13000.00000" pt_clust_9="171.54683" pt_clust_10="71.89345"></scales>
<clustering>
<clus scale="   71.893">  1 10  2 -1</clus>
<clus scale="   88.150">  5  6 -1 -1</clus>
<clus scale="   89.915">  7  8 -1 -1</clus>
<clus scale="   96.369">  5  7 -1 -1</clus>
<clus scale="  171.547">  2  9  1 -1</clus>
<clus scale="   71.893">  1  5  2 -1</clus>
</clustering>
</event>
<event>
10    4  0.2857708E-005  0.1982989E+03  0.7546771E-02  0.1162151E+00
         21   -1    0    0  503  502  0.00000000000E+00  0.00000000000E+00  0.15343550021E+03  0.15343550021E+03  0.00000000000E+00 0.  1.
         -1   -1    0    0    0  501 -0.00000000000E+00 -0.00000000000E+00 -0.78111684601E+03  0.78111684601E+03  0.00000000000E+00 0.  1.
         24    2    1    2    0    0  0.13115625116E+03  0.41202450045E+02 -0.32919966094E+03  0.36548022880E+03  0.79396327208E+02 0.  0.
         23    2    1    2    0    0  0.35650160864E+02 -0.17676499406E+03 -0.12022020602E+03  0.23388379906E+03  0.87931430289E+02 0.  0.
        -11    1    3    3    0    0  0.10340083818E+03  0.40522935865E+02 -0.31558894365E+03  0.33455974507E+03  0.00000000000E+00 0.  1.
         12    1    3    3    0    0  0.27755412973E+02  0.67951417923E+00 -0.13610717288E+02  0.30920483727E+02  0.00000000000E+00 0. -1.
        -13    1    4    4    0    0  0.45479290268E+02 -0.56053602548E+02 -0.76355634994E+02  0.10507404626E+03  0.00000000000E+00 0.  1.
         13    1    4    4    0    0 -0.98291294033E+01 -0.12071139151E+03 -0.43864571024E+02  0.12880975280E+03  0.00000000000E+00 0. -1.
         21    1    1    2  503  501 -0.16949600457E+02  0.13152706302E+02 -0.13528523983E+03  0.13697583274E+03  0.00000000000E+00 0. -1.
         -2    1    1    2    0  502 -0.14985681156E+03  0.12240983771E+03 -0.42976239012E+02  0.19821248563E+03  0.00000000000E+00 0.  1.
<scales pt_clust_5="13000.00000" pt_clust_6="13000.00000" pt_clust_7="13000.00000" pt_clust_8="13000.00000" pt_clust_9="21.45420" pt_clust_10="177.73725"></scales>
<clustering>
<clus scale="   21.454">  2  9  1 -1</clus>
<clus scale="   79.396">  5  6 -1 -1</clus>
<clus scale="   87.931">  7  8 -1 -1</clus>
<clus scale="  153.383">  2  5  1 -1</clus>
<clus scale="  177.737">  1 10  2 -1</clus>
<clus scale="  177.737">  1  5  2 -1</clus>
</clustering>
</event>
<event>
10    4  0.2857708E-005  0.1765979E+03  0.7546771E-02  0.1189724E+00
          2   -1    0    0  503    0 -0.00000000000E+00  0.00000000000E+00  0.82504581604E+02  0.82504581604E+02  0.00000000000E+00 0. -1.
         21   -1    0    0  501  502  0.00000000000E+00 -0.00000000000E+00 -0.78181071495E+03  0.78181071495E+03  0.00000000000E+00 0.  1.
         23    2    1    2    0    0  0.68879221680E+02  0.17128910572E+02 -0.26453032205E+03  0.28822402228E+03  0.89772206035E+02 0.  0.
         24    2    1    2    0    0 -0.20625936650E+03 -0.22537312231E+02 -0.28830813220E+03  0.36337103339E+03  0.76590287235E+02 0.  0.
        -11    1    4    4    0    0 -0.16537136585E+03 -0.33999073306E+02 -0.26690131352E+03  0.31581630228E+03  0.00000000000E+00 0.  1.
         12    1    4    4    0    0 -0.40888000656E+02  0.11461761075E+02 -0.21406818683E+02  0.47554731108E+02  0.00000000000E+00 0. -1.
        -13    1    3    3    0    0  0.14624134802E+02 -0.14648839664E+02 -0.51481151173E+01  0.21329718973E+02  0.00000000000E+00 0. -1.
         13    1    3    3    0    0  0.54255086878E+02  0.31777750236E+02 -0.25938220693E+03  0.26689430330E+03  0.00000000000E+00 0.  1.
         21    1    1    2  503  502  0.13477288355E+02  0.24878336986E+02 -0.34229778056E+02  0.44409983769E+02  0.00000000000E+00 0.  1.
          1    1    1    2  501    0  0.12390285647E+03 -0.19469935327E+02 -0.11223790104E+03  0.16831025712E+03  0.00000000000E+00 0. -1.
<scales pt_clust_5="13000.00000" pt_clust_6="13000.00000" pt_clust_7="13000.00000" pt_clust_8="13000.00000" pt_clust_9="28.29433" pt_clust_10="159.12497"></scales>
<clustering>
<clus scale="   28.294">  1  9  2 -1</clus>
<clus scale="   76.590">  5  6 -1 -1</clus>
<clus scale="   89.772">  7  8 -1 -1</clus>
<clus scale="  116.319">  1  7  2 -1</clus>
<clus scale="  159.125">  2 10  1 -1</clus>
<clus scale="  159.125">  2  5  1 -1</clus>
</clustering>
</event>
<event>
10    4  0.2857708E-005  0.1034965E+03  0.7546771E-02  0.1278029E+00
         21   -1    0    0  501  502  0.00000000000E+00  0.00000000000E+00  0.24908764158E+03  0.24908764158E+03  0.00000000000E+00 0.  1.
          2   -1    0    0  503    0 -0.00000000000E+00 -0.00000000000E+00 -0.60890552731E+03  0.60890552731E+03  0.00000000000E+00 0. -1.
         23    2    1    2    0    0 -0.60166666531E+02  0.23337026298E+02  0.80091494596E+02  0.13781164157E+03  0.91721079839E+02 0.  0.
         24    2    1    2    0    0  0.12077727993E+02 -0.35788868425E+02  0.11463132344E+03  0.14539389104E+03  0.81069899594E+02 0.  0.
        -13    1    4    4    0    0  0.66091556874E+01 -0.60845292397E+02  0.63512513297E+02  0.88202436991E+02  0.00000000000E+00 0.  1.
         14    1    4    4    0    0  0.54685723058E+01  0.25056423971E+02  0.51118810147E+02  0.57191454048E+02  0.00000000000E+00 0. -1.
        -13    1    3    3    0    0 -0.34666773738E+02 -0.34422461452E+02  0.31334122981E+02  0.58038937937E+02  0.00000000000E+00 0. -1.
         13    1    3    3    0    0 -0.25499892793E+02  0.57759487751E+02  0.48757371615E+02  0.79772703630E+02  0.00000000000E+00 0.  1.
         21    1    1    2  503  502 -0.26553823579E+02 -0.42609101570E+02 -0.11364505776E+03  0.12424105697E+03  0.00000000000E+00 0.  1.
          1    1    1    2  501    0  0.74642762117E+02  0.55060943697E+02 -0.44089564601E+03  0.45054657931E+03  0.00000000000E+00 0. -1.
<scales pt_clust_5="13000.00000" pt_clust_6="13000.00000" pt_clust_7="13000.00000" pt_clust_8="13000.00000" pt_clust_9="50.20599" pt_clust_10="53.05250"></scales>
<clustering>
<clus scale="   50.206">  2  9  1 -1</clus>
<clus scale="   53.053">  1 10  2 -1</clus>
<clus scale="   81.070">  5  6 -1 -1</clus>
<clus scale="   91.721">  7  8 -1 -1</clus>
<clus scale="   94.186">  1  5  2 -1</clus>
<clus scale="   53.053">  1  5  2 -1</clus>
</clustering>
</event>
<event>
10    4  0.2857708E-005  0.1034139E+03  0.7546771E-02  0.1276667E+00
         -3   -1    0    0    0  501 -0.00000000000E+00  0.00000000000E+00  0.49409502057E+03  0.49409502057E+03  0.00000000000E+00 0.  1.
         21   -1    0    0  503  502  0.00000000000E+00 -0.00000000000E+00 -0.17080811120E+03  0.17080811120E+03  0.00000000000E+00 0. -1.
         23    2    1    2    0    0  0.79142678192E+02  0.45043879245E+02  0.62273166077E+02  0.14306812699E+03  0.91093507887E+02 0.  0.
         24    2    1    2    0    0  0.30341765781E+02 -0.46639299494E+02 -0.70633023783E+01  0.96764418005E+02  0.78851856944E+02 0.  0.
        -11    1    4    4    0    0  0.27813387552E+02 -0.59293558268E+02  0.18562746728E+02  0.68072653432E+02  0.00000000000E+00 0.  1.
         12    1    4    4    0    0  0.25283782283E+01  0.12654258774E+02 -0.25626049106E+02  0.28691764574E+02  0.00000000000E+00 0. -1.
        -11    1    3    3    0    0 -0.18261723827E+02  0.11897500390E+02 -0.17824515234E+01  0.21868200796E+02  0.00000000000E+00 0.  1.
         11    1    3    3    0    0  0.97404402019E+02  0.33146378855E+02  0.64055617601E+02  0.12119992620E+03  0.00000000000E+00 0. -1.
         21    1    1    2  503  501 -0.20429471082E+02 -0.32890277998E+02  0.31590185428E+03  0.31826579335E+03  0.00000000000E+00 0.  1.
         -4    1    1    2    0  502 -0.89054972891E+02  0.34485698247E+02 -0.47824808611E+02  0.10680479343E+03  0.00000000000E+00 0.  1.
<scales pt_clust_5="13000.00000" pt_clust_6="13000.00000" pt_clust_7="13000.00000" pt_clust_8="13000.00000" pt_clust_9="38.71865" pt_clust_10="96.90168"></scales>
<clustering>
<clus scale="   38.719">  1  9  2 -1</clus>
<clus scale="   78.852">  5  6 -1 -1</clus>
<clus scale="   91.094">  7  8 -1 -1</clus>
<clus scale="   96.902">  2 10  1 -1</clus>
<clus scale="   96.902">  2  5  1 -1</clus>
<clus scale="   96.902">  2  5  1 -1</clus>
</clustering>
</event>
<event>
10    4  0.2857708E-005  0.2896359E+03  0.7546771E-02  0.1091096E+00
         21   -1    0    0  501  502  0.00000000000E+00  0.00000000000E+00  0.47258930608E+03  0.47258930608E+03  0.00000000000E+00 0.  1.
          4   -1    0    0  503    0 -0.00000000000E+00 -0.00000000000E+00 -0.48455537613E+03  0.48455537613E+03  0.00000000000E+00 0. -1.
         24    2    1    2    0    0  0.29791761836E+03  0.71090346266E+02 -0.28639542174E+03  0.42691523955E+03  0.80159462987E+02 0.  0.
         23    2    1    2    0    0 -0.21845791044E+03 -0.14045028081E+03  0.26510993462E+03  0.38287072656E+03  0.94109382154E+02 0.  0.
        -13    1    3    3    0    0  0.80937354053E+02  0.44584338473E+02 -0.12379051047E+03  0.15447559354E+03  0.00000000000E+00 0.  1.
         14    1    3    3    0    0  0.21698026431E+03  0.26506007794E+02 -0.16260491127E+03  0.27243964601E+03  0.00000000000E+00 0. -1.
        -11    1    4    4    0    0 -0.80126064967E+02 -0.10204101806E+03  0.15377029346E+03  0.20119110021E+03  0.00000000000E+00 0.  1.
         11    1    4    4    0    0 -0.13833184547E+03 -0.38409262754E+02  0.11133964116E+03  0.18167962635E+03  0.00000000000E+00 0. -1.
         21    1    1    2  503  502 -0.41551902018E+02  0.18600690181E+02 -0.44922741590E+02  0.63957790366E+02  0.00000000000E+00 0. -1.
          3    1    1    2  501    0 -0.37907805904E+02  0.50759244365E+02  0.54242158659E+02  0.83400925732E+02  0.00000000000E+00 0. -1.
<scales pt_clust_5="13000.00000" pt_clust_6="13000.00000" pt_clust_7="13000.00000" pt_clust_8="13000.00000" pt_clust_9="45.52523" pt_clust_10="64.70452"></scales>
<clustering>
<clus scale="   45.525">  2  9  1 -1</clus>
<clus scale="   64.705">  1 10  2 -1</clus>
<clus scale="   80.159">  5  6 -1 -1</clus>
<clus scale="   94.109">  7  8 -1 -1</clus>
<clus scale="  285.408">  2  5  1 -1</clus>
<clus scale="   64.705">  1  5  2 -1</clus>
</clustering>
</event>
<event>
10    4  0.2857708E-005  0.1029778E+03  0.7546771E-02  0.1279474E+00
         21   -1    0    0  503  502  0.00000000000E+00  0.00000000000E+00  0.18562055902E+03  0.18562055902E+03  0.00000000000E+00 0.  1.
         -3   -1    0    0    0  501 -0.00000000000E+00 -0.00000000000E+00 -0.19034371192E+03  0.19034371192E+03  0.00000000000E+00 0.  1.
         24    2    1    2    0    0 -0.22699695975E+02 -0.45456189812E+02 -0.25275333047E+02  0.97951516119E+02  0.79838058968E+02 0.  0.
         23    2    1    2    0    0  0.98085531100E+02 -0.14173934174E+01  0.58189717034E+02  0.14606610684E+03  0.91249569769E+02 0.  0.
        -11    1    3    3    0    0  0.27586830305E+02 -0.28851577517E+02 -0.16187426682E+01  0.39950807993E+02  0.00000000000E+00 0.  1.
         12    1    3    3    0    0 -0.50286526279E+02 -0.16604612296E+02 -0.23656590378E+02  0.58000708126E+02  0.00000000000E+00 0. -1.
        -11    1    4    4    0    0  0.60571344608E+02  0.20630247594E+02  0.75735734559E+02  0.99148355471E+02  0.00000000000E+00 0.  1.
         11    1    4    4    0    0  0.37514186491E+02 -0.22047641011E+02 -0.17546017525E+02  0.46917751366E+02  0.00000000000E+00 0. -1.
         21    1    1    2  503  501  0.14226142917E+02  0.32096553460E+02 -0.51233164432E+01  0.35479857069E+02  0.00000000000E+00 0.  1.
         -4    1    1    2    0  502 -0.89611978042E+02  0.14777029770E+02 -0.32514220452E+02  0.96466790913E+02  0.00000000000E+00 0.  1.
<scales pt_clust_5="13000.00000" pt_clust_6="13000.00000" pt_clust_7="13000.00000" pt_clust_8="13000.00000" pt_clust_9="35.10800" pt_clust_10="88.42363"></scales>
<clustering>
<clus scale="   35.108">  2  9  1 -1</clus>
<clus scale="   79.838">  5  6 -1 -1</clus>
<clus scale="   88.424">  1 10  2 -1</clus>
<clus scale="   91.250">  7  8 -1 -1</clus>
<clus scale="   93.016">  2  5  1 -1</clus>
<clus scale="   88.424">  1  5  2 -1</clus>
</clustering>
</event>
<event>
10    4  0.2857708E-005  0.9034611E+02  0.7546771E-02  0.1308519E+00
         -1   -1    0    0    0  501 -0.00000000000E+00  0.00000000000E+00  0.17935034663E+03  0.17935034663E+03  0.00000000000E+00 0.  1.
         21   -1    0    0  503  502  0.00000000000E+00 -0.00000000000E+00 -0.36664550985E+03  0.36664550985E+03  0.00000000000E+00 0.  1.
         23    2    1    2    0    0  0.21030682160E+02 -0.18698033169E+02  0.20574380368E+02  0.96344499715E+02  0.89816766036E+02 0.  0.
         24    2    1    2    0    0 -0.35531268340E+02 -0.12668547352E+02 -0.22230281402E+03  0.23912532665E+03  0.79620459699E+02 0.  0.
        -13    1    4    4    0    0 -0.86684848836E+00 -0.31353190778E+02 -0.17400022481E+03  0.17680455942E+03  0.00000000000E+00 0.  1.
         14    1    4    4    0    0 -0.34664419851E+02  0.18684643427E+02 -0.48302589207E+02  0.62320767227E+02  0.00000000000E+00 0. -1.
        -11    1    3    3    0    0  0.16657621252E+02  0.32233212583E+02 -0.88710251812E+01  0.37351725890E+02  0.00000000000E+00 0. -1.
         11    1    3    3    0    0  0.43730609081E+01 -0.50931245752E+02  0.29445405550E+02  0.58992773825E+02  0.00000000000E+00 0.  1.
         21    1    1    2  503  501 -0.25120932956E+02  0.31594336462E+02  0.10455659861E+03  0.11207740933E+03  0.00000000000E+00 0.  1.
         -2    1    1    2    0  502  0.39621519135E+02 -0.22775594146E+00 -0.90123328181E+02  0.98448620782E+02  0.00000000000E+00 0.  1.
<scales pt_clust_5="13000.00000" pt_clust_6="13000.00000" pt_clust_7="13000.00000" pt_clust_8="13000.00000" pt_clust_9="40.02349" pt_clust_10="39.62217"></scales>
<clustering>
<clus scale="   39.622">  2 10  1 -1</clus>
<clus scale="   40.023">  1  9  2 -1</clus>
<clus scale="   79.620">  5  6 -1 -1</clus>
<clus scale="   80.217">  2  5  1 -1</clus>
<clus scale="   89.817">  7  8 -1 -1</clus>
<clus scale="   39.622">  2  5  1 -1</clus>
</clustering>
</event>
<event>
10    4  0.2857708E-005  0.1147576E+03  0.7546771E-02  0.1256796E+00
          2   -1    0    0  503    0 -0.00000000000E+00  0.00000000000E+00  0.16378016092E+04  0.16378016092E+04  0.00000000000E+00 0. -1.
         21   -1    0    0  501  502  0.00000000000E+00 -0.00000000000E+00 -0.21817871771E+02  0.21817871771E+02  0.00000000000E+00 0.  1.
         24    2    1    2    0    0 -0.32001983315E+02 -0.48664457248E+02  0.65851069143E+03  0.66584706685E+03  0.79521251118E+02 0.  0.
         23    2    1    2    0    0  0.82815587600E+02  0.66204913507E+02  0.34612404329E+03  0.37369311711E+03  0.92753330451E+02 0.  0.
        -11    1    3    3    0    0 -0.21254554066E+02 -0.13362523537E+02  0.47532312193E+02  0.53755314214E+02  0.00000000000E+00 0.  1.
         12    1    3    3    0    0 -0.10747429250E+02 -0.35301933711E+02  0.61097837923E+03  0.61209175264E+03  0.00000000000E+00 0. -1.
        -13    1    4    4    0    0  0.79376006563E+02  0.21151220206E+02  0.29123483672E+03  0.30259817358E+03  0.00000000000E+00 0. -1.
         13    1    4    4    0    0  0.34395810377E+01  0.45053693301E+02  0.54889206570E+02  0.71094943531E+02  0.00000000000E+00 0.  1.
         21    1    1    2  503  502  0.24301005919E+02 -0.14153307157E+02  0.19081068126E+03  0.19287190328E+03  0.00000000000E+00 0.  1.
          1    1    1    2  501    0 -0.75114610204E+02 -0.33871491016E+01  0.42053832143E+03  0.42720739370E+03  0.00000000000E+00 0. -1.
<scales pt_clust_5="13000.00000" pt_clust_6="13000.00000" pt_clust_7="13000.00000" pt_clust_8="13000.00000" pt_clust_9="28.12214" pt_clust_10="68.40735"></scales>
<clustering>
<clus scale="   28.122">  1  9  2 -1</clus>
<clus scale="   68.407">  2 10  1 -1</clus>
<clus scale="   79.521">  5  6 -1 -1</clus>
<clus scale="   92.753">  7  8 -1 -1</clus>
<clus scale="  104.354">  1  5  2 -1</clus>
<clus scale="   68.407">  2  5  1 -1</clus>
</clustering>
</event>
<event>
10    4  0.2857708E-005  0.1799819E+03  0.7546771E-02  0.1168129E+00
         21   -1    0    0  501  502  0.00000000000E+00  0.00000000000E+00  0.59244442671E+02  0.59244442671E+02  0.00000000000E+00 0. -1.
          2   -1    0    0  503    0 -0.00000000000E+00 -0.00000000000E+00 -0.13976556901E+04  0.13976556901E+04  0.00000000000E+00 0. -1.
         23    2    1    2    0    0  0.98836099861E+02  0.55087864242E+02 -0.27908994349E+03  0.31412663815E+03  0.89337006979E+02 0.  0.
         24    2    1    2    0    0 -0.12176559414E+03 -0.15842268365E+03 -0.74372899505E+03  0.77497290873E+03  0.86750127264E+02 0.  0.
        -13    1    4    4    0    0 -0.73708315891E+01 -0.75145147332E+02 -0.29180874159E+03  0.30141908366E+03  0.00000000000E+00 0.  1.
         14    1    4    4    0    0 -0.11439476255E+03 -0.83277536315E+02 -0.45192025347E+03  0.47355382508E+03  0.00000000000E+00 0. -1.
        -13    1    3    3    0    0  0.88198907545E+02  0.85029470338E+00 -0.15628264678E+03  0.17945482991E+03  0.00000000000E+00 0.  1.
         13    1    3    3    0    0  0.10637192316E+02  0.54237569538E+02 -0.12280729670E+03  0.13467180823E+03  0.00000000000E+00 0. -1.
         21    1    1    2  503  502 -0.10458719538E+02 -0.29599531673E+02 -0.14802394090E+03  0.15131623894E+03  0.00000000000E+00 0. -1.
          1    1    1    2  501    0  0.33388213811E+02  0.13293435108E+03 -0.16756836797E+03  0.21648434692E+03  0.00000000000E+00 0. -1.
<scales pt_clust_5="13000.00000" pt_clust_6="13000.00000" pt_clust_7="13000.00000" pt_clust_8="13000.00000" pt_clust_9="31.39295" pt_clust_10="132.25468"></scales>
<clustering>
<clus scale="   31.393">  2  9  1 -1</clus>
<clus scale="   86.750">  5  6 -1 -1</clus>
<clus scale="   89.337">  7  8 -1 -1</clus>
<clus scale="  132.255">  1 10  2 -1</clus>
<clus scale="  178.712">  1  5  2 -1</clus>
<clus scale="  132.255">  1  5  2 -1</clus>
</clustering>
</event>
<event>
10    4  0.2857708E-005  0.9184422E+02  0.7546771E-02  0.1305080E+00
         -3   -1    0    0    0  501 -0.00000000000E+00  0.00000000000E+00  0.10170663438E+03  0.10170663438E+03  0.00000000000E+00 0.  1.
         21   -1    0    0  503  502  0.00000000000E+00 -0.00000000000E+00 -0.40188348350E+03  0.40188348350E+03  0.00000000000E+00 0.  1.
         23    2    1    2    0    0 -0.27327165287E+01 -0.13095796610E+01  0.46497842604E+02  0.10285605999E+03  0.91695893974E+02 0.  0.
         24    2    1    2    0    0  0.56641378859E+01  0.35989031213E+02 -0.29419794144E+03  0.30734672107E+03  0.81131284810E+02 0.  0.
        -13    1    4    4    0    0 -0.36577355229E+02  0.26243142614E+02 -0.13251939416E+03  0.13995711942E+03  0.00000000000E+00 0.  1.
         14    1    4    4    0    0  0.42241493115E+02  0.97458885988E+01 -0.16167854729E+03  0.16738960164E+03  0.00000000000E+00 0. -1.
        -11    1    3    3    0    0  0.18926766398E+02  0.21311674734E+02 -0.16190201502E+02  0.32780063925E+02  0.00000000000E+00 0.  1.
         11    1    3    3    0    0 -0.21659482927E+02 -0.22621254395E+02  0.62688044106E+02  0.70075996068E+02  0.00000000000E+00 0. -1.
         21    1    1    2  503  501  0.25419198644E+02  0.51811526048E+01 -0.29686449509E+02  0.39424171348E+02  0.00000000000E+00 0.  1.
         -4    1    1    2    0  502 -0.28350620001E+02 -0.39860604157E+02 -0.22790300768E+02  0.53963165467E+02  0.00000000000E+00 0.  1.
<scales pt_clust_5="13000.00000" pt_clust_6="13000.00000" pt_clust_7="13000.00000" pt_clust_8="13000.00000" pt_clust_9="25.94186" pt_clust_10="46.97063"></scales>
<clustering>
<clus scale="   25.942">  2  9  1 -1</clus>
<clus scale="   46.971">  2 10  1 -1</clus>
<clus scale="   81.131">  5  6 -1 -1</clus>
<clus scale="   81.299">  2  5  1 -1</clus>
<clus scale="   91.696">  7  8 -1 -1</clus>
<clus scale="   25.942">  2  5  1 -1</clus>
</clustering>
</event>
<event>
10    4  0.2857708E-005  0.1779592E+03  0.7546771E-02  0.1194916E+00
          2   -1    0    0  502    0 -0.00000000000E+00  0.00000000000E+00  0.31153787295E+03  0.31153787295E+03  0.00000000000E+00 0. -1.
         21   -1    0    0  503  502  0.00000000000E+00 -0.00000000000E+00 -0.32111803145E+03  0.32111803145E+03  0.00000000000E+00 0.  1.
         24    2    1    2    0    0 -0.48453137021E+02  0.37513236973E+02  0.17273107576E+03  0.20029339957E+03  0.80786582706E+02 0.  0.
         23    2    1    2    0    0  0.37674141382E+02  0.14177718359E+03 -0.17257749257E+03  0.24326425200E+03  0.88737785887E+02 0.  0.
        -11    1    3    3    0    0 -0.19891340219E+02 -0.42758623653E+01  0.49171311645E-01  0.20345781688E+02  0.00000000000E+00 0.  1.
         12    1    3    3    0    0 -0.28561796802E+02  0.41789099338E+02  0.17268190444E+03  0.17994761788E+03  0.00000000000E+00 0. -1.
        -11    1    4    4    0    0 -0.19815608879E+02  0.58812963795E+01 -0.39412691405E+02  0.44504025055E+02  0.00000000000E+00 0. -1.
         11    1    4    4    0    0  0.57489750262E+02  0.13589588721E+03 -0.13316480117E+03  0.19876022695E+03  0.00000000000E+00 0.  1.
         21    1    1    2  503  501 -0.17179273794E+02 -0.28740216978E+02 -0.13054282820E+02  0.35938027491E+02  0.00000000000E+00 0.  1.
          1    1    1    2  501    0  0.27958269432E+02 -0.15055020359E+03  0.33205411373E+01  0.15316022533E+03  0.00000000000E+00 0. -1.
<scales pt_clust_5="13000.00000" pt_clust_6="13000.00000" pt_clust_7="13000.00000" pt_clust_8="13000.00000" pt_clust_9="27.27528" pt_clust_10="164.91600"></scales>
<clustering>
<clus scale="   27.275">  9 10 -1 -1</clus>
<clus scale="   80.787">  5  6 -1 -1</clus>
<clus scale="   88.738">  7  8 -1 -1</clus>
<clus scale="  101.397">  1  5  2 -1</clus>
<clus scale="  164.916">  2  9  1 -1</clus>
<clus scale="  164.916">  2  5  1 -1</clus>
</clustering>
</event>
<event>
10    4  0.2857708E-005  0.1423010E+03  0.7546771E-02  0.1212395E+00
         21   -1    0    0  503  502  0.00000000000E+00  0.00000000000E+00  0.31941320450E+02  0.31941320450E+02  0.00000000000E+00 0.  1.
          2   -1    0    0  502    0 -0.00000000000E+00 -0.00000000000E+00 -0.13832417765E+04  0.13832417765E+04  0.00000000000E+00 0. -1.
         23    2    1    2    0    0  0.75719941714E+02 -0.63239556742E+02 -0.63242885170E+03  0.64659252045E+03  0.91558090402E+02 0.  0.
         24    2    1    2    0    0 -0.68147367902E+02  0.13110385775E+03 -0.31040794807E+03  0.35328792825E+03  0.81406269769E+02 0.  0.
        -13    1    4    4    0    0 -0.82680500479E+02  0.12749842797E+03 -0.29478742827E+03  0.33164972811E+03  0.00000000000E+00 0.  1.
         14    1    4    4    0    0  0.14533132578E+02  0.36054297760E+01 -0.15620519803E+02  0.21638200140E+02  0.00000000000E+00 0. -1.
        -11    1    3    3    0    0  0.13908454923E+02 -0.70916647579E+02 -0.34754138981E+03  0.35497553951E+03  0.00000000000E+00 0.  1.
         11    1    3    3    0    0  0.61811486791E+02  0.76770908372E+01 -0.28488746190E+03  0.29161698093E+03  0.00000000000E+00 0. -1.
         21    1    1    2  503  501  0.16161779768E+01 -0.22991914088E+02 -0.68648762550E+02  0.72414727400E+02  0.00000000000E+00 0.  1.
          1    1    1    2  501    0 -0.91887517888E+01 -0.44872386915E+02 -0.33981489371E+03  0.34288792083E+03  0.00000000000E+00 0. -1.
<scales pt_clust_5="13000.00000" pt_clust_6="13000.00000" pt_clust_7="13000.00000" pt_clust_8="13000.00000" pt_clust_9="22.10260" pt_clust_10="75.05822"></scales>
<clustering>
<clus scale="   22.103">  9 10 -1 -1</clus>
<clus scale="   75.058">  1  9  2 -1</clus>
<clus scale="   81.406">  5  6 -1 -1</clus>
<clus scale="   91.558">  7  8 -1 -1</clus>
<clus scale="  135.991">  1  5  2 -1</clus>
<clus scale="   75.058">  1  5  2 -1</clus>
</clustering>
</event>
<event>
10    4  0.2857708E-005  0.2793352E+03  0.7546771E-02  0.1127209E+00
         21   -1    0    0  503  502  0.00000000000E+00  0.00000000000E+00  0.75704724584E+03  0.75704724584E+03  0.00000000000E+00 0.  1.
         -1   -1    0    0    0  501 -0.00000000000E+00 -0.00000000000E+00 -0.17246676100E+03  0.17246676100E+03  0.00000000000E+00 0.  1.
         23    2    1    2    0    0 -0.96713511573E+02 -0.30311768370E+02  0.11878159804E+03  0.17455406239E+03  0.78024009387E+02 0.  0.
         24    2    1    2    0    0  0.28882350915E+03  0.12315556165E+03  0.33479573591E+03  0.46651979250E+03  0.83463885659E+02 0.  0.
        -11    1    4    4    0    0  0.28100924273E+03  0.13408884956E+03  0.32302810736E+03  0.44865707642E+03  0.00000000000E+00 0.  1.
         12    1    4    4    0    0  0.78142664157E+01 -0.10933287908E+02  0.11767628542E+02  0.17862716076E+02  0.00000000000E+00 0. -1.
        -13    1    3    3    0    0 -0.57625997556E+01 -0.30917805541E+02  0.55368747201E+02  0.63677440448E+02  0.00000000000E+00 0.  1.
         13    1    3    3    0    0 -0.90950911817E+02  0.60603717104E+00  0.63412850843E+02  0.11087662194E+03  0.00000000000E+00 0. -1.
         21    1    1    2  503  501  0.18989308101E+02 -0.26457674889E+02  0.27831981560E+01  0.32685601947E+02  0.00000000000E+00 0. -1.
         -2    1    1    2    0  502 -0.21109930568E+03 -0.66386118389E+02  0.12821995273E+03  0.25575455001E+03  0.00000000000E+00 0.  1.
<scales pt_clust_5="13000.00000" pt_clust_6="13000.00000" pt_clust_7="13000.00000" pt_clust_8="13000.00000" pt_clust_9="32.56689" pt_clust_10="266.57458"></scales>
<clustering>
<clus scale="   32.567">  2  9  1 -1</clus>
<clus scale="   78.024">  7  8 -1 -1</clus>
<clus scale="   83.464">  5  6 -1 -1</clus>
<clus scale="  126.598">  2  7  1 -1</clus>
<clus scale="  266.575">  1 10  2 -1</clus>
<clus scale="  266.575">  1  5  2 -1</clus>
</clustering>
</event>
<event>
10    4  0.2857708E-005  0.2413282E+03  0.7546771E-02  0.1119435E+00
         21   -1    0    0  501  502  0.00000000000E+00  0.00000000000E+00  0.13697542830E+03  0.13697542830E+03  0.00000000000E+00 0. -1.
          2   -1    0    0  503    0 -0.00000000000E+00 -0.00000000000E+00 -0.12849174997E+04  0.12849174997E+04  0.00000000000E+00 0. -1.
         24    2    1    2    0    0 -0.21120971974E+02 -0.21587040958E+03 -0.52855272335E+03  0.57677103817E+03  0.79061494565E+02 0.  0.
         23    2    1    2    0    0 -0.46435904476E+02  0.19150203440E+03 -0.20841595832E+02  0.21684909463E+03  0.88089927474E+02 0.  0.
        -13    1    3    3    0    0  0.12506975573E+02 -0.12580613582E+03 -0.22174490966E+03  0.25525362525E+03  0.00000000000E+00 0.  1.
         14    1    3    3    0    0 -0.33627947547E+02 -0.90064273761E+02 -0.30680781370E+03  0.32151741292E+03  0.00000000000E+00 0. -1.
        -13    1    4    4    0    0  0.17948868766E+02  0.38249811745E+02 -0.27628179568E+02  0.50482930727E+02  0.00000000000E+00 0.  1.
         13    1    4    4    0    0 -0.64384773241E+02  0.15325222266E+03  0.67865837359E+01  0.16636616391E+03  0.00000000000E+00 0. -1.
         21    1    1    2  503  502 -0.46933635822E+02 -0.37694632582E+02 -0.21173339002E+03  0.22012423753E+03  0.00000000000E+00 0. -1.
          1    1    1    2  501    0  0.11449051227E+03  0.62063007759E+02 -0.38681436221E+03  0.40814855769E+03  0.00000000000E+00 0. -1.
<scales pt_clust_5="13000.00000" pt_clust_6="13000.00000" pt_clust_7="13000.00000" pt_clust_8="13000.00000" pt_clust_9="60.19677" pt_clust_10="108.28267"></scales>
<clustering>
<clus scale="   60.197">  2  9  1 -1</clus>
<clus scale="   79.061">  5  6 -1 -1</clus>
<clus scale="   88.090">  7  8 -1 -1</clus>
<clus scale="  108.283">  1 10  2 -1</clus>
<clus scale="  238.181">  2  5  1 -1</clus>
<clus scale="  108.283">  1  5  2 -1</clus>
</clustering>
</event>
<event>
10    4  0.2857708E-005  0.1683958E+03  0.7546771E-02  0.1181025E+00
         21   -1    0    0  501  502  0.00000000000E+00  0.00000000000E+00  0.43772936005E+03  0.43772936005E+03  0.00000000000E+00 0. -1.
          2   -1    0    0  503    0 -0.00000000000E+00 -0.00000000000E+00 -0.75724202984E+03  0.75724202984E+03  0.00000000000E+00 0. -1.
         24    2    1    2    0    0  0.12620104141E+03 -0.16930268972E+03 -0.55711786067E+03  0.60084014598E+03  0.77707571974E+02 0.  0.
         23    2    1    2    0    0 -0.10610309079E+03 -0.92424695043E+01  0.25112037364E+03  0.28685136324E+03  0.88763581598E+02 0.  0.
        -13    1    3    3    0    0  0.15695358188E+02 -0.38085008505E+02 -0.46232461795E+02  0.61921342565E+02  0.00000000000E+00 0.  1.
         14    1    3    3    0    0  0.11050568322E+03 -0.13121768121E+03 -0.51088539888E+03  0.53891880342E+03  0.00000000000E+00 0. -1.
        -13    1    4    4    0    0 -0.61116110648E+02 -0.49018087252E+02  0.15063185836E+03  0.16978783411E+03  0.00000000000E+00 0. -1.
         13    1    4    4    0    0 -0.44986980140E+02  0.39775617748E+02  0.10048851529E+03  0.11706352914E+03  0.00000000000E+00 0.  1.
         21    1    1    2  503  502 -0.45357732512E+02  0.49194793270E+02 -0.12029850485E+03  0.13765602730E+03  0.00000000000E+00 0. -1.
          1    1    1    2  501    0  0.25259781888E+02  0.12935036595E+03  0.10678332210E+03  0.16962385337E+03  0.00000000000E+00 0. -1.
<scales pt_clust_5="13000.00000" pt_clust_6="13000.00000" pt_clust_7="13000.00000" pt_clust_8="13000.00000" pt_clust_9="66.91376" pt_clust_10="133.80080"></scales>
<clustering>
<clus scale="   66.914">  2  9  1 -1</clus>
<clus scale="   77.708">  5  6 -1 -1</clus>
<clus scale="   88.764">  7  8 -1 -1</clus>
<clus scale="  133.801">  1 10  2 -1</clus>
<clus scale="  162.839">  2  5  1 -1</clus>
<clus scale="  133.801">  1  5  2 -1</clus>
</clustering>
</event>
<event>
10    4  0.2857708E-005  0.2218265E+03  0.7546771E-02  0.1133275E+00
         21   -1    0    0  501  502  0.00000000000E+00  0.00000000000E+00  0.27187296013E+03  0.27187296013E+03  0.00000000000E+00 0. -1.
          2   -1    0    0  503    0 -0.00000000000E+00 -0.00000000000E+00 -0.22523468989E+04  0.22523468989E+04  0.00000000000E+00 0. -1.
         24    2    1    2    0    0 -0.10140455129E+03  0.23108344650E+03 -0.16428813445E+04  0.16641020353E+04  0.80585541274E+02 0.  0.
         23    2    1    2    0    0  0.77532648398E+01 -0.10085296384E+03 -0.18288999083E+03  0.22789350171E+03  0.90858494062E+02 0.  0.
        -11    1    3    3    0    0 -0.46321643358E+02  0.35720965163E+02 -0.26729882502E+03  0.27362445770E+03  0.00000000000E+00 0.  1.
         12    1    3    3    0    0 -0.55082907929E+02  0.19536248134E+03 -0.13755825195E+04  0.13904775776E+04  0.00000000000E+00 0. -1.
        -13    1    4    4    0    0  0.37837868395E+02 -0.87722025768E+02 -0.97920179532E+02  0.13680358054E+03  0.00000000000E+00 0.  1.
         13    1    4    4    0    0 -0.30084603556E+02 -0.13130938073E+02 -0.84969811300E+02  0.91089921166E+02  0.00000000000E+00 0. -1.
         21    1    1    2  503  502  0.85100056189E+02 -0.97262806386E+02 -0.38154556675E+03  0.40283879229E+03  0.00000000000E+00 0.  1.
          1    1    1    2  501    0  0.85512302583E+01 -0.32967676272E+02  0.22684296334E+03  0.22938552970E+03  0.00000000000E+00 0. -1.
<scales pt_clust_5="13000.00000" pt_clust_6="13000.00000" pt_clust_7="13000.00000" pt_clust_8="13000.00000" pt_clust_9="136.69368" pt_clust_10="34.05864"></scales>
<clustering>
<clus scale="   34.059">  1 10  2 -1</clus>
<clus scale="   80.586">  5  6 -1 -1</clus>
<clus scale="   90.858">  7  8 -1 -1</clus>
<clus scale="  136.694">  1  9  2 -1</clus>
<clus scale="  217.821">  2  5  1 -1</clus>
<clus scale="   34.059">  1  5  2 -1</clus>
</clustering>
</event>
<event>
10    4  0.2857708E-005  0.2422325E+03  0.7546771E-02  0.1145570E+00
          2   -1    0    0  503    0 -0.00000000000E+00  0.00000000000E+00  0.35010670981E+03  0.35010670981E+03  0.00000000000E+00 0. -1.
         21   -1    0    0  501  502  0.00000000000E+00 -0.00000000000E+00 -0.38772349344E+03  0.38772349344E+03  0.00000000000E+00 0. -1.
         23    2    1    2    0    0 -0.29107312208E+02  0.52819868026E+02  0.95154314153E+02  0.14577755303E+03  0.92517984104E+02 0.  0.
         24    2    1    2    0    0 -0.18848708846E+03  0.56421807661E+02 -0.41865722831E+02  0.21658347437E+03  0.80279883713E+02 0.  0.
        -13    1    4    4    0    0 -0.52541599496E+02 -0.20368413696E+02 -0.10053313450E+02  0.57241253178E+02  0.00000000000E+00 0.  1.
         14    1    4    4    0    0 -0.13594548896E+03  0.76790221357E+02 -0.31812409381E+02  0.15934222119E+03  0.00000000000E+00 0. -1.
        -11    1    3    3    0    0 -0.62244108147E+02  0.25314713338E+02  0.62004636701E+02  0.91431606586E+02  0.00000000000E+00 0. -1.
         11    1    3    3    0    0  0.33136795940E+02  0.27505154688E+02  0.33149677452E+02  0.54345946443E+02  0.00000000000E+00 0.  1.
         21    1    1    2  503  502  0.12937706824E+02  0.64783422127E+02  0.39370368434E+02  0.76904498900E+02  0.00000000000E+00 0. -1.
          1    1    1    2  501    0  0.20465669384E+03 -0.17402509781E+03 -0.13027574339E+03  0.29856467694E+03  0.00000000000E+00 0. -1.
<scales pt_clust_5="13000.00000" pt_clust_6="13000.00000" pt_clust_7="13000.00000" pt_clust_8="13000.00000" pt_clust_9="66.06267" pt_clust_10="228.54275"></scales>
<clustering>
<clus scale="   66.063">  1  9  2 -1</clus>
<clus scale="   80.280">  5  6 -1 -1</clus>
<clus scale="   92.518">  7  8 -1 -1</clus>
<clus scale="  124.309">  1  7  2 -1</clus>
<clus scale="  228.543">  2 10  1 -1</clus>
<clus scale="  228.543">  2  5  1 -1</clus>
</clustering>
</event>
<event>
10    4  0.2857708E-005  0.1620691E+03  0.7546771E-02  0.1188671E+00
          2   -1    0    0  503    0 -0.00000000000E+00  0.00000000000E+00  0.36122659371E+03  0.36122659371E+03  0.00000000000E+00 0. -1.
         21   -1    0    0  501  502  0.00000000000E+00 -0.00000000000E+00 -0.19036130853E+03  0.19036130853E+03  0.00000000000E+00 0.  1.
         24    2    1    2    0    0  0.81315099436E+02  0.13234787820E+02  0.13088397114E+03  0.17395938459E+03  0.79648908236E+02 0.  0.
         23    2    1    2    0    0 -0.16923337482E+03 -0.42069314962E+02 -0.41369989109E+02  0.20249375922E+03  0.94246931572E+02 0.  0.
        -13    1    3    3    0    0  0.81579918451E+02 -0.86971550905E+01  0.65460515342E+02  0.10495714683E+03  0.00000000000E+00 0.  1.
         14    1    3    3    0    0 -0.26481901520E+00  0.21931942910E+02  0.65423455794E+02  0.69002237768E+02  0.00000000000E+00 0. -1.
        -11    1    4    4    0    0 -0.12285382024E+03 -0.72327166482E+02 -0.34623494728E+02  0.14670741817E+03  0.00000000000E+00 0.  1.
         11    1    4    4    0    0 -0.46379554585E+02  0.30257851519E+02 -0.67464943811E+01  0.55786341057E+02  0.00000000000E+00 0. -1.
         21    1    1    2  503  502  0.51722271372E+02  0.59385338911E+02  0.97281611889E+02  0.12516199042E+03  0.00000000000E+00 0. -1.
          1    1    1    2  501    0  0.36196004013E+02 -0.30550811768E+02 -0.15930308731E+02  0.49972768009E+02  0.00000000000E+00 0. -1.
<scales pt_clust_5="13000.00000" pt_clust_6="13000.00000" pt_clust_7="13000.00000" pt_clust_8="13000.00000" pt_clust_9="78.92818" pt_clust_10="47.36563"></scales>
<clustering>
<clus scale="   47.366">  2 10  1 -1</clus>
<clus scale="   78.928">  1  9  2 -1</clus>
<clus scale="   79.649">  5  6 -1 -1</clus>
<clus scale="   94.247">  7  8 -1 -1</clus>
<clus scale="  154.039">  1  5  2 -1</clus>
<clus scale="   47.366">  2  5  1 -1</clus>
</clustering>
</event>
<event>
10    4  0.2857708E-005  0.1188055E+03  0.7546771E-02  0.1248837E+00
         21   -1    0    0  501  502  0.00000000000E+00  0.00000000000E+00  0.15025400605E+03  0.15025400605E+03  0.00000000000E+00 0. -1.
          2   -1    0    0  503    0 -0.00000000000E+00 -0.00000000000E+00 -0.44950558244E+03  0.44950558244E+03  0.00000000000E+00 0. -1.
         24    2    1    2    0    0 -0.27748000449E+01  0.11366849198E+03 -0.12117848938E+03  0.18512944381E+03  0.81611635750E+02 0.  0.
         23    2    1    2    0    0  0.75306884494E+02  0.78107244807E+01 -0.16008795257E+02  0.12093427256E+03  0.92933753200E+02 0.  0.
        -11    1    3    3    0    0 -0.24074830170E+02 -0.23826322036E+00 -0.20435589405E+02  0.31579542926E+02  0.00000000000E+00 0.  1.
         12    1    3    3    0    0  0.21300030126E+02  0.11390675520E+03 -0.10074289998E+03  0.15354990088E+03  0.00000000000E+00 0. -1.
        -11    1    4    4    0    0  0.31698213764E+02 -0.32419508708E+02  0.22077887445E+02  0.50430490923E+02  0.00000000000E+00 0.  1.
         11    1    4    4    0    0  0.43608670731E+02  0.40230233189E+02 -0.38086682702E+02  0.70503781633E+02  0.00000000000E+00 0. -1.
         21    1    1    2  503  502 -0.44178265676E+02 -0.20065754077E+02 -0.18039775614E+03  0.18680927189E+03  0.00000000000E+00 0.  1.
          1    1    1    2  501    0 -0.28353818774E+02 -0.10141346239E+03  0.18333464391E+02  0.10688660023E+03  0.00000000000E+00 0. -1.
<scales pt_clust_5="13000.00000" pt_clust_6="13000.00000" pt_clust_7="13000.00000" pt_clust_8="13000.00000" pt_clust_9="48.52168" pt_clust_10="110.67413"></scales>
<clustering>
<clus scale="   48.522">  2  9  1 -1</clus>
<clus scale="   81.612">  5  6 -1 -1</clus>
<clus scale="   92.934">  7  8 -1 -1</clus>
<clus scale="  110.674">  1 10  2 -1</clus>
<clus scale="  110.175">  2  5  1 -1</clus>
<clus scale="  110.674">  1  5  2 -1</clus>
</clustering>
</event>
<event>
10    4  0.2857708E-005  0.1629448E+03  0.7546771E-02  0.1186575E+00
         -1   -1    0    0    0  501 -0.00000000000E+00  0.00000000000E+00  0.67687097510E+03  0.67687097510E+03  0.00000000000E+00 0.  1.
         21   -1    0    0  503  502  0.00000000000E+00 -0.00000000000E+00 -0.14215019318E+03  0.14215019318E+03  0.00000000000E+00 0.  1.
         23    2    1    2    0    0 -0.12781381272E+03 -0.82267025894E+02  0.34494858978E+03  0.38787134775E+03  0.91380624554E+02 0.  0.
         24    2    1    2    0    0  0.10518911707E+03  0.54558389423E+02  0.15451287857E+03  0.21195798403E+03  0.83729260988E+02 0.  0.
        -11    1    4    4    0    0  0.43852628283E+02  0.36176068799E+02  0.15526263333E+02  0.58930686524E+02  0.00000000000E+00 0.  1.
         12    1    4    4    0    0  0.61336488783E+02  0.18382320623E+02  0.13898661523E+03  0.15302729751E+03  0.00000000000E+00 0. -1.
        -13    1    3    3    0    0 -0.84515294926E+02 -0.97133383140E+02  0.28232930844E+03  0.31030238091E+03  0.00000000000E+00 0. -1.
         13    1    3    3    0    0 -0.43298517789E+02  0.14866357246E+02  0.62619281345E+02  0.77568966840E+02  0.00000000000E+00 0.  1.
         21    1    1    2  503  501  0.31447624544E+01  0.21344628414E+02  0.12514931670E+03  0.12699541001E+03  0.00000000000E+00 0.  1.
         -2    1    1    2    0  502  0.19479933194E+02  0.63640080574E+01 -0.89890003124E+02  0.92196426489E+02  0.00000000000E+00 0.  1.
<scales pt_clust_5="13000.00000" pt_clust_6="13000.00000" pt_clust_7="13000.00000" pt_clust_8="13000.00000" pt_clust_9="21.74257" pt_clust_10="20.49313"></scales>
<clustering>
<clus scale="   20.493">  2 10  1 -1</clus>
<clus scale="   21.743">  1  9  2 -1</clus>
<clus scale="   83.729">  5  6 -1 -1</clus>
<clus scale="   91.381">  7  8 -1 -1</clus>
<clus scale="  158.780">  2  5  1 -1</clus>
<clus scale="   20.493">  2  5  1 -1</clus>
</clustering>
</event>
<event>
10    4  0.2857708E-005  0.1300516E+03  0.7546771E-02  0.1238737E+00
         -1   -1    0    0    0  501 -0.00000000000E+00  0.00000000000E+00  0.14876544166E+03  0.14876544166E+03  0.00000000000E+00 0.  1.
         21   -1    0    0  503  502  0.00000000000E+00 -0.00000000000E+00 -0.37019874279E+03  0.37019874279E+03  0.00000000000E+00 0.  1.
         23    2    1    2    0    0  0.97565566058E+01  0.31276531439E+02 -0.11813530317E+02  0.97839968159E+02  0.91431329724E+02 0.  0.
         24    2    1    2    0    0 -0.26740649963E+02  0.79560498412E+02 -0.16604452327E+03  0.20258265123E+03  0.80149932011E+02 0.  0.
        -11    1    4    4    0    0 -0.48298502400E+01  0.66854125183E+02 -0.16400340164E+03  0.17717199908E+03  0.00000000000E+00 0.  1.
         12    1    4    4    0    0 -0.21910799723E+02  0.12706373229E+02 -0.20411216317E+01  0.25410652150E+02  0.00000000000E+00 0. -1.
        -13    1    3    3    0    0 -0.38632094070E+02  0.12261918780E+02 -0.20019338167E+02  0.45205831980E+02  0.00000000000E+00 0. -1.
         13    1    3    3    0    0  0.48388650676E+02  0.19014612659E+02  0.82058078505E+01  0.52634136178E+02  0.00000000000E+00 0.  1.
         21    1    1    2  503  501 -0.17821722314E+02  0.42982386500E+02  0.17087138396E+02  0.49568837328E+02  0.00000000000E+00 0.  1.
         -2    1    1    2    0  502  0.34805815672E+02 -0.15381941635E+03 -0.60662385945E+02  0.16897272774E+03  0.00000000000E+00 0.  1.
<scales pt_clust_5="13000.00000" pt_clust_6="13000.00000" pt_clust_7="13000.00000" pt_clust_8="13000.00000" pt_clust_9="46.53063" pt_clust_10="102.41780"></scales>
<clustering>
<clus scale="   46.531">  1  9  2 -1</clus>
<clus scale="   80.150">  5  6 -1 -1</clus>
<clus scale="   91.431">  7  8 -1 -1</clus>
<clus scale="  102.985">  1  7  2 -1</clus>
<clus scale="  102.418">  2 10  1 -1</clus>
<clus scale="  102.418">  2  5  1 -1</clus>
</clustering>
</event>
<event>
10    4  0.2857708E-005  0.1532657E+03  0.7546771E-02  0.1198461E+00
          4   -1    0    0  503    0 -0.00000000000E+00  0.00000000000E+00  0.21639446967E+03  0.21639446967E+03  0.00000000000E+00 0. -1.
         21   -1    0    0  501  502  0.00000000000E+00 -0.00000000000E+00 -0.23122146318E+03  0.23122146318E+03  0.00000000000E+00 0.  1.
         24    2    1    2    0    0 -0.98930765584E+02  0.79980078946E+02  0.66255480221E+02  0.16442924736E+03  0.80393279077E+02 0.  0.
         23    2    1    2    0    0  0.67402459721E+02 -0.65769168433E+02 -0.52108678152E+02  0.14127246389E+03  0.91509123156E+02 0.  0.
        -11    1    3    3    0    0 -0.99724287863E+02  0.46793937401E+02  0.27766852569E+02  0.11360283565E+03  0.00000000000E+00 0.  1.
         12    1    3    3    0    0  0.79352227822E+00  0.33186141545E+02  0.38488627653E+02  0.50826411706E+02  0.00000000000E+00 0. -1.
        -13    1    4    4    0    0  0.18410650355E+02 -0.19722656690E+02 -0.67157416538E+02  0.72374400374E+02  0.00000000000E+00 0.  1.
         13    1    4    4    0    0  0.48991809366E+02 -0.46046511742E+02  0.15048738386E+02  0.68898063512E+02  0.00000000000E+00 0. -1.
         21    1    1    2  503  502 -0.23557072875E+02  0.36806308530E+02  0.24160581329E+02  0.49933693236E+02  0.00000000000E+00 0. -1.
          3    1    1    2  501    0  0.55085378738E+02 -0.51017219043E+02 -0.53134376907E+02  0.91980528368E+02  0.00000000000E+00 0. -1.
<scales pt_clust_5="13000.00000" pt_clust_6="13000.00000" pt_clust_7="13000.00000" pt_clust_8="13000.00000" pt_clust_9="43.69943" pt_clust_10="70.51077"></scales>
<clustering>
<clus scale="   43.699">  1  9  2 -1</clus>
<clus scale="   70.511">  2 10  1 -1</clus>
<clus scale="   80.393">  5  6 -1 -1</clus>
<clus scale="   91.509">  7  8 -1 -1</clus>
<clus scale="  146.900">  1  5  2 -1</clus>
<clus scale="   70.511">  2  5  1 -1</clus>
</clustering>
</event>
<event>
10    4  0.2857708E-005  0.1217406E+03  0.7546771E-02  0.1242856E+00
          2   -1    0    0  503    0 -0.00000000000E+00  0.00000000000E+00  0.42108290328E+03  0.42108290328E+03  0.00000000000E+00 0. -1.
         21   -1    0    0  501  502  0.00000000000E+00 -0.00000000000E+00 -0.87329747887E+02  0.87329747887E+02  0.00000000000E+00 0. -1.
         24    2    1    2    0    0  0.62758879559E+02 -0.47779742159E+02  0.10471995007E+03  0.15399710557E+03  0.80791459067E+02 0.  0.
         23    2    1    2    0    0 -0.50295354032E+00  0.10610350687E+03  0.76979807233E+02  0.15872843261E+03  0.89502052854E+02 0.  0.
        -11    1    3    3    0    0  0.69443042622E+02 -0.63697472624E+02  0.78716016242E+02  0.12278401932E+03  0.00000000000E+00 0.  1.
         12    1    3    3    0    0 -0.66841630627E+01  0.15917730465E+02  0.26003933828E+02  0.31213086254E+02  0.00000000000E+00 0. -1.
        -11    1    4    4    0    0 -0.99111480087E+01  0.18456414415E+02  0.66781015975E+02  0.69989814849E+02  0.00000000000E+00 0.  1.
         11    1    4    4    0    0  0.94081944684E+01  0.87647092459E+02  0.10198791258E+02  0.88738617764E+02  0.00000000000E+00 0. -1.
         21    1    1    2  503  502  0.22081467675E+02 -0.13450008434E+02  0.47359739221E+02  0.53957750515E+02  0.00000000000E+00 0.  1.
          1    1    1    2  501    0 -0.84337393693E+02 -0.44873756280E+02  0.10469365887E+03  0.14172936247E+03  0.00000000000E+00 0. -1.
<scales pt_clust_5="13000.00000" pt_clust_6="13000.00000" pt_clust_7="13000.00000" pt_clust_8="13000.00000" pt_clust_9="25.85525" pt_clust_10="91.44970"></scales>
<clustering>
<clus scale="   25.855">  1  9  2 -1</clus>
<clus scale="   80.791">  5  6 -1 -1</clus>
<clus scale="   89.502">  7  8 -1 -1</clus>
<clus scale="   91.450">  2 10  1 -1</clus>
<clus scale="  115.488">  1  5  2 -1</clus>
<clus scale="   91.450">  2  5  1 -1</clus>
</clustering>
</event>
<event>
10    4  0.2857708E-005  0.1212827E+03  0.7546771E-02  0.1244981E+00
          4   -1    0    0  503    0 -0.00000000000E+00  0.00000000000E+00  0.18704343371E+03  0.18704343371E+03  0.00000000000E+00 0. -1.
         21   -1    0    0  501  502  0.00000000000E+00 -0.00000000000E+00 -0.25356657823E+03  0.25356657823E+03  0.00000000000E+00 0. -1.
         23    2    1    2    0    0 -0.59588656362E+02  0.57339337629E+02 -0.92655466156E+02  0.15539025838E+03  0.93394268472E+02 0.  0.
         24    2    1    2    0    0  0.54320817342E+02 -0.52892630611E+02 -0.95349160477E+02  0.14619857882E+03  0.80834277853E+02 0.  0.
        -11    1    4    4    0    0  0.60254827070E+02 -0.58763950888E+02 -0.45542597312E+02  0.95697305496E+02  0.00000000000E+00 0.  1.
         12    1    4    4    0    0 -0.59340097272E+01  0.58713202768E+01 -0.49806563165E+02  0.50501273326E+02  0.00000000000E+00 0. -1.
        -11    1    3    3    0    0  0.10144977820E+02  0.18556656450E+02 -0.68994899427E+02  0.72163468739E+02  0.00000000000E+00 0. -1.
         11    1    3    3    0    0 -0.69733634181E+02  0.38782681179E+02 -0.23660566729E+02  0.83226789638E+02  0.00000000000E+00 0.  1.
         21    1    1    2  503  502  0.20138498195E+02 -0.27134094186E+02  0.96115877457E+02  0.10188267800E+03  0.00000000000E+00 0. -1.
          3    1    1    2  501    0 -0.14870659176E+02  0.22687387169E+02  0.25365604657E+02  0.37138496745E+02  0.00000000000E+00 0. -1.
<scales pt_clust_5="13000.00000" pt_clust_6="13000.00000" pt_clust_7="13000.00000" pt_clust_8="13000.00000" pt_clust_9="33.47554" pt_clust_10="27.12664"></scales>
<clustering>
<clus scale="   27.127">  2 10  1 -1</clus>
<clus scale="   33.476">  1  9  2 -1</clus>
<clus scale="   80.834">  5  6 -1 -1</clus>
<clus scale="   93.394">  7  8 -1 -1</clus>
<clus scale="  111.898">  2  5  1 -1</clus>
<clus scale="   27.127">  2  5  1 -1</clus>
</clustering>
</event>
<event>
10    4  0.2857708E-005  0.1116009E+03  0.7546771E-02  0.1262813E+00
         21   -1    0    0  503  502  0.00000000000E+00  0.00000000000E+00  0.40903244374E+02  0.40903244374E+02  0.00000000000E+00 0.  1.
         -1   -1    0    0    0  501 -0.00000000000E+00 -0.00000000000E+00 -0.93506264961E+03  0.93506264961E+03  0.00000000000E+00 0.  1.
         23    2    1    2    0    0  0.41539833642E+02 -0.63978766035E+02 -0.52978266740E+03  0.54293300843E+03  0.91037007203E+02 0.  0.
         24    2    1    2    0    0 -0.74895132204E+02 -0.26214392715E+02 -0.14471568805E+03  0.18230016180E+03  0.77422499398E+02 0.  0.
        -13    1    4    4    0    0 -0.36438846266E+02 -0.45889725043E+02 -0.45830495661E+02  0.74391469365E+02  0.00000000000E+00 0.  1.
         14    1    4    4    0    0 -0.38456285938E+02  0.19675332328E+02 -0.98885192387E+02  0.10790869244E+03  0.00000000000E+00 0. -1.
        -13    1    3    3    0    0  0.68704508627E+02 -0.59089245214E+02 -0.42691859593E+03  0.43643021888E+03  0.00000000000E+00 0. -1.
         13    1    3    3    0    0 -0.27164674985E+02 -0.48895208214E+01 -0.10286407147E+03  0.10650278954E+03  0.00000000000E+00 0.  1.
         21    1    1    2  503  501 -0.69197516434E+01  0.76981449298E+02 -0.12422764901E+03  0.14630972380E+03  0.00000000000E+00 0.  1.
         -2    1    1    2    0  502  0.40275050205E+02  0.13211709452E+02 -0.95433400779E+02  0.10442299996E+03  0.00000000000E+00 0.  1.
<scales pt_clust_5="13000.00000" pt_clust_6="13000.00000" pt_clust_7="13000.00000" pt_clust_8="13000.00000" pt_clust_9="81.16080" pt_clust_10="42.38666"></scales>
<clustering>
<clus scale="   42.387">  1 10  2 -1</clus>
<clus scale="   77.422">  5  6 -1 -1</clus>
<clus scale="   81.161">  1  9  2 -1</clus>
<clus scale="   91.037">  7  8 -1 -1</clus>
<clus scale="  100.803">  1  5  2 -1</clus>
<clus scale="   42.387">  1  5  2 -1</clus>
</clustering>
</event>
<event>
10    4  0.2857708E-005  0.9879394E+02  0.7546771E-02  0.1291006E+00
          2   -1    0    0  502    0 -0.00000000000E+00  0.00000000000E+00  0.11494016830E+03  0.11494016830E+03  0.00000000000E+00 0. -1.
         21   -1    0    0  503  502  0.00000000000E+00 -0.00000000000E+00 -0.18804106608E+03  0.18804106608E+03  0.00000000000E+00 0. -1.
         24    2    1    2    0    0  0.26957669284E+02 -0.88860762564E+01  0.43880566557E+02  0.96554036407E+02  0.81188050479E+02 0.  0.
         23    2    1    2    0    0 -0.11872173690E+02 -0.42505874145E+02 -0.98890645044E+02  0.14456137521E+03  0.95764991928E+02 0.  0.
        -13    1    3    3    0    0  0.34461013511E+02  0.27800145631E+02  0.85958731089E+01  0.45103199264E+02  0.00000000000E+00 0.  1.
         14    1    3    3    0    0 -0.75033442273E+01 -0.36686221888E+02  0.35284693448E+02  0.51450837143E+02  0.00000000000E+00 0. -1.
        -11    1    4    4    0    0 -0.33322652572E+02 -0.19100873693E+02  0.23292078835E+01  0.38479445937E+02  0.00000000000E+00 0.  1.
         11    1    4    4    0    0  0.21450478882E+02 -0.23405000452E+02 -0.10121985293E+03  0.10608192927E+03  0.00000000000E+00 0. -1.
         21    1    1    2  503  501 -0.12781927504E+02  0.30498075542E+02  0.15401624026E+01  0.33104114286E+02  0.00000000000E+00 0. -1.
          1    1    1    2  501    0 -0.23035680899E+01  0.20893874859E+02 -0.19630981693E+02  0.28761708482E+02  0.00000000000E+00 0. -1.
<scales pt_clust_5="13000.00000" pt_clust_6="13000.00000" pt_clust_7="13000.00000" pt_clust_8="13000.00000" pt_clust_9="20.03397" pt_clust_10="59.16166"></scales>
<clustering>
<clus scale="   20.034">  9 10 -1 -1</clus>
<clus scale="   59.162">  2  9  1 -1</clus>
<clus scale="   81.188">  5  6 -1 -1</clus>
<clus scale="   84.740">  1  5  2 -1</clus>
<clus scale="   95.765">  7  8 -1 -1</clus>
<clus scale="   59.162">  2  5  1 -1</clus>
</clustering>
</event>
<event>
10    4  0.2857708E-005  0.9450465E+02  0.7546771E-02  0.1300252E+00
         21   -1    0    0  503  502  0.00000000000E+00  0.00000000000E+00  0.36325665781E+03  0.36325665781E+03  0.00000000000E+00 0. -1.
          2   -1    0    0  502    0 -0.00000000000E+00 -0.00000000000E+00 -0.11790476281E+03  0.11790476281E+03  0.00000000000E+00 0. -1.
         24    2    1    2    0    0  0.14863903195E+02 -0.11794325123E+02 -0.48270157308E+02  0.96038594112E+02  0.80829213463E+02 0.  0.
         23    2    1    2    0    0  0.59921197065E+02  0.63869289282E+01  0.67757415086E+02  0.13052959486E+03  0.93891240887E+02 0.  0.
        -13    1    3    3    0    0 -0.90122091503E+01  0.30660534244E+02 -0.82686157794E+01  0.33009972444E+02  0.00000000000E+00 0.  1.
         14    1    3    3    0    0  0.23876112346E+02 -0.42454859367E+02 -0.40001541529E+02  0.63028621667E+02  0.00000000000E+00 0. -1.
        -11    1    4    4    0    0 -0.18775405713E+02  0.24425252400E+02  0.19842339344E+02  0.36644607313E+02  0.00000000000E+00 0.  1.
         11    1    4    4    0    0  0.78696602779E+02 -0.18038323472E+02  0.47915075742E+02  0.93884987543E+02  0.00000000000E+00 0. -1.
         21    1    1    2  503  501 -0.32795703618E+02 -0.40288917951E+02  0.72874224202E+02  0.89495293946E+02  0.00000000000E+00 0. -1.
          1    1    1    2  501    0 -0.41989396643E+02  0.45696314145E+02  0.15299041303E+03  0.16509793771E+03  0.00000000000E+00 0. -1.
<scales pt_clust_5="13000.00000" pt_clust_6="13000.00000" pt_clust_7="13000.00000" pt_clust_8="13000.00000" pt_clust_9="51.94954" pt_clust_10="64.69946"></scales>
<clustering>
<clus scale="   51.950">  1  9  2 -1</clus>
<clus scale="   64.699">  1 10  2 -1</clus>
<clus scale="   80.829">  5  6 -1 -1</clus>
<clus scale="   81.541">  2  5  1 -1</clus>
<clus scale="   93.891">  7  8 -1 -1</clus>
<clus scale="   51.950">  1  5  2 -1</clus>
</clustering>
</event>
<event>
10    4  0.2857708E-005  0.2011055E+03  0.7546771E-02  0.1149860E+00
          2   -1    0    0  503    0 -0.00000000000E+00  0.00000000000E+00  0.51891590335E+03  0.51891590335E+03  0.00000000000E+00 0. -1.
         21   -1    0    0  501  502  0.00000000000E+00 -0.00000000000E+00 -0.11846724942E+03  0.11846724942E+03  0.00000000000E+00 0. -1.
         24    2    1    2    0    0  0.13625245842E+03  0.13830276483E+03  0.16359542493E+03  0.26656436383E+03  0.81244752584E+02 0.  0.
         23    2    1    2    0    0 -0.11182434121E+03 -0.12418985212E+03  0.14737971732E+03  0.24127971911E+03  0.92559813738E+02 0.  0.
        -11    1    3    3    0    0  0.17556888179E+02  0.57167053346E+02  0.81221448672E+02  0.10086248081E+03  0.00000000000E+00 0.  1.
         12    1    3    3    0    0  0.11869557024E+03  0.81135711483E+02  0.82373976259E+02  0.16570188302E+03  0.00000000000E+00 0. -1.
        -11    1    4    4    0    0 -0.16979864466E+02 -0.87304072217E+02  0.61654060299E+02  0.10821986867E+03  0.00000000000E+00 0. -1.
         11    1    4    4    0    0 -0.94844476744E+02 -0.36885779903E+02  0.85725657023E+02  0.13305985044E+03  0.00000000000E+00 0.  1.
         21    1    1    2  503  502 -0.14165915694E+02 -0.50096415499E+02  0.70347071690E+02  0.87515910031E+02  0.00000000000E+00 0. -1.
          1    1    1    2  501    0 -0.10262201514E+02  0.35983502791E+02  0.19126439979E+02  0.42023159797E+02  0.00000000000E+00 0. -1.
<scales pt_clust_5="13000.00000" pt_clust_6="13000.00000" pt_clust_7="13000.00000" pt_clust_8="13000.00000" pt_clust_9="49.53241" pt_clust_10="37.41825"></scales>
<clustering>
<clus scale="   37.418">  2 10  1 -1</clus>
<clus scale="   49.532">  1  9  2 -1</clus>
<clus scale="   81.245">  5  6 -1 -1</clus>
<clus scale="   92.560">  7  8 -1 -1</clus>
<clus scale="  196.155">  1  5  2 -1</clus>
<clus scale="   37.418">  2  5  1 -1</clus>
</clustering>
</event>
<event>
10    4  0.2857708E-005  0.2790939E+03  0.7546771E-02  0.1096185E+00
         -1   -1    0    0    0  501 -0.00000000000E+00  0.00000000000E+00  0.97465965775E+03  0.97465965775E+03  0.00000000000E+00 0.  1.
         21   -1    0    0  503  502  0.00000000000E+00 -0.00000000000E+00 -0.74050416500E+02  0.74050416500E+02  0.00000000000E+00 0.  1.
         24    2    1    2    0    0  0.12918503489E+03  0.63885892331E+02  0.13966458181E+03  0.21599170139E+03  0.79850104438E+02 0.  0.
         23    2    1    2    0    0  0.45423320312E+02 -0.27425813848E+02  0.13690880472E+03  0.17165689552E+03  0.88919152459E+02 0.  0.
        -11    1    3    3    0    0  0.54206478247E+02 -0.35552985327E+01  0.86093183904E+02  0.10179891329E+03  0.00000000000E+00 0.  1.
         12    1    3    3    0    0  0.74978556641E+02  0.67441190863E+02  0.53571397909E+02  0.11419278810E+03  0.00000000000E+00 0. -1.
        -13    1    4    4    0    0  0.24292162807E+02 -0.27372326901E+02  0.14460773059E+03  0.14916685021E+03  0.00000000000E+00 0. -1.
         13    1    4    4    0    0  0.21131157505E+02 -0.53486947064E-01 -0.76989258698E+01  0.22490045307E+02  0.00000000000E+00 0.  1.
         21    1    1    2  503  501  0.10333475360E+02  0.17831746425E+02  0.28932255296E+02  0.35522208407E+02  0.00000000000E+00 0. -1.
         -2    1    1    2    0  502 -0.18494183056E+03 -0.54291824908E+02  0.59510359941E+03  0.62553926893E+03  0.00000000000E+00 0.  1.
<scales pt_clust_5="13000.00000" pt_clust_6="13000.00000" pt_clust_7="13000.00000" pt_clust_8="13000.00000" pt_clust_9="20.60951" pt_clust_10="189.55808"></scales>
<clustering>
<clus scale="   20.610">  2  9  1 -1</clus>
<clus scale="   79.850">  5  6 -1 -1</clus>
<clus scale="   88.919">  7  8 -1 -1</clus>
<clus scale="  101.605">  5  7 -1 -1</clus>
<clus scale="  189.558">  2 10  1 -1</clus>
<clus scale="   20.610">  2  5  1 -1</clus>
</clustering>
</event>
<event>
10    4  0.2857708E-005  0.1355589E+03  0.7546771E-02  0.1221967E+00
         21   -1    0    0  501  502  0.00000000000E+00  0.00000000000E+00  0.25994527868E+03  0.25994527868E+03  0.00000000000E+00 0. -1.
          2   -1    0    0  503    0 -0.00000000000E+00 -0.00000000000E+00 -0.15972571391E+03  0.15972571391E+03  0.00000000000E+00 0. -1.
         23    2    1    2    0    0 -0.13302076795E+03  0.23003076523E+02  0.27076073049E+02  0.16550655800E+03  0.91845744450E+02 0.  0.
         24    2    1    2    0    0  0.59267976006E+02 -0.25949265854E+02  0.96786337688E+02  0.14190140939E+03  0.81131728967E+02 0.  0.
        -13    1    4    4    0    0  0.24516522801E+02 -0.38192005068E+02  0.94681341476E+02  0.10499640739E+03  0.00000000000E+00 0.  1.
         14    1    4    4    0    0  0.34751453205E+02  0.12242739215E+02  0.21049962118E+01  0.36905001997E+02  0.00000000000E+00 0. -1.
        -11    1    3    3    0    0 -0.94839146980E+02 -0.21517691473E+02 -0.73011954642E+01  0.97523239802E+02  0.00000000000E+00 0. -1.
         11    1    3    3    0    0 -0.38181620973E+02  0.44520767996E+02  0.34377268513E+02  0.67983318200E+02  0.00000000000E+00 0.  1.
         21    1    1    2  503  502  0.31375576404E+02  0.36910294850E+02 -0.30918497949E+02  0.57469558690E+02  0.00000000000E+00 0. -1.
          1    1    1    2  501    0  0.42377215543E+02 -0.33964105519E+02  0.72756519801E+01  0.54793466514E+02  0.00000000000E+00 0. -1.
<scales pt_clust_5="13000.00000" pt_clust_6="13000.00000" pt_clust_7="13000.00000" pt_clust_8="13000.00000" pt_clust_9="48.44375" pt_clust_10="55.49678"></scales>
<clustering>
<clus scale="   48.444">  2  9  1 -1</clus>
<clus scale="   55.497">  1 10  2 -1</clus>
<clus scale="   81.132">  5  6 -1 -1</clus>
<clus scale="   91.846">  7  8 -1 -1</clus>
<clus scale="  128.542">  1  5  2 -1</clus>
<clus scale="   55.497">  1  5  2 -1</clus>
</clustering>
</event>
<event>
10    4  0.2857708E-005  0.1372453E+03  0.7546771E-02  0.1218413E+00
         21   -1    0    0  501  502  0.00000000000E+00  0.00000000000E+00  0.41219728549E+03  0.41219728549E+03  0.00000000000E+00 0. -1.
          2   -1    0    0  503    0 -0.00000000000E+00 -0.00000000000E+00 -0.61024714444E+03  0.61024714444E+03  0.00000000000E+00 0. -1.
         24    2    1    2    0    0 -0.10221956167E+03  0.15636580002E+02 -0.26774690372E+03  0.29878141588E+03  0.82997521639E+02 0.  0.
         23    2    1    2    0    0  0.18482836163E+03  0.20439330295E+02  0.32553238322E+03  0.38531160672E+03  0.88962982540E+02 0.  0.
        -11    1    3    3    0    0  0.29626114517E+01  0.26620322321E+02 -0.57730452661E+02  0.63641368555E+02  0.00000000000E+00 0.  1.
         12    1    3    3    0    0 -0.10518217313E+03 -0.10983742319E+02 -0.21001645106E+03  0.23514004732E+03  0.00000000000E+00 0. -1.
        -13    1    4    4    0    0  0.77577323058E+02  0.49247850269E+02  0.18152792068E+03  0.20346001522E+03  0.00000000000E+00 0. -1.
         13    1    4    4    0    0  0.10725103857E+03 -0.28808519974E+02  0.14400446254E+03  0.18185159150E+03  0.00000000000E+00 0.  1.
         21    1    1    2  503  502  0.93145806117E+01  0.26496440461E+02 -0.21961287437E+03  0.22140152971E+03  0.00000000000E+00 0.  1.
          1    1    1    2  501    0 -0.91923380568E+02 -0.62572350758E+02 -0.36222464073E+02  0.11694987763E+03  0.00000000000E+00 0. -1.
<scales pt_clust_5="13000.00000" pt_clust_6="13000.00000" pt_clust_7="13000.00000" pt_clust_8="13000.00000" pt_clust_9="28.08599" pt_clust_10="106.80627"></scales>
<clustering>
<clus scale="   28.086">  2  9  1 -1</clus>
<clus scale="   82.998">  5  6 -1 -1</clus>
<clus scale="   88.963">  7  8 -1 -1</clus>
<clus scale="  106.806">  1 10  2 -1</clus>
<clus scale="  133.456">  2  5  1 -1</clus>
<clus scale="  106.806">  1  5  2 -1</clus>
</clustering>
</event>
<event>
10    4  0.2857708E-005  0.9491938E+02  0.7546771E-02  0.1295130E+00
         21   -1    0    0  501  502  0.00000000000E+00  0.00000000000E+00  0.22624259044E+03  0.22624259044E+03  0.00000000000E+00 0.  1.
          2   -1    0    0  503    0 -0.00000000000E+00 -0.00000000000E+00 -0.24489946462E+03  0.24489946462E+03  0.00000000000E+00 0. -1.
         23    2    1    2    0    0  0.22051830865E+02  0.25122174655E+02 -0.96951277022E+02  0.13340138169E+03  0.85316889405E+02 0.  0.
         24    2    1    2    0    0 -0.69726294456E+01  0.12479985690E+02  0.88201758437E+02  0.11866478412E+03  0.78085934675E+02 0.  0.
        -11    1    4    4    0    0 -0.23565865422E+02  0.25873779694E+02  0.90677883693E+02  0.97197124854E+02  0.00000000000E+00 0.  1.
         12    1    4    4    0    0  0.16593235976E+02 -0.13393794004E+02 -0.24761252560E+01  0.21467659264E+02  0.00000000000E+00 0. -1.
        -11    1    3    3    0    0  0.40564734927E+02 -0.18063632865E+02 -0.42288182289E+02  0.61319514947E+02  0.00000000000E+00 0.  1.
         11    1    3    3    0    0 -0.18512904063E+02  0.43185807520E+02 -0.54663094733E+02  0.72081866747E+02  0.00000000000E+00 0. -1.
         21    1    1    2  503  502  0.29899870155E+02 -0.39488568025E+01 -0.10466212507E+03  0.10892087095E+03  0.00000000000E+00 0. -1.
          1    1    1    2  501    0 -0.44979071574E+02 -0.33653303542E+02  0.94754769467E+02  0.11015501830E+03  0.00000000000E+00 0. -1.
<scales pt_clust_5="13000.00000" pt_clust_6="13000.00000" pt_clust_7="13000.00000" pt_clust_8="13000.00000" pt_clust_9="30.15950" pt_clust_10="54.98494"></scales>
<clustering>
<clus scale="   30.160">  2  9  1 -1</clus>
<clus scale="   54.985">  1 10  2 -1</clus>
<clus scale="   78.086">  5  6 -1 -1</clus>
<clus scale="   85.317">  7  8 -1 -1</clus>
<clus scale="   88.477">  1  5  2 -1</clus>
<clus scale="   54.985">  1  5  2 -1</clus>
</clustering>
</event>
<event>
10    4  0.2857708E-005  0.1330756E+03  0.7546771E-02  0.1237684E+00
          2   -1    0    0  502    0 -0.00000000000E+00  0.00000000000E+00  0.61677518027E+03  0.61677518027E+03  0.00000000000E+00 0. -1.
         21   -1    0    0  503  502  0.00000000000E+00 -0.00000000000E+00 -0.80505363404E+02  0.80505363404E+02  0.00000000000E+00 0.  1.
         24    2    1    2    0    0  0.50423529594E+02  0.16381541417E+02  0.90637843391E+02  0.13364031617E+03  0.82665762047E+02 0.  0.
         23    2    1    2    0    0  0.22942389421E+02 -0.95293820695E+02  0.36614963193E+02  0.13822252151E+03  0.90319125477E+02 0.  0.
        -13    1    3    3    0    0  0.58005282316E+02  0.39262785190E+02  0.48841478978E+02  0.85391270902E+02  0.00000000000E+00 0.  1.
         14    1    3    3    0    0 -0.75817527225E+01 -0.22881243772E+02  0.41796364413E+02  0.48249045266E+02  0.00000000000E+00 0. -1.
        -13    1    4    4    0    0  0.42198749070E+01 -0.81073136804E+02 -0.14030094681E+02  0.82386312044E+02  0.00000000000E+00 0.  1.
         13    1    4    4    0    0  0.18722514514E+02 -0.14220683891E+02  0.50645057874E+02  0.55836209463E+02  0.00000000000E+00 0. -1.
         21    1    1    2  503  501 -0.20742105708E+02  0.23738340282E+02  0.56023204288E+02  0.64283303954E+02  0.00000000000E+00 0. -1.
          1    1    1    2  501    0 -0.52623813307E+02  0.55173938996E+02  0.35299380599E+03  0.36113440205E+03  0.00000000000E+00 0. -1.
<scales pt_clust_5="13000.00000" pt_clust_6="13000.00000" pt_clust_7="13000.00000" pt_clust_8="13000.00000" pt_clust_9="29.29427" pt_clust_10="107.82943"></scales>
<clustering>
<clus scale="   29.294">  9 10 -1 -1</clus>
<clus scale="   82.666">  5  6 -1 -1</clus>
<clus scale="   90.319">  7  8 -1 -1</clus>
<clus scale="   98.207">  1  5  2 -1</clus>
<clus scale="  107.829">  2  9  1 -1</clus>
<clus scale="  107.829">  2  5  1 -1</clus>
</clustering>
</event>
<event>
10    4  0.2857708E-005  0.1542586E+03  0.7546771E-02  0.1212288E+00
         21   -1    0    0  501  502  0.00000000000E+00  0.00000000000E+00  0.91757107256E+02  0.91757107256E+02  0.00000000000E+00 0. -1.
          2   -1    0    0  503    0 -0.00000000000E+00 -0.00000000000E+00 -0.68749501425E+03  0.68749501425E+03  0.00000000000E+00 0. -1.
         24    2    1    2    0    0  0.65241770173E+02 -0.75602048940E+01 -0.16569945805E+02  0.10585625939E+03  0.81347029912E+02 0.  0.
         23    2    1    2    0    0  0.64226209638E+02  0.11741766078E+01 -0.28652954029E+03  0.30763362116E+03  0.91721767941E+02 0.  0.
        -11    1    3    3    0    0 -0.20390498148E+01  0.21428322156E+02  0.14841768274E+02  0.26145913640E+02  0.00000000000E+00 0.  1.
         12    1    3    3    0    0  0.67280819988E+02 -0.28988527050E+02 -0.31411714079E+02  0.79710345754E+02  0.00000000000E+00 0. -1.
        -11    1    4    4    0    0 -0.17820797697E+00 -0.33780915230E+02 -0.52762534035E+02  0.62650355064E+02  0.00000000000E+00 0. -1.
         11    1    4    4    0    0  0.64404417615E+02  0.34955091838E+02 -0.23376700625E+03  0.24498326609E+03  0.00000000000E+00 0.  1.
         21    1    1    2  503  502  0.33363163777E+02 -0.13169616497E+02 -0.12974425267E+03  0.13461096017E+03  0.00000000000E+00 0. -1.
          1    1    1    2  501    0 -0.16283114359E+03  0.19555644784E+02 -0.16289416822E+03  0.23115128078E+03  0.00000000000E+00 0. -1.
<scales pt_clust_5="13000.00000" pt_clust_6="13000.00000" pt_clust_7="13000.00000" pt_clust_8="13000.00000" pt_clust_9="35.86836" pt_clust_10="124.02759"></scales>
<clustering>
<clus scale="   35.868">  2  9  1 -1</clus>
<clus scale="   81.347">  5  6 -1 -1</clus>
<clus scale="   91.722">  7  8 -1 -1</clus>
<clus scale="  106.997">  2  5  1 -1</clus>
<clus scale="  124.028">  1 10  2 -1</clus>
<clus scale="  124.028">  1  5  2 -1</clus>
</clustering>
</event>
<event>
10    4  0.2857708E-005  0.3694084E+03  0.7546771E-02  0.1055481E+00
          2   -1    0    0  503    0 -0.00000000000E+00  0.00000000000E+00  0.19523004464E+04  0.19523004464E+04  0.00000000000E+00 0. -1.
         21   -1    0    0  501  502  0.00000000000E+00 -0.00000000000E+00 -0.23374994810E+03  0.23374994810E+03  0.00000000000E+00 0. -1.
         24    2    1    2    0    0 -0.22946210368E+03  0.30971460144E+03  0.59170367026E+03  0.71040630925E+03  0.77381518719E+02 0.  0.
         23    2    1    2    0    0  0.12083864879E+03 -0.23923378460E+03  0.23802700570E+02  0.28749494706E+03  0.10125212736E+03 0.  0.
        -13    1    3    3    0    0 -0.18549938511E+03  0.28288133319E+03  0.54152463595E+03  0.63849886600E+03  0.00000000000E+00 0.  1.
         14    1    3    3    0    0 -0.43962718573E+02  0.26833268255E+02  0.50179034316E+02  0.71907443248E+02  0.00000000000E+00 0. -1.
        -13    1    4    4    0    0  0.53313361071E+02 -0.13005594089E+03 -0.37151835178E+02  0.14538611036E+03  0.00000000000E+00 0.  1.
         13    1    4    4    0    0  0.67525287718E+02 -0.10917784371E+03  0.60954535748E+02  0.14210883669E+03  0.00000000000E+00 0. -1.
         21    1    1    2  503  502  0.94878632945E+02  0.91937890061E+02  0.96657899982E+03  0.97556624250E+03  0.00000000000E+00 0.  1.
          1    1    1    2  501    0  0.13744821949E+02 -0.16241870691E+03  0.13646512768E+03  0.21258289572E+03  0.00000000000E+00 0. -1.
<scales pt_clust_5="13000.00000" pt_clust_6="13000.00000" pt_clust_7="13000.00000" pt_clust_8="13000.00000" pt_clust_9="132.11560" pt_clust_10="149.24143"></scales>
<clustering>
<clus scale="   77.382">  5  6 -1 -1</clus>
<clus scale="  101.252">  7  8 -1 -1</clus>
<clus scale="  132.116">  1  9  2 -1</clus>
<clus scale="  149.241">  2 10  1 -1</clus>
<clus scale="  363.591">  1  5  2 -1</clus>
<clus scale="  149.241">  2  5  1 -1</clus>
</clustering>
</event>
<event>
10    4  0.2857708E-005  0.1184929E+03  0.7546771E-02  0.1251241E+00
         -1   -1    0    0    0  501 -0.00000000000E+00  0.00000000000E+00  0.11512464269E+03  0.11512464269E+03  0.00000000000E+00 0.  1.
         21   -1    0    0  503  502  0.00000000000E+00 -0.00000000000E+00 -0.27541629462E+03  0.27541629462E+03  0.00000000000E+00 0.  1.
         24    2    1    2    0    0  0.20816583086E+02 -0.41331028937E+02 -0.23254829179E+02  0.94774189925E+02  0.79371127694E+02 0.  0.
         23    2    1    2    0    0 -0.63526228866E+02  0.10755427812E+03 -0.90674728875E+02  0.18155732203E+03  0.95591057277E+02 0.  0.
        -13    1    3    3    0    0  0.17502806905E+02 -0.64869756642E+02 -0.22951409660E+02  0.71001413942E+02  0.00000000000E+00 0.  1.
         14    1    3    3    0    0  0.33137761805E+01  0.23538727704E+02 -0.30341951816E+00  0.23772775983E+02  0.00000000000E+00 0. -1.
        -11    1    4    4    0    0 -0.34816373374E+02  0.12067736888E+03 -0.69496514904E+02  0.14354432346E+03  0.00000000000E+00 0.  1.
         11    1    4    4    0    0 -0.28709855492E+02 -0.13123090757E+02 -0.21178213971E+02  0.38012998572E+02  0.00000000000E+00 0. -1.
         21    1    1    2  503  501  0.35313559939E+02 -0.13865187555E+01 -0.31363408338E+02  0.47250749543E+02  0.00000000000E+00 0. -1.
         -2    1    1    2    0  502  0.73960858421E+01 -0.64836730429E+02 -0.14998685541E+02  0.66958675811E+02  0.00000000000E+00 0.  1.
<scales pt_clust_5="13000.00000" pt_clust_6="13000.00000" pt_clust_7="13000.00000" pt_clust_8="13000.00000" pt_clust_9="35.34077" pt_clust_10="66.46800"></scales>
<clustering>
<clus scale="   35.341">  2  9  1 -1</clus>
<clus scale="   66.468">  2 10  1 -1</clus>
<clus scale="   79.371">  5  6 -1 -1</clus>
<clus scale="   95.591">  7  8 -1 -1</clus>
<clus scale="  105.843">  1  5  2 -1</clus>
<clus scale="   35.341">  2  5  1 -1</clus>
</clustering>
</event>
<event>
10    4  0.2857708E-005  0.1095321E+03  0.7546771E-02  0.1266532E+00
          2   -1    0    0  503    0 -0.00000000000E+00  0.00000000000E+00  0.59058293402E+03  0.59058293402E+03  0.00000000000E+00 0. -1.
         21   -1    0    0  501  502  0.00000000000E+00 -0.00000000000E+00 -0.61899074198E+02  0.61899074198E+02  0.00000000000E+00 0. -1.
         24    2    1    2    0    0 -0.16220300648E+02  0.29530249094E+02  0.26160943779E+03  0.27603234072E+03  0.81358597677E+02 0.  0.
         23    2    1    2    0    0 -0.55802836743E+02 -0.53903105366E+02  0.95137370667E+02  0.15444747946E+03  0.93719812510E+02 0.  0.
        -11    1    3    3    0    0  0.78465859509E+01  0.30028355677E+02  0.29967680593E+02  0.43143167893E+02  0.00000000000E+00 0.  1.
         12    1    3    3    0    0 -0.24066886599E+02 -0.49810658292E+00  0.23164175720E+03  0.23288917283E+03  0.00000000000E+00 0. -1.
        -11    1    4    4    0    0 -0.64104106162E+02 -0.30614686085E+01  0.28502876051E+02  0.70221954972E+02  0.00000000000E+00 0. -1.
         11    1    4    4    0    0  0.83012694195E+01 -0.50841636758E+02  0.66634494617E+02  0.84225524486E+02  0.00000000000E+00 0.  1.
         21    1    1    2  503  502  0.21387567594E+02  0.55054067673E+02  0.14575280509E+03  0.15726493127E+03  0.00000000000E+00 0.  1.
          1    1    1    2  501    0  0.50635569797E+02 -0.30681211401E+02  0.26184246272E+02  0.64737256773E+02  0.00000000000E+00 0. -1.
<scales pt_clust_5="13000.00000" pt_clust_6="13000.00000" pt_clust_7="13000.00000" pt_clust_8="13000.00000" pt_clust_9="59.06250" pt_clust_10="58.45660"></scales>
<clustering>
<clus scale="   59.062">  1  9  2 -1</clus>
<clus scale="   58.457">  2 10  1 -1</clus>
<clus scale="   81.359">  5  6 -1 -1</clus>
<clus scale="   93.720">  7  8 -1 -1</clus>
<clus scale="   99.162">  1  5  2 -1</clus>
<clus scale="   58.457">  2  5  1 -1</clus>
</clustering>
</event>
<event>
10    4  0.2857708E-005  0.1925984E+03  0.7546771E-02  0.1169676E+00
         21   -1    0    0  501  502  0.00000000000E+00  0.00000000000E+00  0.28838804257E+03  0.28838804257E+03  0.00000000000E+00 0.  1.
          2   -1    0    0  503    0 -0.00000000000E+00 -0.00000000000E+00 -0.35661747636E+03  0.35661747636E+03  0.00000000000E+00 0. -1.
         24    2    1    2    0    0  0.10795742037E+03  0.50994657995E+02 -0.17068551385E+03  0.22368662533E+03  0.81528534603E+02 0.  0.
         23    2    1    2    0    0 -0.13559804557E+03  0.10982488521E+03  0.58432015968E+02  0.20498282489E+03  0.90306824966E+02 0.  0.
        -13    1    3    3    0    0  0.90108111344E+01 -0.18856788131E+02 -0.12132751120E+02  0.24165612462E+02  0.00000000000E+00 0.  1.
         14    1    3    3    0    0  0.98946609239E+02  0.69851446125E+02 -0.15855276273E+03  0.19952101287E+03  0.00000000000E+00 0. -1.
        -13    1    4    4    0    0 -0.18803087943E+01  0.24568686007E+02 -0.16430547942E+02  0.29616191500E+02  0.00000000000E+00 0. -1.
         13    1    4    4    0    0 -0.13371773678E+03  0.85256199207E+02  0.74862563910E+02  0.17536663339E+03  0.00000000000E+00 0.  1.
         21    1    1    2  503  502 -0.18292305432E+02  0.16810513635E+02 -0.71650899339E+01  0.25856146667E+02  0.00000000000E+00 0.  1.
          1    1    1    2  501    0  0.45932930631E+02 -0.17763005684E+03  0.51189154026E+02  0.19047992204E+03  0.00000000000E+00 0. -1.
<scales pt_clust_5="13000.00000" pt_clust_6="13000.00000" pt_clust_7="13000.00000" pt_clust_8="13000.00000" pt_clust_9="24.84355" pt_clust_10="170.11420"></scales>
<clustering>
<clus scale="   24.844">  2  9  1 -1</clus>
<clus scale="   81.529">  5  6 -1 -1</clus>
<clus scale="   90.307">  7  8 -1 -1</clus>
<clus scale="  140.761">  2  5  1 -1</clus>
<clus scale="  170.114">  1 10  2 -1</clus>
<clus scale="  170.114">  1  5  2 -1</clus>
</clustering>
</event>
<event>
10    4  0.2857708E-005  0.2249349E+03  0.7546771E-02  0.1130256E+00
         21   -1    0    0  501  502  0.00000000000E+00  0.00000000000E+00  0.67524737836E+02  0.67524737836E+02  0.00000000000E+00 0. -1.
          2   -1    0    0  503    0 -0.00000000000E+00 -0.00000000000E+00 -0.14480830766E+04  0.14480830766E+04  0.00000000000E+00 0. -1.
         24    2    1    2    0    0 -0.11469593753E+02 -0.98000135526E+02 -0.34223749477E+03  0.36530475358E+03  0.81150982835E+02 0.  0.
         23    2    1    2    0    0 -0.21971412482E+02 -0.12373355809E+03 -0.35830436257E+03  0.38417761146E+03  0.58460965994E+02 0.  0.
        -11    1    3    3    0    0 -0.26538028587E+02 -0.16359994110E+01 -0.42836236933E+02  0.50417126553E+02  0.00000000000E+00 0.  1.
         12    1    3    3    0    0  0.15068434833E+02 -0.96364136115E+02 -0.29940125784E+03  0.31488762703E+03  0.00000000000E+00 0. -1.
        -13    1    4    4    0    0  0.19017262343E+02 -0.23558825861E+02 -0.72759728746E+02  0.78807694232E+02  0.00000000000E+00 0.  1.
         13    1    4    4    0    0 -0.40988674825E+02 -0.10017473223E+03 -0.28554463383E+03  0.30536991723E+03  0.00000000000E+00 0. -1.
         21    1    1    2  503  502 -0.49328990695E+02  0.80501630160E+02 -0.54730677273E+03  0.55539046198E+03  0.00000000000E+00 0. -1.
          1    1    1    2  501    0  0.82769996931E+02  0.14123206346E+03 -0.13270970869E+03  0.21073498742E+03  0.00000000000E+00 0. -1.
<scales pt_clust_5="13000.00000" pt_clust_6="13000.00000" pt_clust_7="13000.00000" pt_clust_8="13000.00000" pt_clust_9="94.41325" pt_clust_10="172.95931"></scales>
<clustering>
<clus scale="   58.461">  7  8 -1 -1</clus>
<clus scale="   81.151">  5  6 -1 -1</clus>
<clus scale="   81.657">  5  7 -1 -1</clus>
<clus scale="   94.413">  2  9  1 -1</clus>
<clus scale="  172.959">  1 10  2 -1</clus>
<clus scale="  172.959">  1  5  2 -1</clus>
</clustering>
</event>
<event>
10    4  0.2857708E-005  0.1082007E+03  0.7546771E-02  0.1267897E+00
         21   -1    0    0  501  502  0.00000000000E+00  0.00000000000E+00  0.82296834272E+02  0.82296834272E+02  0.00000000000E+00 0.  1.
          4   -1    0    0  503    0 -0.00000000000E+00 -0.00000000000E+00 -0.44505114105E+03  0.44505114105E+03  0.00000000000E+00 0. -1.
         24    2    1    2    0    0 -0.31890855499E+02  0.39282548694E+02 -0.98716684124E+02  0.13696745813E+03  0.80342738103E+02 0.  0.
         23    2    1    2    0    0 -0.30221920784E+02 -0.73203325250E+02 -0.47022831877E+02  0.12888045384E+03  0.90149505497E+02 0.  0.
        -13    1    3    3    0    0 -0.41995768256E+02  0.27141333219E+02 -0.10773841680E+03  0.11877652535E+03  0.00000000000E+00 0.  1.
         14    1    3    3    0    0  0.10104912757E+02  0.12141215475E+02  0.90217326723E+01  0.18190932781E+02  0.00000000000E+00 0. -1.
        -13    1    4    4    0    0 -0.33783046407E+02 -0.95695441803E+01 -0.54372913386E+02  0.64724679300E+02  0.00000000000E+00 0. -1.
         13    1    4    4    0    0  0.35611256234E+01 -0.63633781070E+02  0.73500815089E+01  0.64155774542E+02  0.00000000000E+00 0.  1.
         21    1    1    2  503  502 -0.68663134997E+01  0.67445477904E+02 -0.83841060233E+02  0.10782097260E+03  0.00000000000E+00 0. -1.
          3    1    1    2  501    0  0.68979089783E+02 -0.33524701348E+02 -0.13317373054E+03  0.15367909075E+03  0.00000000000E+00 0. -1.
<scales pt_clust_5="13000.00000" pt_clust_6="13000.00000" pt_clust_7="13000.00000" pt_clust_8="13000.00000" pt_clust_9="67.79409" pt_clust_10="66.41499"></scales>
<clustering>
<clus scale="   67.794">  2  9  1 -1</clus>
<clus scale="   66.415">  1 10  2 -1</clus>
<clus scale="   80.343">  5  6 -1 -1</clus>
<clus scale="   90.150">  7  8 -1 -1</clus>
<clus scale="  100.177">  2  5  1 -1</clus>
<clus scale="   66.415">  1  5  2 -1</clus>
</clustering>
</event>
<event>
10    4  0.2857708E-005  0.3047697E+03  0.7546771E-02  0.1104202E+00
          2   -1    0    0  503    0 -0.00000000000E+00  0.00000000000E+00  0.22124438307E+04  0.22124438307E+04  0.00000000000E+00 0. -1.
         21   -1    0    0  501  502  0.00000000000E+00 -0.00000000000E+00 -0.10675704610E+03  0.10675704610E+03  0.00000000000E+00 0. -1.
         23    2    1    2    0    0  0.16975495215E+03  0.59553496907E+02  0.32860104636E+03  0.38559461593E+03  0.91330155988E+02 0.  0.
         24    2    1    2    0    0 -0.30749346108E+03  0.56944119315E+02  0.67651189838E+03  0.74966125040E+03  0.80800868634E+02 0.  0.
        -11    1    4    4    0    0 -0.11813560408E+03 -0.16943290114E+02  0.26813273713E+03  0.29349320393E+03  0.00000000000E+00 0.  1.
         12    1    4    4    0    0 -0.18935785700E+03  0.73887409429E+02  0.40837916125E+03  0.45616804647E+03  0.00000000000E+00 0. -1.
        -11    1    3    3    0    0  0.13972127979E+03  0.80490747397E+02  0.23419445067E+03  0.28433754090E+03  0.00000000000E+00 0.  1.
         11    1    3    3    0    0  0.30033672368E+02 -0.20937250490E+02  0.94406595691E+02  0.10125707503E+03  0.00000000000E+00 0. -1.
         21    1    1    2  503  502 -0.13605342049E+03 -0.77678169182E+02  0.46932438428E+03  0.49478258748E+03  0.00000000000E+00 0.  1.
          1    1    1    2  501    0  0.27379192942E+03 -0.38819447039E+02  0.63124945554E+03  0.68916242294E+03  0.00000000000E+00 0. -1.
<scales pt_clust_5="13000.00000" pt_clust_6="13000.00000" pt_clust_7="13000.00000" pt_clust_8="13000.00000" pt_clust_9="156.66662" pt_clust_10="293.86356"></scales>
<clustering>
<clus scale="   80.801">  5  6 -1 -1</clus>
<clus scale="   91.330">  7  8 -1 -1</clus>
<clus scale="  156.667">  1  9  2 -1</clus>
<clus scale="  174.092">  1  7  2 -1</clus>
<clus scale="  293.864">  2 10  1 -1</clus>
<clus scale="  293.864">  2  5  1 -1</clus>
</clustering>
</event>
<event>
10    4  0.2857708E-005  0.1007985E+03  0.7546771E-02  0.1282380E+00
         21   -1    0    0  501  502  0.00000000000E+00  0.00000000000E+00  0.26482081687E+02  0.26482081687E+02  0.00000000000E+00 0.  1.
          2   -1    0    0  503    0 -0.00000000000E+00 -0.00000000000E+00 -0.10558135521E+04  0.10558135521E+04  0.00000000000E+00 0. -1.
         24    2    1    2    0    0  0.39843122548E+02 -0.10202490902E+02 -0.70065287491E+03  0.70661793548E+03  0.81871181640E+02 0.  0.
         23    2    1    2    0    0 -0.35510348453E+02  0.61248522560E+01 -0.20623948950E+03  0.22778936124E+03  0.89748355994E+02 0.  0.
        -13    1    3    3    0    0  0.57648210669E+02  0.43802537027E+01 -0.31382283874E+03  0.31910386543E+03  0.00000000000E+00 0.  1.
         14    1    3    3    0    0 -0.17805088121E+02 -0.14582744604E+02 -0.38683003617E+03  0.38751407005E+03  0.00000000000E+00 0. -1.
        -13    1    4    4    0    0 -0.32290960871E+02  0.34566173403E+02 -0.49536531846E+02  0.68493755080E+02  0.00000000000E+00 0.  1.
         13    1    4    4    0    0 -0.32193875821E+01 -0.28441321147E+02 -0.15670295765E+03  0.15929560616E+03  0.00000000000E+00 0. -1.
         21    1    1    2  503  502  0.15379885510E+02  0.19354989840E+02 -0.12034831462E+03  0.12286119542E+03  0.00000000000E+00 0.  1.
          1    1    1    2  501    0 -0.19712659605E+02 -0.15277351195E+02 -0.20907913433E+01  0.25027141600E+02  0.00000000000E+00 0. -1.
<scales pt_clust_5="13000.00000" pt_clust_6="13000.00000" pt_clust_7="13000.00000" pt_clust_8="13000.00000" pt_clust_9="24.72158" pt_clust_10="24.59128"></scales>
<clustering>
<clus scale="   24.722">  2  9  1 -1</clus>
<clus scale="   24.591">  1 10  2 -1</clus>
<clus scale="   81.871">  5  6 -1 -1</clus>
<clus scale="   89.748">  7  8 -1 -1</clus>
<clus scale="   93.853">  2  5  1 -1</clus>
<clus scale="   24.591">  1  5  2 -1</clus>
</clustering>
</event>
<event>
10    4  0.2857708E-005  0.1462751E+03  0.7546771E-02  0.1206066E+00
          2   -1    0    0  502    0 -0.00000000000E+00  0.00000000000E+00  0.17332556422E+03  0.17332556422E+03  0.00000000000E+00 0. -1.
         21   -1    0    0  503  502  0.00000000000E+00 -0.00000000000E+00 -0.17966724376E+03  0.17966724376E+03  0.00000000000E+00 0. -1.
         23    2    1    2    0    0  0.47168511320E+02  0.86128048016E+02  0.21659900053E+02  0.13614664608E+03  0.91781527846E+02 0.  0.
         24    2    1    2    0    0 -0.71088693591E+02 -0.12061280078E+03 -0.23582029461E+02  0.16653263908E+03  0.87039977584E+02 0.  0.
        -13    1    4    4    0    0  0.19350489195E+02 -0.35070509217E+02 -0.10174977046E+02  0.41326894473E+02  0.00000000000E+00 0.  1.
         14    1    4    4    0    0 -0.90439182787E+02 -0.85542291563E+02 -0.13407052415E+02  0.12520574461E+03  0.00000000000E+00 0. -1.
        -11    1    3    3    0    0  0.16970888878E+01  0.88719457825E+02  0.11453031893E+02  0.89471751112E+02  0.00000000000E+00 0.  1.
         11    1    3    3    0    0  0.45471422432E+02 -0.25914098090E+01  0.10206868160E+02  0.46674894970E+02  0.00000000000E+00 0. -1.
         21    1    1    2  503  501 -0.34515131419E+00  0.21540195035E+02 -0.70957787789E+01  0.22681472793E+02  0.00000000000E+00 0. -1.
          1    1    1    2  501    0  0.24265333585E+02  0.12944557729E+02  0.26762286398E+01  0.27632050024E+02  0.00000000000E+00 0. -1.
<scales pt_clust_5="13000.00000" pt_clust_6="13000.00000" pt_clust_7="13000.00000" pt_clust_8="13000.00000" pt_clust_9="21.54296" pt_clust_10="28.28410"></scales>
<clustering>
<clus scale="   21.543">  2  9  1 -1</clus>
<clus scale="   28.284">  2 10  1 -1</clus>
<clus scale="   87.040">  5  6 -1 -1</clus>
<clus scale="   91.782">  7  8 -1 -1</clus>
<clus scale="  143.348">  2  5  1 -1</clus>
<clus scale="   21.543">  2  5  1 -1</clus>
</clustering>
</event>
<event>
10    4  0.2857708E-005  0.1555644E+03  0.7546771E-02  0.1195659E+00
         -1   -1    0    0    0  501 -0.00000000000E+00  0.00000000000E+00  0.44055651060E+03  0.44055651060E+03  0.00000000000E+00 0.  1.
         21   -1    0    0  503  502  0.00000000000E+00 -0.00000000000E+00 -0.24910504469E+03  0.24910504469E+03  0.00000000000E+00 0. -1.
         23    2    1    2    0    0 -0.81611301828E+02 -0.10226104213E+03  0.34439895189E+03  0.37961439788E+03  0.91535390395E+02 0.  0.
         24    2    1    2    0    0  0.86089241644E+02  0.41609473910E+02 -0.17527461157E+03  0.21528286236E+03  0.80515933315E+02 0.  0.
        -13    1    4    4    0    0  0.16388586699E+02 -0.24103381718E+02 -0.38077695281E+02  0.47952785760E+02  0.00000000000E+00 0.  1.
         14    1    4    4    0    0  0.69700654945E+02  0.65712855628E+02 -0.13719691629E+03  0.16733007660E+03  0.00000000000E+00 0. -1.
        -11    1    3    3    0    0 -0.36892239417E+02 -0.10791617187E+03  0.26055780828E+03  0.28442452238E+03  0.00000000000E+00 0.  1.
         11    1    3    3    0    0 -0.44719062411E+02  0.56551297382E+01  0.83841143609E+02  0.95189875496E+02  0.00000000000E+00 0. -1.
         21    1    1    2  503  501 -0.31216687582E+02  0.35160299824E+02  0.31631155317E+02  0.56667964971E+02  0.00000000000E+00 0.  1.
         -2    1    1    2    0  502  0.26738747766E+02  0.25491268395E+02 -0.93040297158E+01  0.38096330078E+02  0.00000000000E+00 0.  1.
<scales pt_clust_5="13000.00000" pt_clust_6="13000.00000" pt_clust_7="13000.00000" pt_clust_8="13000.00000" pt_clust_9="47.13574" pt_clust_10="36.94273"></scales>
<clustering>
<clus scale="   36.943">  2 10  1 -1</clus>
<clus scale="   47.136">  1  9  2 -1</clus>
<clus scale="   80.516">  5  6 -1 -1</clus>
<clus scale="   91.535">  7  8 -1 -1</clus>
<clus scale="  149.346">  2  5  1 -1</clus>
<clus scale="   36.943">  2  5  1 -1</clus>
</clustering>
</event>
<event>
10    4  0.2857708E-005  0.9352936E+02  0.7546771E-02  0.1299237E+00
         21   -1    0    0  501  502  0.00000000000E+00  0.00000000000E+00  0.13461734849E+03  0.13461734849E+03  0.00000000000E+00 0. -1.
          2   -1    0    0  503    0 -0.00000000000E+00 -0.00000000000E+00 -0.54215011544E+03  0.54215011544E+03  0.00000000000E+00 0. -1.
         24    2    1    2    0    0 -0.75415540866E+01 -0.62845192729E+01 -0.32804627740E+03  0.33849162164E+03  0.82860410242E+02 0.  0.
         23    2    1    2    0    0  0.55939537534E+02  0.30380268123E+02 -0.15467996621E+03  0.19038365763E+03  0.90927732814E+02 0.  0.
        -13    1    3    3    0    0 -0.73729801356E+01 -0.29074176340E+02 -0.42395285379E+02  0.51932925860E+02  0.00000000000E+00 0.  1.
         14    1    3    3    0    0 -0.16857395100E+00  0.22789657067E+02 -0.28565099202E+03  0.28655869578E+03  0.00000000000E+00 0. -1.
        -11    1    4    4    0    0  0.79427112646E+02  0.13277820914E+02 -0.99341274067E+02  0.12788141180E+03  0.00000000000E+00 0. -1.
         11    1    4    4    0    0 -0.23487575112E+02  0.17102447209E+02 -0.55338692146E+02  0.62502245828E+02  0.00000000000E+00 0.  1.
         21    1    1    2  503  502  0.23448900997E+02 -0.93586438654E+01 -0.16735726823E+02  0.30290588064E+02  0.00000000000E+00 0. -1.
          1    1    1    2  501    0 -0.71846884444E+02 -0.14737104985E+02  0.91929203483E+02  0.11760159659E+03  0.00000000000E+00 0. -1.
<scales pt_clust_5="13000.00000" pt_clust_6="13000.00000" pt_clust_7="13000.00000" pt_clust_8="13000.00000" pt_clust_9="25.24748" pt_clust_10="57.20151"></scales>
<clustering>
<clus scale="   25.247">  1  9  2 -1</clus>
<clus scale="   57.202">  1 10  2 -1</clus>
<clus scale="   82.860">  5  6 -1 -1</clus>
<clus scale="   85.707">  2  5  1 -1</clus>
<clus scale="   90.928">  7  8 -1 -1</clus>
<clus scale="   25.247">  1  5  2 -1</clus>
</clustering>
</event>
<event>
10    4  0.2857708E-005  0.9768416E+02  0.7546771E-02  0.1291189E+00
         21   -1    0    0  503  502  0.00000000000E+00  0.00000000000E+00  0.23825148329E+03  0.23825148329E+03  0.00000000000E+00 0.  1.
         -1   -1    0    0    0  501 -0.00000000000E+00 -0.00000000000E+00 -0.29939267682E+03  0.29939267682E+03  0.00000000000E+00 0.  1.
         23    2    1    2    0    0 -0.20736087828E+02 -0.85670011067E+00 -0.21540802222E+03  0.23481416557E+03  0.91139217914E+02 0.  0.
         24    2    1    2    0    0  0.10277504695E+02  0.54700022764E+02  0.14415820430E+02  0.98497231642E+02  0.79976053724E+02 0.  0.
        -11    1    4    4    0    0 -0.11495643198E+02  0.42474867658E+02  0.42320363431E+02  0.61051432056E+02  0.00000000000E+00 0.  1.
         12    1    4    4    0    0  0.21773147894E+02  0.12225155106E+02 -0.27904543001E+02  0.37445799586E+02  0.00000000000E+00 0. -1.
        -13    1    3    3    0    0 -0.45286287042E+02  0.15724315377E+02 -0.18946441851E+03  0.19543507303E+03  0.00000000000E+00 0.  1.
         13    1    3    3    0    0  0.24550199214E+02 -0.16581015488E+02 -0.25943603715E+02  0.39379092546E+02  0.00000000000E+00 0. -1.
         21    1    1    2  503  501 -0.62304063891E+01 -0.23542757147E+02 -0.25582889393E+02  0.35320866461E+02  0.00000000000E+00 0.  1.
         -2    1    1    2    0  502  0.16688989522E+02 -0.30300565507E+02  0.16543389765E+03  0.16901189643E+03  0.00000000000E+00 0.  1.
<scales pt_clust_5="13000.00000" pt_clust_6="13000.00000" pt_clust_7="13000.00000" pt_clust_8="13000.00000" pt_clust_9="24.35322" pt_clust_10="34.70994"></scales>
<clustering>
<clus scale="   24.353">  2  9  1 -1</clus>
<clus scale="   34.710">  1 10  2 -1</clus>
<clus scale="   79.976">  5  6 -1 -1</clus>
<clus scale="   87.361">  1  5  2 -1</clus>
<clus scale="   91.139">  7  8 -1 -1</clus>
<clus scale="   34.710">  1  5  2 -1</clus>
</clustering>
</event>
<event>
10    4  0.2857708E-005  0.1509775E+03  0.7546771E-02  0.1199646E+00
          2   -1    0    0  503    0 -0.00000000000E+00  0.00000000000E+00  0.88817733986E+03  0.88817733986E+03  0.00000000000E+00 0. -1.
         21   -1    0    0  501  502  0.00000000000E+00 -0.00000000000E+00 -0.83762003308E+02  0.83762003308E+02  0.00000000000E+00 0. -1.
         23    2    1    2    0    0 -0.14380998744E+03 -0.38999748188E+02  0.32853954165E+03  0.37019963485E+03  0.83109845193E+02 0.  0.
         24    2    1    2    0    0  0.75936835823E+02  0.14248589953E+01 -0.32486395687E+01  0.11101108408E+03  0.80897922540E+02 0.  0.
        -11    1    4    4    0    0 -0.34924065029E+01 -0.26510193528E+02 -0.18090449062E+01  0.26800371406E+02  0.00000000000E+00 0.  1.
         12    1    4    4    0    0  0.79429242325E+02  0.27935052523E+02 -0.14395946625E+01  0.84210712672E+02  0.00000000000E+00 0. -1.
        -11    1    3    3    0    0 -0.59972925826E+02 -0.42896608645E+02  0.84584448821E+02  0.11221140694E+03  0.00000000000E+00 0. -1.
         11    1    3    3    0    0 -0.83837061611E+02  0.38968604562E+01  0.24395509283E+03  0.25798822791E+03  0.00000000000E+00 0.  1.
         21    1    1    2  503  502  0.15465300486E+02 -0.16782144359E+02  0.49344381110E+02  0.54366201224E+02  0.00000000000E+00 0. -1.
          1    1    1    2  501    0  0.52407851128E+02  0.54357033552E+02  0.42978005336E+03  0.43636242302E+03  0.00000000000E+00 0. -1.
<scales pt_clust_5="13000.00000" pt_clust_6="13000.00000" pt_clust_7="13000.00000" pt_clust_8="13000.00000" pt_clust_9="22.82139" pt_clust_10="75.73360"></scales>
<clustering>
<clus scale="   22.821">  1  9  2 -1</clus>
<clus scale="   75.734">  2 10  1 -1</clus>
<clus scale="   80.898">  5  6 -1 -1</clus>
<clus scale="   83.110">  7  8 -1 -1</clus>
<clus scale="  149.771">  2  5  1 -1</clus>
<clus scale="   75.734">  2  5  1 -1</clus>
</clustering>
</event>
<event>
10    4  0.2857708E-005  0.3362863E+03  0.7546771E-02  0.1068630E+00
         21   -1    0    0  501  502  0.00000000000E+00  0.00000000000E+00  0.15988090481E+03  0.15988090481E+03  0.00000000000E+00 0. -1.
          2   -1    0    0  503    0 -0.00000000000E+00 -0.00000000000E+00 -0.27553766954E+04  0.27553766954E+04  0.00000000000E+00 0. -1.
         23    2    1    2    0    0 -0.27332744186E+03  0.10165469486E+03 -0.69025326723E+03  0.75483643543E+03  0.91032433091E+02 0.  0.
         24    2    1    2    0    0  0.41792275377E+03 -0.11204085913E+03 -0.33993146264E+03  0.55637971085E+03  0.82416024619E+02 0.  0.
        -11    1    4    4    0    0  0.75376703264E+02  0.61277336767E+01 -0.37571416379E+02  0.84444110770E+02  0.00000000000E+00 0.  1.
         12    1    4    4    0    0  0.34254605051E+03 -0.11816859281E+03 -0.30236004626E+03  0.47193560008E+03  0.00000000000E+00 0. -1.
        -13    1    3    3    0    0 -0.93716436272E+02  0.14775603341E+00 -0.15410570951E+03  0.18036452524E+03  0.00000000000E+00 0. -1.
         13    1    3    3    0    0 -0.17961100559E+03  0.10150693883E+03 -0.53614755771E+03  0.57447191019E+03  0.00000000000E+00 0.  1.
         21    1    1    2  503  502  0.57307904225E+02  0.72604911544E+02 -0.17665607555E+03  0.19940671528E+03  0.00000000000E+00 0.  1.
          1    1    1    2  501    0 -0.20190321614E+03 -0.62218747277E+02 -0.13886549852E+04  0.14046347387E+04  0.00000000000E+00 0. -1.
<scales pt_clust_5="13000.00000" pt_clust_6="13000.00000" pt_clust_7="13000.00000" pt_clust_8="13000.00000" pt_clust_9="92.49686" pt_clust_10="207.19497"></scales>
<clustering>
<clus scale="   82.416">  5  6 -1 -1</clus>
<clus scale="   91.032">  7  8 -1 -1</clus>
<clus scale="   92.497">  1  9  2 -1</clus>
<clus scale="  207.195">  1 10  2 -1</clus>
<clus scale="  334.057">  1  5  2 -1</clus>
<clus scale="   92.497">  1  5  2 -1</clus>
</clustering>
</event>
<event>
10    4  0.2857708E-005  0.1473641E+03  0.7546771E-02  0.1205592E+00
          2   -1    0    0  503    0 -0.00000000000E+00  0.00000000000E+00  0.62915390849E+03  0.62915390849E+03  0.00000000000E+00 0. -1.
         21   -1    0    0  501  502  0.00000000000E+00 -0.00000000000E+00 -0.21315699465E+03  0.21315699465E+03  0.00000000000E+00 0.  1.
         23    2    1    2    0    0  0.69311614879E+02 -0.14765160223E+03  0.31931176907E+03  0.36949134125E+03  0.89211825433E+02 0.  0.
         24    2    1    2    0    0 -0.22419437099E+02  0.96213668396E+02 -0.67901996491E+02  0.14377839938E+03  0.79384166267E+02 0.  0.
        -13    1    4    4    0    0  0.17075323904E+01  0.53187810753E+02 -0.77018034314E+02  0.93614296393E+02  0.00000000000E+00 0.  1.
         14    1    4    4    0    0 -0.24126969489E+02  0.43025857642E+02  0.91160378228E+01  0.50164102984E+02  0.00000000000E+00 0. -1.
        -11    1    3    3    0    0  0.61849824296E+02 -0.10532799173E+03  0.14322517727E+03  0.18823612303E+03  0.00000000000E+00 0.  1.
         11    1    3    3    0    0  0.74617905829E+01 -0.42323610503E+02  0.17608659179E+03  0.18125521823E+03  0.00000000000E+00 0. -1.
         21    1    1    2  503  502 -0.28635796705E+02  0.40106858112E+02  0.24289247273E+03  0.24784132470E+03  0.00000000000E+00 0. -1.
          1    1    1    2  501    0 -0.18256381075E+02  0.11331075724E+02 -0.78305331458E+02  0.81199837818E+02  0.00000000000E+00 0. -1.
<scales pt_clust_5="13000.00000" pt_clust_6="13000.00000" pt_clust_7="13000.00000" pt_clust_8="13000.00000" pt_clust_9="49.64857" pt_clust_10="21.48694"></scales>
<clustering>
<clus scale="   21.487">  2 10  1 -1</clus>
<clus scale="   49.649">  1  9  2 -1</clus>
<clus scale="   79.384">  5  6 -1 -1</clus>
<clus scale="   89.212">  7  8 -1 -1</clus>
<clus scale="  141.631">  2  5  1 -1</clus>
<clus scale="   21.487">  2  5  1 -1</clus>
</clustering>
</event>
<event>
10    4  0.3060933E-005  0.1054981E+03  0.7546771E-02  0.1276421E+00
         -1   -1    0    0    0  501 -0.00000000000E+00  0.00000000000E+00  0.35957986722E+03  0.35957986722E+03  0.00000000000E+00 0.  1.
         21   -1    0    0  503  502  0.00000000000E+00 -0.00000000000E+00 -0.63713859675E+03  0.63713859675E+03  0.00000000000E+00 0.  1.
         23    2    1    2    0    0  0.21064100725E+02  0.43884430693E+02  0.29918684797E+03  0.31787899603E+03  0.95732682611E+02 0.  0.
         24    2    1    2    0    0 -0.45182486736E+01 -0.19959901841E+02 -0.19530021598E+02  0.85114043507E+02  0.80275565435E+02 0.  0.
        -11    1    4    4    0    0 -0.41385646859E+01  0.31277925466E+02 -0.59627535005E+01  0.32109044963E+02  0.00000000000E+00 0.  1.
         12    1    4    4    0    0 -0.37968398773E+00 -0.51237827307E+02 -0.13567268097E+02  0.53004998544E+02  0.00000000000E+00 0. -1.
        -13    1    3    3    0    0 -0.18499368565E+02 -0.11330500593E+02  0.16801667287E+02  0.27439076235E+02  0.00000000000E+00 0. -1.
         13    1    3    3    0    0  0.39563469290E+02  0.55214931286E+02  0.28238518069E+03  0.29043991979E+03  0.00000000000E+00 0.  1.
         21    1    1    2  503  501 -0.47914226923E+02  0.39737958678E+02 -0.45482316306E+02  0.77094225453E+02  0.00000000000E+00 0.  1.
         -2    1    1    2    0  502  0.31368374872E+02 -0.63662487531E+02 -0.51173323960E+03  0.51663119899E+03  0.00000000000E+00 0.  1.
<scales pt_clust_5="13000.00000" pt_clust_6="13000.00000" pt_clust_7="13000.00000" pt_clust_8="13000.00000" pt_clust_9="62.24852" pt_clust_10="30.40415"></scales>
<clustering>
<clus scale="   62.249">  2  9  1 -1</clus>
<clus scale="   30.404">  2 10  1 -1</clus>
<clus scale="   80.276">  5  6 -1 -1</clus>
<clus scale="   91.702">  2  5  1 -1</clus>
<clus scale="   95.733">  7  8 -1 -1</clus>
<clus scale="   62.249">  2  5  1 -1</clus>
</clustering>
</event>
<event>
10    4  0.2857708E-005  0.1097705E+03  0.7546771E-02  0.1264866E+00
         21   -1    0    0  503  502  0.00000000000E+00  0.00000000000E+00  0.82716753770E+03  0.82716753770E+03  0.00000000000E+00 0. -1.
         -1   -1    0    0    0  501 -0.00000000000E+00 -0.00000000000E+00 -0.14368075870E+03  0.14368075870E+03  0.00000000000E+00 0.  1.
         24    2    1    2    0    0  0.58672228159E+02 -0.63501129253E+02  0.19341601919E+03  0.22667889665E+03  0.80614774918E+02 0.  0.
         23    2    1    2    0    0 -0.48859646663E+02  0.12775752641E+02  0.37923167038E+03  0.39314013870E+03  0.90509800076E+02 0.  0.
        -11    1    3    3    0    0 -0.90700238777E+01 -0.46926992720E+02  0.66981199389E+02  0.82285412136E+02  0.00000000000E+00 0.  1.
         12    1    3    3    0    0  0.67742252036E+02 -0.16574136533E+02  0.12643481980E+03  0.14439348451E+03  0.00000000000E+00 0. -1.
        -11    1    4    4    0    0  0.19570358456E+02 -0.15686895725E+02  0.53558434275E+02  0.59140371233E+02  0.00000000000E+00 0.  1.
         11    1    4    4    0    0 -0.68430005119E+02  0.28462648366E+02  0.32567323610E+03  0.33399976746E+03  0.00000000000E+00 0. -1.
         21    1    1    2  503  501 -0.31619111589E+02  0.12437715531E+02 -0.11552431957E+03  0.12041733014E+03  0.00000000000E+00 0.  1.
         -2    1    1    2    0  502  0.21806530093E+02  0.38287661082E+02  0.22636340900E+03  0.23061193092E+03  0.00000000000E+00 0.  1.
<scales pt_clust_5="13000.00000" pt_clust_6="13000.00000" pt_clust_7="13000.00000" pt_clust_8="13000.00000" pt_clust_9="33.97742" pt_clust_10="43.75048"></scales>
<clustering>
<clus scale="   33.977">  2  9  1 -1</clus>
<clus scale="   43.750">  1 10  2 -1</clus>
<clus scale="   80.615">  5  6 -1 -1</clus>
<clus scale="   90.510">  7  8 -1 -1</clus>
<clus scale="  101.766">  2  5  1 -1</clus>
<clus scale="   43.750">  1  5  2 -1</clus>
</clustering>
</event>
<event>
10    4  0.2857708E-005  0.4789731E+03  0.7546771E-02  0.1029730E+00
         21   -1    0    0  501  502  0.00000000000E+00  0.00000000000E+00  0.47612745333E+03  0.47612745333E+03  0.00000000000E+00 0. -1.
          2   -1    0    0  503    0 -0.00000000000E+00 -0.00000000000E+00 -0.13084623100E+04  0.13084623100E+04  0.00000000000E+00 0. -1.
         23    2    1    2    0    0  0.28706059842E+03 -0.16989390739E+03 -0.19156509229E+03  0.39538617371E+03  0.91462095103E+02 0.  0.
         24    2    1    2    0    0 -0.40705189342E+03  0.58132890062E+03 -0.49847063344E+03  0.87094459485E+03  0.80230793732E+02 0.  0.
        -11    1    4    4    0    0 -0.31993158963E+03  0.49896181995E+03 -0.39219025164E+03  0.71072660939E+03  0.00000000000E+00 0.  1.
         12    1    4    4    0    0 -0.87120303782E+02  0.82367080677E+02 -0.10628038180E+03  0.16021798546E+03  0.00000000000E+00 0. -1.
        -13    1    3    3    0    0  0.22373705247E+02 -0.35978592034E+02 -0.17765279825E+00  0.42368305745E+02  0.00000000000E+00 0.  1.
         13    1    3    3    0    0  0.26468689318E+03 -0.13391531536E+03 -0.19138743949E+03  0.35301786797E+03  0.00000000000E+00 0. -1.
         21    1    1    2  503  502  0.15842059690E+02 -0.20140638189E+02 -0.10900326213E+03  0.11197467266E+03  0.00000000000E+00 0. -1.
          1    1    1    2  501    0  0.10414923530E+03 -0.39129435504E+03 -0.33295868788E+02  0.40628432209E+03  0.00000000000E+00 0. -1.
<scales pt_clust_5="13000.00000" pt_clust_6="13000.00000" pt_clust_7="13000.00000" pt_clust_8="13000.00000" pt_clust_9="25.62452" pt_clust_10="472.20571"></scales>
<clustering>
<clus scale="   25.625">  2  9  1 -1</clus>
<clus scale="   80.231">  5  6 -1 -1</clus>
<clus scale="   91.462">  7  8 -1 -1</clus>
<clus scale="  351.535">  2  7  1 -1</clus>
<clus scale="  472.206">  1 10  2 -1</clus>
<clus scale="  472.206">  1  5  2 -1</clus>
</clustering>
</event>
<event>
10    4  0.2857708E-005  0.1057813E+03  0.7546771E-02  0.1275065E+00
          2   -1    0    0  503    0 -0.00000000000E+00  0.00000000000E+00  0.56199848643E+03  0.56199848643E+03  0.00000000000E+00 0. -1.
         21   -1    0    0  501  502  0.00000000000E+00 -0.00000000000E+00 -0.40605616856E+02  0.40605616856E+02  0.00000000000E+00 0.  1.
         24    2    1    2    0    0  0.57584254834E+02 -0.32661742332E+01  0.34891114434E+03  0.36190936685E+03  0.76894660870E+02 0.  0.
         23    2    1    2    0    0 -0.32463712079E+02  0.27697997132E+02  0.81055068849E+02  0.12952672313E+03  0.91576067681E+02 0.  0.
        -13    1    3    3    0    0 -0.11417112871E+02  0.19268380994E+02  0.60772020958E+02  0.64767735052E+02  0.00000000000E+00 0.  1.
         14    1    3    3    0    0  0.69001367705E+02 -0.22534555227E+02  0.28813912338E+03  0.29714163180E+03  0.00000000000E+00 0. -1.
        -13    1    4    4    0    0  0.11012168780E+02 -0.24669292206E+02  0.50189679200E+01  0.27477843404E+02  0.00000000000E+00 0. -1.
         13    1    4    4    0    0 -0.43475880859E+02  0.52367289337E+02  0.76036100929E+02  0.10204887973E+03  0.00000000000E+00 0.  1.
         21    1    1    2  503  502 -0.10909798687E+02 -0.40389938536E+02  0.62269110058E+02  0.75018750388E+02  0.00000000000E+00 0.  1.
          1    1    1    2  501    0 -0.14210744069E+02  0.15958115637E+02  0.29157546329E+02  0.36149262919E+02  0.00000000000E+00 0. -1.
<scales pt_clust_5="13000.00000" pt_clust_6="13000.00000" pt_clust_7="13000.00000" pt_clust_8="13000.00000" pt_clust_9="39.94579" pt_clust_10="21.36836"></scales>
<clustering>
<clus scale="   21.368">  2 10  1 -1</clus>
<clus scale="   39.946">  2  9  1 -1</clus>
<clus scale="   76.895">  5  6 -1 -1</clus>
<clus scale="   91.576">  7  8 -1 -1</clus>
<clus scale="   93.361">  1  5  2 -1</clus>
<clus scale="   21.368">  2  5  1 -1</clus>
</clustering>
</event>
<event>
10    4  0.2857708E-005  0.1458862E+03  0.7546771E-02  0.1208363E+00
         21   -1    0    0  501  502  0.00000000000E+00  0.00000000000E+00  0.69915754534E+02  0.69915754534E+02  0.00000000000E+00 0.  1.
          2   -1    0    0  503    0 -0.00000000000E+00 -0.00000000000E+00 -0.96450349986E+03  0.96450349986E+03  0.00000000000E+00 0. -1.
         24    2    1    2    0    0  0.94091845229E+02 -0.56355747794E+02 -0.72695972934E+03  0.73938174823E+03  0.78649067937E+02 0.  0.
         23    2    1    2    0    0 -0.89621212500E+02  0.50458160399E+02 -0.24086765603E+02  0.14037985842E+03  0.92457258738E+02 0.  0.
        -11    1    3    3    0    0  0.13482450362E+02  0.19369139853E+02 -0.10046821550E+03  0.10320272463E+03  0.00000000000E+00 0.  1.
         12    1    3    3    0    0  0.80609394867E+02 -0.75724887646E+02 -0.62649151385E+03  0.63617902360E+03  0.00000000000E+00 0. -1.
        -11    1    4    4    0    0 -0.41195690761E+02 -0.24474526052E+02 -0.17142304487E+02  0.50891511727E+02  0.00000000000E+00 0. -1.
         11    1    4    4    0    0 -0.48425521739E+02  0.74932686451E+02 -0.69444611153E+01  0.89488346697E+02  0.00000000000E+00 0.  1.
         21    1    1    2  503  502  0.17053198342E+02  0.22768582671E+02 -0.92176691096E+02  0.96466379179E+02  0.00000000000E+00 0.  1.
          1    1    1    2  501    0 -0.21523831071E+02 -0.16870995276E+02 -0.51364559282E+02  0.58191268553E+02  0.00000000000E+00 0. -1.
<scales pt_clust_5="13000.00000" pt_clust_6="13000.00000" pt_clust_7="13000.00000" pt_clust_8="13000.00000" pt_clust_9="27.59608" pt_clust_10="27.34788"></scales>
<clustering>
<clus scale="   27.348">  1 10  2 -1</clus>
<clus scale="   27.596">  2  9  1 -1</clus>
<clus scale="   78.649">  5  6 -1 -1</clus>
<clus scale="   92.457">  7  8 -1 -1</clus>
<clus scale="  137.550">  2  5  1 -1</clus>
<clus scale="   27.348">  1  5  2 -1</clus>
</clustering>
</event>
<event>
10    4  0.2857708E-005  0.1271758E+03  0.7546771E-02  0.1235691E+00
         21   -1    0    0  501  502  0.00000000000E+00  0.00000000000E+00  0.55742058671E+03  0.55742058671E+03  0.00000000000E+00 0. -1.
          2   -1    0    0  503    0 -0.00000000000E+00 -0.00000000000E+00 -0.89986615209E+02  0.89986615209E+02  0.00000000000E+00 0. -1.
         24    2    1    2    0    0  0.22565404385E+02 -0.13726425790E+03  0.70784368395E+02  0.17455639455E+03  0.78159030809E+02 0.  0.
         23    2    1    2    0    0  0.28873147792E+02  0.37111592250E+02  0.16283919820E+03  0.19306975563E+03  0.92457542273E+02 0.  0.
        -13    1    3    3    0    0  0.24539013652E+02 -0.11909230099E+02  0.34619674138E+02  0.44073969528E+02  0.00000000000E+00 0.  1.
         14    1    3    3    0    0 -0.19736092669E+01 -0.12535502780E+03  0.36164694257E+02  0.13048242502E+03  0.00000000000E+00 0. -1.
        -11    1    4    4    0    0  0.17727536832E+00 -0.30329395969E+02  0.51685405559E+02  0.59927329610E+02  0.00000000000E+00 0.  1.
         11    1    4    4    0    0  0.28695872424E+02  0.67440988219E+02  0.11115379264E+03  0.13314242602E+03  0.00000000000E+00 0. -1.
         21    1    1    2  503  502 -0.52891394044E+01  0.38738571983E+02  0.62382884278E+01  0.39592527040E+02  0.00000000000E+00 0. -1.
          1    1    1    2  501    0 -0.46149412773E+02  0.61414093672E+02  0.22757211648E+03  0.24018852470E+03  0.00000000000E+00 0. -1.
<scales pt_clust_5="13000.00000" pt_clust_6="13000.00000" pt_clust_7="13000.00000" pt_clust_8="13000.00000" pt_clust_9="39.09798" pt_clust_10="79.77608"></scales>
<clustering>
<clus scale="   39.098">  2  9  1 -1</clus>
<clus scale="   78.159">  5  6 -1 -1</clus>
<clus scale="   79.776">  1 10  2 -1</clus>
<clus scale="   92.458">  7  8 -1 -1</clus>
<clus scale="  117.193">  2  5  1 -1</clus>
<clus scale="   79.776">  1  5  2 -1</clus>
</clustering>
</event>
<event>
10    4  0.2857708E-005  0.1309378E+03  0.7546771E-02  0.1245465E+00
         21   -1    0    0  501  502  0.00000000000E+00  0.00000000000E+00  0.13506597406E+03  0.13506597406E+03  0.00000000000E+00 0. -1.
          2   -1    0    0  503    0 -0.00000000000E+00 -0.00000000000E+00 -0.60802013496E+03  0.60802013496E+03  0.00000000000E+00 0. -1.
         23    2    1    2    0    0 -0.59193304414E+01  0.80633954872E+02 -0.50222895971E+02  0.13305069935E+03  0.92969221612E+02 0.  0.
         24    2    1    2    0    0 -0.30395891293E+02 -0.64675980247E+02 -0.21553134056E+02  0.10965915602E+03  0.80334925674E+02 0.  0.
        -11    1    4    4    0    0  0.27746088880E+02 -0.20524672118E+02 -0.72385476421E+01  0.35263354714E+02  0.00000000000E+00 0.  1.
         12    1    4    4    0    0 -0.58141980173E+02 -0.44151308129E+02 -0.14314586414E+02  0.74395801307E+02  0.00000000000E+00 0. -1.
        -11    1    3    3    0    0  0.41532807727E+02  0.34007206174E+02 -0.80403965176E+01  0.54278100239E+02  0.00000000000E+00 0.  1.
         11    1    3    3    0    0 -0.47452138168E+02  0.46626748697E+02 -0.42182499453E+02  0.78772599112E+02  0.00000000000E+00 0. -1.
         21    1    1    2  503  502  0.20524318826E+02 -0.91473058361E+02 -0.41194734912E+03  0.42247980605E+03  0.00000000000E+00 0. -1.
          1    1    1    2  501    0  0.15790902909E+02  0.75515083736E+02  0.10769218246E+02  0.77896447596E+02  0.00000000000E+00 0. -1.
<scales pt_clust_5="13000.00000" pt_clust_6="13000.00000" pt_clust_7="13000.00000" pt_clust_8="13000.00000" pt_clust_9="92.20322" pt_clust_10="77.14843"></scales>
<clustering>
<clus scale="   77.148">  1 10  2 -1</clus>
<clus scale="   80.335">  5  6 -1 -1</clus>
<clus scale="   88.062">  1  5  2 -1</clus>
<clus scale="   92.203">  2  9  1 -1</clus>
<clus scale="   92.969">  7  8 -1 -1</clus>
<clus scale="   77.148">  1  5  2 -1</clus>
</clustering>
</event>
<event>
10    4  0.2857708E-005  0.1979063E+03  0.7546771E-02  0.1183627E+00
         21   -1    0    0  501  502  0.00000000000E+00  0.00000000000E+00  0.25135191483E+03  0.25135191483E+03  0.00000000000E+00 0.  1.
          2   -1    0    0  503    0 -0.00000000000E+00 -0.00000000000E+00 -0.10999218086E+04  0.10999218086E+04  0.00000000000E+00 0. -1.
         24    2    1    2    0    0 -0.72557905728E+02 -0.15481013505E+03 -0.24702916736E+03  0.31150880743E+03  0.82362005678E+02 0.  0.
         23    2    1    2    0    0  0.30288237645E+02  0.15242899247E+02  0.14807649063E+03  0.17747957810E+03  0.91774888986E+02 0.  0.
        -13    1    3    3    0    0 -0.54669638254E+02 -0.33039920996E+02 -0.60144426810E+02  0.87736866838E+02  0.00000000000E+00 0.  1.
         14    1    3    3    0    0 -0.17888267475E+02 -0.12177021405E+03 -0.18688474055E+03  0.22377194059E+03  0.00000000000E+00 0. -1.
        -13    1    4    4    0    0 -0.77655528736E+01 -0.33864937037E+02  0.65478038289E+02  0.74124970625E+02  0.00000000000E+00 0.  1.
         13    1    4    4    0    0  0.38053790519E+02  0.49107836284E+02  0.82598452337E+02  0.10335460747E+03  0.00000000000E+00 0. -1.
         21    1    1    2  503  502  0.55913232268E+02  0.17449575589E+03 -0.78776419182E+03  0.80879384288E+03  0.00000000000E+00 0. -1.
          1    1    1    2  501    0 -0.13643564184E+02 -0.34928520088E+02  0.38146974765E+02  0.53491495052E+02  0.00000000000E+00 0. -1.
<scales pt_clust_5="13000.00000" pt_clust_6="13000.00000" pt_clust_7="13000.00000" pt_clust_8="13000.00000" pt_clust_9="179.95394" pt_clust_10="37.49864"></scales>
<clustering>
<clus scale="   37.499">  1 10  2 -1</clus>
<clus scale="   82.362">  5  6 -1 -1</clus>
<clus scale="   91.775">  7  8 -1 -1</clus>
<clus scale="   94.639">  1  7  2 -1</clus>
<clus scale="  179.954">  2  9  1 -1</clus>
<clus scale="   37.499">  1  5  2 -1</clus>
</clustering>
</event>
<event>
10    4  0.2857708E-005  0.1661733E+03  0.7546771E-02  0.1207522E+00
          4   -1    0    0  503    0 -0.00000000000E+00  0.00000000000E+00  0.93500850131E+02  0.93500850131E+02  0.00000000000E+00 0. -1.
         21   -1    0    0  501  502  0.00000000000E+00 -0.00000000000E+00 -0.71064062295E+03  0.71064062295E+03  0.00000000000E+00 0.  1.
         23    2    1    2    0    0  0.27307442346E+02 -0.11947804600E+02 -0.17631226337E+02  0.97499838429E+02  0.91142261928E+02 0.  0.
         24    2    1    2    0    0 -0.18816087780E+02 -0.13703109904E+03 -0.33442413209E+03  0.36959034834E+03  0.75006387677E+02 0.  0.
        -13    1    4    4    0    0 -0.47640562503E+02 -0.77567190995E+02 -0.20363877919E+03  0.22305838855E+03  0.00000000000E+00 0.  1.
         14    1    4    4    0    0  0.28824474723E+02 -0.59463908045E+02 -0.13078535291E+03  0.14653195978E+03  0.00000000000E+00 0. -1.
        -13    1    3    3    0    0 -0.97609100284E+01  0.33048431616E+02  0.52778711810E+01  0.34861585177E+02  0.00000000000E+00 0. -1.
         13    1    3    3    0    0  0.37068352375E+02 -0.44996236216E+02 -0.22909097518E+02  0.62638253252E+02  0.00000000000E+00 0.  1.
         21    1    1    2  503  502 -0.46820272557E+02 -0.27803633477E+01 -0.94733927522E+02  0.10570896540E+03  0.00000000000E+00 0. -1.
          3    1    1    2  501    0  0.38328917991E+02  0.15175926699E+03 -0.17035048687E+03  0.23134232091E+03  0.00000000000E+00 0. -1.
<scales pt_clust_5="13000.00000" pt_clust_6="13000.00000" pt_clust_7="13000.00000" pt_clust_8="13000.00000" pt_clust_9="46.90275" pt_clust_10="148.28230"></scales>
<clustering>
<clus scale="   46.903">  2  9  1 -1</clus>
<clus scale="   75.006">  5  6 -1 -1</clus>
<clus scale="   91.142">  7  8 -1 -1</clus>
<clus scale="   94.763">  1  7  2 -1</clus>
<clus scale="  148.282">  2 10  1 -1</clus>
<clus scale="   46.903">  2  5  1 -1</clus>
</clustering>
</event>
<event>
10    4  0.2857708E-005  0.1592206E+03  0.7546771E-02  0.1213090E+00
          2   -1    0    0  503    0 -0.00000000000E+00  0.00000000000E+00  0.65264432004E+03  0.65264432004E+03  0.00000000000E+00 0. -1.
         21   -1    0    0  501  502  0.00000000000E+00 -0.00000000000E+00 -0.17123471553E+03  0.17123471553E+03  0.00000000000E+00 0. -1.
         23    2    1    2    0    0  0.18770036283E+02  0.71465760679E+01  0.30480057044E+02  0.99653697950E+02  0.92727761895E+02 0.  0.
         24    2    1    2    0    0 -0.64170201530E+01  0.13233437863E+03  0.52874363452E+03  0.55101669003E+03  0.80597740230E+02 0.  0.
        -11    1    4    4    0    0  0.33584496657E+02  0.85504206273E+02  0.35447832203E+03  0.36618815996E+03  0.00000000000E+00 0.  1.
         12    1    4    4    0    0 -0.40001516810E+02  0.46830172361E+02  0.17426531250E+03  0.18482853008E+03  0.00000000000E+00 0. -1.
        -11    1    3    3    0    0  0.30741205589E+01  0.49197734613E+02  0.21974831821E+02  0.53969996682E+02  0.00000000000E+00 0. -1.
         11    1    3    3    0    0  0.15695915724E+02 -0.42051158545E+02  0.85052252227E+01  0.45683701268E+02  0.00000000000E+00 0.  1.
         21    1    1    2  503  502  0.18594106809E+02 -0.90274116318E+01 -0.10103044322E+02  0.23006661500E+02  0.00000000000E+00 0. -1.
          1    1    1    2  501    0 -0.30947122939E+02 -0.13045354307E+03 -0.67711042726E+02  0.15020198609E+03  0.00000000000E+00 0. -1.
<scales pt_clust_5="13000.00000" pt_clust_6="13000.00000" pt_clust_7="13000.00000" pt_clust_8="13000.00000" pt_clust_9="20.66966" pt_clust_10="137.31430"></scales>
<clustering>
<clus scale="   20.670">  2  9  1 -1</clus>
<clus scale="   80.598">  5  6 -1 -1</clus>
<clus scale="   92.728">  7  8 -1 -1</clus>
<clus scale="   95.658">  1  7  2 -1</clus>
<clus scale="  137.314">  2 10  1 -1</clus>
<clus scale="   20.670">  2  5  1 -1</clus>
</clustering>
</event>
<event>
10    4  0.2857708E-005  0.1202154E+03  0.7546771E-02  0.1256455E+00
         -3   -1    0    0    0  501 -0.00000000000E+00  0.00000000000E+00  0.50180482624E+03  0.50180482624E+03  0.00000000000E+00 0.  1.
         21   -1    0    0  503  502  0.00000000000E+00 -0.00000000000E+00 -0.95518425503E+02  0.95518425503E+02  0.00000000000E+00 0. -1.
         23    2    1    2    0    0  0.52245348295E+01 -0.20384877394E+02  0.12765514832E+03  0.15743698733E+03  0.89709136082E+02 0.  0.
         24    2    1    2    0    0  0.72602089353E+01 -0.83671177010E+02  0.15207384265E+02  0.11809459848E+03  0.81617970796E+02 0.  0.
        -11    1    4    4    0    0  0.24244784560E+02 -0.42833263114E+00 -0.14308673499E+02  0.28155482317E+02  0.00000000000E+00 0.  1.
         12    1    4    4    0    0 -0.16984575625E+02 -0.83242844379E+02  0.29516057764E+02  0.89939116159E+02  0.00000000000E+00 0. -1.
        -11    1    3    3    0    0  0.12378032032E+02  0.34399600410E+02  0.44352081130E+02  0.57477432841E+02  0.00000000000E+00 0. -1.
         11    1    3    3    0    0 -0.71534972023E+01 -0.54784477805E+02  0.83303067191E+02  0.99959554491E+02  0.00000000000E+00 0.  1.
         21    1    1    2  503  501 -0.27770048815E+02  0.10395396649E+02  0.21159242523E+03  0.21365999696E+03  0.00000000000E+00 0.  1.
         -4    1    1    2    0  502  0.15285305050E+02  0.93660657755E+02  0.51831442915E+02  0.10813166898E+03  0.00000000000E+00 0.  1.
<scales pt_clust_5="13000.00000" pt_clust_6="13000.00000" pt_clust_7="13000.00000" pt_clust_8="13000.00000" pt_clust_9="29.65198" pt_clust_10="88.26247"></scales>
<clustering>
<clus scale="   29.652">  1  9  2 -1</clus>
<clus scale="   81.618">  5  6 -1 -1</clus>
<clus scale="   89.709">  7  8 -1 -1</clus>
<clus scale="   91.391">  1  7  2 -1</clus>
<clus scale="   88.262">  2 10  1 -1</clus>
<clus scale="   88.262">  2  5  1 -1</clus>
</clustering>
</event>
<event>
10    4  0.2857708E-005  0.1232138E+03  0.7546771E-02  0.1240644E+00
          2   -1    0    0  503    0 -0.00000000000E+00  0.00000000000E+00  0.47689471839E+03  0.47689471839E+03  0.00000000000E+00 0. -1.
         21   -1    0    0  501  502  0.00000000000E+00 -0.00000000000E+00 -0.78329756021E+02  0.78329756021E+02  0.00000000000E+00 0.  1.
         24    2    1    2    0    0 -0.69112225173E+02  0.49980017305E+02  0.21045540003E+03  0.24090821786E+03  0.80441234663E+02 0.  0.
         23    2    1    2    0    0  0.46733020463E+02 -0.16580446570E+02 -0.17943254314E+01  0.10267857893E+03  0.89893184154E+02 0.  0.
        -13    1    3    3    0    0 -0.17339513781E+02 -0.10835224967E+02  0.58499733932E+01  0.21266946818E+02  0.00000000000E+00 0.  1.
         14    1    3    3    0    0 -0.51772711392E+02  0.60815242272E+02  0.20460542663E+03  0.21964127104E+03  0.00000000000E+00 0. -1.
        -11    1    4    4    0    0  0.64137417259E+02 -0.36375398896E+02  0.88267834013E+01  0.74260959075E+02  0.00000000000E+00 0. -1.
         11    1    4    4    0    0 -0.17404396796E+02  0.19794952326E+02 -0.10621108833E+02  0.28417619855E+02  0.00000000000E+00 0.  1.
         21    1    1    2  503  502 -0.22195708947E+02  0.15372097206E+02  0.47110490138E+02  0.54298703017E+02  0.00000000000E+00 0.  1.
          1    1    1    2  501    0  0.44574913657E+02 -0.48771667942E+02  0.14279339764E+03  0.15733897461E+03  0.00000000000E+00 0. -1.
<scales pt_clust_5="13000.00000" pt_clust_6="13000.00000" pt_clust_7="13000.00000" pt_clust_8="13000.00000" pt_clust_9="26.99909" pt_clust_10="56.84426"></scales>
<clustering>
<clus scale="   26.999">  1  9  2 -1</clus>
<clus scale="   56.844">  2 10  1 -1</clus>
<clus scale="   80.441">  5  6 -1 -1</clus>
<clus scale="   89.893">  7  8 -1 -1</clus>
<clus scale="  116.497">  1  5  2 -1</clus>
<clus scale="   56.844">  2  5  1 -1</clus>
</clustering>
</event>
<event>
10    4  0.2857708E-005  0.2541921E+03  0.7546771E-02  0.1115754E+00
         21   -1    0    0  501  502  0.00000000000E+00  0.00000000000E+00  0.30193051480E+03  0.30193051480E+03  0.00000000000E+00 0. -1.
          2   -1    0    0  503    0 -0.00000000000E+00 -0.00000000000E+00 -0.12308864041E+04  0.12308864041E+04  0.00000000000E+00 0. -1.
         24    2    1    2    0    0  0.21153955763E+03 -0.21497657945E+02 -0.63455722701E+03  0.67403049193E+03  0.80268897878E+02 0.  0.
         23    2    1    2    0    0  0.99165241510E+02  0.17967011731E+03 -0.79843037256E+02  0.23828504664E+03  0.91048100877E+02 0.  0.
        -13    1    3    3    0    0  0.11706252411E+03 -0.36663968146E+02 -0.26064374286E+03  0.28806777293E+03  0.00000000000E+00 0.  1.
         14    1    3    3    0    0  0.94477033514E+02  0.15166310201E+02 -0.37391348415E+03  0.38596271900E+03  0.00000000000E+00 0. -1.
        -11    1    4    4    0    0  0.66649048109E+02  0.16419994082E+03 -0.92771594550E+02  0.20002571068E+03  0.00000000000E+00 0.  1.
         11    1    4    4    0    0  0.32516193401E+02  0.15470176497E+02  0.12928557294E+02  0.38259335957E+02  0.00000000000E+00 0. -1.
         21    1    1    2  503  502 -0.27964162131E+03 -0.18803984314E+03 -0.34551301392E+03  0.48263615879E+03  0.00000000000E+00 0.  1.
          1    1    1    2  501    0 -0.31063177822E+02  0.29867383771E+02  0.13095738884E+03  0.13786522159E+03  0.00000000000E+00 0. -1.
<scales pt_clust_5="13000.00000" pt_clust_6="13000.00000" pt_clust_7="13000.00000" pt_clust_8="13000.00000" pt_clust_9="237.32655" pt_clust_10="43.09271"></scales>
<clustering>
<clus scale="   43.093">  1 10  2 -1</clus>
<clus scale="   80.269">  5  6 -1 -1</clus>
<clus scale="   91.048">  7  8 -1 -1</clus>
<clus scale="  223.563">  2  5  1 -1</clus>
<clus scale="  237.327">  2  9  1 -1</clus>
<clus scale="   43.093">  1  5  2 -1</clus>
</clustering>
</event>
<event>
10    4  0.2857708E-005  0.1232631E+03  0.7546771E-02  0.1245981E+00
         21   -1    0    0  501  502  0.00000000000E+00  0.00000000000E+00  0.46599373198E+02  0.46599373198E+02  0.00000000000E+00 0.  1.
         -3   -1    0    0    0  501 -0.00000000000E+00 -0.00000000000E+00 -0.61897388806E+03  0.61897388806E+03  0.00000000000E+00 0.  1.
         24    2    1    2    0    0  0.56198035332E+02 -0.46143401406E+02 -0.22136251409E+03  0.24477455457E+03  0.75005248162E+02 0.  0.
         23    2    1    2    0    0  0.36952798789E+02  0.69946966415E+02 -0.15317608053E+03  0.19650506134E+03  0.94303976770E+02 0.  0.
        -13    1    3    3    0    0  0.60112340251E+02 -0.49714467509E+02 -0.22513764645E+03  0.23826871716E+03  0.00000000000E+00 0.  1.
         14    1    3    3    0    0 -0.39143049191E+01  0.35710661032E+01  0.37751323544E+01  0.65058374101E+01  0.00000000000E+00 0. -1.
        -13    1    4    4    0    0  0.26966244268E+02  0.88334367351E+02 -0.14879222807E+03  0.17512642839E+03  0.00000000000E+00 0.  1.
         13    1    4    4    0    0  0.99865545210E+01 -0.18387400936E+02 -0.43838524612E+01  0.21378632949E+02  0.00000000000E+00 0. -1.
         21    1    1    2  503  502 -0.33676103994E+02 -0.18245575617E+02 -0.12132055434E+03  0.12722286711E+03  0.00000000000E+00 0. -1.
         -4    1    1    2    0  503 -0.59474730127E+02 -0.55579893925E+01 -0.76515365887E+02  0.97070778232E+02  0.00000000000E+00 0.  1.
<scales pt_clust_5="13000.00000" pt_clust_6="13000.00000" pt_clust_7="13000.00000" pt_clust_8="13000.00000" pt_clust_9="35.13176" pt_clust_10="90.69432"></scales>
<clustering>
<clus scale="   35.132">  9 10 -1 -1</clus>
<clus scale="   75.005">  5  6 -1 -1</clus>
<clus scale="   94.304">  7  8 -1 -1</clus>
<clus scale="  104.466">  2  5  1 -1</clus>
<clus scale="   90.694">  1  9  2 -1</clus>
<clus scale="   90.694">  1  5  2 -1</clus>
</clustering>
</event>
<event>
10    4  0.2857708E-005  0.1391408E+03  0.7546771E-02  0.1240753E+00
         -1   -1    0    0    0  501 -0.00000000000E+00  0.00000000000E+00  0.32921003889E+03  0.32921003889E+03  0.00000000000E+00 0.  1.
         21   -1    0    0  503  502  0.00000000000E+00 -0.00000000000E+00 -0.19876451281E+03  0.19876451281E+03  0.00000000000E+00 0. -1.
         24    2    1    2    0    0  0.17273844810E+02 -0.20593031169E+01 -0.19680955339E+02  0.84132088659E+02  0.79926478061E+02 0.  0.
         23    2    1    2    0    0 -0.16312351952E+01 -0.11883184975E+03 -0.68050388946E+02  0.15726757542E+03  0.77321183383E+02 0.  0.
        -13    1    3    3    0    0  0.13863554845E+02 -0.33704361783E+02  0.12828241316E+02  0.38636070341E+02  0.00000000000E+00 0.  1.
         14    1    3    3    0    0  0.34102899656E+01  0.31645058666E+02 -0.32509196655E+02  0.45496018318E+02  0.00000000000E+00 0. -1.
        -11    1    4    4    0    0  0.74393150576E+01 -0.70869074467E+02  0.27030619543E+01  0.71309716507E+02  0.00000000000E+00 0.  1.
         11    1    4    4    0    0 -0.90705502528E+01 -0.47962775283E+02 -0.70753450900E+02  0.85957858914E+02  0.00000000000E+00 0. -1.
         21    1    1    2  503  501 -0.53830044539E+02  0.21786839068E+02  0.19440661821E+02  0.61239524685E+02  0.00000000000E+00 0.  1.
         -2    1    1    2    0  502  0.38187434924E+02  0.99104313799E+02  0.19873620855E+03  0.22533536293E+03  0.00000000000E+00 0.  1.
<scales pt_clust_5="13000.00000" pt_clust_6="13000.00000" pt_clust_7="13000.00000" pt_clust_8="13000.00000" pt_clust_9="58.07185" pt_clust_10="115.67891"></scales>
<clustering>
<clus scale="   58.072">  1  9  2 -1</clus>
<clus scale="   77.321">  7  8 -1 -1</clus>
<clus scale="   79.926">  5  6 -1 -1</clus>
<clus scale="   80.718">  1  5  2 -1</clus>
<clus scale="  115.679">  2 10  1 -1</clus>
<clus scale="  115.679">  2  5  1 -1</clus>
</clustering>
</event>
<event>
10    4  0.2857708E-005  0.1527574E+03  0.7546771E-02  0.1199193E+00
          4   -1    0    0  503    0 -0.00000000000E+00  0.00000000000E+00  0.19362471577E+03  0.19362471577E+03  0.00000000000E+00 0. -1.
         21   -1    0    0  501  502  0.00000000000E+00 -0.00000000000E+00 -0.43951657439E+03  0.43951657439E+03  0.00000000000E+00 0.  1.
         24    2    1    2    0    0  0.12917057092E+03 -0.78852926039E+02  0.83177209896E+02  0.19089570153E+03  0.81362769611E+02 0.  0.
         23    2    1    2    0    0 -0.11965789768E+03  0.57418084033E+02 -0.32345731854E+03  0.36175992802E+03  0.92901882400E+02 0.  0.
        -13    1    3    3    0    0  0.14343380766E+02  0.15725333129E+02  0.20226479474E+02  0.29362035790E+02  0.00000000000E+00 0.  1.
         14    1    3    3    0    0  0.11482719016E+03 -0.94578259168E+02  0.62950730422E+02  0.16153366574E+03  0.00000000000E+00 0. -1.
        -13    1    4    4    0    0 -0.56696921307E+02  0.22202356936E+02 -0.25548813576E+03  0.26264362367E+03  0.00000000000E+00 0.  1.
         13    1    4    4    0    0 -0.62960976373E+02  0.35215727097E+02 -0.67969182780E+02  0.99116304353E+02  0.00000000000E+00 0. -1.
         21    1    1    2  503  502 -0.36227007088E+02  0.14046696361E+02  0.19150829487E+02  0.43318125435E+02  0.00000000000E+00 0. -1.
          3    1    1    2  501    0  0.26714333845E+02  0.73881456452E+01 -0.24762579467E+02  0.37167535171E+02  0.00000000000E+00 0. -1.
<scales pt_clust_5="13000.00000" pt_clust_6="13000.00000" pt_clust_7="13000.00000" pt_clust_8="13000.00000" pt_clust_9="38.20038" pt_clust_10="27.71715"></scales>
<clustering>
<clus scale="   27.717">  2 10  1 -1</clus>
<clus scale="   38.200">  1  9  2 -1</clus>
<clus scale="   81.363">  5  6 -1 -1</clus>
<clus scale="   92.902">  7  8 -1 -1</clus>
<clus scale="  146.027">  1  5  2 -1</clus>
<clus scale="   27.717">  2  5  1 -1</clus>
</clustering>
</event>
<event>
10    4  0.2857708E-005  0.1792714E+03  0.7546771E-02  0.1170012E+00
         -1   -1    0    0    0  501 -0.00000000000E+00  0.00000000000E+00  0.17291046526E+03  0.17291046526E+03  0.00000000000E+00 0.  1.
         21   -1    0    0  503  502  0.00000000000E+00 -0.00000000000E+00 -0.31231999822E+03  0.31231999822E+03  0.00000000000E+00 0.  1.
         24    2    1    2    0    0 -0.77758731248E+02  0.12797253851E+03 -0.65040920928E+02  0.18138305334E+03  0.79032270273E+02 0.  0.
         23    2    1    2    0    0  0.53660738524E+02 -0.15017269337E+03 -0.39004933248E+02  0.18797624662E+03  0.91555293576E+02 0.  0.
        -11    1    3    3    0    0 -0.36246207593E+02  0.96327968591E+02 -0.76132087327E+02  0.12801937282E+03  0.00000000000E+00 0.  1.
         12    1    3    3    0    0 -0.41512523656E+02  0.31644569917E+02  0.11091166399E+02  0.53363680510E+02  0.00000000000E+00 0. -1.
        -11    1    4    4    0    0  0.47381167180E+01 -0.25016836025E+02 -0.46900973863E+02  0.53366592396E+02  0.00000000000E+00 0. -1.
         11    1    4    4    0    0  0.48922621806E+02 -0.12515585734E+03  0.78960406151E+01  0.13460965422E+03  0.00000000000E+00 0.  1.
         21    1    1    2  503  501 -0.65916185882E+01 -0.31466908700E+02  0.15614741743E+02  0.35741235828E+02  0.00000000000E+00 0.  1.
         -2    1    1    2    0  502  0.30689611313E+02  0.53667063561E+02 -0.50978420528E+02  0.80129927700E+02  0.00000000000E+00 0.  1.
<scales pt_clust_5="13000.00000" pt_clust_6="13000.00000" pt_clust_7="13000.00000" pt_clust_8="13000.00000" pt_clust_9="32.14990" pt_clust_10="58.80237"></scales>
<clustering>
<clus scale="   32.150">  1  9  2 -1</clus>
<clus scale="   58.802">  2 10  1 -1</clus>
<clus scale="   79.032">  5  6 -1 -1</clus>
<clus scale="   91.555">  7  8 -1 -1</clus>
<clus scale="  173.211">  1  5  2 -1</clus>
<clus scale="   58.802">  2  5  1 -1</clus>
</clustering>
</event>
<event>
10    4  0.2857708E-005  0.3003441E+03  0.7546771E-02  0.1085585E+00
         21   -1    0    0  501  502  0.00000000000E+00  0.00000000000E+00  0.47405480558E+03  0.47405480558E+03  0.00000000000E+00 0. -1.
          2   -1    0    0  503    0 -0.00000000000E+00 -0.00000000000E+00 -0.58852350512E+03  0.58852350512E+03  0.00000000000E+00 0. -1.
         23    2    1    2    0    0 -0.15417628744E+03 -0.26337172284E+03 -0.31070383726E+03  0.44489386478E+03  0.90877304244E+02 0.  0.
         24    2    1    2    0    0  0.56326026060E+02  0.15759456535E+03  0.27715008317E+03  0.33261041505E+03  0.76215820935E+02 0.  0.
        -11    1    4    4    0    0 -0.10511101677E+02  0.21863240439E+02  0.11383887140E+02  0.26796966757E+02  0.00000000000E+00 0.  1.
         12    1    4    4    0    0  0.66837127737E+02  0.13573132491E+03  0.26576619603E+03  0.30581344830E+03  0.00000000000E+00 0. -1.
        -13    1    3    3    0    0  0.54555073007E+01 -0.25200742652E+02 -0.59440236308E+01  0.26460752201E+02  0.00000000000E+00 0.  1.
         13    1    3    3    0    0 -0.15963179474E+03 -0.23817098019E+03 -0.30475981363E+03  0.41843311257E+03  0.00000000000E+00 0. -1.
         21    1    1    2  503  502 -0.33927447252E+02  0.46136382878E+01 -0.11107078110E+03  0.11622854963E+03  0.00000000000E+00 0.  1.
          1    1    1    2  501    0  0.13177770863E+03  0.10116351920E+03  0.30155835655E+02  0.16884548123E+03  0.00000000000E+00 0. -1.
<scales pt_clust_5="13000.00000" pt_clust_6="13000.00000" pt_clust_7="13000.00000" pt_clust_8="13000.00000" pt_clust_9="34.23970" pt_clust_10="162.64989"></scales>
<clustering>
<clus scale="   34.240">  2  9  1 -1</clus>
<clus scale="   76.216">  5  6 -1 -1</clus>
<clus scale="   90.877">  7  8 -1 -1</clus>
<clus scale="  162.650">  1 10  2 -1</clus>
<clus scale="  296.238">  1  5  2 -1</clus>
<clus scale="  162.650">  1  5  2 -1</clus>
</clustering>
</event>
<event>
10    4  0.2857708E-005  0.1302499E+03  0.7546771E-02  0.1229380E+00
          2   -1    0    0  503    0 -0.00000000000E+00  0.00000000000E+00  0.10230215696E+04  0.10230215696E+04  0.00000000000E+00 0. -1.
         21   -1    0    0  501  502  0.00000000000E+00 -0.00000000000E+00 -0.56546046722E+02  0.56546046722E+02  0.00000000000E+00 0. -1.
         23    2    1    2    0    0 -0.73396718999E+01 -0.61631034140E+02  0.37080186194E+03  0.38679594573E+03  0.90911097562E+02 0.  0.
         24    2    1    2    0    0  0.26779696794E+02  0.69838433394E+02  0.61941060695E+02  0.12711344045E+03  0.82015686330E+02 0.  0.
        -11    1    4    4    0    0  0.28673728829E+02  0.52110166457E+02  0.81339680477E+02  0.10076604484E+03  0.00000000000E+00 0.  1.
         12    1    4    4    0    0 -0.18940320346E+01  0.17728266937E+02 -0.19398619782E+02  0.26347395609E+02  0.00000000000E+00 0. -1.
        -11    1    3    3    0    0  0.28675376801E+02 -0.94233320170E+01  0.40784118676E+02  0.50738750055E+02  0.00000000000E+00 0.  1.
         11    1    3    3    0    0 -0.36015048701E+02 -0.52207702123E+02  0.33001774327E+03  0.33605719567E+03  0.00000000000E+00 0. -1.
         21    1    1    2  503  502 -0.25886877504E+02 -0.95873353683E+02  0.29389943988E+03  0.31022364697E+03  0.00000000000E+00 0. -1.
          1    1    1    2  501    0  0.64468526102E+01  0.87665954428E+02  0.23983316034E+03  0.25543458316E+03  0.00000000000E+00 0. -1.
<scales pt_clust_5="13000.00000" pt_clust_6="13000.00000" pt_clust_7="13000.00000" pt_clust_8="13000.00000" pt_clust_9="84.89941" pt_clust_10="87.90273"></scales>
<clustering>
<clus scale="   82.016">  5  6 -1 -1</clus>
<clus scale="   87.903">  2 10  1 -1</clus>
<clus scale="   84.899">  1  9  2 -1</clus>
<clus scale="   90.911">  7  8 -1 -1</clus>
<clus scale="  124.205">  2  5  1 -1</clus>
<clus scale="   87.903">  2  5  1 -1</clus>
</clustering>
</event>
<event>
10    4  0.2857708E-005  0.1244622E+03  0.7546771E-02  0.1248590E+00
         21   -1    0    0  503  502  0.00000000000E+00  0.00000000000E+00  0.18291797356E+03  0.18291797356E+03  0.00000000000E+00 0.  1.
         -1   -1    0    0    0  501 -0.00000000000E+00 -0.00000000000E+00 -0.21561182191E+03  0.21561182191E+03  0.00000000000E+00 0.  1.
         24    2    1    2    0    0  0.64067088447E+02 -0.85193369317E+02 -0.18995825463E+02  0.13480021425E+03  0.80297910184E+02 0.  0.
         23    2    1    2    0    0  0.19956484517E+02  0.11269422539E+01 -0.72138577274E+01  0.96669807001E+02  0.94305252077E+02 0.  0.
        -13    1    3    3    0    0  0.54737295012E+02 -0.10097354076E+03 -0.19299085048E+02  0.11646579791E+03  0.00000000000E+00 0.  1.
         14    1    3    3    0    0  0.93297934346E+01  0.15780171443E+02  0.30325958580E+00  0.18334416344E+02  0.00000000000E+00 0. -1.
        -11    1    4    4    0    0 -0.32055964167E+02  0.55714838878E+01 -0.25520173562E+02  0.41351003979E+02  0.00000000000E+00 0. -1.
         11    1    4    4    0    0  0.52012448684E+02 -0.44445416338E+01  0.18306315835E+02  0.55318803023E+02  0.00000000000E+00 0.  1.
         21    1    1    2  503  501 -0.72597483046E+02  0.55272210511E+02 -0.57157117980E+02  0.10766776646E+03  0.00000000000E+00 0.  1.
         -2    1    1    2    0  502 -0.11426089918E+02  0.28794216552E+02  0.50672952822E+02  0.59392007757E+02  0.00000000000E+00 0.  1.
<scales pt_clust_5="13000.00000" pt_clust_6="13000.00000" pt_clust_7="13000.00000" pt_clust_8="13000.00000" pt_clust_9="95.09511" pt_clust_10="30.97842"></scales>
<clustering>
<clus scale="   30.978">  1 10  2 -1</clus>
<clus scale="   80.298">  5  6 -1 -1</clus>
<clus scale="   94.305">  7  8 -1 -1</clus>
<clus scale="   96.300">  1  7  2 -1</clus>
<clus scale="   95.095">  2  9  1 -1</clus>
<clus scale="   30.978">  1  5  2 -1</clus>
</clustering>
</event>
<event>
10    4  0.2857708E-005  0.1842489E+03  0.7546771E-02  0.1178431E+00
          2   -1    0    0  503    0 -0.00000000000E+00  0.00000000000E+00  0.17601343327E+04  0.17601343327E+04  0.00000000000E+00 0. -1.
         21   -1    0    0  501  502  0.00000000000E+00 -0.00000000000E+00 -0.92939776839E+02  0.92939776839E+02  0.00000000000E+00 0. -1.
         24    2    1    2    0    0 -0.10100662526E+03  0.11824314835E+02  0.34897540787E+03  0.37221788276E+03  0.80125927004E+02 0.  0.
         23    2    1    2    0    0  0.89379861683E+02  0.13571095952E+03  0.43980035475E+02  0.19175245395E+03  0.91807057828E+02 0.  0.
        -11    1    3    3    0    0 -0.79857592181E+01  0.25696785580E+02  0.14669161143E+03  0.14913928390E+03  0.00000000000E+00 0.  1.
         12    1    3    3    0    0 -0.93020866046E+02 -0.13872470745E+02  0.20228379644E+03  0.22307859886E+03  0.00000000000E+00 0. -1.
        -11    1    4    4    0    0  0.70395871502E+02  0.10616315148E+03  0.72447880113E+02  0.14654312945E+03  0.00000000000E+00 0. -1.
         11    1    4    4    0    0  0.18983990181E+02  0.29547808038E+02 -0.28467844638E+02  0.45209324496E+02  0.00000000000E+00 0.  1.
         21    1    1    2  503  502 -0.10232009352E+02  0.21914246120E+02  0.14149868713E+03  0.14355071111E+03  0.00000000000E+00 0. -1.
          1    1    1    2  501    0  0.21858772934E+02 -0.16944952047E+03  0.11327404254E+04  0.11455530617E+04  0.00000000000E+00 0. -1.
<scales pt_clust_5="13000.00000" pt_clust_6="13000.00000" pt_clust_7="13000.00000" pt_clust_8="13000.00000" pt_clust_9="24.18529" pt_clust_10="159.74717"></scales>
<clustering>
<clus scale="   24.185">  1  9  2 -1</clus>
<clus scale="   80.126">  5  6 -1 -1</clus>
<clus scale="   91.807">  7  8 -1 -1</clus>
<clus scale="  131.787">  1  5  2 -1</clus>
<clus scale="  159.747">  2 10  1 -1</clus>
<clus scale="  159.747">  2  5  1 -1</clus>
</clustering>
</event>
<event>
10    4  0.2857708E-005  0.1981783E+03  0.7546771E-02  0.1175442E+00
          2   -1    0    0  502    0 -0.00000000000E+00  0.00000000000E+00  0.47705886443E+03  0.47705886443E+03  0.00000000000E+00 0. -1.
         21   -1    0    0  503  502  0.00000000000E+00 -0.00000000000E+00 -0.16838863911E+03  0.16838863911E+03  0.00000000000E+00 0. -1.
         24    2    1    2    0    0  0.45098683342E+02 -0.66302275742E+02 -0.24972342940E+02  0.11602449780E+03  0.80051128480E+02 0.  0.
         23    2    1    2    0    0 -0.20849127732E+02  0.20027640927E+03  0.75814671156E+02  0.23319554924E+03  0.89927601896E+02 0.  0.
        -11    1    3    3    0    0 -0.70005754901E+01 -0.29621932073E+02  0.21410267960E+02  0.37213794366E+02  0.00000000000E+00 0.  1.
         12    1    3    3    0    0  0.52099258832E+02 -0.36680343668E+02 -0.46382610900E+02  0.78810703438E+02  0.00000000000E+00 0. -1.
        -13    1    4    4    0    0 -0.18475947055E+02  0.13343106882E+02 -0.12984198679E+02  0.26229535569E+02  0.00000000000E+00 0.  1.
         13    1    4    4    0    0 -0.23731806776E+01  0.18693330239E+03  0.88798869835E+02  0.20696601367E+03  0.00000000000E+00 0. -1.
         21    1    1    2  503  501  0.32552894681E+01 -0.35760806495E+02  0.11672052999E+03  0.12211926265E+03  0.00000000000E+00 0.  1.
          1    1    1    2  501    0 -0.27504845077E+02 -0.98213327037E+02  0.14110736712E+03  0.17410819385E+03  0.00000000000E+00 0. -1.
<scales pt_clust_5="13000.00000" pt_clust_6="13000.00000" pt_clust_7="13000.00000" pt_clust_8="13000.00000" pt_clust_9="31.05008" pt_clust_10="184.19030"></scales>
<clustering>
<clus scale="   31.050">  9 10 -1 -1</clus>
<clus scale="   80.051">  5  6 -1 -1</clus>
<clus scale="   89.928">  7  8 -1 -1</clus>
<clus scale="  113.305">  1  5  2 -1</clus>
<clus scale="  184.190">  2  9  1 -1</clus>
<clus scale="  184.190">  2  5  1 -1</clus>
</clustering>
</event>
<event>
10    4  0.2857708E-005  0.1399132E+03  0.7546771E-02  0.1230982E+00
         -3   -1    0    0    0  501 -0.00000000000E+00  0.00000000000E+00  0.12981083918E+03  0.12981083918E+03  0.00000000000E+00 0.  1.
         21   -1    0    0  503  502  0.00000000000E+00 -0.00000000000E+00 -0.67165797659E+03  0.67165797659E+03  0.00000000000E+00 0. -1.
         23    2    1    2    0    0 -0.68734139762E+01 -0.30395735045E+02 -0.39793798824E+02  0.10500614463E+03  0.92041292123E+02 0.  0.
         24    2    1    2    0    0  0.35466457488E+02  0.56846892880E+02 -0.42999488027E+03  0.44469805416E+03  0.91494936883E+02 0.  0.
        -11    1    4    4    0    0  0.33448422974E+02 -0.11748589166E+02 -0.72830795697E+02  0.81000933011E+02  0.00000000000E+00 0.  1.
         12    1    4    4    0    0  0.20180345138E+01  0.68595482046E+02 -0.35716408457E+03  0.36369712115E+03  0.00000000000E+00 0. -1.
        -13    1    3    3    0    0 -0.12460081973E+02  0.23827482241E+02  0.12334214253E+02  0.29582687402E+02  0.00000000000E+00 0.  1.
         13    1    3    3    0    0  0.55866679964E+01 -0.54223217286E+02 -0.52128013077E+02  0.75423457223E+02  0.00000000000E+00 0. -1.
         21    1    1    2  503  501 -0.99313100275E+02 -0.26887644269E+02  0.47133607075E+02  0.11317073039E+03  0.00000000000E+00 0.  1.
         -4    1    1    2    0  502  0.70720056763E+02  0.43648643421E+00 -0.11919206540E+03  0.13859388660E+03  0.00000000000E+00 0.  1.
<scales pt_clust_5="13000.00000" pt_clust_6="13000.00000" pt_clust_7="13000.00000" pt_clust_8="13000.00000" pt_clust_9="105.85074" pt_clust_10="70.72140"></scales>
<clustering>
<clus scale="   70.721">  2 10  1 -1</clus>
<clus scale="   91.495">  5  6 -1 -1</clus>
<clus scale="   92.041">  7  8 -1 -1</clus>
<clus scale="   96.946">  1  7  2 -1</clus>
<clus scale="  105.851">  1  9  2 -1</clus>
<clus scale="   70.721">  2  5  1 -1</clus>
</clustering>
</event>
<event>
10    4  0.2857708E-005  0.1088935E+03  0.7546771E-02  0.1267265E+00
         21   -1    0    0  501  502  0.00000000000E+00  0.00000000000E+00  0.67891773661E+03  0.67891773661E+03  0.00000000000E+00 0.  1.
          2   -1    0    0  503    0 -0.00000000000E+00 -0.00000000000E+00 -0.66570610365E+02  0.66570610365E+02  0.00000000000E+00 0. -1.
         24    2    1    2    0    0  0.41834122314E+02  0.93592803748E+01  0.45498476013E+02  0.10177722601E+03  0.80316887990E+02 0.  0.
         23    2    1    2    0    0 -0.87857083954E+02  0.94552170175E+01  0.56785319892E+03  0.58195886671E+03  0.91709316316E+02 0.  0.
        -11    1    3    3    0    0 -0.14126433427E+02 -0.21546321166E+02  0.54296925822E+01  0.26330241904E+02  0.00000000000E+00 0.  1.
         12    1    3    3    0    0  0.55960555741E+02  0.30905601541E+02  0.40068783431E+02  0.75446984109E+02  0.00000000000E+00 0. -1.
        -11    1    4    4    0    0 -0.69670305184E+01  0.40105704027E+02  0.19487965650E+03  0.19908562863E+03  0.00000000000E+00 0. -1.
         11    1    4    4    0    0 -0.80890053436E+02 -0.30650487009E+02  0.37297354242E+03  0.38287323808E+03  0.00000000000E+00 0.  1.
         21    1    1    2  503  502  0.25641821859E+02 -0.48865717724E+01  0.17041719680E+02  0.31173736087E+02  0.00000000000E+00 0. -1.
          1    1    1    2  501    0  0.20381139781E+02 -0.13927925620E+02 -0.18046268367E+02  0.30578518159E+02  0.00000000000E+00 0. -1.
<scales pt_clust_5="13000.00000" pt_clust_6="13000.00000" pt_clust_7="13000.00000" pt_clust_8="13000.00000" pt_clust_9="26.91660" pt_clust_10="24.68559"></scales>
<clustering>
<clus scale="   24.686">  1 10  2 -1</clus>
<clus scale="   26.917">  2  9  1 -1</clus>
<clus scale="   80.317">  5  6 -1 -1</clus>
<clus scale="   91.709">  7  8 -1 -1</clus>
<clus scale="   99.489">  2  5  1 -1</clus>
<clus scale="   24.686">  1  5  2 -1</clus>
</clustering>
</event>
<event>
10    4  0.2857708E-005  0.1172582E+03  0.7546771E-02  0.1252582E+00
          2   -1    0    0  503    0 -0.00000000000E+00  0.00000000000E+00  0.11838349238E+03  0.11838349238E+03  0.00000000000E+00 0. -1.
         21   -1    0    0  501  502  0.00000000000E+00 -0.00000000000E+00 -0.26866785226E+03  0.26866785226E+03  0.00000000000E+00 0.  1.
         23    2    1    2    0    0 -0.71629118910E+01  0.80608347786E+02 -0.22582983233E+02  0.12421539083E+03  0.91490213403E+02 0.  0.
         24    2    1    2    0    0 -0.43652959625E+02 -0.60247893072E+02 -0.67980182186E+02  0.12683228257E+03  0.77004761077E+02 0.  0.
        -13    1    4    4    0    0 -0.54969040564E+02 -0.10499088578E+02 -0.38197781711E+02  0.67756156984E+02  0.00000000000E+00 0.  1.
         14    1    4    4    0    0  0.11316080939E+02 -0.49748804494E+02 -0.29782400475E+02  0.59076125587E+02  0.00000000000E+00 0. -1.
        -13    1    3    3    0    0  0.14165491908E+02  0.30583648316E+02  0.32492088280E+02  0.46816199185E+02  0.00000000000E+00 0. -1.
         13    1    3    3    0    0 -0.21328403799E+02  0.50024699469E+02 -0.55075071512E+02  0.77399191648E+02  0.00000000000E+00 0.  1.
         21    1    1    2  503  502  0.46466932120E+02  0.38099668576E+02 -0.46318512133E+02  0.75869394966E+02  0.00000000000E+00 0.  1.
          1    1    1    2  501    0  0.43489393960E+01 -0.58460123290E+02 -0.13402682332E+02  0.60134276271E+02  0.00000000000E+00 0. -1.
<scales pt_clust_5="13000.00000" pt_clust_6="13000.00000" pt_clust_7="13000.00000" pt_clust_8="13000.00000" pt_clust_9="52.74637" pt_clust_10="58.62169"></scales>
<clustering>
<clus scale="   58.622">  2 10  1 -1</clus>
<clus scale="   52.746">  2  9  1 -1</clus>
<clus scale="   77.005">  5  6 -1 -1</clus>
<clus scale="   91.490">  7  8 -1 -1</clus>
<clus scale="  106.343">  2  5  1 -1</clus>
<clus scale="   58.622">  2  5  1 -1</clus>
</clustering>
</event>
<event>
10    4  0.2857708E-005  0.1485224E+03  0.7546771E-02  0.1227403E+00
         21   -1    0    0  501  502  0.00000000000E+00  0.00000000000E+00  0.10537727771E+03  0.10537727771E+03  0.00000000000E+00 0. -1.
          2   -1    0    0  503    0 -0.00000000000E+00 -0.00000000000E+00 -0.51867360774E+03  0.51867360774E+03  0.00000000000E+00 0. -1.
         24    2    1    2    0    0  0.27042688605E+02 -0.95179872773E+01  0.10717501281E+02  0.86484172359E+02  0.80887255771E+02 0.  0.
         23    2    1    2    0    0 -0.11212845307E+01  0.11267842711E+03 -0.16414090257E+03  0.21945425700E+03  0.92305199242E+02 0.  0.
        -13    1    3    3    0    0  0.52958901718E+02  0.59709376833E+01  0.16402823406E+02  0.55761545743E+02  0.00000000000E+00 0.  1.
         14    1    3    3    0    0 -0.25916213113E+02 -0.15488924961E+02 -0.56853221251E+01  0.30722626616E+02  0.00000000000E+00 0. -1.
        -11    1    4    4    0    0  0.35492185303E+02  0.18510466166E+02 -0.23942853541E+02  0.46643250433E+02  0.00000000000E+00 0.  1.
         11    1    4    4    0    0 -0.36613469834E+02  0.94167960939E+02 -0.14019804903E+03  0.17281100657E+03  0.00000000000E+00 0. -1.
         21    1    1    2  503  502  0.47645431975E+02  0.45132675140E+01 -0.10673365235E+03  0.11697234424E+03  0.00000000000E+00 0.  1.
          1    1    1    2  501    0 -0.73566836049E+02 -0.10767370734E+03 -0.15313927639E+03  0.20114011184E+03  0.00000000000E+00 0. -1.
<scales pt_clust_5="13000.00000" pt_clust_6="13000.00000" pt_clust_7="13000.00000" pt_clust_8="13000.00000" pt_clust_9="47.85872" pt_clust_10="116.35574"></scales>
<clustering>
<clus scale="   47.859">  2  9  1 -1</clus>
<clus scale="   80.887">  5  6 -1 -1</clus>
<clus scale="   87.272">  2  5  1 -1</clus>
<clus scale="   92.305">  7  8 -1 -1</clus>
<clus scale="  116.356">  1 10  2 -1</clus>
<clus scale="  116.356">  1  5  2 -1</clus>
</clustering>
</event>
<event>
10    4  0.2857708E-005  0.1810311E+03  0.7546771E-02  0.1186047E+00
         21   -1    0    0  501  502  0.00000000000E+00  0.00000000000E+00  0.22904865124E+03  0.22904865124E+03  0.00000000000E+00 0.  1.
          4   -1    0    0  503    0 -0.00000000000E+00 -0.00000000000E+00 -0.38727813573E+03  0.38727813573E+03  0.00000000000E+00 0. -1.
         24    2    1    2    0    0 -0.13325759460E+02  0.81087720323E+02  0.30448565139E+02  0.11683032852E+03  0.77261997719E+02 0.  0.
         23    2    1    2    0    0  0.13824366973E+03  0.51752368013E+02 -0.10039254906E+03  0.20030105463E+03  0.90841778742E+02 0.  0.
        -13    1    3    3    0    0  0.16667635895E+02  0.71458809820E+02  0.40439762674E+02  0.83782730871E+02  0.00000000000E+00 0.  1.
         14    1    3    3    0    0 -0.29993395355E+02  0.96289105036E+01 -0.99911975346E+01  0.33047597652E+02  0.00000000000E+00 0. -1.
        -11    1    4    4    0    0  0.11020836186E+02  0.43364037316E+02 -0.36206507848E+02  0.57557013240E+02  0.00000000000E+00 0.  1.
         11    1    4    4    0    0  0.12722283354E+03  0.83883306975E+01 -0.64186041210E+02  0.14274404139E+03  0.00000000000E+00 0. -1.
         21    1    1    2  503  502 -0.49715842482E+02  0.27853405011E+02 -0.10655612682E+03  0.12083743347E+03  0.00000000000E+00 0.  1.
          3    1    1    2  501    0 -0.75202067787E+02 -0.16069349335E+03  0.18270626253E+02  0.17835797035E+03  0.00000000000E+00 0. -1.
<scales pt_clust_5="13000.00000" pt_clust_6="13000.00000" pt_clust_7="13000.00000" pt_clust_8="13000.00000" pt_clust_9="56.98664" pt_clust_10="156.58873"></scales>
<clustering>
<clus scale="   56.987">  2  9  1 -1</clus>
<clus scale="   77.262">  5  6 -1 -1</clus>
<clus scale="   90.842">  7  8 -1 -1</clus>
<clus scale="  117.156">  2  5  1 -1</clus>
<clus scale="  156.589">  1 10  2 -1</clus>
<clus scale="  156.589">  1  5  2 -1</clus>
</clustering>
</event>
<event>
10    4  0.2857708E-005  0.3779201E+03  0.7546771E-02  0.1081498E+00
          2   -1    0    0  503    0 -0.00000000000E+00  0.00000000000E+00  0.13742547982E+04  0.13742547982E+04  0.00000000000E+00 0. -1.
         21   -1    0    0  501  502  0.00000000000E+00 -0.00000000000E+00 -0.20611024403E+03  0.20611024403E+03  0.00000000000E+00 0. -1.
         23    2    1    2    0    0 -0.13027143668E+03  0.38450490956E+02  0.50266346997E+01  0.16455125928E+03  0.92751077642E+02 0.  0.
         24    2    1    2    0    0  0.26191644895E+03 -0.32701940284E+03  0.42131988932E+03  0.59961057564E+03  0.80501411288E+02 0.  0.
        -13    1    4    4    0    0  0.15675378106E+03 -0.14436555738E+03  0.24593237175E+03  0.32541649238E+03  0.00000000000E+00 0.  1.
         14    1    4    4    0    0  0.10516266789E+03 -0.18265384546E+03  0.17538751757E+03  0.27419408327E+03  0.00000000000E+00 0. -1.
        -13    1    3    3    0    0 -0.37412475360E+02 -0.26181331623E+02  0.21055521082E+02  0.50284096951E+02  0.00000000000E+00 0.  1.
         13    1    3    3    0    0 -0.92858961320E+02  0.64631822579E+02 -0.16028886382E+02  0.11426716233E+03  0.00000000000E+00 0. -1.
         21    1    1    2  503  502 -0.28796449747E+02 -0.51335384864E+01  0.60510301270E+02  0.67209264951E+02  0.00000000000E+00 0. -1.
          1    1    1    2  501    0 -0.10284856252E+03  0.29370245037E+03  0.68128772892E+03  0.74899394239E+03  0.00000000000E+00 0. -1.
<scales pt_clust_5="13000.00000" pt_clust_6="13000.00000" pt_clust_7="13000.00000" pt_clust_8="13000.00000" pt_clust_9="29.25045" pt_clust_10="369.24687"></scales>
<clustering>
<clus scale="   29.250">  1  9  2 -1</clus>
<clus scale="   80.501">  5  6 -1 -1</clus>
<clus scale="   92.751">  7  8 -1 -1</clus>
<clus scale="  165.878">  1  7  2 -1</clus>
<clus scale="  369.247">  2 10  1 -1</clus>
<clus scale="  369.247">  2  5  1 -1</clus>
</clustering>
</event>
<event>
10    4  0.2857708E-005  0.1037567E+03  0.7546771E-02  0.1278171E+00
         21   -1    0    0  501  502  0.00000000000E+00  0.00000000000E+00  0.30293390136E+03  0.30293390136E+03  0.00000000000E+00 0.  1.
          2   -1    0    0  503    0 -0.00000000000E+00 -0.00000000000E+00 -0.13415938113E+03  0.13415938113E+03  0.00000000000E+00 0. -1.
         23    2    1    2    0    0  0.72205641690E+02  0.41050043516E+02  0.11883769401E+03  0.17186093261E+03  0.92276876172E+02 0.  0.
         24    2    1    2    0    0 -0.80727458020E+01 -0.15138319125E+02  0.12776128733E+03  0.15184852994E+03  0.80253919376E+02 0.  0.
        -11    1    4    4    0    0  0.27162001826E+02 -0.11880897257E+02  0.14142637393E+02  0.32847286878E+02  0.00000000000E+00 0.  1.
         12    1    4    4    0    0 -0.35234747628E+02 -0.32574218683E+01  0.11361864994E+03  0.11900124306E+03  0.00000000000E+00 0. -1.
        -13    1    3    3    0    0  0.19132226302E+01  0.52749792010E+02  0.47035446906E+02  0.70700312896E+02  0.00000000000E+00 0. -1.
         13    1    3    3    0    0  0.70292419060E+02 -0.11699748494E+02  0.71802247105E+02  0.10116061972E+03  0.00000000000E+00 0.  1.
         21    1    1    2  503  502 -0.17445720760E+02 -0.29550548863E+02 -0.43060459317E+02  0.55061704183E+02  0.00000000000E+00 0. -1.
          1    1    1    2  501    0 -0.46687175128E+02  0.36388244717E+01 -0.34764001789E+02  0.58322115749E+02  0.00000000000E+00 0. -1.
<scales pt_clust_5="13000.00000" pt_clust_6="13000.00000" pt_clust_7="13000.00000" pt_clust_8="13000.00000" pt_clust_9="34.31600" pt_clust_10="57.60657"></scales>
<clustering>
<clus scale="   34.316">  2  9  1 -1</clus>
<clus scale="   57.607">  1 10  2 -1</clus>
<clus scale="   80.254">  5  6 -1 -1</clus>
<clus scale="   92.277">  7  8 -1 -1</clus>
<clus scale="   93.226">  1  5  2 -1</clus>
<clus scale="   57.607">  1  5  2 -1</clus>
</clustering>
</event>
<event>
10    4  0.2857708E-005  0.1113824E+03  0.7546771E-02  0.1265052E+00
         21   -1    0    0  501  502  0.00000000000E+00  0.00000000000E+00  0.37300039726E+03  0.37300039726E+03  0.00000000000E+00 0.  1.
          4   -1    0    0  503    0 -0.00000000000E+00 -0.00000000000E+00 -0.87361220785E+02  0.87361220785E+02  0.00000000000E+00 0. -1.
         24    2    1    2    0    0 -0.60597358703E+02 -0.38750823340E+02  0.13766676407E+02  0.10772551594E+03  0.79003792396E+02 0.  0.
         23    2    1    2    0    0  0.32560379747E+01  0.70115891135E+02  0.24645731322E+03  0.27366995764E+03  0.96058307825E+02 0.  0.
        -11    1    3    3    0    0 -0.25555148437E+02  0.15506696347E+02  0.28692003735E+02  0.41433734101E+02  0.00000000000E+00 0.  1.
         12    1    3    3    0    0 -0.35042210265E+02 -0.54257519687E+02 -0.14925327328E+02  0.66291781834E+02  0.00000000000E+00 0. -1.
        -13    1    4    4    0    0  0.29184065218E+02 -0.83487442587E+01  0.33322291680E+02  0.45075340444E+02  0.00000000000E+00 0. -1.
         13    1    4    4    0    0 -0.25928027243E+02  0.78464635393E+02  0.21313502154E+03  0.22859461720E+03  0.00000000000E+00 0.  1.
         21    1    1    2  503  502  0.27691670998E+02  0.41055991801E+01  0.50389320276E+01  0.28444251146E+02  0.00000000000E+00 0. -1.
          3    1    1    2  501    0  0.29649649730E+02 -0.35470666975E+02  0.20376254823E+02  0.50521893327E+02  0.00000000000E+00 0. -1.
<scales pt_clust_5="13000.00000" pt_clust_6="13000.00000" pt_clust_7="13000.00000" pt_clust_8="13000.00000" pt_clust_9="27.99437" pt_clust_10="49.37097"></scales>
<clustering>
<clus scale="   27.994">  2  9  1 -1</clus>
<clus scale="   49.371">  1 10  2 -1</clus>
<clus scale="   79.004">  5  6 -1 -1</clus>
<clus scale="   96.058">  7  8 -1 -1</clus>
<clus scale="   97.059">  2  5  1 -1</clus>
<clus scale="   49.371">  1  5  2 -1</clus>
</clustering>
</event>
<event>
10    4  0.2857708E-005  0.1524398E+03  0.7546771E-02  0.1198863E+00
         21   -1    0    0  501  502  0.00000000000E+00  0.00000000000E+00  0.62593789043E+03  0.62593789043E+03  0.00000000000E+00 0.  1.
          2   -1    0    0  503    0 -0.00000000000E+00 -0.00000000000E+00 -0.71284844701E+02  0.71284844701E+02  0.00000000000E+00 0. -1.
         24    2    1    2    0    0  0.88911754105E+02  0.25228856569E+02  0.82157440246E+02  0.14775373198E+03  0.80867330271E+02 0.  0.
         23    2    1    2    0    0 -0.13555555446E+03 -0.82444739895E+02  0.34474164830E+03  0.38973421675E+03  0.88732813293E+02 0.  0.
        -11    1    3    3    0    0  0.73238640276E+02 -0.29416274483E+01  0.88486073462E+02  0.11490142209E+03  0.00000000000E+00 0.  1.
         12    1    3    3    0    0  0.15673113828E+02  0.28170484017E+02 -0.63286332166E+01  0.32852309892E+02  0.00000000000E+00 0. -1.
        -13    1    4    4    0    0 -0.11980405157E+02 -0.50044043970E+02  0.13071883746E+03  0.14048256444E+03  0.00000000000E+00 0.  1.
         13    1    4    4    0    0 -0.12357514930E+03 -0.32400695924E+02  0.21402281084E+03  0.24925165231E+03  0.00000000000E+00 0. -1.
         21    1    1    2  503  502  0.25726735142E+02  0.38774900536E+02  0.24116723063E+02  0.52411584062E+02  0.00000000000E+00 0. -1.
          1    1    1    2  501    0  0.20917065210E+02  0.18440982790E+02  0.10363723412E+03  0.10732320233E+03  0.00000000000E+00 0. -1.
<scales pt_clust_5="13000.00000" pt_clust_6="13000.00000" pt_clust_7="13000.00000" pt_clust_8="13000.00000" pt_clust_9="48.51627" pt_clust_10="27.88536"></scales>
<clustering>
<clus scale="   27.885">  1 10  2 -1</clus>
<clus scale="   48.516">  2  9  1 -1</clus>
<clus scale="   80.867">  5  6 -1 -1</clus>
<clus scale="   88.733">  7  8 -1 -1</clus>
<clus scale="  148.000">  2  5  1 -1</clus>
<clus scale="   27.885">  1  5  2 -1</clus>
</clustering>
</event>
<event>
10    4  0.2857708E-005  0.9625771E+02  0.7546771E-02  0.1295383E+00
         21   -1    0    0  501  502  0.00000000000E+00  0.00000000000E+00  0.10899984283E+03  0.10899984283E+03  0.00000000000E+00 0. -1.
          2   -1    0    0  503    0 -0.00000000000E+00 -0.00000000000E+00 -0.28959010208E+03  0.28959010208E+03  0.00000000000E+00 0. -1.
         24    2    1    2    0    0 -0.29276436549E+02 -0.21560801111E+01 -0.97737854799E+02  0.12854609789E+03  0.78164266793E+02 0.  0.
         23    2    1    2    0    0 -0.26771169083E+01 -0.37642844451E+02  0.55676319436E+02  0.11300110735E+03  0.90803342571E+02 0.  0.
        -13    1    3    3    0    0 -0.31942124568E+02  0.24445923252E+02 -0.17307515176E+02  0.43788726485E+02  0.00000000000E+00 0.  1.
         14    1    3    3    0    0  0.26656880195E+01 -0.26602003363E+02 -0.80430339623E+02  0.84757371405E+02  0.00000000000E+00 0. -1.
        -11    1    4    4    0    0 -0.30564309990E+02 -0.97162554986E+01  0.64970533759E+02  0.72455178717E+02  0.00000000000E+00 0. -1.
         11    1    4    4    0    0  0.27887193081E+02 -0.27926588953E+02 -0.92942143223E+01  0.40545928629E+02  0.00000000000E+00 0.  1.
         21    1    1    2  503  502  0.67052134293E+01  0.38478264413E+02 -0.11855161049E+03  0.12481995462E+03  0.00000000000E+00 0.  1.
          1    1    1    2  501    0  0.25248340028E+02  0.13206601494E+01 -0.19977113391E+02  0.32222785057E+02  0.00000000000E+00 0. -1.
<scales pt_clust_5="13000.00000" pt_clust_6="13000.00000" pt_clust_7="13000.00000" pt_clust_8="13000.00000" pt_clust_9="39.23699" pt_clust_10="25.28287"></scales>
<clustering>
<clus scale="   25.283">  1 10  2 -1</clus>
<clus scale="   39.237">  2  9  1 -1</clus>
<clus scale="   78.164">  5  6 -1 -1</clus>
<clus scale="   84.439">  2  5  1 -1</clus>
<clus scale="   90.803">  7  8 -1 -1</clus>
<clus scale="   25.283">  1  5  2 -1</clus>
</clustering>
</event>
<event>
10    4  0.2857708E-005  0.1052123E+03  0.7546771E-02  0.1278517E+00
         21   -1    0    0  503  502  0.00000000000E+00  0.00000000000E+00  0.10835680199E+03  0.10835680199E+03  0.00000000000E+00 0. -1.
         -3   -1    0    0    0  501 -0.00000000000E+00 -0.00000000000E+00 -0.14653247645E+03  0.14653247645E+03  0.00000000000E+00 0.  1.
         24    2    1    2    0    0 -0.46901290812E+01  0.37920713200E+02 -0.32057180483E+02  0.93394327985E+02  0.78961128910E+02 0.  0.
         23    2    1    2    0    0  0.40434153015E+01 -0.34403427445E+02  0.14588371559E+02  0.10405724323E+03  0.97031666259E+02 0.  0.
        -13    1    3    3    0    0 -0.40733904384E+02  0.10713112409E+02 -0.20151082389E+02  0.46691411045E+02  0.00000000000E+00 0.  1.
         14    1    3    3    0    0  0.36043775303E+02  0.27207600791E+02 -0.11906098093E+02  0.46702916940E+02  0.00000000000E+00 0. -1.
        -11    1    4    4    0    0  0.25317398366E+02  0.24029712700E+02  0.22261749502E+02  0.41400280716E+02  0.00000000000E+00 0. -1.
         11    1    4    4    0    0 -0.21273983065E+02 -0.58433140145E+02 -0.76733779430E+01  0.62656962516E+02  0.00000000000E+00 0.  1.
         21    1    1    2  503  501 -0.86404417896E+01  0.21442066352E+02 -0.20358822987E+02  0.30804238623E+02  0.00000000000E+00 0.  1.
         -4    1    1    2    0  502  0.92871555693E+01 -0.24959352106E+02 -0.34804254448E+00  0.26633468602E+02  0.00000000000E+00 0.  1.
<scales pt_clust_5="13000.00000" pt_clust_6="13000.00000" pt_clust_7="13000.00000" pt_clust_8="13000.00000" pt_clust_9="23.11751" pt_clust_10="24.05373"></scales>
<clustering>
<clus scale="   23.118">  2  9  1 -1</clus>
<clus scale="   24.054">  1 10  2 -1</clus>
<clus scale="   78.961">  5  6 -1 -1</clus>
<clus scale="   88.822">  2  5  1 -1</clus>
<clus scale="   97.032">  7  8 -1 -1</clus>
<clus scale="   24.054">  1  5  2 -1</clus>
</clustering>
</event>
<event>
10    4  0.2857708E-005  0.1874165E+03  0.7546771E-02  0.1161834E+00
          2   -1    0    0  503    0 -0.00000000000E+00  0.00000000000E+00  0.80526628936E+03  0.80526628936E+03  0.00000000000E+00 0. -1.
         21   -1    0    0  501  502  0.00000000000E+00 -0.00000000000E+00 -0.10284161105E+03  0.10284161105E+03  0.00000000000E+00 0. -1.
         24    2    1    2    0    0 -0.25706219284E+02  0.19214284047E+03  0.54849992765E+03  0.58745080483E+03  0.81649229114E+02 0.  0.
         23    2    1    2    0    0  0.26623549141E+02 -0.12768913153E+03  0.16454357023E+03  0.22887087180E+03  0.91071190688E+02 0.  0.
        -11    1    3    3    0    0  0.24925863261E+02  0.50844193711E+02  0.10583538485E+03  0.12003149328E+03  0.00000000000E+00 0.  1.
         12    1    3    3    0    0 -0.50632082545E+02  0.14129864676E+03  0.44266454280E+03  0.46741931155E+03  0.00000000000E+00 0. -1.
        -13    1    4    4    0    0 -0.29088664873E+02 -0.78057614909E+02  0.72911786285E+02  0.11070352410E+03  0.00000000000E+00 0.  1.
         13    1    4    4    0    0  0.55712214014E+02 -0.49631516622E+02  0.91631783944E+02  0.11816734769E+03  0.00000000000E+00 0. -1.
         21    1    1    2  503  502 -0.52946499865E+01 -0.20184802828E+02  0.26583522835E+02  0.33795610218E+02  0.00000000000E+00 0.  1.
          1    1    1    2  501    0  0.43773201293E+01 -0.44268906114E+02 -0.37202342409E+02  0.57990613557E+02  0.00000000000E+00 0. -1.
<scales pt_clust_5="13000.00000" pt_clust_6="13000.00000" pt_clust_7="13000.00000" pt_clust_8="13000.00000" pt_clust_9="20.86767" pt_clust_10="44.74729"></scales>
<clustering>
<clus scale="   20.868">  1  9  2 -1</clus>
<clus scale="   44.747">  2 10  1 -1</clus>
<clus scale="   81.649">  5  6 -1 -1</clus>
<clus scale="   91.071">  7  8 -1 -1</clus>
<clus scale="  183.023">  1  5  2 -1</clus>
<clus scale="   44.747">  2  5  1 -1</clus>
</clustering>
</event>
<event>
10    4  0.2857708E-005  0.1901380E+03  0.7546771E-02  0.1186659E+00
          2   -1    0    0  503    0 -0.00000000000E+00  0.00000000000E+00  0.20067315530E+03  0.20067315530E+03  0.00000000000E+00 0. -1.
         21   -1    0    0  501  502  0.00000000000E+00 -0.00000000000E+00 -0.90575039652E+03  0.90575039652E+03  0.00000000000E+00 0.  1.
         23    2    1    2    0    0 -0.10272794483E+02 -0.25019318421E+02  0.77273946027E+02  0.12278468139E+03  0.91505839426E+02 0.  0.
         24    2    1    2    0    0 -0.29627886766E+02  0.18107825051E+03 -0.75116559490E+03  0.77731614767E+03  0.79394571515E+02 0.  0.
        -11    1    4    4    0    0 -0.54243754673E+02  0.85916896837E+02 -0.38800959563E+03  0.40109293734E+03  0.00000000000E+00 0.  1.
         12    1    4    4    0    0  0.24615867907E+02  0.95161353671E+02 -0.36315599926E+03  0.37622321032E+03  0.00000000000E+00 0. -1.
        -11    1    3    3    0    0 -0.31827054844E+02  0.12303105837E+02  0.71597912322E+02  0.79313232705E+02  0.00000000000E+00 0.  1.
         11    1    3    3    0    0  0.21554260361E+02 -0.37322424258E+02  0.56760337043E+01  0.43471448686E+02  0.00000000000E+00 0. -1.
         21    1    1    2  503  502  0.41608450290E+01 -0.21588122846E+02  0.43255066786E+02  0.48521752668E+02  0.00000000000E+00 0. -1.
          1    1    1    2  501    0  0.35739836220E+02 -0.13447080924E+03 -0.74440659139E+02  0.15780097010E+03  0.00000000000E+00 0. -1.
<scales pt_clust_5="13000.00000" pt_clust_6="13000.00000" pt_clust_7="13000.00000" pt_clust_8="13000.00000" pt_clust_9="21.98544" pt_clust_10="172.76864"></scales>
<clustering>
<clus scale="   21.985">  1  9  2 -1</clus>
<clus scale="   79.395">  5  6 -1 -1</clus>
<clus scale="   91.506">  7  8 -1 -1</clus>
<clus scale="   99.747">  1  7  2 -1</clus>
<clus scale="  172.769">  2 10  1 -1</clus>
<clus scale="  172.769">  2  5  1 -1</clus>
</clustering>
</event>
<event>
10    4  0.2857708E-005  0.1576394E+03  0.7546771E-02  0.1192696E+00
         21   -1    0    0  501  502  0.00000000000E+00  0.00000000000E+00  0.80845776518E+02  0.80845776518E+02  0.00000000000E+00 0. -1.
          2   -1    0    0  503    0 -0.00000000000E+00 -0.00000000000E+00 -0.73971042681E+03  0.73971042681E+03  0.00000000000E+00 0. -1.
         23    2    1    2    0    0 -0.12377259693E+03 -0.10706266921E+03 -0.27927828693E+03  0.33622305999E+03  0.90925868861E+02 0.  0.
         24    2    1    2    0    0  0.84802093138E+02  0.80858646142E+02 -0.10810917525E+03  0.18728480024E+03  0.98277601563E+02 0.  0.
        -11    1    4    4    0    0 -0.86929795716E+01  0.19618077049E+02  0.10860976460E+02  0.24049899181E+02  0.00000000000E+00 0.  1.
         12    1    4    4    0    0  0.93495072709E+02  0.61240569092E+02 -0.11897015171E+03  0.16323490106E+03  0.00000000000E+00 0. -1.
        -13    1    3    3    0    0 -0.10976897250E+03 -0.63183021016E+02 -0.25365028034E+03  0.28351329102E+03  0.00000000000E+00 0.  1.
         13    1    3    3    0    0 -0.14003624437E+02 -0.43879648196E+02 -0.25628006588E+02  0.52709768970E+02  0.00000000000E+00 0. -1.
         21    1    1    2  503  502  0.66138841719E+02  0.41833586937E+02 -0.24077252075E+03  0.25317148759E+03  0.00000000000E+00 0. -1.
          1    1    1    2  501    0 -0.27168337922E+02 -0.15629563867E+02 -0.30704667359E+02  0.43876855513E+02  0.00000000000E+00 0. -1.
<scales pt_clust_5="13000.00000" pt_clust_6="13000.00000" pt_clust_7="13000.00000" pt_clust_8="13000.00000" pt_clust_9="75.64424" pt_clust_10="31.34329"></scales>
<clustering>
<clus scale="   31.343">  1 10  2 -1</clus>
<clus scale="   75.644">  2  9  1 -1</clus>
<clus scale="   90.926">  7  8 -1 -1</clus>
<clus scale="   98.278">  5  6 -1 -1</clus>
<clus scale="  153.164">  2  7  1 -1</clus>
<clus scale="   31.343">  1  5  2 -1</clus>
</clustering>
</event>
<event>
10    4  0.2857708E-005  0.1387049E+03  0.7546771E-02  0.1228674E+00
         21   -1    0    0  501  502  0.00000000000E+00  0.00000000000E+00  0.87797614860E+02  0.87797614860E+02  0.00000000000E+00 0. -1.
          2   -1    0    0  503    0 -0.00000000000E+00 -0.00000000000E+00 -0.69589811581E+03  0.69589811581E+03  0.00000000000E+00 0. -1.
         24    2    1    2    0    0  0.60064398313E+02 -0.31028142476E+02 -0.12523361805E+02  0.10732679197E+03  0.82411941575E+02 0.  0.
         23    2    1    2    0    0  0.73451684335E+02  0.34189476812E+02 -0.43214078805E+03  0.44924076950E+03  0.92236316231E+02 0.  0.
        -11    1    3    3    0    0  0.43387721043E+02 -0.48081022927E+02  0.19280744379E+02  0.67572377543E+02  0.00000000000E+00 0.  1.
         12    1    3    3    0    0  0.16676677270E+02  0.17052880451E+02 -0.31804106184E+02  0.39754414430E+02  0.00000000000E+00 0. -1.
        -11    1    4    4    0    0  0.31025055397E+02 -0.18837289527E+02 -0.54092537691E+02  0.65141386023E+02  0.00000000000E+00 0.  1.
         11    1    4    4    0    0  0.42426628939E+02  0.53026766338E+02 -0.37804825036E+03  0.38409938348E+03  0.00000000000E+00 0. -1.
         21    1    1    2  503  502 -0.27912705665E+02  0.25208378939E+02 -0.83805009022E+02  0.91857830605E+02  0.00000000000E+00 0. -1.
          1    1    1    2  501    0 -0.10560337698E+03 -0.28369713274E+02 -0.79631342077E+02  0.13527033859E+03  0.00000000000E+00 0. -1.
<scales pt_clust_5="13000.00000" pt_clust_6="13000.00000" pt_clust_7="13000.00000" pt_clust_8="13000.00000" pt_clust_9="37.61092" pt_clust_10="103.59302"></scales>
<clustering>
<clus scale="   37.611">  2  9  1 -1</clus>
<clus scale="   82.412">  5  6 -1 -1</clus>
<clus scale="   92.236">  7  8 -1 -1</clus>
<clus scale="  104.362">  2  5  1 -1</clus>
<clus scale="  103.593">  1 10  2 -1</clus>
<clus scale="  103.593">  1  5  2 -1</clus>
</clustering>
</event>
<event>
10    4  0.2857708E-005  0.1874973E+03  0.7546771E-02  0.1174493E+00
         21   -1    0    0  503  502  0.00000000000E+00  0.00000000000E+00  0.39870744412E+03  0.39870744412E+03  0.00000000000E+00 0. -1.
         -1   -1    0    0    0  501 -0.00000000000E+00 -0.00000000000E+00 -0.34209096623E+03  0.34209096623E+03  0.00000000000E+00 0.  1.
         24    2    1    2    0    0  0.13382644287E+03 -0.77166979565E+02 -0.57161997609E+01  0.17497386009E+03  0.81969001619E+02 0.  0.
         23    2    1    2    0    0 -0.12885354081E+03 -0.81817853434E+02  0.49158866872E+02  0.18460225693E+03  0.91454923045E+02 0.  0.
        -13    1    3    3    0    0  0.33196438932E+02 -0.32257388212E+01 -0.33254667559E+02  0.47098639717E+02  0.00000000000E+00 0.  1.
         14    1    3    3    0    0  0.10063000394E+03 -0.73941240744E+02  0.27538467798E+02  0.12787522037E+03  0.00000000000E+00 0. -1.
        -13    1    4    4    0    0 -0.13821315339E+03 -0.62554008003E+02  0.27574756174E+02  0.15419548263E+03  0.00000000000E+00 0. -1.
         13    1    4    4    0    0  0.93596125724E+01 -0.19263845431E+02  0.21584110699E+02  0.30406774294E+02  0.00000000000E+00 0.  1.
         21    1    1    2  503  501 -0.10917807521E+03  0.18339495083E+02 -0.11851197985E+03  0.16217668931E+03  0.00000000000E+00 0.  1.
         -2    1    1    2    0  502  0.10420517315E+03  0.14064533792E+03  0.13168579064E+03  0.21904560403E+03  0.00000000000E+00 0.  1.
<scales pt_clust_5="13000.00000" pt_clust_6="13000.00000" pt_clust_7="13000.00000" pt_clust_8="13000.00000" pt_clust_9="110.70767" pt_clust_10="163.68024"></scales>
<clustering>
<clus scale="   81.969">  5  6 -1 -1</clus>
<clus scale="   91.455">  7  8 -1 -1</clus>
<clus scale="  110.708">  2  9  1 -1</clus>
<clus scale="  136.702">  2  5  1 -1</clus>
<clus scale="  163.680">  1 10  2 -1</clus>
<clus scale="  163.680">  1  5  2 -1</clus>
</clustering>
</event>
<event>
10    4  0.2857708E-005  0.1660327E+03  0.7546771E-02  0.1183787E+00
          2   -1    0    0  503    0 -0.00000000000E+00  0.00000000000E+00  0.28492848978E+03  0.28492848978E+03  0.00000000000E+00 0. -1.
         21   -1    0    0  501  502  0.00000000000E+00 -0.00000000000E+00 -0.14906125290E+03  0.14906125290E+03  0.00000000000E+00 0. -1.
         24    2    1    2    0    0 -0.80696433836E+02 -0.13820648083E+03  0.51528758129E+02  0.18598818008E+03  0.79520088259E+02 0.  0.
         23    2    1    2    0    0  0.45210043561E+02  0.11016615758E+03  0.39140553967E+02  0.15523243992E+03  0.91567445767E+02 0.  0.
        -13    1    3    3    0    0 -0.14716921527E+02 -0.10033747688E+03  0.18645997534E+02  0.10311096096E+03  0.00000000000E+00 0.  1.
         14    1    3    3    0    0 -0.65979512309E+02 -0.37869003955E+02  0.32882760594E+02  0.82877219121E+02  0.00000000000E+00 0. -1.
        -11    1    4    4    0    0  0.51035684144E+02  0.68997894688E+02  0.63757681818E+02  0.10691301379E+03  0.00000000000E+00 0.  1.
         11    1    4    4    0    0 -0.58256405827E+01  0.41168262893E+02 -0.24617127851E+02  0.48319426129E+02  0.00000000000E+00 0. -1.
         21    1    1    2  503  502  0.71689119070E+01  0.22388042215E+02  0.56936276591E+02  0.61598354882E+02  0.00000000000E+00 0. -1.
          1    1    1    2  501    0  0.28317478368E+02  0.56522810358E+01 -0.11738351801E+02  0.31170767796E+02  0.00000000000E+00 0. -1.
<scales pt_clust_5="13000.00000" pt_clust_6="13000.00000" pt_clust_7="13000.00000" pt_clust_8="13000.00000" pt_clust_9="23.50782" pt_clust_10="29.38079"></scales>
<clustering>
<clus scale="   23.508">  1  9  2 -1</clus>
<clus scale="   29.381">  2 10  1 -1</clus>
<clus scale="   79.520">  5  6 -1 -1</clus>
<clus scale="   91.567">  7  8 -1 -1</clus>
<clus scale="  159.705">  1  5  2 -1</clus>
<clus scale="   29.381">  2  5  1 -1</clus>
</clustering>
</event>
<event>
10    4  0.2857708E-005  0.2786415E+03  0.7546771E-02  0.1096799E+00
          2   -1    0    0  503    0 -0.00000000000E+00  0.00000000000E+00  0.58383559894E+03  0.58383559894E+03  0.00000000000E+00 0. -1.
         21   -1    0    0  501  502  0.00000000000E+00 -0.00000000000E+00 -0.42376396771E+03  0.42376396771E+03  0.00000000000E+00 0.  1.
         24    2    1    2    0    0 -0.22273218183E+03 -0.15696292542E+03 -0.94091270052E+02  0.29939141330E+03  0.80839758034E+02 0.  0.
         23    2    1    2    0    0  0.20332880483E+03  0.16008366963E+03 -0.10843372231E+03  0.29450155492E+03  0.89464571518E+02 0.  0.
        -13    1    3    3    0    0 -0.14755394755E+03 -0.14124210797E+03 -0.87801455791E+02  0.22232992633E+03  0.00000000000E+00 0.  1.
         14    1    3    3    0    0 -0.75178234281E+02 -0.15720817444E+02 -0.62898142607E+01  0.77061486971E+02  0.00000000000E+00 0. -1.
        -11    1    4    4    0    0  0.10649563188E+03  0.38936653450E+02 -0.17542754786E+02  0.11473940403E+03  0.00000000000E+00 0. -1.
         11    1    4    4    0    0  0.96833172949E+02  0.12114701618E+03 -0.90890967527E+02  0.17976215089E+03  0.00000000000E+00 0.  1.
         21    1    1    2  503  502  0.73160274421E+02  0.33941784089E+02  0.51181226565E+02  0.95519570839E+02  0.00000000000E+00 0.  1.
          1    1    1    2  501    0 -0.53756897425E+02 -0.37062528303E+02  0.31141539703E+03  0.31818702760E+03  0.00000000000E+00 0. -1.
<scales pt_clust_5="13000.00000" pt_clust_6="13000.00000" pt_clust_7="13000.00000" pt_clust_8="13000.00000" pt_clust_9="77.25825" pt_clust_10="65.29502"></scales>
<clustering>
<clus scale="   65.295">  2 10  1 -1</clus>
<clus scale="   77.258">  1  9  2 -1</clus>
<clus scale="   80.840">  5  6 -1 -1</clus>
<clus scale="   89.465">  7  8 -1 -1</clus>
<clus scale="  275.993">  1  5  2 -1</clus>
<clus scale="   65.295">  2  5  1 -1</clus>
</clustering>
</event>
<event>
10    4  0.2857708E-005  0.1643462E+03  0.7546771E-02  0.1184270E+00
         -1   -1    0    0    0  501 -0.00000000000E+00  0.00000000000E+00  0.71477385023E+03  0.71477385023E+03  0.00000000000E+00 0.  1.
         21   -1    0    0  503  502  0.00000000000E+00 -0.00000000000E+00 -0.12708426367E+03  0.12708426367E+03  0.00000000000E+00 0. -1.
         23    2    1    2    0    0 -0.19563642106E+03 -0.12385294554E+03  0.42683998568E+03  0.49189981712E+03  0.78485000752E+02 0.  0.
         24    2    1    2    0    0  0.91387984161E+02  0.58681750196E+02  0.33755029329E+02  0.13988089177E+03  0.81436787898E+02 0.  0.
        -13    1    4    4    0    0  0.36921660770E+02  0.26602391156E+02  0.56638099728E+02  0.72655148407E+02  0.00000000000E+00 0.  1.
         14    1    4    4    0    0  0.54466323392E+02  0.32079359040E+02 -0.22883070399E+02  0.67225743366E+02  0.00000000000E+00 0. -1.
        -13    1    3    3    0    0 -0.10444184405E+03 -0.10362284481E+03  0.30250079689E+03  0.33638151684E+03  0.00000000000E+00 0. -1.
         13    1    3    3    0    0 -0.91194577012E+02 -0.20230100728E+02  0.12433918879E+03  0.15551830028E+03  0.00000000000E+00 0.  1.
         21    1    1    2  503  501  0.92106592649E+02  0.36242055409E+02  0.14376962513E+03  0.17454746088E+03  0.00000000000E+00 0.  1.
         -2    1    1    2    0  502  0.12141844247E+02  0.28929139931E+02 -0.16675053574E+02  0.35529944140E+02  0.00000000000E+00 0.  1.
<scales pt_clust_5="13000.00000" pt_clust_6="13000.00000" pt_clust_7="13000.00000" pt_clust_8="13000.00000" pt_clust_9="102.37372" pt_clust_10="31.37387"></scales>
<clustering>
<clus scale="   31.374">  2 10  1 -1</clus>
<clus scale="   78.485">  7  8 -1 -1</clus>
<clus scale="   81.437">  5  6 -1 -1</clus>
<clus scale="  102.374">  1  9  2 -1</clus>
<clus scale="  162.904">  1  7  2 -1</clus>
<clus scale="   31.374">  2  5  1 -1</clus>
</clustering>
</event>
<event>
10    4  0.2857708E-005  0.1948619E+03  0.7546771E-02  0.1192984E+00
         21   -1    0    0  501  502  0.00000000000E+00  0.00000000000E+00  0.33250924410E+03  0.33250924410E+03  0.00000000000E+00 0. -1.
          2   -1    0    0  503    0 -0.00000000000E+00 -0.00000000000E+00 -0.30206092873E+03  0.30206092873E+03  0.00000000000E+00 0. -1.
         24    2    1    2    0    0 -0.25603829423E+01 -0.38073423874E+02 -0.44561498126E+02  0.88533863744E+02  0.66305178892E+02 0.  0.
         23    2    1    2    0    0 -0.17010406329E+03  0.35331722397E+02  0.18308929145E+03  0.26878328142E+03  0.92406930321E+02 0.  0.
        -13    1    3    3    0    0  0.18288260089E+02 -0.49431466112E+02 -0.29172513793E+02  0.60240898566E+02  0.00000000000E+00 0.  1.
         14    1    3    3    0    0 -0.20848643031E+02  0.11358042239E+02 -0.15388984333E+02  0.28292965177E+02  0.00000000000E+00 0. -1.
        -11    1    4    4    0    0 -0.57053605724E+02 -0.31391158738E+02  0.68792252608E+02  0.94725354536E+02  0.00000000000E+00 0.  1.
         11    1    4    4    0    0 -0.11305045757E+03  0.66722881135E+02  0.11429703884E+03  0.17405792688E+03  0.00000000000E+00 0. -1.
         21    1    1    2  503  502  0.29055466441E+00 -0.23057023346E+02 -0.10015930004E+03  0.10277935655E+03  0.00000000000E+00 0.  1.
          1    1    1    2  501    0  0.17237389157E+03  0.25798724822E+02 -0.79201779117E+01  0.17447367113E+03  0.00000000000E+00 0. -1.
<scales pt_clust_5="13000.00000" pt_clust_6="13000.00000" pt_clust_7="13000.00000" pt_clust_8="13000.00000" pt_clust_9="23.05885" pt_clust_10="171.55802"></scales>
<clustering>
<clus scale="   23.059">  2  9  1 -1</clus>
<clus scale="   66.305">  5  6 -1 -1</clus>
<clus scale="   80.579">  2  5  1 -1</clus>
<clus scale="   92.407">  7  8 -1 -1</clus>
<clus scale="  171.558">  1 10  2 -1</clus>
<clus scale="  171.558">  1  5  2 -1</clus>
</clustering>
</event>
<event>
10    4  0.2857708E-005  0.1063159E+03  0.7546771E-02  0.1273021E+00
          2   -1    0    0  503    0 -0.00000000000E+00  0.00000000000E+00  0.13475938373E+04  0.13475938373E+04  0.00000000000E+00 0. -1.
         21   -1    0    0  501  502  0.00000000000E+00 -0.00000000000E+00 -0.19914669440E+02  0.19914669440E+02  0.00000000000E+00 0. -1.
         24    2    1    2    0    0  0.36546841706E+02 -0.36652381527E+02  0.60469232626E+03  0.61212002435E+03  0.79743627084E+02 0.  0.
         23    2    1    2    0    0 -0.77404932204E+02 -0.97222864687E+01  0.28437147589E+03  0.30897827062E+03  0.92273447056E+02 0.  0.
        -13    1    3    3    0    0  0.42391555400E+02 -0.65169535753E+01  0.14017976561E+03  0.14659427458E+03  0.00000000000E+00 0.  1.
         14    1    3    3    0    0 -0.58447136936E+01 -0.30135427952E+02  0.46451256065E+03  0.46552574977E+03  0.00000000000E+00 0. -1.
        -13    1    4    4    0    0 -0.79623261486E+01 -0.31376089551E+02  0.17268447802E+03  0.17569230655E+03  0.00000000000E+00 0.  1.
         13    1    4    4    0    0 -0.69442606056E+02  0.21653803083E+02  0.11168699787E+03  0.13328596407E+03  0.00000000000E+00 0. -1.
         21    1    1    2  503  502  0.29941119538E+02 -0.19242694862E+01  0.10733060722E+03  0.11144520043E+03  0.00000000000E+00 0. -1.
          1    1    1    2  501    0  0.10916970960E+02  0.48298937482E+02  0.33128475847E+03  0.33496501133E+03  0.00000000000E+00 0. -1.
<scales pt_clust_5="13000.00000" pt_clust_6="13000.00000" pt_clust_7="13000.00000" pt_clust_8="13000.00000" pt_clust_9="30.00289" pt_clust_10="50.09729"></scales>
<clustering>
<clus scale="   30.003">  2  9  1 -1</clus>
<clus scale="   50.097">  2 10  1 -1</clus>
<clus scale="   79.744">  5  6 -1 -1</clus>
<clus scale="   92.273">  7  8 -1 -1</clus>
<clus scale="   95.644">  1  5  2 -1</clus>
<clus scale="   30.003">  2  5  1 -1</clus>
</clustering>
</event>
<event>
10    4  0.2857708E-005  0.9993954E+02  0.7546771E-02  0.1286573E+00
          2   -1    0    0  503    0 -0.00000000000E+00  0.00000000000E+00  0.63161705070E+03  0.63161705070E+03  0.00000000000E+00 0. -1.
         21   -1    0    0  501  502  0.00000000000E+00 -0.00000000000E+00 -0.78597832668E+02  0.78597832668E+02  0.00000000000E+00 0. -1.
         24    2    1    2    0    0 -0.59578472250E+01 -0.44298220819E+02  0.43978276389E+03  0.44917277662E+03  0.79683596375E+02 0.  0.
         23    2    1    2    0    0 -0.30675452451E+02 -0.18606766154E+02  0.80187790320E+02  0.12704702600E+03  0.91780553328E+02 0.  0.
        -13    1    3    3    0    0 -0.54478424274E+01 -0.30894206289E+02  0.49140318014E+02  0.58300101405E+02  0.00000000000E+00 0.  1.
         14    1    3    3    0    0 -0.51000479766E+00 -0.13404014531E+02  0.39064244588E+03  0.39087267522E+03  0.00000000000E+00 0. -1.
        -11    1    4    4    0    0 -0.20379048687E+02  0.36864215793E+02  0.34774163835E+02  0.54621593732E+02  0.00000000000E+00 0.  1.
         11    1    4    4    0    0 -0.10296403765E+02 -0.55470981947E+02  0.45413626485E+02  0.72425432268E+02  0.00000000000E+00 0. -1.
         21    1    1    2  503  502 -0.90733724008E+01 -0.19221744178E+02  0.33888033773E+02  0.40002504534E+02  0.00000000000E+00 0. -1.
          1    1    1    2  501    0  0.45706672077E+02  0.82126731152E+02 -0.83936994746E+00  0.93992576217E+02  0.00000000000E+00 0. -1.
<scales pt_clust_5="13000.00000" pt_clust_6="13000.00000" pt_clust_7="13000.00000" pt_clust_8="13000.00000" pt_clust_9="21.25562" pt_clust_10="92.32780"></scales>
<clustering>
<clus scale="   21.256">  1  9  2 -1</clus>
<clus scale="   79.684">  5  6 -1 -1</clus>
<clus scale="   91.781">  7  8 -1 -1</clus>
<clus scale="   92.328">  2 10  1 -1</clus>
<clus scale="   88.959">  1  5  2 -1</clus>
<clus scale="   92.328">  2  5  1 -1</clus>
</clustering>
</event>
<event>
10    4  0.2857708E-005  0.1895487E+03  0.7546771E-02  0.1160185E+00
          2   -1    0    0  503    0 -0.00000000000E+00  0.00000000000E+00  0.80673765014E+03  0.80673765014E+03  0.00000000000E+00 0. -1.
         21   -1    0    0  501  502  0.00000000000E+00 -0.00000000000E+00 -0.99242052222E+02  0.99242052222E+02  0.00000000000E+00 0.  1.
         23    2    1    2    0    0  0.14767412974E+03  0.31263034270E+02  0.24525915656E+03  0.30253370742E+03  0.92679902572E+02 0.  0.
         24    2    1    2    0    0 -0.17570806351E+03 -0.18179884231E+02  0.68622870045E+02  0.20583072660E+03  0.80332794973E+02 0.  0.
        -11    1    4    4    0    0 -0.17850611840E+03 -0.21116070622E+02  0.77748233539E+02  0.19584460821E+03  0.00000000000E+00 0.  1.
         12    1    4    4    0    0  0.27980548942E+01  0.29361863909E+01 -0.91253634937E+01  0.99861183953E+01  0.00000000000E+00 0. -1.
        -11    1    3    3    0    0  0.59900030264E+02  0.55854970239E+02  0.14858155810E+03  0.16965927836E+03  0.00000000000E+00 0.  1.
         11    1    3    3    0    0  0.87774099477E+02 -0.24591935969E+02  0.96677598468E+02  0.13287442906E+03  0.00000000000E+00 0. -1.
         21    1    1    2  503  502  0.24343736420E+02  0.14556633148E+02  0.20385199794E+03  0.20581581605E+03  0.00000000000E+00 0. -1.
          1    1    1    2  501    0  0.36901973483E+01 -0.27639783187E+02  0.18976157337E+03  0.19179945229E+03  0.00000000000E+00 0. -1.
<scales pt_clust_5="13000.00000" pt_clust_6="13000.00000" pt_clust_7="13000.00000" pt_clust_8="13000.00000" pt_clust_9="28.25496" pt_clust_10="27.88505"></scales>
<clustering>
<clus scale="   27.885">  2 10  1 -1</clus>
<clus scale="   28.255">  1  9  2 -1</clus>
<clus scale="   80.333">  5  6 -1 -1</clus>
<clus scale="   92.680">  7  8 -1 -1</clus>
<clus scale="  183.827">  2  5  1 -1</clus>
<clus scale="   27.885">  2  5  1 -1</clus>
</clustering>
</event>
<event>
10    4  0.2857708E-005  0.9181018E+02  0.7546771E-02  0.1305530E+00
         21   -1    0    0  501  502  0.00000000000E+00  0.00000000000E+00  0.69529578091E+02  0.69529578091E+02  0.00000000000E+00 0.  1.
          2   -1    0    0  503    0 -0.00000000000E+00 -0.00000000000E+00 -0.40535852256E+03  0.40535852256E+03  0.00000000000E+00 0. -1.
         23    2    1    2    0    0 -0.81993881451E+01 -0.27687509042E+01 -0.27124254830E+03  0.28648338041E+03  0.91789494479E+02 0.  0.
         24    2    1    2    0    0 -0.36266809676E+02 -0.29862649415E+01 -0.14025067144E+02  0.89627653110E+02  0.80698292617E+02 0.  0.
        -11    1    4    4    0    0  0.17155123747E+02  0.23050801371E+02 -0.83798687675E+01  0.29930919050E+02  0.00000000000E+00 0.  1.
         12    1    4    4    0    0 -0.53421933423E+02 -0.26037066312E+02 -0.56451983760E+01  0.59696734060E+02  0.00000000000E+00 0. -1.
        -13    1    3    3    0    0  0.40811175876E+02 -0.62804287777E+01 -0.96481048965E+02  0.10494564627E+03  0.00000000000E+00 0.  1.
         13    1    3    3    0    0 -0.49010564021E+02  0.35116778736E+01 -0.17476149934E+03  0.18153773414E+03  0.00000000000E+00 0. -1.
         21    1    1    2  503  502  0.54543900452E+02 -0.18490552574E+02 -0.27459063483E+02  0.63803900965E+02  0.00000000000E+00 0. -1.
          1    1    1    2  501    0 -0.10077702631E+02  0.24245568420E+02 -0.23102265543E+02  0.34973166164E+02  0.00000000000E+00 0. -1.
<scales pt_clust_5="13000.00000" pt_clust_6="13000.00000" pt_clust_7="13000.00000" pt_clust_8="13000.00000" pt_clust_9="52.94212" pt_clust_10="26.25657"></scales>
<clustering>
<clus scale="   26.257">  1 10  2 -1</clus>
<clus scale="   52.942">  1  9  2 -1</clus>
<clus scale="   80.698">  5  6 -1 -1</clus>
<clus scale="   80.722">  1  5  2 -1</clus>
<clus scale="   91.789">  7  8 -1 -1</clus>
<clus scale="   26.257">  1  5  2 -1</clus>
</clustering>
</event>
<event>
10    4  0.2857708E-005  0.9804234E+02  0.7546771E-02  0.1290717E+00
         21   -1    0    0  501  502  0.00000000000E+00  0.00000000000E+00  0.22226604059E+03  0.22226604059E+03  0.00000000000E+00 0. -1.
          2   -1    0    0  503    0 -0.00000000000E+00 -0.00000000000E+00 -0.23140313566E+03  0.23140313566E+03  0.00000000000E+00 0. -1.
         24    2    1    2    0    0 -0.49374866968E+02  0.10952478278E+02 -0.59469586667E+02  0.11085853933E+03  0.78709273499E+02 0.  0.
         23    2    1    2    0    0  0.13513766468E+02  0.58413685205E+02  0.16574014381E+03  0.19817395231E+03  0.90599887426E+02 0.  0.
        -11    1    3    3    0    0  0.73527565649E+01 -0.25069848567E+02 -0.13200220211E+02  0.29271251253E+02  0.00000000000E+00 0.  1.
         12    1    3    3    0    0 -0.56727623533E+02  0.36022326845E+02 -0.46269366457E+02  0.81587288074E+02  0.00000000000E+00 0. -1.
        -11    1    4    4    0    0 -0.33464442504E+02  0.21069518294E+02  0.10751785897E+03  0.11455951951E+03  0.00000000000E+00 0. -1.
         11    1    4    4    0    0  0.46978208972E+02  0.37344166911E+02  0.58222284837E+02  0.83614432798E+02  0.00000000000E+00 0.  1.
         21    1    1    2  503  502  0.20669675725E+02 -0.53208504932E+01 -0.29495915337E+02  0.36408185427E+02  0.00000000000E+00 0. -1.
          1    1    1    2  501    0  0.15191424774E+02 -0.64045312990E+02 -0.85911736872E+02  0.10822849918E+03  0.00000000000E+00 0. -1.
<scales pt_clust_5="13000.00000" pt_clust_6="13000.00000" pt_clust_7="13000.00000" pt_clust_8="13000.00000" pt_clust_9="21.34355" pt_clust_10="71.28908"></scales>
<clustering>
<clus scale="   21.344">  2  9  1 -1</clus>
<clus scale="   71.289">  1 10  2 -1</clus>
<clus scale="   78.709">  5  6 -1 -1</clus>
<clus scale="   87.173">  2  5  1 -1</clus>
<clus scale="   90.600">  7  8 -1 -1</clus>
<clus scale="   71.289">  1  5  2 -1</clus>
</clustering>
</event>
<event>
10    4  0.2857708E-005  0.1054025E+03  0.7546771E-02  0.1276839E+00
         21   -1    0    0  503  502  0.00000000000E+00  0.00000000000E+00  0.18308186241E+03  0.18308186241E+03  0.00000000000E+00 0. -1.
         -1   -1    0    0    0  501 -0.00000000000E+00 -0.00000000000E+00 -0.98841486174E+02  0.98841486174E+02  0.00000000000E+00 0.  1.
         24    2    1    2    0    0 -0.62581239499E+01 -0.65096326230E+02 -0.13362107066E+02  0.99075726805E+02  0.73217196973E+02 0.  0.
         23    2    1    2    0    0  0.18516751701E+02  0.31869812845E+02  0.48303842551E+02  0.10881761002E+03  0.90274337328E+02 0.  0.
        -13    1    3    3    0    0 -0.18594880228E+02 -0.29967041648E+02 -0.39976090057E+02  0.53309294987E+02  0.00000000000E+00 0.  1.
         14    1    3    3    0    0  0.12336756278E+02 -0.35129284582E+02  0.26613982990E+02  0.45766431817E+02  0.00000000000E+00 0. -1.
        -13    1    4    4    0    0 -0.11108955518E+02 -0.23967721585E+02 -0.40703902645E+01  0.26728798095E+02  0.00000000000E+00 0.  1.
         13    1    4    4    0    0  0.29625707219E+02  0.55837534431E+02  0.52374232815E+02  0.82088811921E+02  0.00000000000E+00 0. -1.
         21    1    1    2  503  501  0.14818693106E+02  0.20497697751E+02  0.23426033808E+02  0.34475039354E+02  0.00000000000E+00 0. -1.
         -2    1    1    2    0  502 -0.27077320857E+02  0.12728815633E+02  0.25872606938E+02  0.39554972405E+02  0.00000000000E+00 0.  1.
<scales pt_clust_5="13000.00000" pt_clust_6="13000.00000" pt_clust_7="13000.00000" pt_clust_8="13000.00000" pt_clust_9="25.29327" pt_clust_10="29.40155"></scales>
<clustering>
<clus scale="   25.293">  1  9  2 -1</clus>
<clus scale="   29.402">  1 10  2 -1</clus>
<clus scale="   73.217">  5  6 -1 -1</clus>
<clus scale="   90.274">  7  8 -1 -1</clus>
<clus scale="   91.219">  2  5  1 -1</clus>
<clus scale="   25.293">  1  5  2 -1</clus>
</clustering>
</event>
<event>
10    4  0.2857708E-005  0.2159500E+03  0.7546771E-02  0.1137771E+00
         21   -1    0    0  501  502  0.00000000000E+00  0.00000000000E+00  0.11517326108E+03  0.11517326108E+03  0.00000000000E+00 0. -1.
          2   -1    0    0  503    0 -0.00000000000E+00 -0.00000000000E+00 -0.56178750916E+03  0.56178750916E+03  0.00000000000E+00 0. -1.
         23    2    1    2    0    0 -0.18200146645E+03  0.52632234470E+02 -0.14922664311E+03  0.25785920709E+03  0.91258390162E+02 0.  0.
         24    2    1    2    0    0  0.20415226783E+03 -0.12272780756E+02 -0.16864081972E+03  0.27704403543E+03  0.80528888514E+02 0.  0.
        -11    1    4    4    0    0  0.48998771158E+02  0.13855622943E+02 -0.68757097764E+01  0.51382226957E+02  0.00000000000E+00 0.  1.
         12    1    4    4    0    0  0.15515349667E+03 -0.26128403698E+02 -0.16176510994E+03  0.22566180847E+03  0.00000000000E+00 0. -1.
        -11    1    3    3    0    0 -0.12418940229E+03 -0.82814399417E+01 -0.10558067423E+03  0.16321418033E+03  0.00000000000E+00 0. -1.
         11    1    3    3    0    0 -0.57812064158E+02  0.60913674411E+02 -0.43645968880E+02  0.94645026768E+02  0.00000000000E+00 0.  1.
         21    1    1    2  503  502  0.12530724632E+01 -0.28289135643E+02 -0.36915626753E+02  0.46525357436E+02  0.00000000000E+00 0. -1.
          1    1    1    2  501    0 -0.23403873846E+02 -0.12070318071E+02 -0.91831158493E+02  0.95532170286E+02  0.00000000000E+00 0. -1.
<scales pt_clust_5="13000.00000" pt_clust_6="13000.00000" pt_clust_7="13000.00000" pt_clust_8="13000.00000" pt_clust_9="28.80210" pt_clust_10="26.33315"></scales>
<clustering>
<clus scale="   26.333">  1 10  2 -1</clus>
<clus scale="   28.802">  2  9  1 -1</clus>
<clus scale="   80.529">  5  6 -1 -1</clus>
<clus scale="   91.258">  7  8 -1 -1</clus>
<clus scale="  211.639">  1  5  2 -1</clus>
<clus scale="   26.333">  1  5  2 -1</clus>
</clustering>
</event>
<event>
10    4  0.2857708E-005  0.1161045E+03  0.7546771E-02  0.1254837E+00
         21   -1    0    0  501  502  0.00000000000E+00  0.00000000000E+00  0.22808813247E+03  0.22808813247E+03  0.00000000000E+00 0. -1.
          2   -1    0    0  503    0 -0.00000000000E+00 -0.00000000000E+00 -0.53309198035E+03  0.53309198035E+03  0.00000000000E+00 0. -1.
         24    2    1    2    0    0 -0.15234363020E+02  0.70381575286E+02 -0.18173645519E+03  0.21023475665E+03  0.77361888566E+02 0.  0.
         23    2    1    2    0    0  0.19966992237E+02 -0.37965693893E+02  0.15186908601E+03  0.18275016413E+03  0.92159256247E+02 0.  0.
        -13    1    3    3    0    0 -0.37495009859E+02  0.43325273023E+02 -0.15759085952E+03  0.16768373222E+03  0.00000000000E+00 0.  1.
         14    1    3    3    0    0  0.22260646839E+02  0.27056302264E+02 -0.24145595670E+02  0.42551024431E+02  0.00000000000E+00 0. -1.
        -13    1    4    4    0    0  0.41434001321E+02  0.15286157998E+02  0.69488541275E+02  0.82335292921E+02  0.00000000000E+00 0. -1.
         13    1    4    4    0    0 -0.21467009085E+02 -0.53251851892E+02  0.82380544731E+02  0.10041487121E+03  0.00000000000E+00 0.  1.
         21    1    1    2  503  502  0.63301595218E+02 -0.36538831122E+01 -0.28652611875E+03  0.29345810526E+03  0.00000000000E+00 0. -1.
          1    1    1    2  501    0 -0.68034224435E+02 -0.28761998281E+02  0.11389640055E+02  0.74737086779E+02  0.00000000000E+00 0. -1.
<scales pt_clust_5="13000.00000" pt_clust_6="13000.00000" pt_clust_7="13000.00000" pt_clust_8="13000.00000" pt_clust_9="63.40696" pt_clust_10="66.55300"></scales>
<clustering>
<clus scale="   63.407">  2  9  1 -1</clus>
<clus scale="   66.553">  1 10  2 -1</clus>
<clus scale="   77.362">  5  6 -1 -1</clus>
<clus scale="   92.159">  7  8 -1 -1</clus>
<clus scale="  104.746">  2  5  1 -1</clus>
<clus scale="   66.553">  1  5  2 -1</clus>
</clustering>
</event>
<event>
10    4  0.2857708E-005  0.1723099E+03  0.7546771E-02  0.1177422E+00
         21   -1    0    0  501  502  0.00000000000E+00  0.00000000000E+00  0.69616808599E+02  0.69616808599E+02  0.00000000000E+00 0.  1.
          2   -1    0    0  503    0 -0.00000000000E+00 -0.00000000000E+00 -0.11253929078E+04  0.11253929078E+04  0.00000000000E+00 0. -1.
         24    2    1    2    0    0 -0.13586073716E+03 -0.13403309067E+02 -0.30119601412E+03  0.34019492807E+03  0.79848366094E+02 0.  0.
         23    2    1    2    0    0  0.14080290244E+03  0.93521264270E+02 -0.24608810020E+03  0.31309369895E+03  0.94321933075E+02 0.  0.
        -13    1    3    3    0    0 -0.61667691728E+02 -0.42655875605E+02 -0.11097785225E+03  0.13393472894E+03  0.00000000000E+00 0.  1.
         14    1    3    3    0    0 -0.74193045427E+02  0.29252566538E+02 -0.19021816187E+03  0.20626019912E+03  0.00000000000E+00 0. -1.
        -11    1    4    4    0    0  0.11446448361E+02 -0.18197374381E+02 -0.39445349530E+02  0.44923281425E+02  0.00000000000E+00 0. -1.
         11    1    4    4    0    0  0.12935645408E+03  0.11171863865E+03 -0.20664275067E+03  0.26817041753E+03  0.00000000000E+00 0.  1.
         21    1    1    2  503  502 -0.43953553173E+02  0.31210176027E+02 -0.74341505440E+02  0.91829457993E+02  0.00000000000E+00 0. -1.
          1    1    1    2  501    0  0.39011387890E+02 -0.11132813123E+03 -0.43415047942E+03  0.44989163136E+03  0.00000000000E+00 0. -1.
<scales pt_clust_5="13000.00000" pt_clust_6="13000.00000" pt_clust_7="13000.00000" pt_clust_8="13000.00000" pt_clust_9="53.90723" pt_clust_10="112.35008"></scales>
<clustering>
<clus scale="   53.907">  1  9  2 -1</clus>
<clus scale="   79.848">  5  6 -1 -1</clus>
<clus scale="   94.322">  7  8 -1 -1</clus>
<clus scale="  112.350">  1 10  2 -1</clus>
<clus scale="  164.833">  2  5  1 -1</clus>
<clus scale="   53.907">  1  5  2 -1</clus>
</clustering>
</event>
<event>
10    4  0.2857708E-005  0.2706365E+03  0.7546771E-02  0.1101155E+00
         21   -1    0    0  501  502  0.00000000000E+00  0.00000000000E+00  0.17596550432E+03  0.17596550432E+03  0.00000000000E+00 0.  1.
          2   -1    0    0  503    0 -0.00000000000E+00 -0.00000000000E+00 -0.18389436111E+04  0.18389436111E+04  0.00000000000E+00 0. -1.
         24    2    1    2    0    0 -0.19752922781E+03  0.18425941647E+03 -0.12072984941E+04  0.12407923456E+04  0.95008751160E+02 0.  0.
         23    2    1    2    0    0  0.24622721319E+03 -0.14562375837E+02  0.88340267589E+01  0.26275763621E+03  0.90131193540E+02 0.  0.
        -13    1    3    3    0    0  0.43382849920E+01  0.22718993289E+02 -0.51916534971E+02  0.56835727989E+02  0.00000000000E+00 0.  1.
         14    1    3    3    0    0 -0.20186751280E+03  0.16154042318E+03 -0.11553819591E+04  0.11839566176E+04  0.00000000000E+00 0. -1.
        -13    1    4    4    0    0  0.93477403741E+02 -0.48366786743E+02 -0.71846779953E+01  0.10549403143E+03  0.00000000000E+00 0.  1.
         13    1    4    4    0    0  0.15274980945E+03  0.33804410906E+02  0.16018704754E+02  0.15726360477E+03  0.00000000000E+00 0. -1.
         21    1    1    2  503  502 -0.24367160043E+02 -0.55640278051E+02 -0.31972265698E+03  0.32544150998E+03  0.00000000000E+00 0. -1.
          1    1    1    2  501    0 -0.24330825340E+02 -0.11405676258E+03 -0.14479098249E+03  0.18591762359E+03  0.00000000000E+00 0. -1.
<scales pt_clust_5="13000.00000" pt_clust_6="13000.00000" pt_clust_7="13000.00000" pt_clust_8="13000.00000" pt_clust_9="60.74207" pt_clust_10="123.11849"></scales>
<clustering>
<clus scale="   60.742">  2  9  1 -1</clus>
<clus scale="   90.131">  7  8 -1 -1</clus>
<clus scale="   95.009">  5  6 -1 -1</clus>
<clus scale="  123.118">  1 10  2 -1</clus>
<clus scale="  268.963">  1  7  2 -1</clus>
<clus scale="  123.118">  1  5  2 -1</clus>
</clustering>
</event>
<event>
10    4  0.2857708E-005  0.2495157E+03  0.7546771E-02  0.1125905E+00
         21   -1    0    0  501  502  0.00000000000E+00  0.00000000000E+00  0.10515204314E+04  0.10515204314E+04  0.00000000000E+00 0. -1.
          2   -1    0    0  503    0 -0.00000000000E+00 -0.00000000000E+00 -0.16991772312E+03  0.16991772312E+03  0.00000000000E+00 0. -1.
         23    2    1    2    0    0  0.30403392539E+02  0.15586450238E+03  0.53074528866E+03  0.56142024226E+03  0.91016578756E+02 0.  0.
         24    2    1    2    0    0  0.21591606329E+03 -0.62262388325E+02  0.21944332999E+03  0.32490708332E+03  0.83143769039E+02 0.  0.
        -13    1    4    4    0    0  0.17017954657E+03 -0.10589875942E+02  0.15221686838E+03  0.22856771111E+03  0.00000000000E+00 0.  1.
         14    1    4    4    0    0  0.45736516720E+02 -0.51672512384E+02  0.67226461606E+02  0.96339372210E+02  0.00000000000E+00 0. -1.
        -11    1    3    3    0    0 -0.16581462752E+02  0.12314274314E+03  0.32804365286E+03  0.35078728352E+03  0.00000000000E+00 0. -1.
         11    1    3    3    0    0  0.46984855291E+02  0.32721759239E+02  0.20270163580E+03  0.21063295875E+03  0.00000000000E+00 0.  1.
         21    1    1    2  503  502  0.22753653889E+02  0.45651481079E+00  0.50212628754E+01  0.23305584136E+02  0.00000000000E+00 0.  1.
          1    1    1    2  501    0 -0.26907310972E+03 -0.94058628864E+02  0.12639282678E+03  0.31180524482E+03  0.00000000000E+00 0. -1.
<scales pt_clust_5="13000.00000" pt_clust_6="13000.00000" pt_clust_7="13000.00000" pt_clust_8="13000.00000" pt_clust_9="22.75823" pt_clust_10="235.25577"></scales>
<clustering>
<clus scale="   22.758">  2  9  1 -1</clus>
<clus scale="   83.144">  5  6 -1 -1</clus>
<clus scale="   91.017">  7  8 -1 -1</clus>
<clus scale="  183.446">  2  7  1 -1</clus>
<clus scale="  235.256">  1 10  2 -1</clus>
<clus scale="  235.256">  1  5  2 -1</clus>
</clustering>
</event>
<event>
10    4  0.2857708E-005  0.1064741E+03  0.7546771E-02  0.1277730E+00
          4   -1    0    0  503    0 -0.00000000000E+00  0.00000000000E+00  0.27057482863E+03  0.27057482863E+03  0.00000000000E+00 0. -1.
         21   -1    0    0  501  502  0.00000000000E+00 -0.00000000000E+00 -0.12505966467E+03  0.12505966467E+03  0.00000000000E+00 0.  1.
         24    2    1    2    0    0 -0.25711222947E+02 -0.34778904504E+02  0.94986594982E+02  0.13246435158E+03  0.81570288881E+02 0.  0.
         23    2    1    2    0    0 -0.30251946443E+02 -0.44425423447E+01 -0.62214828311E+02  0.12339932668E+03  0.10208718096E+03 0.  0.
        -11    1    3    3    0    0 -0.51907131196E+02 -0.42639444898E+01  0.51957932563E+02  0.73567372169E+02  0.00000000000E+00 0.  1.
         12    1    3    3    0    0  0.26195908249E+02 -0.30514960014E+02  0.43028662419E+02  0.58896979407E+02  0.00000000000E+00 0. -1.
        -11    1    4    4    0    0 -0.49900497362E+02  0.16308789181E+02  0.26017410992E+01  0.52562394335E+02  0.00000000000E+00 0. -1.
         11    1    4    4    0    0  0.19648550919E+02 -0.20751331526E+02 -0.64816569410E+02  0.70836932340E+02  0.00000000000E+00 0.  1.
         21    1    1    2  503  502  0.27415693528E+02 -0.54334021873E+01  0.52918000476E+02  0.59845274545E+02  0.00000000000E+00 0. -1.
          3    1    1    2  501    0  0.28547475862E+02  0.44654849036E+02  0.59825396810E+02  0.79925540498E+02  0.00000000000E+00 0. -1.
<scales pt_clust_5="13000.00000" pt_clust_6="13000.00000" pt_clust_7="13000.00000" pt_clust_8="13000.00000" pt_clust_9="27.94892" pt_clust_10="56.96040"></scales>
<clustering>
<clus scale="   27.949">  1  9  2 -1</clus>
<clus scale="   56.960">  2 10  1 -1</clus>
<clus scale="   81.570">  5  6 -1 -1</clus>
<clus scale="   86.998">  1  5  2 -1</clus>
<clus scale="  102.087">  7  8 -1 -1</clus>
<clus scale="   56.960">  2  5  1 -1</clus>
</clustering>
</event>
<event>
10    4  0.2857708E-005  0.1323894E+03  0.7546771E-02  0.1241427E+00
         21   -1    0    0  501  502  0.00000000000E+00  0.00000000000E+00  0.89925635400E+02  0.89925635400E+02  0.00000000000E+00 0.  1.
          2   -1    0    0  503    0 -0.00000000000E+00 -0.00000000000E+00 -0.10363303488E+04  0.10363303488E+04  0.00000000000E+00 0. -1.
         24    2    1    2    0    0 -0.39367219438E+02  0.37753236291E+02 -0.36992774274E+01  0.96816074984E+02  0.79903585058E+02 0.  0.
         23    2    1    2    0    0 -0.83037390756E+02  0.86747266956E+02 -0.36909376074E+03  0.39856897064E+03  0.90590968368E+02 0.  0.
        -13    1    3    3    0    0 -0.31847817515E+02  0.61547929257E+02  0.70249852673E+01  0.69654730596E+02  0.00000000000E+00 0.  1.
         14    1    3    3    0    0 -0.75194019229E+01 -0.23794692966E+02 -0.10724262695E+02  0.27161344388E+02  0.00000000000E+00 0. -1.
        -13    1    4    4    0    0  0.62061696214E+01  0.30439457907E+02 -0.29062853504E+02  0.42540881430E+02  0.00000000000E+00 0.  1.
         13    1    4    4    0    0 -0.89243560377E+02  0.56307809049E+02 -0.34003090724E+03  0.35602808921E+03  0.00000000000E+00 0. -1.
         21    1    1    2  503  502  0.51380705526E+02 -0.66662404821E+02 -0.51565778379E+03  0.52248139020E+03  0.00000000000E+00 0.  1.
          1    1    1    2  501    0  0.71023904668E+02 -0.57838098426E+02 -0.57953891428E+02  0.10838954837E+03  0.00000000000E+00 0. -1.
<scales pt_clust_5="13000.00000" pt_clust_6="13000.00000" pt_clust_7="13000.00000" pt_clust_8="13000.00000" pt_clust_9="84.16563" pt_clust_10="96.54129"></scales>
<clustering>
<clus scale="   79.904">  5  6 -1 -1</clus>
<clus scale="   84.166">  2  9  1 -1</clus>
<clus scale="   90.591">  7  8 -1 -1</clus>
<clus scale="   92.436">  2  5  1 -1</clus>
<clus scale="   96.541">  1 10  2 -1</clus>
<clus scale="   96.541">  1  5  2 -1</clus>
</clustering>
</event>
<event>
10    4  0.2857708E-005  0.2577897E+03  0.7546771E-02  0.1128998E+00
         21   -1    0    0  503  502  0.00000000000E+00  0.00000000000E+00  0.56444339392E+03  0.56444339392E+03  0.00000000000E+00 0. -1.
          2   -1    0    0  502    0 -0.00000000000E+00 -0.00000000000E+00 -0.24467610439E+03  0.24467610439E+03  0.00000000000E+00 0. -1.
         23    2    1    2    0    0  0.10285127812E+03  0.53651232869E+02  0.18399455579E+03  0.23541214455E+03  0.90044661373E+02 0.  0.
         24    2    1    2    0    0  0.18375476335E+03  0.36272592533E+02  0.24874791350E+02  0.20517007733E+03  0.79965563609E+02 0.  0.
        -11    1    4    4    0    0  0.84304681761E+02  0.45495123910E+02  0.40632094021E+02  0.10405792969E+03  0.00000000000E+00 0.  1.
         12    1    4    4    0    0  0.99450081586E+02 -0.92225313769E+01 -0.15757302671E+02  0.10111214764E+03  0.00000000000E+00 0. -1.
        -13    1    3    3    0    0  0.59095534898E+01  0.48775101559E+02  0.72589529982E+02  0.87653711944E+02  0.00000000000E+00 0.  1.
         13    1    3    3    0    0  0.96941724629E+02  0.48761313098E+01  0.11140502581E+03  0.14775843261E+03  0.00000000000E+00 0. -1.
         21    1    1    2  503  501  0.10723057301E+02  0.28376949369E+02  0.18223675557E+02  0.35388381768E+02  0.00000000000E+00 0.  1.
          1    1    1    2  501    0 -0.29732909877E+03 -0.11830077477E+03  0.92674266820E+02  0.33314889466E+03  0.00000000000E+00 0. -1.
<scales pt_clust_5="13000.00000" pt_clust_6="13000.00000" pt_clust_7="13000.00000" pt_clust_8="13000.00000" pt_clust_9="30.33538" pt_clust_10="245.07366"></scales>
<clustering>
<clus scale="   30.335">  1  9  2 -1</clus>
<clus scale="   79.966">  5  6 -1 -1</clus>
<clus scale="   90.045">  7  8 -1 -1</clus>
<clus scale="  154.120">  2  7  1 -1</clus>
<clus scale="  245.074">  1 10  2 -1</clus>
<clus scale="   30.335">  1  5  2 -1</clus>
</clustering>
</event>
<event>
10    4  0.2857708E-005  0.2960246E+03  0.7546771E-02  0.1087245E+00
          2   -1    0    0  503    0 -0.00000000000E+00  0.00000000000E+00  0.15933574174E+04  0.15933574174E+04  0.00000000000E+00 0. -1.
         21   -1    0    0  501  502  0.00000000000E+00 -0.00000000000E+00 -0.84727249499E+02  0.84727249499E+02  0.00000000000E+00 0. -1.
         24    2    1    2    0    0  0.35956502918E+01 -0.21573404733E+02  0.19699839768E+03  0.21365367705E+03  0.79757034388E+02 0.  0.
         23    2    1    2    0    0 -0.11861707009E+02 -0.24356391301E+03  0.46334883077E+03  0.52953654875E+03  0.79074254175E+02 0.  0.
        -11    1    3    3    0    0 -0.26104736540E+02 -0.29658339502E+02  0.51366117514E+02  0.64803953586E+02  0.00000000000E+00 0.  1.
         12    1    3    3    0    0  0.29700386832E+02  0.80849347695E+01  0.14563228017E+03  0.14884972346E+03  0.00000000000E+00 0. -1.
        -13    1    4    4    0    0  0.31540738795E+02 -0.75880562247E+02  0.17121333055E+03  0.18991230210E+03  0.00000000000E+00 0.  1.
         13    1    4    4    0    0 -0.43402445804E+02 -0.16768335077E+03  0.29213550022E+03  0.33962424665E+03  0.00000000000E+00 0. -1.
         21    1    1    2  503  502 -0.44204753938E+02  0.18467366925E+03  0.80921022883E+03  0.83119168597E+03  0.00000000000E+00 0.  1.
          1    1    1    2  501    0  0.52470810655E+02  0.80463648500E+02  0.39072710582E+02  0.10370275509E+03  0.00000000000E+00 0. -1.
<scales pt_clust_5="13000.00000" pt_clust_6="13000.00000" pt_clust_7="13000.00000" pt_clust_8="13000.00000" pt_clust_9="204.26315" pt_clust_10="96.06032"></scales>
<clustering>
<clus scale="   79.074">  7  8 -1 -1</clus>
<clus scale="   79.757">  5  6 -1 -1</clus>
<clus scale="   81.043">  5  7 -1 -1</clus>
<clus scale="   96.060">  2 10  1 -1</clus>
<clus scale="  204.263">  1  9  2 -1</clus>
<clus scale="   96.060">  2  5  1 -1</clus>
</clustering>
</event>
<event>
10    4  0.2857708E-005  0.1465431E+03  0.7546771E-02  0.1207010E+00
         21   -1    0    0  501  502  0.00000000000E+00  0.00000000000E+00  0.20038148894E+03  0.20038148894E+03  0.00000000000E+00 0. -1.
          2   -1    0    0  503    0 -0.00000000000E+00 -0.00000000000E+00 -0.32309613686E+03  0.32309613686E+03  0.00000000000E+00 0. -1.
         24    2    1    2    0    0 -0.90675985013E+02 -0.11484665984E+02 -0.16421942028E+03  0.20429726071E+03  0.80095698555E+02 0.  0.
         23    2    1    2    0    0  0.16603334578E+03  0.38610272940E+02  0.89953382986E+02  0.21336234442E+03  0.91509856400E+02 0.  0.
        -13    1    3    3    0    0 -0.76902770557E+02 -0.41894131592E+02 -0.12741345086E+03  0.15460705625E+03  0.00000000000E+00 0.  1.
         14    1    3    3    0    0 -0.13773214456E+02  0.30409465608E+02 -0.36805969420E+02  0.49690204467E+02  0.00000000000E+00 0. -1.
        -11    1    4    4    0    0  0.52371575135E+02  0.25127005913E+02 -0.12875063023E+02  0.59497189481E+02  0.00000000000E+00 0.  1.
         11    1    4    4    0    0  0.11366177065E+03  0.13483267027E+02  0.10282844601E+03  0.15386515494E+03  0.00000000000E+00 0. -1.
         21    1    1    2  503  502 -0.21658039328E+02  0.62751355298E+00 -0.39030945845E+02  0.44641675309E+02  0.00000000000E+00 0.  1.
          1    1    1    2  501    0 -0.53699321439E+02 -0.27753120509E+02 -0.94176647820E+01  0.61176345355E+02  0.00000000000E+00 0. -1.
<scales pt_clust_5="13000.00000" pt_clust_6="13000.00000" pt_clust_7="13000.00000" pt_clust_8="13000.00000" pt_clust_9="21.66713" pt_clust_10="62.83936"></scales>
<clustering>
<clus scale="   21.667">  2  9  1 -1</clus>
<clus scale="   62.839">  1 10  2 -1</clus>
<clus scale="   80.096">  5  6 -1 -1</clus>
<clus scale="   91.510">  7  8 -1 -1</clus>
<clus scale="  139.700">  2  5  1 -1</clus>
<clus scale="   62.839">  1  5  2 -1</clus>
</clustering>
</event>
<event>
10    4  0.2857708E-005  0.1094368E+03  0.7546771E-02  0.1271415E+00
         21   -1    0    0  501  502  0.00000000000E+00  0.00000000000E+00  0.51897951136E+03  0.51897951136E+03  0.00000000000E+00 0. -1.
          2   -1    0    0  503    0 -0.00000000000E+00 -0.00000000000E+00 -0.62882478091E+02  0.62882478091E+02  0.00000000000E+00 0. -1.
         23    2    1    2    0    0  0.19905591543E+02 -0.49932409473E+02  0.80263552811E+02  0.13967187799E+03  0.10087872670E+03 0.  0.
         24    2    1    2    0    0  0.29022053446E+02  0.61584581930E+02  0.33758751111E+03  0.35352705580E+03  0.79881857807E+02 0.  0.
        -11    1    4    4    0    0  0.45650843984E+02  0.24693591460E+02  0.10153534457E+03  0.11403157113E+03  0.00000000000E+00 0.  1.
         12    1    4    4    0    0 -0.16628790538E+02  0.36890990470E+02  0.23605216653E+03  0.23949548467E+03  0.00000000000E+00 0. -1.
        -13    1    3    3    0    0  0.48809619354E+02  0.76091748760E+01  0.28331368879E+02  0.56946860724E+02  0.00000000000E+00 0. -1.
         13    1    3    3    0    0 -0.28904027811E+02 -0.57541584349E+02  0.51932183932E+02  0.82725017263E+02  0.00000000000E+00 0.  1.
         21    1    1    2  503  502 -0.23330412530E+02  0.25173495729E+02  0.10357369305E+02  0.35850915399E+02  0.00000000000E+00 0. -1.
          1    1    1    2  501    0 -0.25597232459E+02 -0.36825668186E+02  0.27888600040E+02  0.52812140262E+02  0.00000000000E+00 0. -1.
<scales pt_clust_5="13000.00000" pt_clust_6="13000.00000" pt_clust_7="13000.00000" pt_clust_8="13000.00000" pt_clust_9="34.32219" pt_clust_10="43.81965"></scales>
<clustering>
<clus scale="   34.322">  2  9  1 -1</clus>
<clus scale="   43.820">  1 10  2 -1</clus>
<clus scale="   79.882">  5  6 -1 -1</clus>
<clus scale="   90.449">  1  5  2 -1</clus>
<clus scale="  100.879">  7  8 -1 -1</clus>
<clus scale="   43.820">  1  5  2 -1</clus>
</clustering>
</event>
<event>
10    4  0.2857708E-005  0.1293837E+03  0.7546771E-02  0.1232191E+00
         21   -1    0    0  501  502  0.00000000000E+00  0.00000000000E+00  0.25491974167E+03  0.25491974167E+03  0.00000000000E+00 0.  1.
          2   -1    0    0  503    0 -0.00000000000E+00 -0.00000000000E+00 -0.16222486306E+03  0.16222486306E+03  0.00000000000E+00 0. -1.
         24    2    1    2    0    0  0.83685680783E+01  0.10975782218E+03 -0.10586618480E+02  0.13735674332E+03  0.81473836194E+02 0.  0.
         23    2    1    2    0    0 -0.15702902920E+02 -0.56911937467E+02  0.59327429441E+02  0.12682296047E+03  0.95282577793E+02 0.  0.
        -13    1    3    3    0    0 -0.29874083778E+02  0.38524887155E+02 -0.25695066805E+02  0.55107751451E+02  0.00000000000E+00 0.  1.
         14    1    3    3    0    0  0.38242651856E+02  0.71232935026E+02  0.15108448325E+02  0.82248991873E+02  0.00000000000E+00 0. -1.
        -11    1    4    4    0    0 -0.36623178711E+02 -0.34078444972E+02 -0.98895241376E+01  0.50994120428E+02  0.00000000000E+00 0. -1.
         11    1    4    4    0    0  0.20920275791E+02 -0.22833492495E+02  0.69216953578E+02  0.75828840037E+02  0.00000000000E+00 0.  1.
         21    1    1    2  503  502  0.18101856315E+02 -0.11542436445E+02 -0.47452695082E+02  0.52083234458E+02  0.00000000000E+00 0. -1.
          1    1    1    2  501    0 -0.10767521473E+02 -0.41303448269E+02  0.91406762731E+02  0.10088166647E+03  0.00000000000E+00 0. -1.
<scales pt_clust_5="13000.00000" pt_clust_6="13000.00000" pt_clust_7="13000.00000" pt_clust_8="13000.00000" pt_clust_9="21.46870" pt_clust_10="42.97066"></scales>
<clustering>
<clus scale="   21.469">  2  9  1 -1</clus>
<clus scale="   42.971">  1 10  2 -1</clus>
<clus scale="   81.474">  5  6 -1 -1</clus>
<clus scale="   95.283">  7  8 -1 -1</clus>
<clus scale="  119.580">  2  5  1 -1</clus>
<clus scale="   42.971">  1  5  2 -1</clus>
</clustering>
</event>
<event>
10    4  0.2857708E-005  0.1354822E+03  0.7546771E-02  0.1231016E+00
         21   -1    0    0  501  502  0.00000000000E+00  0.00000000000E+00  0.77502425249E+02  0.77502425249E+02  0.00000000000E+00 0. -1.
          2   -1    0    0  503    0 -0.00000000000E+00 -0.00000000000E+00 -0.88812035308E+03  0.88812035308E+03  0.00000000000E+00 0. -1.
         23    2    1    2    0    0  0.86564464121E+01  0.10678611262E+03 -0.55221528113E+03  0.56937669216E+03  0.88146996267E+02 0.  0.
         24    2    1    2    0    0 -0.46982084912E+02  0.45626045643E+02 -0.98358447295E+02  0.14494620728E+03  0.83940255579E+02 0.  0.
        -13    1    4    4    0    0 -0.57107518443E+02  0.63782468013E+02 -0.81109555049E+02  0.11793316670E+03  0.00000000000E+00 0.  1.
         14    1    4    4    0    0  0.10125433530E+02 -0.18156422370E+02 -0.17248892246E+02  0.27013040576E+02  0.00000000000E+00 0. -1.
        -13    1    3    3    0    0 -0.36985256616E+02  0.72163835303E+02 -0.30315386507E+03  0.31381171781E+03  0.00000000000E+00 0.  1.
         13    1    3    3    0    0  0.45641703028E+02  0.34622277316E+02 -0.24906141606E+03  0.25556497435E+03  0.00000000000E+00 0. -1.
         21    1    1    2  503  502  0.78355197758E+02 -0.87465233961E+02 -0.98957787447E+02  0.15356545140E+03  0.00000000000E+00 0. -1.
          1    1    1    2  501    0 -0.40029559258E+02 -0.64946924301E+02 -0.61086411963E+02  0.97734427491E+02  0.00000000000E+00 0. -1.
<scales pt_clust_5="13000.00000" pt_clust_6="13000.00000" pt_clust_7="13000.00000" pt_clust_8="13000.00000" pt_clust_9="102.88601" pt_clust_10="76.29200"></scales>
<clustering>
<clus scale="   76.292">  1 10  2 -1</clus>
<clus scale="   83.940">  5  6 -1 -1</clus>
<clus scale="   88.147">  7  8 -1 -1</clus>
<clus scale="  106.698">  1  5  2 -1</clus>
<clus scale="  102.886">  1  9  2 -1</clus>
<clus scale="   76.292">  1  5  2 -1</clus>
</clustering>
</event>
<event>
10    4  0.2857708E-005  0.9694444E+02  0.7546771E-02  0.1292377E+00
          2   -1    0    0  503    0 -0.00000000000E+00  0.00000000000E+00  0.37722880760E+03  0.37722880760E+03  0.00000000000E+00 0. -1.
         21   -1    0    0  501  502  0.00000000000E+00 -0.00000000000E+00 -0.17859006513E+03  0.17859006513E+03  0.00000000000E+00 0.  1.
         24    2    1    2    0    0 -0.14565772100E+02  0.17103306353E+01  0.23441007389E+03  0.24829426041E+03  0.80541107894E+02 0.  0.
         23    2    1    2    0    0  0.66904439857E+02  0.15511449897E+02  0.38811897202E+02  0.12027893365E+03  0.90795646175E+02 0.  0.
        -13    1    3    3    0    0 -0.37391826904E+02  0.27145065624E+02  0.11084112678E+03  0.12008646341E+03  0.00000000000E+00 0.  1.
         14    1    3    3    0    0  0.22826054804E+02 -0.25434734989E+02  0.12356894711E+03  0.12820779700E+03  0.00000000000E+00 0. -1.
        -11    1    4    4    0    0 -0.74811702317E+01  0.34664238860E+02  0.21730602946E+02  0.41590821922E+02  0.00000000000E+00 0. -1.
         11    1    4    4    0    0  0.74385610089E+02 -0.19152788963E+02  0.17081294257E+02  0.78688111725E+02  0.00000000000E+00 0.  1.
         21    1    1    2  503  502 -0.52277236700E+01 -0.30175553677E+02  0.47065243082E+02  0.56151849843E+02  0.00000000000E+00 0. -1.
          1    1    1    2  501    0 -0.47110944087E+02  0.12953773145E+02 -0.12164847170E+03  0.13109382884E+03  0.00000000000E+00 0. -1.
<scales pt_clust_5="13000.00000" pt_clust_6="13000.00000" pt_clust_7="13000.00000" pt_clust_8="13000.00000" pt_clust_9="30.62504" pt_clust_10="48.81848"></scales>
<clustering>
<clus scale="   30.625">  1  9  2 -1</clus>
<clus scale="   48.818">  2 10  1 -1</clus>
<clus scale="   80.541">  5  6 -1 -1</clus>
<clus scale="   87.414">  1  5  2 -1</clus>
<clus scale="   90.796">  7  8 -1 -1</clus>
<clus scale="   48.818">  2  5  1 -1</clus>
</clustering>
</event>
<event>
10    4  0.2857708E-005  0.1102221E+03  0.7546771E-02  0.1271714E+00
         -1   -1    0    0    0  501 -0.00000000000E+00  0.00000000000E+00  0.45877964629E+02  0.45877964629E+02  0.00000000000E+00 0.  1.
         21   -1    0    0  503  502  0.00000000000E+00 -0.00000000000E+00 -0.46546076353E+03  0.46546076353E+03  0.00000000000E+00 0.  1.
         24    2    1    2    0    0 -0.78931206299E+02 -0.70656259755E+01 -0.62191760608E+02  0.11815618953E+03  0.61749588160E+02 0.  0.
         23    2    1    2    0    0  0.36860470698E+02  0.32948907539E+02 -0.24278059007E+03  0.26382022019E+03  0.90633155407E+02 0.  0.
        -11    1    3    3    0    0 -0.85691990068E+02 -0.36942243080E+01 -0.39859884110E+02  0.94581048928E+02  0.00000000000E+00 0.  1.
         12    1    3    3    0    0  0.67607837690E+01 -0.33714016674E+01 -0.22331876498E+02  0.23575140600E+02  0.00000000000E+00 0. -1.
        -11    1    4    4    0    0  0.37461722309E+02 -0.15522603944E+02 -0.17995514158E+03  0.18446730023E+03  0.00000000000E+00 0.  1.
         11    1    4    4    0    0 -0.60125161101E+00  0.48471511484E+02 -0.62825448487E+02  0.79352919963E+02  0.00000000000E+00 0. -1.
         21    1    1    2  503  501  0.21906436848E+02 -0.24897869153E+02 -0.39447983337E+02  0.51535805544E+02  0.00000000000E+00 0.  1.
         -2    1    1    2    0  502  0.20164298753E+02 -0.98541241078E+00 -0.75162464889E+02  0.77826512898E+02  0.00000000000E+00 0.  1.
<scales pt_clust_5="13000.00000" pt_clust_6="13000.00000" pt_clust_7="13000.00000" pt_clust_8="13000.00000" pt_clust_9="34.84875" pt_clust_10="20.18836"></scales>
<clustering>
<clus scale="   20.188">  2 10  1 -1</clus>
<clus scale="   34.849">  1  9  2 -1</clus>
<clus scale="   61.750">  5  6 -1 -1</clus>
<clus scale="   88.020">  1  5  2 -1</clus>
<clus scale="   90.633">  7  8 -1 -1</clus>
<clus scale="   20.188">  2  5  1 -1</clus>
</clustering>
</event>
<event>
10    4  0.2857708E-005  0.2044722E+03  0.7546771E-02  0.1146537E+00
         -3   -1    0    0    0  501 -0.00000000000E+00  0.00000000000E+00  0.94724762742E+02  0.94724762742E+02  0.00000000000E+00 0.  1.
         21   -1    0    0  503  502  0.00000000000E+00 -0.00000000000E+00 -0.17213519050E+04  0.17213519050E+04  0.00000000000E+00 0. -1.
         24    2    1    2    0    0  0.16520340587E+03  0.94043550911E+02 -0.18442125441E+03  0.27685317925E+03  0.80623377528E+02 0.  0.
         23    2    1    2    0    0 -0.15560911696E+01 -0.21843732637E+03 -0.11349537483E+04  0.11590328622E+04  0.86717229524E+02 0.  0.
        -13    1    3    3    0    0  0.16027796408E+03  0.10185375252E+03 -0.18774274512E+03  0.26704035465E+03  0.00000000000E+00 0.  1.
         14    1    3    3    0    0  0.49254417917E+01 -0.78102016084E+01  0.33214907060E+01  0.98128245942E+01  0.00000000000E+00 0. -1.
        -11    1    4    4    0    0 -0.11823237647E+02 -0.27406834164E+02 -0.58106757713E+02  0.65324718133E+02  0.00000000000E+00 0.  1.
         11    1    4    4    0    0  0.10267146478E+02 -0.19103049220E+03 -0.10768469906E+04  0.10937081441E+04  0.00000000000E+00 0. -1.
         21    1    1    2  503  501 -0.56781851623E+01  0.29514936405E+02 -0.12445361195E+02  0.32530912575E+02  0.00000000000E+00 0.  1.
         -4    1    1    2    0  502 -0.15796912953E+03  0.94878839052E+02 -0.29480677837E+03  0.34765971374E+03  0.00000000000E+00 0.  1.
<scales pt_clust_5="13000.00000" pt_clust_6="13000.00000" pt_clust_7="13000.00000" pt_clust_8="13000.00000" pt_clust_9="30.05617" pt_clust_10="190.66168"></scales>
<clustering>
<clus scale="   30.056">  1  9  2 -1</clus>
<clus scale="   80.623">  5  6 -1 -1</clus>
<clus scale="   86.717">  7  8 -1 -1</clus>
<clus scale="  190.662">  2 10  1 -1</clus>
<clus scale="  201.963">  1  5  2 -1</clus>
<clus scale="  190.662">  2  5  1 -1</clus>
</clustering>
</event>
<event>
10    4  0.2857708E-005  0.1978575E+03  0.7546771E-02  0.1152935E+00
          2   -1    0    0  503    0 -0.00000000000E+00  0.00000000000E+00  0.36160633726E+03  0.36160633726E+03  0.00000000000E+00 0. -1.
         21   -1    0    0  501  502  0.00000000000E+00 -0.00000000000E+00 -0.73578104907E+03  0.73578104907E+03  0.00000000000E+00 0. -1.
         24    2    1    2    0    0  0.66278969089E+02 -0.21905629430E+03 -0.89744388850E+02  0.25788362910E+03  0.77918861742E+02 0.  0.
         23    2    1    2    0    0 -0.49324815188E+01  0.10011399193E+03 -0.33843165343E+03  0.36485129061E+03  0.92376076249E+02 0.  0.
        -13    1    3    3    0    0 -0.10947048447E+02 -0.45478144678E+02 -0.39872100732E+02  0.61464493245E+02  0.00000000000E+00 0.  1.
         14    1    3    3    0    0  0.77226017535E+02 -0.17357814962E+03 -0.49872288118E+02  0.19641913586E+03  0.00000000000E+00 0. -1.
        -13    1    4    4    0    0  0.19571268031E+02  0.68050749000E+02 -0.30295412424E+03  0.31111917390E+03  0.00000000000E+00 0.  1.
         13    1    4    4    0    0 -0.24503749550E+02  0.32063242928E+02 -0.35477529187E+02  0.53732116711E+02  0.00000000000E+00 0. -1.
         21    1    1    2  503  502 -0.48633853700E+02  0.22399711117E+02  0.25006813459E+03  0.25573633046E+03  0.00000000000E+00 0. -1.
          1    1    1    2  501    0 -0.12712633870E+02  0.96542591254E+02 -0.19606680412E+03  0.21891613615E+03  0.00000000000E+00 0. -1.
<scales pt_clust_5="13000.00000" pt_clust_6="13000.00000" pt_clust_7="13000.00000" pt_clust_8="13000.00000" pt_clust_9="53.54436" pt_clust_10="100.49013"></scales>
<clustering>
<clus scale="   53.544">  1  9  2 -1</clus>
<clus scale="   77.919">  5  6 -1 -1</clus>
<clus scale="   92.376">  7  8 -1 -1</clus>
<clus scale="  100.490">  2 10  1 -1</clus>
<clus scale="  191.535">  1  5  2 -1</clus>
<clus scale="  100.490">  2  5  1 -1</clus>
</clustering>
</event>
<event>
10    4  0.2857708E-005  0.1015278E+03  0.7546771E-02  0.1282594E+00
          2   -1    0    0  503    0 -0.00000000000E+00  0.00000000000E+00  0.68825278373E+03  0.68825278373E+03  0.00000000000E+00 0. -1.
         21   -1    0    0  501  502  0.00000000000E+00 -0.00000000000E+00 -0.15735986683E+03  0.15735986683E+03  0.00000000000E+00 0. -1.
         24    2    1    2    0    0  0.52784104338E+02  0.13838175949E+02  0.52557796547E+03  0.53468323068E+03  0.81708644605E+02 0.  0.
         23    2    1    2    0    0  0.36151026063E+02 -0.17840955722E+01  0.31353063856E+02  0.10445072733E+03  0.92827044245E+02 0.  0.
        -13    1    3    3    0    0  0.66749431031E+02  0.37583177107E+01  0.25699352917E+03  0.26554714370E+03  0.00000000000E+00 0.  1.
         14    1    3    3    0    0 -0.13965326692E+02  0.10079858239E+02  0.26858443630E+03  0.26913608698E+03  0.00000000000E+00 0. -1.
        -11    1    4    4    0    0 -0.44421704862E+01 -0.20860181803E+02 -0.24718153267E+02  0.32647621114E+02  0.00000000000E+00 0.  1.
         11    1    4    4    0    0  0.40593196549E+02  0.19076086231E+02  0.56071217123E+02  0.71803106212E+02  0.00000000000E+00 0. -1.
         21    1    1    2  503  502  0.14329125952E+01 -0.24379789959E+02  0.69937690902E+02  0.74079065907E+02  0.00000000000E+00 0. -1.
          1    1    1    2  501    0 -0.90368042997E+02  0.12325709582E+02 -0.95975803324E+02  0.13239962664E+03  0.00000000000E+00 0. -1.
<scales pt_clust_5="13000.00000" pt_clust_6="13000.00000" pt_clust_7="13000.00000" pt_clust_8="13000.00000" pt_clust_9="24.42186" pt_clust_10="91.06817"></scales>
<clustering>
<clus scale="   24.422">  1  9  2 -1</clus>
<clus scale="   81.709">  5  6 -1 -1</clus>
<clus scale="   91.068">  2 10  1 -1</clus>
<clus scale="   91.473">  1  5  2 -1</clus>
<clus scale="   92.827">  7  8 -1 -1</clus>
<clus scale="   91.068">  2  5  1 -1</clus>
</clustering>
</event>
<event>
10    4  0.2857708E-005  0.3071168E+03  0.7546771E-02  0.1082027E+00
          2   -1    0    0  503    0 -0.00000000000E+00  0.00000000000E+00  0.15901148483E+04  0.15901148483E+04  0.00000000000E+00 0. -1.
         21   -1    0    0  501  502  0.00000000000E+00 -0.00000000000E+00 -0.19151774650E+03  0.19151774650E+03  0.00000000000E+00 0.  1.
         23    2    1    2    0    0  0.21034354795E+03  0.11777735279E+03  0.50637564518E+03  0.56784571539E+03  0.88974993464E+02 0.  0.
         24    2    1    2    0    0 -0.36446636084E+03 -0.15135264336E+03  0.16210808227E+03  0.43414074543E+03  0.80348028391E+02 0.  0.
        -11    1    4    4    0    0 -0.35634228785E+03 -0.13465651183E+03  0.14141323153E+03  0.40633718060E+03  0.00000000000E+00 0.  1.
         12    1    4    4    0    0 -0.81240729941E+01 -0.16696131532E+02  0.20694850733E+02  0.27803564826E+02  0.00000000000E+00 0. -1.
        -11    1    3    3    0    0  0.81603845237E+02  0.94775236535E+02  0.27409530576E+03  0.30128021784E+03  0.00000000000E+00 0. -1.
         11    1    3    3    0    0  0.12873970271E+03  0.23002116250E+02  0.23228033941E+03  0.26656549755E+03  0.00000000000E+00 0.  1.
         21    1    1    2  503  502  0.22127658412E+02  0.68521247018E+02  0.54438932004E+03  0.54913070060E+03  0.00000000000E+00 0.  1.
          1    1    1    2  501    0  0.13199515448E+03 -0.34945956441E+02  0.18572405430E+03  0.23051543338E+03  0.00000000000E+00 0. -1.
<scales pt_clust_5="13000.00000" pt_clust_6="13000.00000" pt_clust_7="13000.00000" pt_clust_8="13000.00000" pt_clust_9="72.00552" pt_clust_10="138.05862"></scales>
<clustering>
<clus scale="   72.006">  1  9  2 -1</clus>
<clus scale="   80.348">  5  6 -1 -1</clus>
<clus scale="   88.975">  7  8 -1 -1</clus>
<clus scale="  138.059">  2 10  1 -1</clus>
<clus scale="  304.729">  2  5  1 -1</clus>
<clus scale="  138.059">  2  5  1 -1</clus>
</clustering>
</event>
<event>
10    4  0.2857708E-005  0.8644255E+02  0.7546771E-02  0.1315408E+00
         21   -1    0    0  501  502  0.00000000000E+00  0.00000000000E+00  0.66336112200E+02  0.66336112200E+02  0.00000000000E+00 0. -1.
          2   -1    0    0  503    0 -0.00000000000E+00 -0.00000000000E+00 -0.83131646195E+03  0.83131646195E+03  0.00000000000E+00 0. -1.
         24    2    1    2    0    0  0.29281716246E+02 -0.11020415054E+02 -0.53229503100E+03  0.53924437527E+03  0.80421562857E+02 0.  0.
         23    2    1    2    0    0  0.11100552586E+02 -0.13172993621E+02 -0.82775942428E+02  0.12062991564E+03  0.86040512978E+02 0.  0.
        -11    1    3    3    0    0  0.23123487416E+02  0.56026758321E+00 -0.36090130030E+02  0.42866152797E+02  0.00000000000E+00 0.  1.
         12    1    3    3    0    0  0.61582288294E+01 -0.11580682637E+02 -0.49620490097E+03  0.49637822247E+03  0.00000000000E+00 0. -1.
        -13    1    4    4    0    0  0.82126753555E+01  0.30915148958E+02 -0.67408824349E+01  0.32689967384E+02  0.00000000000E+00 0.  1.
         13    1    4    4    0    0  0.28878772310E+01 -0.44088142579E+02 -0.76035059993E+02  0.87939948255E+02  0.00000000000E+00 0. -1.
         21    1    1    2  503  502 -0.33007239239E+02 -0.32229218684E+01 -0.18764611385E+03  0.19055426815E+03  0.00000000000E+00 0. -1.
          1    1    1    2  501    0 -0.73750295927E+01  0.27416330544E+02  0.37736737531E+02  0.47224015093E+02  0.00000000000E+00 0. -1.
<scales pt_clust_5="13000.00000" pt_clust_6="13000.00000" pt_clust_7="13000.00000" pt_clust_8="13000.00000" pt_clust_9="33.49274" pt_clust_10="28.39095"></scales>
<clustering>
<clus scale="   28.391">  1 10  2 -1</clus>
<clus scale="   33.493">  2  9  1 -1</clus>
<clus scale="   80.422">  5  6 -1 -1</clus>
<clus scale="   80.852">  2  5  1 -1</clus>
<clus scale="   86.041">  7  8 -1 -1</clus>
<clus scale="   28.391">  1  5  2 -1</clus>
</clustering>
</event>
<event>
10    4  0.2857708E-005  0.1950282E+03  0.7546771E-02  0.1155566E+00
          2   -1    0    0  503    0 -0.00000000000E+00  0.00000000000E+00  0.98299592509E+03  0.98299592509E+03  0.00000000000E+00 0. -1.
         21   -1    0    0  501  502  0.00000000000E+00 -0.00000000000E+00 -0.15188515752E+03  0.15188515752E+03  0.00000000000E+00 0. -1.
         23    2    1    2    0    0  0.40860584560E+02  0.16129284546E+03  0.58359629627E+03  0.61415600166E+03  0.94435099346E+02 0.  0.
         24    2    1    2    0    0 -0.14437624048E+03 -0.63639233489E+02  0.48704722750E+01  0.17647210196E+03  0.78893791996E+02 0.  0.
        -11    1    4    4    0    0 -0.51420130517E+02 -0.26141631655E+01  0.33778944879E+02  0.61578249314E+02  0.00000000000E+00 0.  1.
         12    1    4    4    0    0 -0.92956109958E+02 -0.61025070323E+02 -0.28908472604E+02  0.11489385264E+03  0.00000000000E+00 0. -1.
        -13    1    3    3    0    0  0.62844586264E+02  0.80252402123E+02  0.24617014733E+03  0.26643879505E+03  0.00000000000E+00 0.  1.
         13    1    3    3    0    0 -0.21984001704E+02  0.81040443332E+02  0.33742614894E+03  0.34771720661E+03  0.00000000000E+00 0. -1.
         21    1    1    2  503  502  0.44645041025E+01  0.26740504119E+02  0.16515325642E+03  0.16736362945E+03  0.00000000000E+00 0. -1.
          1    1    1    2  501    0  0.99051151813E+02 -0.12439411608E+03  0.77490742604E+02  0.17688934954E+03  0.00000000000E+00 0. -1.
<scales pt_clust_5="13000.00000" pt_clust_6="13000.00000" pt_clust_7="13000.00000" pt_clust_8="13000.00000" pt_clust_9="27.11063" pt_clust_10="156.21958"></scales>
<clustering>
<clus scale="   27.111">  1  9  2 -1</clus>
<clus scale="   78.894">  5  6 -1 -1</clus>
<clus scale="   94.435">  7  8 -1 -1</clus>
<clus scale="  156.220">  2 10  1 -1</clus>
<clus scale="  187.995">  2  5  1 -1</clus>
<clus scale="  156.220">  2  5  1 -1</clus>
</clustering>
</event>
<event>
10    4  0.2857708E-005  0.2147503E+03  0.7546771E-02  0.1138540E+00
         21   -1    0    0  503  502  0.00000000000E+00  0.00000000000E+00  0.18771715102E+03  0.18771715102E+03  0.00000000000E+00 0.  1.
          2   -1    0    0  502    0 -0.00000000000E+00 -0.00000000000E+00 -0.66358597432E+03  0.66358597432E+03  0.00000000000E+00 0. -1.
         23    2    1    2    0    0  0.15180825648E+03 -0.13508838870E+03 -0.17092908563E+03  0.28004306154E+03  0.88953608717E+02 0.  0.
         24    2    1    2    0    0 -0.19920206709E+03  0.33256997961E+02 -0.24785270697E+02  0.21867549013E+03  0.80107233713E+02 0.  0.
        -13    1    4    4    0    0 -0.11622400645E+03  0.45000405473E+02  0.15677175909E+02  0.12561381298E+03  0.00000000000E+00 0.  1.
         14    1    4    4    0    0 -0.82978060646E+02 -0.11743407512E+02 -0.40462446606E+02  0.93061677150E+02  0.00000000000E+00 0. -1.
        -11    1    3    3    0    0  0.13796822300E+03 -0.76827060482E+02 -0.98720516695E+02  0.18623471265E+03  0.00000000000E+00 0.  1.
         11    1    3    3    0    0  0.13840033475E+02 -0.58261328219E+02 -0.72208568937E+02  0.93808348884E+02  0.00000000000E+00 0. -1.
         21    1    1    2  503  501 -0.28911597281E+02 -0.33566833187E+02 -0.17992619733E+02  0.47815762176E+02  0.00000000000E+00 0.  1.
          1    1    1    2  501    0  0.76305407900E+02  0.13539822393E+03 -0.26216184724E+03  0.30476881150E+03  0.00000000000E+00 0. -1.
<scales pt_clust_5="13000.00000" pt_clust_6="13000.00000" pt_clust_7="13000.00000" pt_clust_8="13000.00000" pt_clust_9="44.30139" pt_clust_10="150.06837"></scales>
<clustering>
<clus scale="   44.301">  1  9  2 -1</clus>
<clus scale="   80.107">  5  6 -1 -1</clus>
<clus scale="   88.954">  7  8 -1 -1</clus>
<clus scale="  150.068">  1 10  2 -1</clus>
<clus scale="  211.239">  1  5  2 -1</clus>
<clus scale="   44.301">  1  5  2 -1</clus>
</clustering>
</event>
<event>
10    4  0.2857708E-005  0.1283626E+03  0.7546771E-02  0.1241958E+00
         21   -1    0    0  501  502  0.00000000000E+00  0.00000000000E+00  0.29322736869E+03  0.29322736869E+03  0.00000000000E+00 0. -1.
          2   -1    0    0  503    0 -0.00000000000E+00 -0.00000000000E+00 -0.29564335032E+03  0.29564335032E+03  0.00000000000E+00 0. -1.
         23    2    1    2    0    0 -0.37454814171E+02 -0.25532423842E+02  0.21203699559E+02  0.10467263655E+03  0.91934738784E+02 0.  0.
         24    2    1    2    0    0 -0.79543386151E+02  0.56658901556E+02  0.13994499074E+03  0.18860835700E+03  0.80318929834E+02 0.  0.
        -11    1    4    4    0    0 -0.22613234617E+01  0.46329224262E+02  0.36241612447E+02  0.58863953972E+02  0.00000000000E+00 0.  1.
         12    1    4    4    0    0 -0.77282062690E+02  0.10329677294E+02  0.10370337829E+03  0.12974440302E+03  0.00000000000E+00 0. -1.
        -13    1    3    3    0    0 -0.62585959508E+02 -0.38947058416E+02  0.11673150245E+02  0.74633357980E+02  0.00000000000E+00 0. -1.
         13    1    3    3    0    0  0.25131145337E+02  0.13414634574E+02  0.95305493136E+01  0.30039278568E+02  0.00000000000E+00 0.  1.
         21    1    1    2  503  502  0.95469037356E+02 -0.42174990220E+02  0.23486455826E+02  0.10697981352E+03  0.00000000000E+00 0. -1.
          1    1    1    2  501    0  0.21529162967E+02  0.11048512505E+02 -0.18705112776E+03  0.18860991194E+03  0.00000000000E+00 0. -1.
<scales pt_clust_5="13000.00000" pt_clust_6="13000.00000" pt_clust_7="13000.00000" pt_clust_8="13000.00000" pt_clust_9="100.12909" pt_clust_10="24.19866"></scales>
<clustering>
<clus scale="   24.199">  1 10  2 -1</clus>
<clus scale="   80.319">  5  6 -1 -1</clus>
<clus scale="   91.935">  7  8 -1 -1</clus>
<clus scale="  100.326">  2  7  1 -1</clus>
<clus scale="  100.129">  2  9  1 -1</clus>
<clus scale="   24.199">  1  5  2 -1</clus>
</clustering>
</event>
<event>
10    4  0.2857708E-005  0.9960369E+02  0.7546771E-02  0.1285919E+00
          2   -1    0    0  503    0 -0.00000000000E+00  0.00000000000E+00  0.48047639243E+03  0.48047639243E+03  0.00000000000E+00 0. -1.
         21   -1    0    0  501  502  0.00000000000E+00 -0.00000000000E+00 -0.15468790395E+03  0.15468790395E+03  0.00000000000E+00 0. -1.
         24    2    1    2    0    0  0.66424405904E+01 -0.45541945158E+01  0.99826973734E+02  0.12868220670E+03  0.80801132001E+02 0.  0.
         23    2    1    2    0    0 -0.71377296973E+01  0.38714714186E+02  0.11575060532E+01  0.98611303822E+02  0.90405050420E+02 0.  0.
        -11    1    3    3    0    0  0.72915082666E+00 -0.42638806707E+02  0.51179292590E+02  0.66617711521E+02  0.00000000000E+00 0.  1.
         12    1    3    3    0    0  0.59132897637E+01  0.38084612191E+02  0.48647681144E+02  0.62064495183E+02  0.00000000000E+00 0. -1.
        -11    1    4    4    0    0 -0.62593609460E+01  0.68375752572E+02  0.41487302032E+01  0.68786881754E+02  0.00000000000E+00 0. -1.
         11    1    4    4    0    0 -0.87836875132E+00 -0.29661038385E+02 -0.29912241500E+01  0.29824422068E+02  0.00000000000E+00 0.  1.
         21    1    1    2  503  502  0.38890060542E+02 -0.66588311054E+02  0.30424626087E+03  0.31386657552E+03  0.00000000000E+00 0. -1.
          1    1    1    2  501    0 -0.38394771436E+02  0.32427791384E+02 -0.79442252185E+02  0.94004210330E+02  0.00000000000E+00 0. -1.
<scales pt_clust_5="13000.00000" pt_clust_6="13000.00000" pt_clust_7="13000.00000" pt_clust_8="13000.00000" pt_clust_9="73.77050" pt_clust_10="50.25654"></scales>
<clustering>
<clus scale="   50.257">  2 10  1 -1</clus>
<clus scale="   73.770">  1  9  2 -1</clus>
<clus scale="   80.801">  5  6 -1 -1</clus>
<clus scale="   90.405">  7  8 -1 -1</clus>
<clus scale="   90.976">  1  5  2 -1</clus>
<clus scale="   50.257">  2  5  1 -1</clus>
</clustering>
</event>
<event>
10    4  0.2857708E-005  0.2067498E+03  0.7546771E-02  0.1158479E+00
         -1   -1    0    0    0  501 -0.00000000000E+00  0.00000000000E+00  0.82714484839E+03  0.82714484839E+03  0.00000000000E+00 0.  1.
         21   -1    0    0  503  502  0.00000000000E+00 -0.00000000000E+00 -0.75576566891E+03  0.75576566891E+03  0.00000000000E+00 0.  1.
         23    2    1    2    0    0 -0.66082887238E+02 -0.15239555492E+03  0.30563930664E+03  0.35954186968E+03  0.90904439614E+02 0.  0.
         24    2    1    2    0    0 -0.15346623821E+03 -0.10254647372E+03 -0.59209043424E+03  0.62537390250E+03  0.80335360012E+02 0.  0.
        -13    1    4    4    0    0 -0.12862306180E+03 -0.10219131589E+03 -0.56594812226E+03  0.58930826752E+03  0.00000000000E+00 0.  1.
         14    1    4    4    0    0 -0.24843176412E+02 -0.35515783035E+00 -0.26142311973E+02  0.36065634981E+02  0.00000000000E+00 0. -1.
        -13    1    3    3    0    0 -0.37390892969E+02 -0.82773563321E+02  0.77838581090E+02  0.11961766746E+03  0.00000000000E+00 0. -1.
         13    1    3    3    0    0 -0.28691994269E+02 -0.69621991604E+02  0.22780072555E+03  0.23992420222E+03  0.00000000000E+00 0.  1.
         21    1    1    2  503  501  0.66745414262E+02  0.55881057334E+02  0.33487057038E+03  0.34599991589E+03  0.00000000000E+00 0. -1.
         -2    1    1    2    0  502  0.15280371119E+03  0.19906097131E+03  0.22959736701E+02  0.25199482924E+03  0.00000000000E+00 0.  1.
<scales pt_clust_5="13000.00000" pt_clust_6="13000.00000" pt_clust_7="13000.00000" pt_clust_8="13000.00000" pt_clust_9="87.04966" pt_clust_10="190.50396"></scales>
<clustering>
<clus scale="   80.335">  5  6 -1 -1</clus>
<clus scale="   87.050">  1  9  2 -1</clus>
<clus scale="   90.904">  7  8 -1 -1</clus>
<clus scale="  147.399">  1  7  2 -1</clus>
<clus scale="  190.504">  2 10  1 -1</clus>
<clus scale="  190.504">  2  5  1 -1</clus>
</clustering>
</event>
<event>
10    4  0.2857708E-005  0.1179752E+03  0.7546771E-02  0.1249353E+00
         -1   -1    0    0    0  501 -0.00000000000E+00  0.00000000000E+00  0.68899028692E+03  0.68899028692E+03  0.00000000000E+00 0.  1.
         21   -1    0    0  503  502  0.00000000000E+00 -0.00000000000E+00 -0.96055887183E+02  0.96055887183E+02  0.00000000000E+00 0. -1.
         23    2    1    2    0    0 -0.15822814921E+01  0.75322666862E+02  0.38937231183E+03  0.40671780980E+03  0.90180773080E+02 0.  0.
         24    2    1    2    0    0 -0.46987988220E+02 -0.55383921235E+02 -0.31024679849E+02  0.11337404429E+03  0.81338142291E+02 0.  0.
        -13    1    4    4    0    0 -0.13455674324E+01 -0.36632285026E+02  0.20526813705E+02  0.42012913953E+02  0.00000000000E+00 0.  1.
         14    1    4    4    0    0 -0.45642420787E+02 -0.18751636209E+02 -0.51551493553E+02  0.71361130340E+02  0.00000000000E+00 0. -1.
        -11    1    3    3    0    0 -0.34812454780E+02 -0.39603066706E+00  0.11355439031E+03  0.11877147556E+03  0.00000000000E+00 0.  1.
         11    1    3    3    0    0  0.33230173288E+02  0.75718697529E+02  0.27581792152E+03  0.28794633424E+03  0.00000000000E+00 0. -1.
         21    1    1    2  503  501 -0.27983144622E+02  0.34845132939E+01  0.13119530171E+03  0.13419167414E+03  0.00000000000E+00 0. -1.
         -2    1    1    2    0  502  0.76553414334E+02 -0.23423258921E+02  0.10339146604E+03  0.13076264587E+03  0.00000000000E+00 0.  1.
<scales pt_clust_5="13000.00000" pt_clust_6="13000.00000" pt_clust_7="13000.00000" pt_clust_8="13000.00000" pt_clust_9="28.19926" pt_clust_10="74.21764"></scales>
<clustering>
<clus scale="   28.199">  1  9  2 -1</clus>
<clus scale="   74.218">  2 10  1 -1</clus>
<clus scale="   81.338">  5  6 -1 -1</clus>
<clus scale="   90.181">  7  8 -1 -1</clus>
<clus scale="  111.362">  2  5  1 -1</clus>
<clus scale="   74.218">  2  5  1 -1</clus>
</clustering>
</event>
<event>
10    4  0.2857708E-005  0.1569647E+03  0.7546771E-02  0.1193987E+00
          2   -1    0    0  503    0 -0.00000000000E+00  0.00000000000E+00  0.42649585869E+03  0.42649585869E+03  0.00000000000E+00 0. -1.
         21   -1    0    0  501  502  0.00000000000E+00 -0.00000000000E+00 -0.39160143804E+03  0.39160143804E+03  0.00000000000E+00 0. -1.
         23    2    1    2    0    0 -0.84643455395E+01  0.15724187596E+03  0.23636090468E+03  0.29817121692E+03  0.90790663828E+02 0.  0.
         24    2    1    2    0    0  0.60679458231E+02 -0.65374285949E+02 -0.25757954181E+01  0.11963010815E+03  0.79680199171E+02 0.  0.
        -13    1    4    4    0    0  0.15253583976E+02 -0.44815246957E+02 -0.36110681733E+02  0.59540402410E+02  0.00000000000E+00 0.  1.
         14    1    4    4    0    0  0.45425874255E+02 -0.20559038992E+02  0.33534886315E+02  0.60089705742E+02  0.00000000000E+00 0. -1.
        -11    1    3    3    0    0 -0.47348474635E+02  0.10862717996E+03  0.13956406106E+03  0.18308432324E+03  0.00000000000E+00 0. -1.
         11    1    3    3    0    0  0.38884129095E+02  0.48614695998E+02  0.96796843614E+02  0.11508689368E+03  0.00000000000E+00 0.  1.
         21    1    1    2  503  502  0.22928450408E+02  0.20750824549E+01  0.87069727082E+02  0.90061963000E+02  0.00000000000E+00 0.  1.
          1    1    1    2  501    0 -0.75143563099E+02 -0.93942672465E+02 -0.28596041570E+03  0.31023400866E+03  0.00000000000E+00 0. -1.
<scales pt_clust_5="13000.00000" pt_clust_6="13000.00000" pt_clust_7="13000.00000" pt_clust_8="13000.00000" pt_clust_9="23.02216" pt_clust_10="119.72762"></scales>
<clustering>
<clus scale="   23.022">  1  9  2 -1</clus>
<clus scale="   79.680">  5  6 -1 -1</clus>
<clus scale="   90.791">  7  8 -1 -1</clus>
<clus scale="  119.728">  2 10  1 -1</clus>
<clus scale="  150.811">  2  5  1 -1</clus>
<clus scale="  119.728">  2  5  1 -1</clus>
</clustering>
</event>
<event>
10    4  0.2857708E-005  0.1294699E+03  0.7546771E-02  0.1230633E+00
         21   -1    0    0  503  502  0.00000000000E+00  0.00000000000E+00  0.10990841157E+04  0.10990841157E+04  0.00000000000E+00 0.  1.
         -3   -1    0    0    0  501 -0.00000000000E+00 -0.00000000000E+00 -0.38871288337E+02  0.38871288337E+02  0.00000000000E+00 0.  1.
         23    2    1    2    0    0  0.15668142535E+02 -0.10792890198E+03  0.40177810353E+03  0.42611026110E+03  0.90830455030E+02 0.  0.
         24    2    1    2    0    0  0.47081176978E+02  0.83355686580E+02  0.51820436716E+03  0.53326809677E+03  0.81696322961E+02 0.  0.
        -11    1    4    4    0    0  0.26343285354E+02  0.94663005275E+02  0.46143297436E+03  0.47177901933E+03  0.00000000000E+00 0.  1.
         12    1    4    4    0    0  0.20737891624E+02 -0.11307318694E+02  0.56771392793E+02  0.61489077443E+02  0.00000000000E+00 0. -1.
        -11    1    3    3    0    0 -0.28592216634E+02 -0.76679131406E+02  0.29809508204E+03  0.30912437947E+03  0.00000000000E+00 0.  1.
         11    1    3    3    0    0  0.44260359168E+02 -0.31249770572E+02  0.10368302149E+03  0.11698588163E+03  0.00000000000E+00 0. -1.
         21    1    1    2  503  501 -0.25219613666E+02  0.49835049416E+02  0.11226545175E+03  0.12539175699E+03  0.00000000000E+00 0.  1.
         -4    1    1    2    0  502 -0.37529705847E+02 -0.25261834018E+02  0.27964904949E+02  0.53185289204E+02  0.00000000000E+00 0.  1.
<scales pt_clust_5="13000.00000" pt_clust_6="13000.00000" pt_clust_7="13000.00000" pt_clust_8="13000.00000" pt_clust_9="55.45452" pt_clust_10="45.23982"></scales>
<clustering>
<clus scale="   45.240">  1 10  2 -1</clus>
<clus scale="   55.455">  2  9  1 -1</clus>
<clus scale="   81.696">  5  6 -1 -1</clus>
<clus scale="   90.830">  7  8 -1 -1</clus>
<clus scale="  123.234">  1  5  2 -1</clus>
<clus scale="   45.240">  1  5  2 -1</clus>
</clustering>
</event>
<event>
10    4  0.2857708E-005  0.9493796E+02  0.7546771E-02  0.1295664E+00
         21   -1    0    0  501  502  0.00000000000E+00  0.00000000000E+00  0.17084681431E+03  0.17084681431E+03  0.00000000000E+00 0. -1.
          2   -1    0    0  503    0 -0.00000000000E+00 -0.00000000000E+00 -0.60514276934E+03  0.60514276934E+03  0.00000000000E+00 0. -1.
         23    2    1    2    0    0 -0.38074068634E+02 -0.60910419394E+02 -0.17947524151E+03  0.21240406691E+03  0.88002337636E+02 0.  0.
         24    2    1    2    0    0  0.65774609036E+02  0.21402268266E+02 -0.13374352482E+02  0.10658297235E+03  0.79979374903E+02 0.  0.
        -11    1    4    4    0    0  0.29465444679E+01 -0.26380304769E+02 -0.66413156453E+01  0.27362559776E+02  0.00000000000E+00 0.  1.
         12    1    4    4    0    0  0.62828064568E+02  0.47782573035E+02 -0.67330368364E+01  0.79220412573E+02  0.00000000000E+00 0. -1.
        -13    1    3    3    0    0 -0.29328334116E+02  0.17024058183E+02 -0.69485593081E+02  0.77318932900E+02  0.00000000000E+00 0.  1.
         13    1    3    3    0    0 -0.87457345175E+01 -0.77934477577E+02 -0.10998964843E+03  0.13508513401E+03  0.00000000000E+00 0. -1.
         21    1    1    2  503  502  0.28252393492E+02  0.63582680431E+02 -0.33676829136E+03  0.34388055638E+03  0.00000000000E+00 0. -1.
          1    1    1    2  501    0 -0.55952933895E+02 -0.24074529303E+02  0.95321930323E+02  0.11312198802E+03  0.00000000000E+00 0. -1.
<scales pt_clust_5="13000.00000" pt_clust_6="13000.00000" pt_clust_7="13000.00000" pt_clust_8="13000.00000" pt_clust_9="67.22624" pt_clust_10="60.91234"></scales>
<clustering>
<clus scale="   60.912">  1 10  2 -1</clus>
<clus scale="   67.226">  2  9  1 -1</clus>
<clus scale="   79.979">  5  6 -1 -1</clus>
<clus scale="   87.553">  1  5  2 -1</clus>
<clus scale="   88.002">  7  8 -1 -1</clus>
<clus scale="   60.912">  1  5  2 -1</clus>
</clustering>
</event>
<event>
10    4  0.2857708E-005  0.2507331E+03  0.7546771E-02  0.1147636E+00
          2   -1    0    0  503    0 -0.00000000000E+00  0.00000000000E+00  0.35807323053E+03  0.35807323053E+03  0.00000000000E+00 0. -1.
         21   -1    0    0  501  502  0.00000000000E+00 -0.00000000000E+00 -0.32739064051E+03  0.32739064051E+03  0.00000000000E+00 0. -1.
         23    2    1    2    0    0 -0.83205756516E+02  0.32348990057E+02 -0.11801037585E+02  0.10535314840E+03  0.54684241915E+02 0.  0.
         24    2    1    2    0    0 -0.47303951886E+02  0.21343809407E+03 -0.47238853622E+02  0.23755611302E+03  0.80049445188E+02 0.  0.
        -13    1    4    4    0    0  0.14965277679E+02  0.23969957331E+02  0.10149107145E+02  0.30025368712E+02  0.00000000000E+00 0.  1.
         14    1    4    4    0    0 -0.62269229564E+02  0.18946813674E+03 -0.57387960767E+02  0.20753074431E+03  0.00000000000E+00 0. -1.
        -13    1    3    3    0    0 -0.59806328880E+02  0.23425514719E+02  0.17730456214E+02  0.66632730632E+02  0.00000000000E+00 0. -1.
         13    1    3    3    0    0 -0.23399427637E+02  0.89234753379E+01 -0.29531493800E+02  0.38720417765E+02  0.00000000000E+00 0.  1.
         21    1    1    2  503  502 -0.20255465323E+02 -0.11510425047E+02  0.57575038629E+02  0.62110054205E+02  0.00000000000E+00 0. -1.
          1    1    1    2  501    0  0.15076517373E+03 -0.23427665908E+03  0.32147442605E+02  0.28044455542E+03  0.00000000000E+00 0. -1.
<scales pt_clust_5="13000.00000" pt_clust_6="13000.00000" pt_clust_7="13000.00000" pt_clust_8="13000.00000" pt_clust_9="23.29751" pt_clust_10="237.61151"></scales>
<clustering>
<clus scale="   23.298">  1  9  2 -1</clus>
<clus scale="   54.684">  7  8 -1 -1</clus>
<clus scale="   80.049">  5  6 -1 -1</clus>
<clus scale="  106.702">  1  7  2 -1</clus>
<clus scale="  237.612">  2 10  1 -1</clus>
<clus scale="  237.612">  2  5  1 -1</clus>
</clustering>
</event>
<event>
10    4  0.2857708E-005  0.1785444E+03  0.7546771E-02  0.1170491E+00
         21   -1    0    0  501  502  0.00000000000E+00  0.00000000000E+00  0.57342067597E+02  0.57342067597E+02  0.00000000000E+00 0. -1.
          2   -1    0    0  503    0 -0.00000000000E+00 -0.00000000000E+00 -0.11518177009E+04  0.11518177009E+04  0.00000000000E+00 0. -1.
         23    2    1    2    0    0  0.18715548068E+03 -0.45516205040E+02 -0.79765591460E+03  0.82568508472E+03  0.91662435925E+02 0.  0.
         24    2    1    2    0    0 -0.93945912459E+02  0.25893974934E+02 -0.18283521715E+03  0.22254211745E+03  0.81240045569E+02 0.  0.
        -11    1    4    4    0    0 -0.28544555547E+02 -0.28250400602E+02 -0.42134535658E+02  0.58208211454E+02  0.00000000000E+00 0.  1.
         12    1    4    4    0    0 -0.65401356912E+02  0.54144375536E+02 -0.14070068149E+03  0.16433390600E+03  0.00000000000E+00 0. -1.
        -13    1    3    3    0    0  0.39718602186E+02 -0.29179344965E+02 -0.89628534569E+02  0.10228526649E+03  0.00000000000E+00 0.  1.
         13    1    3    3    0    0  0.14743687850E+03 -0.16336860075E+02 -0.70802738003E+03  0.72339981823E+03  0.00000000000E+00 0. -1.
         21    1    1    2  503  502 -0.13568916917E+02  0.30351358457E+02 -0.33762199218E+02  0.47383610696E+02  0.00000000000E+00 0. -1.
          1    1    1    2  501    0 -0.79640651307E+02 -0.10729128351E+02 -0.80222302376E+02  0.11354895567E+03  0.00000000000E+00 0. -1.
<scales pt_clust_5="13000.00000" pt_clust_6="13000.00000" pt_clust_7="13000.00000" pt_clust_8="13000.00000" pt_clust_9="33.24636" pt_clust_10="84.11825"></scales>
<clustering>
<clus scale="   33.246">  1  9  2 -1</clus>
<clus scale="   81.240">  5  6 -1 -1</clus>
<clus scale="   84.118">  1 10  2 -1</clus>
<clus scale="   91.662">  7  8 -1 -1</clus>
<clus scale="  173.425">  1  5  2 -1</clus>
<clus scale="   33.246">  1  5  2 -1</clus>
</clustering>
</event>
<event>
10    4  0.2857708E-005  0.1059905E+03  0.7546771E-02  0.1274195E+00
          4   -1    0    0  503    0 -0.00000000000E+00  0.00000000000E+00  0.30348123791E+03  0.30348123791E+03  0.00000000000E+00 0. -1.
         21   -1    0    0  501  502  0.00000000000E+00 -0.00000000000E+00 -0.12763285293E+03  0.12763285293E+03  0.00000000000E+00 0. -1.
         24    2    1    2    0    0 -0.61686827081E+02  0.31447024594E+02  0.12953839387E+03  0.16588532508E+03  0.77094523793E+02 0.  0.
         23    2    1    2    0    0  0.57030555318E+02 -0.31852452139E+02 -0.54208385351E+02  0.12440586595E+03  0.90946179106E+02 0.  0.
        -11    1    3    3    0    0 -0.29632533800E+02  0.27404902248E+02  0.93511883776E+01  0.41431394506E+02  0.00000000000E+00 0.  1.
         12    1    3    3    0    0 -0.32054293281E+02  0.40421223452E+01  0.12018720549E+03  0.12445393057E+03  0.00000000000E+00 0. -1.
        -13    1    4    4    0    0 -0.21495471421E+02  0.86127181968E+01 -0.16065870157E+02  0.28184151402E+02  0.00000000000E+00 0.  1.
         13    1    4    4    0    0  0.78526026739E+02 -0.40465170336E+02 -0.38142515194E+02  0.96221714551E+02  0.00000000000E+00 0. -1.
         21    1    1    2  503  502  0.16151146115E+02 -0.18366072792E+02  0.11293359889E+03  0.11555158981E+03  0.00000000000E+00 0. -1.
          3    1    1    2  501    0 -0.11494874351E+02  0.18771500337E+02 -0.12415222426E+02  0.25271310001E+02  0.00000000000E+00 0. -1.
<scales pt_clust_5="13000.00000" pt_clust_6="13000.00000" pt_clust_7="13000.00000" pt_clust_8="13000.00000" pt_clust_9="24.19665" pt_clust_10="22.01139"></scales>
<clustering>
<clus scale="   22.011">  2 10  1 -1</clus>
<clus scale="   24.197">  1  9  2 -1</clus>
<clus scale="   77.095">  5  6 -1 -1</clus>
<clus scale="   90.946">  7  8 -1 -1</clus>
<clus scale="   94.373">  1  5  2 -1</clus>
<clus scale="   22.011">  2  5  1 -1</clus>
</clustering>
</event>
<event>
10    4  0.2857708E-005  0.1714831E+03  0.7546771E-02  0.1177915E+00
         21   -1    0    0  501  502  0.00000000000E+00  0.00000000000E+00  0.87595594946E+02  0.87595594946E+02  0.00000000000E+00 0. -1.
          2   -1    0    0  503    0 -0.00000000000E+00 -0.00000000000E+00 -0.10541940388E+04  0.10541940388E+04  0.00000000000E+00 0. -1.
         23    2    1    2    0    0  0.10931051383E+03  0.65066888249E+02 -0.36843666500E+03  0.40076172058E+03  0.93176671922E+02 0.  0.
         24    2    1    2    0    0 -0.16469328962E+03 -0.11583245542E+03 -0.15943070607E+03  0.26941524829E+03  0.81396490070E+02 0.  0.
        -13    1    4    4    0    0 -0.67370851051E+02 -0.20158053618E+02 -0.17398777208E+02  0.72442364300E+02  0.00000000000E+00 0.  1.
         14    1    4    4    0    0 -0.97322438571E+02 -0.95674401804E+02 -0.14203192886E+03  0.19697288399E+03  0.00000000000E+00 0. -1.
        -11    1    3    3    0    0  0.75212767461E+02  0.83630220843E+02 -0.21687512647E+03  0.24430676354E+03  0.00000000000E+00 0. -1.
         11    1    3    3    0    0  0.34097746367E+02 -0.18563332594E+02 -0.15156153852E+03  0.15645495704E+03  0.00000000000E+00 0.  1.
         21    1    1    2  503  502 -0.44683692883E+02 -0.14997340144E+02 -0.74064635165E+02  0.87790220430E+02  0.00000000000E+00 0. -1.
          1    1    1    2  501    0  0.10006646868E+03  0.65762907317E+02 -0.36466643761E+03  0.38382244443E+03  0.00000000000E+00 0. -1.
<scales pt_clust_5="13000.00000" pt_clust_6="13000.00000" pt_clust_7="13000.00000" pt_clust_8="13000.00000" pt_clust_9="47.13335" pt_clust_10="114.34324"></scales>
<clustering>
<clus scale="   47.133">  1  9  2 -1</clus>
<clus scale="   81.396">  5  6 -1 -1</clus>
<clus scale="   93.177">  7  8 -1 -1</clus>
<clus scale="  114.343">  1 10  2 -1</clus>
<clus scale="  165.378">  1  5  2 -1</clus>
<clus scale="   47.133">  1  5  2 -1</clus>
</clustering>
</event>
<event>
10    4  0.2857708E-005  0.1782913E+03  0.7546771E-02  0.1197059E+00
         21   -1    0    0  501  502  0.00000000000E+00  0.00000000000E+00  0.24648461855E+03  0.24648461855E+03  0.00000000000E+00 0. -1.
          2   -1    0    0  503    0 -0.00000000000E+00 -0.00000000000E+00 -0.26988845797E+03  0.26988845797E+03  0.00000000000E+00 0. -1.
         23    2    1    2    0    0  0.22872069165E+02  0.21794693443E+02 -0.48551211694E+02  0.10985508545E+03  0.93342270344E+02 0.  0.
         24    2    1    2    0    0  0.14807006224E+03  0.42690209144E+02  0.30495169364E+02  0.17626701684E+03  0.79955666346E+02 0.  0.
        -13    1    4    4    0    0  0.28918756764E+02  0.17468101804E+02 -0.25393628106E+02  0.42264233364E+02  0.00000000000E+00 0.  1.
         14    1    4    4    0    0  0.11915130548E+03  0.25222107340E+02  0.55888797471E+02  0.13400278347E+03  0.00000000000E+00 0. -1.
        -13    1    3    3    0    0  0.95829968685E+01  0.56246691973E+02 -0.12836971500E+02  0.58483433758E+02  0.00000000000E+00 0. -1.
         13    1    3    3    0    0  0.13289072297E+02 -0.34451998530E+02 -0.35714240194E+02  0.51371651695E+02  0.00000000000E+00 0.  1.
         21    1    1    2  503  502 -0.14090192760E+02 -0.17468770501E+02 -0.54785139376E+02  0.59203910101E+02  0.00000000000E+00 0.  1.
          1    1    1    2  501    0 -0.15685193865E+03 -0.47016132085E+02  0.49437342283E+02  0.17104706412E+03  0.00000000000E+00 0. -1.
<scales pt_clust_5="13000.00000" pt_clust_6="13000.00000" pt_clust_7="13000.00000" pt_clust_8="13000.00000" pt_clust_9="22.44307" pt_clust_10="159.35772"></scales>
<clustering>
<clus scale="   22.443">  2  9  1 -1</clus>
<clus scale="   79.956">  5  6 -1 -1</clus>
<clus scale="   93.342">  7  8 -1 -1</clus>
<clus scale="   96.216">  2  7  1 -1</clus>
<clus scale="  159.358">  1 10  2 -1</clus>
<clus scale="  159.358">  1  5  2 -1</clus>
</clustering>
</event>
<event>
10    4  0.2857708E-005  0.1974785E+03  0.7546771E-02  0.1165084E+00
          2   -1    0    0  503    0 -0.00000000000E+00  0.00000000000E+00  0.14312910891E+04  0.14312910891E+04  0.00000000000E+00 0. -1.
         21   -1    0    0  501  502  0.00000000000E+00 -0.00000000000E+00 -0.97893649639E+02  0.97893649639E+02  0.00000000000E+00 0.  1.
         23    2    1    2    0    0 -0.62177119106E+02 -0.65095218783E+02  0.18496520084E+03  0.22598833439E+03  0.93569333160E+02 0.  0.
         24    2    1    2    0    0  0.17756262390E+03 -0.72223716542E+02  0.31821447049E+03  0.38008631697E+03  0.80376666278E+02 0.  0.
        -13    1    4    4    0    0  0.15641393379E+03 -0.58480282217E+02  0.20655126249E+03  0.26561002641E+03  0.00000000000E+00 0.  1.
         14    1    4    4    0    0  0.21148690108E+02 -0.13743434325E+02  0.11166320799E+03  0.11447629056E+03  0.00000000000E+00 0. -1.
        -11    1    3    3    0    0 -0.35235402792E+02 -0.36106523680E+02  0.17899058860E+03  0.18596463499E+03  0.00000000000E+00 0.  1.
         11    1    3    3    0    0 -0.26941716314E+02 -0.28988695102E+02  0.59746122453E+01  0.40023699394E+02  0.00000000000E+00 0. -1.
         21    1    1    2  503  502 -0.56298704064E+02 -0.57374902461E+02  0.63853978301E+03  0.64357942633E+03  0.00000000000E+00 0.  1.
          1    1    1    2  501    0 -0.59086800728E+02  0.19469383779E+03  0.19167798515E+03  0.27953066108E+03  0.00000000000E+00 0. -1.
<scales pt_clust_5="13000.00000" pt_clust_6="13000.00000" pt_clust_7="13000.00000" pt_clust_8="13000.00000" pt_clust_9="80.38298" pt_clust_10="180.38113"></scales>
<clustering>
<clus scale="   80.377">  5  6 -1 -1</clus>
<clus scale="   80.383">  1  9  2 -1</clus>
<clus scale="   93.569">  7  8 -1 -1</clus>
<clus scale="  145.114">  1  7  2 -1</clus>
<clus scale="  180.381">  2 10  1 -1</clus>
<clus scale="  180.381">  2  5  1 -1</clus>
</clustering>
</event>
<event>
10    4  0.2857708E-005  0.1017667E+03  0.7546771E-02  0.1284117E+00
          2   -1    0    0  503    0 -0.00000000000E+00  0.00000000000E+00  0.12744341819E+03  0.12744341819E+03  0.00000000000E+00 0. -1.
         21   -1    0    0  501  502  0.00000000000E+00 -0.00000000000E+00 -0.30573327997E+03  0.30573327997E+03  0.00000000000E+00 0. -1.
         23    2    1    2    0    0 -0.15105969587E+01 -0.17307547928E+02  0.19013133881E+02  0.96191671228E+02  0.92679583702E+02 0.  0.
         24    2    1    2    0    0 -0.11379141434E+02  0.54677910357E+02 -0.10479320865E+03  0.14185143097E+03  0.77595445418E+02 0.  0.
        -13    1    4    4    0    0  0.22470093220E+02  0.55986194233E+02 -0.78314361837E+02  0.98855947236E+02  0.00000000000E+00 0.  1.
         14    1    4    4    0    0 -0.33849234654E+02 -0.13082838763E+01 -0.26478846812E+02  0.42995483738E+02  0.00000000000E+00 0. -1.
        -11    1    3    3    0    0 -0.82290816493E+01  0.37760176303E+02  0.10664846840E+02  0.40090992222E+02  0.00000000000E+00 0.  1.
         11    1    3    3    0    0  0.67184846906E+01 -0.55067724230E+02  0.83482870412E+01  0.56100679006E+02  0.00000000000E+00 0. -1.
         21    1    1    2  503  502 -0.63532974555E+01 -0.29854697100E+02  0.45937429755E+02  0.55153556368E+02  0.00000000000E+00 0. -1.
          1    1    1    2  501    0  0.19243035848E+02 -0.75156653294E+01 -0.13844721677E+03  0.13998003959E+03  0.00000000000E+00 0. -1.
<scales pt_clust_5="13000.00000" pt_clust_6="13000.00000" pt_clust_7="13000.00000" pt_clust_8="13000.00000" pt_clust_9="30.62101" pt_clust_10="20.65865"></scales>
<clustering>
<clus scale="   20.659">  2 10  1 -1</clus>
<clus scale="   30.621">  1  9  2 -1</clus>
<clus scale="   77.595">  5  6 -1 -1</clus>
<clus scale="   88.250">  2  5  1 -1</clus>
<clus scale="   92.680">  7  8 -1 -1</clus>
<clus scale="   20.659">  2  5  1 -1</clus>
</clustering>
</event>
<event>
10    4  0.2857708E-005  0.9400418E+02  0.7546771E-02  0.1300220E+00
          2   -1    0    0  503    0 -0.00000000000E+00  0.00000000000E+00  0.72264585614E+02  0.72264585614E+02  0.00000000000E+00 0. -1.
         21   -1    0    0  501  502  0.00000000000E+00 -0.00000000000E+00 -0.25148152836E+03  0.25148152836E+03  0.00000000000E+00 0. -1.
         24    2    1    2    0    0 -0.84425287974E+01 -0.28438532593E+02 -0.52235538130E+02  0.99108513423E+02  0.78828418484E+02 0.  0.
         23    2    1    2    0    0 -0.32956531677E+02  0.26738958967E+02 -0.10036439094E+03  0.14160716885E+03  0.90434917994E+02 0.  0.
        -13    1    3    3    0    0  0.32651329429E+02 -0.18384797150E+02 -0.88327521860E+01  0.38498410239E+02  0.00000000000E+00 0.  1.
         14    1    3    3    0    0 -0.41093858227E+02 -0.10053735443E+02 -0.43402785944E+02  0.60610103184E+02  0.00000000000E+00 0. -1.
        -11    1    4    4    0    0 -0.32330095861E+02  0.51837056824E+02 -0.99164245482E+02  0.11647258536E+03  0.00000000000E+00 0. -1.
         11    1    4    4    0    0 -0.62643581668E+00 -0.25098097857E+02 -0.12001454603E+01  0.25134583486E+02  0.00000000000E+00 0.  1.
         21    1    1    2  503  502 -0.58342020119E+01  0.24848243834E+02 -0.42664487552E+01  0.25878093433E+02  0.00000000000E+00 0. -1.
          1    1    1    2  501    0  0.47233262487E+02 -0.23148670208E+02 -0.22350564915E+02  0.57152338269E+02  0.00000000000E+00 0. -1.
<scales pt_clust_5="13000.00000" pt_clust_6="13000.00000" pt_clust_7="13000.00000" pt_clust_8="13000.00000" pt_clust_9="25.52397" pt_clust_10="48.34572"></scales>
<clustering>
<clus scale="   25.524">  1  9  2 -1</clus>
<clus scale="   48.346">  2 10  1 -1</clus>
<clus scale="   78.828">  5  6 -1 -1</clus>
<clus scale="   82.899">  1  5  2 -1</clus>
<clus scale="   90.435">  7  8 -1 -1</clus>
<clus scale="   48.346">  2  5  1 -1</clus>
</clustering>
</event>
<event>
10    4  0.2857708E-005  0.1712130E+03  0.7546771E-02  0.1202079E+00
         21   -1    0    0  501  502  0.00000000000E+00  0.00000000000E+00  0.20370193621E+03  0.20370193621E+03  0.00000000000E+00 0.  1.
          2   -1    0    0  503    0 -0.00000000000E+00 -0.00000000000E+00 -0.48760316128E+03  0.48760316128E+03  0.00000000000E+00 0. -1.
         24    2    1    2    0    0 -0.58007927821E+02 -0.88108132559E+01 -0.22151794244E+03  0.24230981045E+03  0.78748303460E+02 0.  0.
         23    2    1    2    0    0  0.14334782895E+03  0.56173638268E+01  0.80407802734E+02  0.18751656957E+03  0.90093808228E+02 0.  0.
        -11    1    3    3    0    0 -0.16728332230E+02  0.21827779445E+02 -0.19142304587E+02  0.33506967627E+02  0.00000000000E+00 0.  1.
         12    1    3    3    0    0 -0.41279595591E+02 -0.30638592701E+02 -0.20237563785E+03  0.20880284282E+03  0.00000000000E+00 0. -1.
        -13    1    4    4    0    0  0.44208053948E+02 -0.22644903046E+02  0.67229746207E+02  0.83588171669E+02  0.00000000000E+00 0. -1.
         13    1    4    4    0    0  0.99139774999E+02  0.28262266872E+02  0.13178056526E+02  0.10392839790E+03  0.00000000000E+00 0.  1.
         21    1    1    2  503  502 -0.99004012330E+02 -0.56883798693E+02 -0.16086657019E+03  0.19727040938E+03  0.00000000000E+00 0. -1.
          1    1    1    2  501    0  0.13664111204E+02  0.60077248122E+02  0.18075484820E+02  0.64208308094E+02  0.00000000000E+00 0. -1.
<scales pt_clust_5="13000.00000" pt_clust_6="13000.00000" pt_clust_7="13000.00000" pt_clust_8="13000.00000" pt_clust_9="145.59193" pt_clust_10="61.61155"></scales>
<clustering>
<clus scale="   61.612">  1 10  2 -1</clus>
<clus scale="   78.748">  5  6 -1 -1</clus>
<clus scale="   90.094">  7  8 -1 -1</clus>
<clus scale="   97.418">  2  5  1 -1</clus>
<clus scale="  145.592">  2  9  1 -1</clus>
<clus scale="   61.612">  1  5  2 -1</clus>
</clustering>
</event>
<event>
10    4  0.2857708E-005  0.3532901E+03  0.7546771E-02  0.1061273E+00
          2   -1    0    0  503    0 -0.00000000000E+00  0.00000000000E+00  0.13262567057E+04  0.13262567057E+04  0.00000000000E+00 0. -1.
         21   -1    0    0  501  502  0.00000000000E+00 -0.00000000000E+00 -0.88877100646E+02  0.88877100646E+02  0.00000000000E+00 0. -1.
         24    2    1    2    0    0  0.16140521961E+03 -0.25625860040E+02  0.32807080599E+03  0.37525924590E+03  0.80502908446E+02 0.  0.
         23    2    1    2    0    0  0.80395932827E+02  0.85969113674E+02  0.39124904933E+03  0.41905194442E+03  0.93137097867E+02 0.  0.
        -11    1    3    3    0    0  0.12647707248E+02 -0.21899697021E+02  0.17125612576E+02  0.30542557757E+02  0.00000000000E+00 0.  1.
         12    1    3    3    0    0  0.14875751237E+03 -0.37261630194E+01  0.31094519341E+03  0.34471668814E+03  0.00000000000E+00 0. -1.
        -11    1    4    4    0    0  0.76975402448E+02  0.15425475015E+02  0.18215941510E+03  0.19835627132E+03  0.00000000000E+00 0.  1.
         11    1    4    4    0    0  0.34205303791E+01  0.70543638659E+02  0.20908963423E+03  0.22069567310E+03  0.00000000000E+00 0. -1.
         21    1    1    2  503  502  0.34328976191E+02 -0.48503625521E+00  0.16546189891E+03  0.16898625346E+03  0.00000000000E+00 0. -1.
          1    1    1    2  501    0 -0.27613012863E+03 -0.59858217378E+02  0.35259785077E+03  0.45183636252E+03  0.00000000000E+00 0. -1.
<scales pt_clust_5="13000.00000" pt_clust_6="13000.00000" pt_clust_7="13000.00000" pt_clust_8="13000.00000" pt_clust_9="34.33240" pt_clust_10="270.94983"></scales>
<clustering>
<clus scale="   34.332">  1  9  2 -1</clus>
<clus scale="   80.503">  5  6 -1 -1</clus>
<clus scale="   93.137">  7  8 -1 -1</clus>
<clus scale="  153.301">  5  7 -1 -1</clus>
<clus scale="  270.950">  2 10  1 -1</clus>
<clus scale="  270.950">  2  5  1 -1</clus>
</clustering>
</event>
<event>
10    4  0.2857708E-005  0.1840379E+03  0.7546771E-02  0.1196114E+00
          2   -1    0    0  503    0 -0.00000000000E+00  0.00000000000E+00  0.16908712378E+03  0.16908712378E+03  0.00000000000E+00 0. -1.
         21   -1    0    0  501  502  0.00000000000E+00 -0.00000000000E+00 -0.37450107603E+03  0.37450107603E+03  0.00000000000E+00 0. -1.
         24    2    1    2    0    0 -0.33539719351E+02 -0.20236294350E+02 -0.51314738983E+02  0.10279350840E+03  0.79993015624E+02 0.  0.
         23    2    1    2    0    0 -0.84019652144E+02  0.99925615083E+02 -0.15907549462E+02  0.15838756967E+03  0.88256113667E+02 0.  0.
        -11    1    3    3    0    0  0.20760718045E+02 -0.20114580370E+02 -0.12476283698E+01  0.28933723123E+02  0.00000000000E+00 0.  1.
         12    1    3    3    0    0 -0.54300437396E+02 -0.12171398042E+00 -0.50067110613E+02  0.73859785275E+02  0.00000000000E+00 0. -1.
        -13    1    4    4    0    0 -0.68540490773E+02  0.11475005482E+03 -0.23377211484E+02  0.13569033854E+03  0.00000000000E+00 0. -1.
         13    1    4    4    0    0 -0.15479161371E+02 -0.14824439735E+02  0.74696620221E+01  0.22697231129E+02  0.00000000000E+00 0.  1.
         21    1    1    2  503  502 -0.20465079930E+02  0.36291587389E+02  0.16540104511E+02  0.44827155486E+02  0.00000000000E+00 0. -1.
          1    1    1    2  501    0  0.13802445142E+03 -0.11598090812E+03 -0.15473176832E+03  0.23757996626E+03  0.00000000000E+00 0. -1.
<scales pt_clust_5="13000.00000" pt_clust_6="13000.00000" pt_clust_7="13000.00000" pt_clust_8="13000.00000" pt_clust_9="41.66412" pt_clust_10="161.49552"></scales>
<clustering>
<clus scale="   41.664">  1  9  2 -1</clus>
<clus scale="   79.993">  5  6 -1 -1</clus>
<clus scale="   88.256">  7  8 -1 -1</clus>
<clus scale="   89.306">  1  5  2 -1</clus>
<clus scale="  161.496">  2 10  1 -1</clus>
<clus scale="  161.496">  2  5  1 -1</clus>
</clustering>
</event>
<event>
10    4  0.2857708E-005  0.9186984E+02  0.7546771E-02  0.1305051E+00
         -3   -1    0    0    0  501 -0.00000000000E+00  0.00000000000E+00  0.32593261332E+03  0.32593261332E+03  0.00000000000E+00 0.  1.
         21   -1    0    0  501  502  0.00000000000E+00 -0.00000000000E+00 -0.73737025432E+02  0.73737025432E+02  0.00000000000E+00 0.  1.
         24    2    1    2    0    0  0.22058053120E+02 -0.65001482323E+01  0.17017243799E+03  0.18971730063E+03  0.80654732483E+02 0.  0.
         23    2    1    2    0    0  0.48464671831E+02 -0.11277922928E+02  0.15402946731E+02  0.10513378089E+03  0.91322752666E+02 0.  0.
        -13    1    3    3    0    0 -0.10234635851E+01  0.35666790094E+02  0.77479689872E+02  0.85301053545E+02  0.00000000000E+00 0.  1.
         14    1    3    3    0    0  0.23081516705E+02 -0.42166938327E+02  0.92692748117E+02  0.10441624708E+03  0.00000000000E+00 0. -1.
        -11    1    4    4    0    0 -0.14614783673E+02 -0.26612367266E+02 -0.14517613992E+02  0.33653693844E+02  0.00000000000E+00 0.  1.
         11    1    4    4    0    0  0.63079455504E+02  0.15334444338E+02  0.29920560723E+02  0.71480087044E+02  0.00000000000E+00 0. -1.
         21    1    1    2  503  502 -0.45982743837E+02 -0.18014899048E+00  0.22392703064E+02  0.51145658026E+02  0.00000000000E+00 0.  1.
         -4    1    1    2    0  503 -0.24539981115E+02  0.17958220151E+02  0.44227500104E+02  0.53672899209E+02  0.00000000000E+00 0.  1.
<scales pt_clust_5="13000.00000" pt_clust_6="13000.00000" pt_clust_7="13000.00000" pt_clust_8="13000.00000" pt_clust_9="28.85647" pt_clust_10="80.92395"></scales>
<clustering>
<clus scale="   28.856">  9 10 -1 -1</clus>
<clus scale="   80.655">  5  6 -1 -1</clus>
<clus scale="   80.924">  2  9  1 -1</clus>
<clus scale="   81.274">  1  5  2 -1</clus>
<clus scale="   91.323">  7  8 -1 -1</clus>
<clus scale="   80.924">  2  5  1 -1</clus>
</clustering>
</event>
<event>
10    4  0.2857708E-005  0.1455156E+03  0.7546771E-02  0.1206984E+00
          4   -1    0    0  503    0 -0.00000000000E+00  0.00000000000E+00  0.14918675470E+03  0.14918675470E+03  0.00000000000E+00 0. -1.
         21   -1    0    0  501  502  0.00000000000E+00 -0.00000000000E+00 -0.35947826884E+03  0.35947826884E+03  0.00000000000E+00 0. -1.
         24    2    1    2    0    0 -0.11345211745E+03 -0.71136448416E+02  0.21739497192E+02  0.15940003968E+03  0.83689842064E+02 0.  0.
         23    2    1    2    0    0  0.73004824752E+02  0.73869661337E+02 -0.24314087266E+03  0.27875032495E+03  0.88305313535E+02 0.  0.
        -11    1    3    3    0    0 -0.34458539540E+02 -0.17721342651E+02 -0.31722818530E+02  0.50077681137E+02  0.00000000000E+00 0.  1.
         12    1    3    3    0    0 -0.78993577908E+02 -0.53415105766E+02  0.53462315723E+02  0.10932235854E+03  0.00000000000E+00 0. -1.
        -11    1    4    4    0    0  0.47573135423E+02  0.21031822178E+02 -0.35465975785E+02  0.62955350817E+02  0.00000000000E+00 0.  1.
         11    1    4    4    0    0  0.25431689330E+02  0.52837839159E+02 -0.20767489687E+03  0.21579497413E+03  0.00000000000E+00 0. -1.
         21    1    1    2  503  502  0.14618221516E+02  0.15021968053E+02  0.27948150717E+02  0.34934954601E+02  0.00000000000E+00 0.  1.
          3    1    1    2  501    0  0.25829071180E+02 -0.17755180974E+02 -0.16838289399E+02  0.35579704317E+02  0.00000000000E+00 0. -1.
<scales pt_clust_5="13000.00000" pt_clust_6="13000.00000" pt_clust_7="13000.00000" pt_clust_8="13000.00000" pt_clust_9="20.96072" pt_clust_10="31.66727"></scales>
<clustering>
<clus scale="   20.961">  1  9  2 -1</clus>
<clus scale="   31.667">  2 10  1 -1</clus>
<clus scale="   83.690">  5  6 -1 -1</clus>
<clus scale="   88.305">  7  8 -1 -1</clus>
<clus scale="  142.762">  1  5  2 -1</clus>
<clus scale="   31.667">  2  5  1 -1</clus>
</clustering>
</event>
<event>
10    4  0.2857708E-005  0.1204369E+03  0.7546771E-02  0.1245383E+00
          4   -1    0    0  503    0 -0.00000000000E+00  0.00000000000E+00  0.73758420172E+03  0.73758420172E+03  0.00000000000E+00 0. -1.
         21   -1    0    0  501  502  0.00000000000E+00 -0.00000000000E+00 -0.81702747177E+02  0.81702747177E+02  0.00000000000E+00 0.  1.
         24    2    1    2    0    0  0.22660261731E+02 -0.14643548182E+03  0.38778578665E+03  0.42294252183E+03  0.80905640384E+02 0.  0.
         23    2    1    2    0    0 -0.59044424558E+02  0.23503822685E+02  0.23186630182E+02  0.11304305588E+03  0.90567317013E+02 0.  0.
        -11    1    3    3    0    0  0.28750231491E+02 -0.14008452934E+03  0.38862750759E+03  0.41410335766E+03  0.00000000000E+00 0.  1.
         12    1    3    3    0    0 -0.60899697592E+01 -0.63509524808E+01 -0.84172093791E+00  0.88391641697E+01  0.00000000000E+00 0. -1.
        -11    1    4    4    0    0 -0.48933545155E+02  0.59651995259E+01  0.55925749591E+02  0.74550418605E+02  0.00000000000E+00 0.  1.
         11    1    4    4    0    0 -0.10110879402E+02  0.17538623159E+02 -0.32739119409E+02  0.38492637274E+02  0.00000000000E+00 0. -1.
         21    1    1    2  503  502  0.20884398088E+02  0.95674764181E+02  0.12192261686E+03  0.15638076316E+03  0.00000000000E+00 0. -1.
          3    1    1    2  501    0  0.15499764739E+02  0.27256894951E+02  0.12298642085E+03  0.12692060803E+03  0.00000000000E+00 0. -1.
<scales pt_clust_5="13000.00000" pt_clust_6="13000.00000" pt_clust_7="13000.00000" pt_clust_8="13000.00000" pt_clust_9="104.41544" pt_clust_10="31.35573"></scales>
<clustering>
<clus scale="   31.356">  2 10  1 -1</clus>
<clus scale="   80.906">  5  6 -1 -1</clus>
<clus scale="   90.567">  7  8 -1 -1</clus>
<clus scale="  104.415">  1  9  2 -1</clus>
<clus scale="  113.350">  1  5  2 -1</clus>
<clus scale="   31.356">  2  5  1 -1</clus>
</clustering>
</event>
<event>
10    4  0.2857708E-005  0.9732564E+02  0.7546771E-02  0.1298866E+00
          2   -1    0    0  503    0 -0.00000000000E+00  0.00000000000E+00  0.51092012193E+03  0.51092012193E+03  0.00000000000E+00 0. -1.
         21   -1    0    0  501  502  0.00000000000E+00 -0.00000000000E+00 -0.20769157667E+03  0.20769157667E+03  0.00000000000E+00 0.  1.
         24    2    1    2    0    0  0.11014093880E+02 -0.28158874939E+02  0.37855357542E+03  0.38695823465E+03  0.74294235328E+02 0.  0.
         23    2    1    2    0    0 -0.20052417034E+02  0.13315106271E+02 -0.16811473432E+03  0.19485470797E+03  0.95532203158E+02 0.  0.
        -11    1    3    3    0    0  0.36212617318E+02  0.66623125401E+01  0.19425867501E+03  0.19771740662E+03  0.00000000000E+00 0.  1.
         12    1    3    3    0    0 -0.25198523438E+02 -0.34821187479E+02  0.18429490040E+03  0.18924082803E+03  0.00000000000E+00 0. -1.
        -11    1    4    4    0    0 -0.22946808272E+02  0.50332753587E+02 -0.13171052494E+03  0.14285518707E+03  0.00000000000E+00 0.  1.
         11    1    4    4    0    0  0.28943912383E+01 -0.37017647315E+02 -0.36404209377E+02  0.51999520899E+02  0.00000000000E+00 0. -1.
         21    1    1    2  503  502 -0.19089397442E+02  0.11155468690E+02  0.10397868709E+03  0.10630341926E+03  0.00000000000E+00 0. -1.
          1    1    1    2  501    0  0.28127720595E+02  0.36882999774E+01 -0.11188982937E+02  0.30495336722E+02  0.00000000000E+00 0. -1.
<scales pt_clust_5="13000.00000" pt_clust_6="13000.00000" pt_clust_7="13000.00000" pt_clust_8="13000.00000" pt_clust_9="22.10994" pt_clust_10="27.95460"></scales>
<clustering>
<clus scale="   22.110">  1  9  2 -1</clus>
<clus scale="   27.955">  2 10  1 -1</clus>
<clus scale="   74.294">  5  6 -1 -1</clus>
<clus scale="   76.587">  1  5  2 -1</clus>
<clus scale="   95.532">  7  8 -1 -1</clus>
<clus scale="   27.955">  2  5  1 -1</clus>
</clustering>
</event>
<event>
10    4  0.3051212E-005  0.4880475E+03  0.7546771E-02  0.1077092E+00
         21   -1    0    0  501  502  0.00000000000E+00  0.00000000000E+00  0.26339161906E+03  0.26339161906E+03  0.00000000000E+00 0. -1.
          2   -1    0    0  503    0 -0.00000000000E+00 -0.00000000000E+00 -0.12783144168E+04  0.12783144168E+04  0.00000000000E+00 0. -1.
         24    2    1    2    0    0 -0.28841788565E+02  0.16892578926E+02 -0.13925894674E+02  0.88100045011E+02  0.80314876567E+02 0.  0.
         23    2    1    2    0    0 -0.50205067552E+02 -0.47874628125E+03 -0.23813410763E+03  0.54913026041E+03  0.11453226211E+03 0.  0.
        -11    1    3    3    0    0 -0.57040996695E+02  0.97172123581E+01 -0.10390273799E+02  0.58788241253E+02  0.00000000000E+00 0.  1.
         12    1    3    3    0    0  0.28199208130E+02  0.71753665683E+01 -0.35356208748E+01  0.29311803758E+02  0.00000000000E+00 0. -1.
        -11    1    4    4    0    0 -0.43553768639E+02 -0.42150352145E+03 -0.16203025282E+03  0.45366943052E+03  0.00000000000E+00 0. -1.
         11    1    4    4    0    0 -0.66512989137E+01 -0.57242759795E+02 -0.76103854809E+02  0.95460829888E+02  0.00000000000E+00 0.  1.
         21    1    1    2  503  502  0.21113396110E+02  0.46191961724E+01 -0.61918073059E+02  0.65581706595E+02  0.00000000000E+00 0.  1.
          1    1    1    2  501    0  0.57933460007E+02  0.45723450615E+03 -0.70094472236E+03  0.83889402382E+03  0.00000000000E+00 0. -1.
<scales pt_clust_5="13000.00000" pt_clust_6="13000.00000" pt_clust_7="13000.00000" pt_clust_8="13000.00000" pt_clust_9="21.61278" pt_clust_10="474.41855"></scales>
<clustering>
<clus scale="   21.613">  2  9  1 -1</clus>
<clus scale="   80.315">  5  6 -1 -1</clus>
<clus scale="   86.741">  2  5  1 -1</clus>
<clus scale="  114.532">  7  8 -1 -1</clus>
<clus scale="  474.419">  1 10  2 -1</clus>
<clus scale="  474.419">  1  5  2 -1</clus>
</clustering>
</event>
<event>
10    4  0.2857708E-005  0.1306434E+03  0.7546771E-02  0.1243775E+00
         -1   -1    0    0    0  501 -0.00000000000E+00  0.00000000000E+00  0.11354523910E+03  0.11354523910E+03  0.00000000000E+00 0.  1.
         21   -1    0    0  501  502  0.00000000000E+00 -0.00000000000E+00 -0.37214640215E+03  0.37214640215E+03  0.00000000000E+00 0. -1.
         24    2    1    2    0    0 -0.30929526067E+02 -0.32197411009E+02 -0.22575890233E+03  0.24368388489E+03  0.80133918628E+02 0.  0.
         23    2    1    2    0    0 -0.75140122755E+02 -0.13196734787E+02 -0.19822328355E+02  0.11989183202E+03  0.90337892527E+02 0.  0.
        -11    1    3    3    0    0  0.29743932455E+01 -0.26987249417E+02 -0.16799483814E+02  0.31927751294E+02  0.00000000000E+00 0.  1.
         12    1    3    3    0    0 -0.33903919313E+02 -0.52101615922E+01 -0.20895941851E+03  0.21175613359E+03  0.00000000000E+00 0. -1.
        -11    1    4    4    0    0 -0.86799213240E+01  0.27547007004E+02 -0.29563808252E+02  0.41330344633E+02  0.00000000000E+00 0.  1.
         11    1    4    4    0    0 -0.66460201431E+02 -0.40743741791E+02  0.97414798974E+01  0.78561487384E+02  0.00000000000E+00 0. -1.
         21    1    1    2  503  502  0.21373194740E+02  0.25824458716E+02 -0.10587055213E+02  0.35153973594E+02  0.00000000000E+00 0. -1.
         -2    1    1    2    0  503  0.84696454081E+02  0.19569687079E+02 -0.24328771560E+01  0.86961950746E+02  0.00000000000E+00 0.  1.
<scales pt_clust_5="13000.00000" pt_clust_6="13000.00000" pt_clust_7="13000.00000" pt_clust_8="13000.00000" pt_clust_9="23.49428" pt_clust_10="101.67668"></scales>
<clustering>
<clus scale="   23.494">  9 10 -1 -1</clus>
<clus scale="   80.134">  5  6 -1 -1</clus>
<clus scale="   90.338">  7  8 -1 -1</clus>
<clus scale="   91.732">  1  5  2 -1</clus>
<clus scale="  101.677">  2  9  1 -1</clus>
<clus scale="  101.677">  2  5  1 -1</clus>
</clustering>
</event>
<event>
10    4  0.2857708E-005  0.1310831E+03  0.7546771E-02  0.1246461E+00
          2   -1    0    0  503    0 -0.00000000000E+00  0.00000000000E+00  0.15092314934E+03  0.15092314934E+03  0.00000000000E+00 0. -1.
         21   -1    0    0  501  502  0.00000000000E+00 -0.00000000000E+00 -0.90082186558E+03  0.90082186558E+03  0.00000000000E+00 0. -1.
         24    2    1    2    0    0  0.23834900794E+02 -0.28556869571E+02  0.54481008060E+02  0.10245155348E+03  0.78387137179E+02 0.  0.
         23    2    1    2    0    0  0.11514372194E+02  0.91861923584E+02 -0.69879342175E+02  0.14776222338E+03  0.91538835604E+02 0.  0.
        -13    1    3    3    0    0 -0.45517811793E-01 -0.39426132041E+02 -0.27202098799E+01  0.39519887416E+02  0.00000000000E+00 0.  1.
         14    1    3    3    0    0  0.23880418606E+02  0.10869262470E+02  0.57201217940E+02  0.62931666061E+02  0.00000000000E+00 0. -1.
        -13    1    4    4    0    0 -0.50334120687E+01  0.10415878287E+03 -0.72461689718E+02  0.12698458080E+03  0.00000000000E+00 0. -1.
         13    1    4    4    0    0  0.16547784263E+02 -0.12296859281E+02  0.25823475436E+01  0.20777642576E+02  0.00000000000E+00 0.  1.
         21    1    1    2  503  502  0.11621974565E+02  0.18603592407E+02  0.26667153150E+02  0.34529711849E+02  0.00000000000E+00 0. -1.
          1    1    1    2  501    0 -0.46971247553E+02 -0.81908646420E+02 -0.76116753527E+03  0.76700152621E+03  0.00000000000E+00 0. -1.
<scales pt_clust_5="13000.00000" pt_clust_6="13000.00000" pt_clust_7="13000.00000" pt_clust_8="13000.00000" pt_clust_9="21.93545" pt_clust_10="93.82652"></scales>
<clustering>
<clus scale="   21.935">  1  9  2 -1</clus>
<clus scale="   78.387">  5  6 -1 -1</clus>
<clus scale="   86.030">  1  5  2 -1</clus>
<clus scale="   91.539">  7  8 -1 -1</clus>
<clus scale="   93.827">  2 10  1 -1</clus>
<clus scale="   93.827">  2  5  1 -1</clus>
</clustering>
</event>
<event>
10    4  0.2857708E-005  0.1231673E+03  0.7546771E-02  0.1260704E+00
          4   -1    0    0  503    0 -0.00000000000E+00  0.00000000000E+00  0.56438071133E+03  0.56438071133E+03  0.00000000000E+00 0. -1.
         21   -1    0    0  501  502  0.00000000000E+00 -0.00000000000E+00 -0.12294836914E+03  0.12294836914E+03  0.00000000000E+00 0. -1.
         24    2    1    2    0    0  0.96795123768E+01  0.49950376160E+01 -0.81062080292E+02  0.11129989871E+03  0.75484854317E+02 0.  0.
         23    2    1    2    0    0 -0.32201086848E+02  0.62995789291E+02  0.30526547002E+03  0.32599408855E+03  0.89887480332E+02 0.  0.
        -13    1    3    3    0    0  0.32015630435E+02  0.26896120877E+02 -0.30168006393E+02  0.51560745922E+02  0.00000000000E+00 0.  1.
         14    1    3    3    0    0 -0.22336118058E+02 -0.21901083261E+02 -0.50894073899E+02  0.59739152789E+02  0.00000000000E+00 0. -1.
        -11    1    4    4    0    0  0.27308997702E+02  0.42337268490E+02  0.15749246405E+03  0.16535447345E+03  0.00000000000E+00 0.  1.
         11    1    4    4    0    0 -0.59510084550E+02  0.20658520801E+02  0.14777300598E+03  0.16063961510E+03  0.00000000000E+00 0. -1.
         21    1    1    2  503  502 -0.13117335019E+02  0.18483753499E+02  0.14873332456E+02  0.27109585754E+02  0.00000000000E+00 0. -1.
          3    1    1    2  501    0  0.35638909491E+02 -0.86474580406E+02  0.20235562000E+03  0.22292550745E+03  0.00000000000E+00 0. -1.
<scales pt_clust_5="13000.00000" pt_clust_6="13000.00000" pt_clust_7="13000.00000" pt_clust_8="13000.00000" pt_clust_9="22.66525" pt_clust_10="84.20473"></scales>
<clustering>
<clus scale="   22.665">  2  9  1 -1</clus>
<clus scale="   75.485">  5  6 -1 -1</clus>
<clus scale="   78.152">  1  5  2 -1</clus>
<clus scale="   84.205">  2 10  1 -1</clus>
<clus scale="   89.887">  7  8 -1 -1</clus>
<clus scale="   22.665">  2  5  1 -1</clus>
</clustering>
</event>
<event>
10    4  0.2857708E-005  0.2023562E+03  0.7546771E-02  0.1148643E+00
         21   -1    0    0  501  502  0.00000000000E+00  0.00000000000E+00  0.24337410426E+03  0.24337410426E+03  0.00000000000E+00 0.  1.
          2   -1    0    0  503    0 -0.00000000000E+00 -0.00000000000E+00 -0.58268066757E+03  0.58268066757E+03  0.00000000000E+00 0. -1.
         23    2    1    2    0    0 -0.13016530301E+01  0.14600127334E+03 -0.25367079878E+03  0.30633013650E+03  0.90394757915E+02 0.  0.
         24    2    1    2    0    0  0.13230255350E+02 -0.22880197567E+03  0.41757133967E+02  0.24651212511E+03  0.80617528248E+02 0.  0.
        -11    1    4    4    0    0 -0.15613314082E+02 -0.12189152663E+03  0.55668906719E+02  0.13490866175E+03  0.00000000000E+00 0.  1.
         12    1    4    4    0    0  0.28843569433E+02 -0.10691044904E+03 -0.13911772752E+02  0.11160346336E+03  0.00000000000E+00 0. -1.
        -11    1    3    3    0    0 -0.29746294428E+02  0.13132532764E+03 -0.23001483549E+03  0.26652956358E+03  0.00000000000E+00 0. -1.
         11    1    3    3    0    0  0.28444641398E+02  0.14675945698E+02 -0.23655963289E+02  0.39800572929E+02  0.00000000000E+00 0.  1.
         21    1    1    2  503  502 -0.14115591924E+01  0.34703438147E+02 -0.19023572880E+03  0.19338033413E+03  0.00000000000E+00 0. -1.
          1    1    1    2  501    0 -0.10517043128E+02  0.48097264187E+02  0.62842830306E+02  0.79832176090E+02  0.00000000000E+00 0. -1.
<scales pt_clust_5="13000.00000" pt_clust_6="13000.00000" pt_clust_7="13000.00000" pt_clust_8="13000.00000" pt_clust_9="34.73213" pt_clust_10="49.97719"></scales>
<clustering>
<clus scale="   34.732">  2  9  1 -1</clus>
<clus scale="   49.977">  1 10  2 -1</clus>
<clus scale="   80.618">  5  6 -1 -1</clus>
<clus scale="   90.395">  7  8 -1 -1</clus>
<clus scale="  198.182">  1  5  2 -1</clus>
<clus scale="   49.977">  1  5  2 -1</clus>
</clustering>
</event>
<event>
10    4  0.2857708E-005  0.4415921E+03  0.7546771E-02  0.1075295E+00
          2   -1    0    0  502    0 -0.00000000000E+00  0.00000000000E+00  0.23268319353E+04  0.23268319353E+04  0.00000000000E+00 0. -1.
         21   -1    0    0  503  502  0.00000000000E+00 -0.00000000000E+00 -0.12841062113E+03  0.12841062113E+03  0.00000000000E+00 0. -1.
         24    2    1    2    0    0  0.22921166204E+02  0.87966932576E+02  0.52522055338E+03  0.53941868693E+03  0.82778795798E+02 0.  0.
         23    2    1    2    0    0 -0.23726639042E+03 -0.42473982422E+03  0.11272875538E+04  0.12314445449E+04  0.94758534543E+02 0.  0.
        -11    1    3    3    0    0  0.43561542973E+02  0.16640908913E+02  0.25253956067E+03  0.25680879576E+03  0.00000000000E+00 0.  1.
         12    1    3    3    0    0 -0.20640376769E+02  0.71326023662E+02  0.27268099270E+03  0.28260989117E+03  0.00000000000E+00 0. -1.
        -13    1    4    4    0    0 -0.23547544839E+02 -0.70233130962E+02  0.10473372094E+03  0.12828223514E+03  0.00000000000E+00 0.  1.
         13    1    4    4    0    0 -0.21371884558E+03 -0.35450669326E+03  0.10225538329E+04  0.11031623098E+04  0.00000000000E+00 0. -1.
         21    1    1    2  503  501  0.44797525383E+02  0.23601993677E+02  0.11289678600E+03  0.12373179331E+03  0.00000000000E+00 0. -1.
          1    1    1    2  501    0  0.16954769883E+03  0.31317089797E+03  0.43301642100E+03  0.56064753131E+03  0.00000000000E+00 0. -1.
<scales pt_clust_5="13000.00000" pt_clust_6="13000.00000" pt_clust_7="13000.00000" pt_clust_8="13000.00000" pt_clust_9="39.53688" pt_clust_10="39.53688"></scales>
<clustering>
<clus scale="   39.537">  9 10 -1 -1</clus>
<clus scale="   82.779">  5  6 -1 -1</clus>
<clus scale="   94.759">  7  8 -1 -1</clus>
<clus scale="  122.947">  1  5  2 -1</clus>
<clus scale="  439.305">  1  7  2 -1</clus>
<clus scale="  441.592">  2  5  1 -1</clus>
</clustering>
</event>
<event>
10    4  0.2857708E-005  0.1278035E+03  0.7546771E-02  0.1245577E+00
          2   -1    0    0  503    0 -0.00000000000E+00  0.00000000000E+00  0.47215415541E+03  0.47215415541E+03  0.00000000000E+00 0. -1.
         21   -1    0    0  501  502  0.00000000000E+00 -0.00000000000E+00 -0.24905984238E+03  0.24905984238E+03  0.00000000000E+00 0. -1.
         23    2    1    2    0    0 -0.11805113030E+02 -0.76992412772E+02  0.31414404619E+03  0.33749365112E+03  0.95646696101E+02 0.  0.
         24    2    1    2    0    0 -0.96226702790E+01 -0.90118459090E+02 -0.14494087940E+02  0.11933015675E+03  0.76260574829E+02 0.  0.
        -11    1    4    4    0    0  0.28116854985E+02 -0.16292936863E+02 -0.16390567705E+02  0.36395989278E+02  0.00000000000E+00 0.  1.
         12    1    4    4    0    0 -0.37739525264E+02 -0.73825522227E+02  0.18964797642E+01  0.82934167475E+02  0.00000000000E+00 0. -1.
        -11    1    3    3    0    0  0.46502196371E+01 -0.25942657018E+02  0.92721265092E+01  0.27939547703E+02  0.00000000000E+00 0.  1.
         11    1    3    3    0    0 -0.16455332667E+02 -0.51049755753E+02  0.30487191968E+03  0.30955410342E+03  0.00000000000E+00 0. -1.
         21    1    1    2  503  502 -0.14622954904E+02  0.10705000203E+03  0.50530906024E+02  0.11927659539E+03  0.00000000000E+00 0. -1.
          1    1    1    2  501    0  0.36050738213E+02  0.60060869834E+02 -0.12708655124E+03  0.14511359453E+03  0.00000000000E+00 0. -1.
<scales pt_clust_5="13000.00000" pt_clust_6="13000.00000" pt_clust_7="13000.00000" pt_clust_8="13000.00000" pt_clust_9="84.76697" pt_clust_10="70.04972"></scales>
<clustering>
<clus scale="   70.050">  2 10  1 -1</clus>
<clus scale="   76.261">  5  6 -1 -1</clus>
<clus scale="   94.488">  2  5  1 -1</clus>
<clus scale="   84.767">  2  9  1 -1</clus>
<clus scale="   95.647">  7  8 -1 -1</clus>
<clus scale="   70.050">  2  5  1 -1</clus>
</clustering>
</event>
<event>
10    4  0.2857708E-005  0.2756274E+03  0.7546771E-02  0.1135982E+00
          2   -1    0    0  503    0 -0.00000000000E+00  0.00000000000E+00  0.14684006711E+04  0.14684006711E+04  0.00000000000E+00 0. -1.
         21   -1    0    0  501  502  0.00000000000E+00 -0.00000000000E+00 -0.12465915270E+03  0.12465915270E+03  0.00000000000E+00 0.  1.
         24    2    1    2    0    0  0.32349393998E+02 -0.56056464796E+02  0.14310853631E+03  0.17552466999E+03  0.78358446087E+02 0.  0.
         23    2    1    2    0    0  0.41991773492E+02  0.27511754478E+03  0.14051273741E+03  0.32461679020E+03  0.90439253747E+02 0.  0.
        -13    1    3    3    0    0 -0.49387681898E+01 -0.56653792885E+02  0.51918718103E+02  0.77003876324E+02  0.00000000000E+00 0.  1.
         14    1    3    3    0    0  0.37288162188E+02  0.59732808904E+00  0.91189818205E+02  0.98520793665E+02  0.00000000000E+00 0. -1.
        -11    1    4    4    0    0  0.56230045906E+02  0.24012810451E+03  0.92213537240E+02  0.26329956530E+03  0.00000000000E+00 0.  1.
         11    1    4    4    0    0 -0.14238272415E+02  0.34989440265E+02  0.48299200172E+02  0.61317224894E+02  0.00000000000E+00 0. -1.
         21    1    1    2  503  502  0.37047445556E+02 -0.43749527637E+02  0.19816513680E+03  0.20629094947E+03  0.00000000000E+00 0.  1.
          1    1    1    2  501    0 -0.11138861305E+03 -0.17531155234E+03  0.86195510786E+03  0.88662741412E+03  0.00000000000E+00 0. -1.
<scales pt_clust_5="13000.00000" pt_clust_6="13000.00000" pt_clust_7="13000.00000" pt_clust_8="13000.00000" pt_clust_9="57.32830" pt_clust_10="260.36757"></scales>
<clustering>
<clus scale="   57.328">  1  9  2 -1</clus>
<clus scale="   78.358">  5  6 -1 -1</clus>
<clus scale="   90.439">  7  8 -1 -1</clus>
<clus scale="  106.300">  1  5  2 -1</clus>
<clus scale="  260.368">  2 10  1 -1</clus>
<clus scale="  260.368">  2  5  1 -1</clus>
</clustering>
</event>
<event>
10    4  0.2857708E-005  0.1125606E+03  0.7546771E-02  0.1258418E+00
         21   -1    0    0  501  502  0.00000000000E+00  0.00000000000E+00  0.15103003379E+03  0.15103003379E+03  0.00000000000E+00 0.  1.
          2   -1    0    0  503    0 -0.00000000000E+00 -0.00000000000E+00 -0.19153335379E+03  0.19153335379E+03  0.00000000000E+00 0. -1.
         24    2    1    2    0    0 -0.50037518762E+02 -0.66432421375E+02 -0.85306817745E+02  0.14307803630E+03  0.79227845013E+02 0.  0.
         23    2    1    2    0    0  0.18162986685E+02  0.39505266629E+02  0.82681307789E+02  0.12729129424E+03  0.86465685422E+02 0.  0.
        -11    1    3    3    0    0 -0.22927395426E+02 -0.10979061312E+02  0.11790551650E+02  0.28021819293E+02  0.00000000000E+00 0.  1.
         12    1    3    3    0    0 -0.27110123336E+02 -0.55453360063E+02 -0.97097369394E+02  0.11505621701E+03  0.00000000000E+00 0. -1.
        -13    1    4    4    0    0  0.37381289091E+02 -0.16178926658E+01  0.71257493361E+02  0.80483592805E+02  0.00000000000E+00 0.  1.
         13    1    4    4    0    0 -0.19218302406E+02  0.41123159295E+02  0.11423814428E+02  0.46807701437E+02  0.00000000000E+00 0. -1.
         21    1    1    2  503  502  0.21360608000E+02 -0.91753495825E+01 -0.96297438745E+01  0.25163357907E+02  0.00000000000E+00 0. -1.
          1    1    1    2  501    0  0.10513924078E+02  0.36102504329E+02 -0.28248066173E+02  0.47030699132E+02  0.00000000000E+00 0. -1.
<scales pt_clust_5="13000.00000" pt_clust_6="13000.00000" pt_clust_7="13000.00000" pt_clust_8="13000.00000" pt_clust_9="23.24785" pt_clust_10="37.32389"></scales>
<clustering>
<clus scale="   23.248">  2  9  1 -1</clus>
<clus scale="   37.324">  1 10  2 -1</clus>
<clus scale="   79.228">  5  6 -1 -1</clus>
<clus scale="   86.466">  7  8 -1 -1</clus>
<clus scale="  107.101">  2  5  1 -1</clus>
<clus scale="   37.324">  1  5  2 -1</clus>
</clustering>
</event>
<event>
10    4  0.2857708E-005  0.4411354E+03  0.7546771E-02  0.1078548E+00
         21   -1    0    0  501  502  0.00000000000E+00  0.00000000000E+00  0.24374574050E+03  0.24374574050E+03  0.00000000000E+00 0.  1.
          2   -1    0    0  503    0 -0.00000000000E+00 -0.00000000000E+00 -0.16049819818E+04  0.16049819818E+04  0.00000000000E+00 0. -1.
         23    2    1    2    0    0 -0.59052479699E+02  0.27215737398E+02 -0.26196807030E+03  0.28527065818E+03  0.92326522956E+02 0.  0.
         24    2    1    2    0    0 -0.48055868497E+02 -0.44237430515E+03 -0.19594372812E+03  0.49287323241E+03  0.80781719971E+02 0.  0.
        -13    1    4    4    0    0 -0.46647923695E+02 -0.20313587049E+03 -0.56444795726E+02  0.21593106685E+03  0.00000000000E+00 0.  1.
         14    1    4    4    0    0 -0.14079448025E+01 -0.23923843466E+03 -0.13949893240E+03  0.27694216556E+03  0.00000000000E+00 0. -1.
        -13    1    3    3    0    0 -0.32590626776E+02  0.54029572764E+02 -0.94580469085E+02  0.11369612491E+03  0.00000000000E+00 0. -1.
         13    1    3    3    0    0 -0.26461852923E+02 -0.26813835366E+02 -0.16738760122E+03  0.17157453327E+03  0.00000000000E+00 0.  1.
         21    1    1    2  503  502 -0.12746356850E+03  0.43205919418E+02 -0.19820670835E+03  0.23958216128E+03  0.00000000000E+00 0. -1.
          1    1    1    2  501    0  0.23457191669E+03  0.37195264833E+03 -0.70511773448E+03  0.83100167039E+03  0.00000000000E+00 0. -1.
<scales pt_clust_5="13000.00000" pt_clust_6="13000.00000" pt_clust_7="13000.00000" pt_clust_8="13000.00000" pt_clust_9="145.22315" pt_clust_10="433.67603"></scales>
<clustering>
<clus scale="   80.782">  5  6 -1 -1</clus>
<clus scale="   92.327">  7  8 -1 -1</clus>
<clus scale="  112.925">  2  7  1 -1</clus>
<clus scale="  145.223">  2  9  1 -1</clus>
<clus scale="  433.676">  1 10  2 -1</clus>
<clus scale="  433.676">  1  5  2 -1</clus>
</clustering>
</event>
<event>
10    4  0.2857708E-005  0.9745458E+02  0.7546771E-02  0.1292061E+00
         21   -1    0    0  501  502  0.00000000000E+00  0.00000000000E+00  0.11922482935E+04  0.11922482935E+04  0.00000000000E+00 0.  1.
          4   -1    0    0  503    0 -0.00000000000E+00 -0.00000000000E+00 -0.21931837501E+02  0.21931837501E+02  0.00000000000E+00 0. -1.
         23    2    1    2    0    0  0.35054935161E+02 -0.10697368989E+01  0.23713611757E+03  0.24883108976E+03  0.66733650869E+02 0.  0.
         24    2    1    2    0    0 -0.43676000316E+02  0.92800446495E+02  0.37952557676E+03  0.40127001385E+03  0.80364449402E+02 0.  0.
        -11    1    4    4    0    0 -0.24573627776E+00  0.85740666344E+02  0.26786510445E+03  0.28125297587E+03  0.00000000000E+00 0.  1.
         12    1    4    4    0    0 -0.43430264038E+02  0.70597801511E+01  0.11166047230E+03  0.12001703798E+03  0.00000000000E+00 0. -1.
        -13    1    3    3    0    0  0.21147328538E+02 -0.30432768481E+02  0.17311917410E+03  0.17704127017E+03  0.00000000000E+00 0.  1.
         13    1    3    3    0    0  0.13907606624E+02  0.29363031582E+02  0.64016943473E+02  0.71789819594E+02  0.00000000000E+00 0. -1.
         21    1    1    2  503  502 -0.10097401664E+02 -0.39199798765E+02  0.11546583101E+03  0.12235579216E+03  0.00000000000E+00 0. -1.
          3    1    1    2  501    0  0.18718466818E+02 -0.52530910831E+02  0.43818893062E+03  0.44172323520E+03  0.00000000000E+00 0. -1.
<scales pt_clust_5="13000.00000" pt_clust_6="13000.00000" pt_clust_7="13000.00000" pt_clust_8="13000.00000" pt_clust_9="40.47940" pt_clust_10="59.01180"></scales>
<clustering>
<clus scale="   40.479">  2  9  1 -1</clus>
<clus scale="   59.012">  1 10  2 -1</clus>
<clus scale="   66.734">  7  8 -1 -1</clus>
<clus scale="   80.364">  5  6 -1 -1</clus>
<clus scale="   86.558">  2  7  1 -1</clus>
<clus scale="   59.012">  1  5  2 -1</clus>
</clustering>
</event>
<event>
10    4  0.2857708E-005  0.9118883E+02  0.7546771E-02  0.1307883E+00
          2   -1    0    0  503    0 -0.00000000000E+00  0.00000000000E+00  0.63202376469E+03  0.63202376469E+03  0.00000000000E+00 0. -1.
         21   -1    0    0  501  502  0.00000000000E+00 -0.00000000000E+00 -0.10914906004E+03  0.10914906004E+03  0.00000000000E+00 0. -1.
         24    2    1    2    0    0  0.11731024932E+02  0.47540113413E+01  0.41065157283E+03  0.41814842308E+03  0.77802132868E+02 0.  0.
         23    2    1    2    0    0  0.18096935782E+02 -0.45514206453E+02  0.11437946393E+03  0.15369277090E+03  0.90220640574E+02 0.  0.
        -11    1    3    3    0    0  0.38016401824E+02  0.12260938853E+02  0.12583060714E+03  0.13201863173E+03  0.00000000000E+00 0.  1.
         12    1    3    3    0    0 -0.26285376892E+02 -0.75069275116E+01  0.28482096569E+03  0.28612979135E+03  0.00000000000E+00 0. -1.
        -11    1    4    4    0    0  0.47747001906E+02 -0.36564278934E+02  0.37660235022E+02  0.70957846549E+02  0.00000000000E+00 0. -1.
         11    1    4    4    0    0 -0.29650066125E+02 -0.89499275195E+01  0.76719228908E+02  0.82734924355E+02  0.00000000000E+00 0.  1.
         21    1    1    2  503  502 -0.31328323625E+02  0.20094670020E+02  0.78061864245E+02  0.86480716196E+02  0.00000000000E+00 0.  1.
          1    1    1    2  501    0  0.15003629113E+01  0.20665525092E+02 -0.80218196355E+02  0.82850914555E+02  0.00000000000E+00 0. -1.
<scales pt_clust_5="13000.00000" pt_clust_6="13000.00000" pt_clust_7="13000.00000" pt_clust_8="13000.00000" pt_clust_9="38.82664" pt_clust_10="20.71992"></scales>
<clustering>
<clus scale="   20.720">  2 10  1 -1</clus>
<clus scale="   38.827">  2  9  1 -1</clus>
<clus scale="   77.802">  5  6 -1 -1</clus>
<clus scale="   78.923">  1  5  2 -1</clus>
<clus scale="   90.221">  7  8 -1 -1</clus>
<clus scale="   20.720">  2  5  1 -1</clus>
</clustering>
</event>
<event>
10    4  0.2857708E-005  0.1311790E+03  0.7546771E-02  0.1228857E+00
         21   -1    0    0  501  502  0.00000000000E+00  0.00000000000E+00  0.38896958366E+03  0.38896958366E+03  0.00000000000E+00 0. -1.
          2   -1    0    0  503    0 -0.00000000000E+00 -0.00000000000E+00 -0.37919083617E+03  0.37919083617E+03  0.00000000000E+00 0. -1.
         23    2    1    2    0    0  0.11595233214E+03 -0.36310863675E+02 -0.26568850772E+03  0.30639549570E+03  0.92327647560E+02 0.  0.
         24    2    1    2    0    0 -0.46976635656E+02 -0.62414535886E+02 -0.35026862339E+02  0.11726762730E+03  0.80140106932E+02 0.  0.
        -11    1    4    4    0    0 -0.43919792034E+02 -0.61459002047E+02 -0.57270333897E+02  0.94794768894E+02  0.00000000000E+00 0.  1.
         12    1    4    4    0    0 -0.30568436214E+01 -0.95553383946E+00  0.22243471558E+02  0.22472858403E+02  0.00000000000E+00 0. -1.
        -11    1    3    3    0    0  0.91166056036E+02 -0.30972963868E+01 -0.98936167978E+02  0.13457045869E+03  0.00000000000E+00 0.  1.
         11    1    3    3    0    0  0.24786276100E+02 -0.33213567288E+02 -0.16675233974E+03  0.17182503701E+03  0.00000000000E+00 0. -1.
         21    1    1    2  503  502 -0.12521903737E+02  0.84593396069E+02  0.22827001184E+03  0.24376225925E+03  0.00000000000E+00 0. -1.
          1    1    1    2  501    0 -0.56453792743E+02  0.14132003492E+02  0.82224105708E+02  0.10073503758E+03  0.00000000000E+00 0. -1.
<scales pt_clust_5="13000.00000" pt_clust_6="13000.00000" pt_clust_7="13000.00000" pt_clust_8="13000.00000" pt_clust_9="111.63807" pt_clust_10="58.19574"></scales>
<clustering>
<clus scale="   58.196">  1 10  2 -1</clus>
<clus scale="   80.140">  5  6 -1 -1</clus>
<clus scale="   92.328">  7  8 -1 -1</clus>
<clus scale="  111.638">  1  9  2 -1</clus>
<clus scale="  122.906">  1  5  2 -1</clus>
<clus scale="   58.196">  1  5  2 -1</clus>
</clustering>
</event>
<event>
10    4  0.2857708E-005  0.1110363E+03  0.7546771E-02  0.1275348E+00
         21   -1    0    0  501  502  0.00000000000E+00  0.00000000000E+00  0.61374875855E+02  0.61374875855E+02  0.00000000000E+00 0.  1.
          2   -1    0    0  503    0 -0.00000000000E+00 -0.00000000000E+00 -0.40068120824E+03  0.40068120824E+03  0.00000000000E+00 0. -1.
         23    2    1    2    0    0 -0.13083479889E+00  0.55663879117E+01 -0.20612356950E+03  0.23409137566E+03  0.11081897159E+03 0.  0.
         24    2    1    2    0    0 -0.19460088154E+02 -0.28168624027E+02 -0.33817120235E+02  0.93346687287E+02  0.79986498835E+02 0.  0.
        -11    1    4    4    0    0 -0.45020563985E+02 -0.20657242960E+02  0.95394827745E+00  0.49542737970E+02  0.00000000000E+00 0.  1.
         12    1    4    4    0    0  0.25560475831E+02 -0.75113810666E+01 -0.34771068513E+02  0.43803949317E+02  0.00000000000E+00 0. -1.
        -13    1    3    3    0    0  0.23839530873E+02  0.28948986174E+02 -0.15549096311E+02  0.40597308148E+02  0.00000000000E+00 0. -1.
         13    1    3    3    0    0 -0.23970365672E+02 -0.23382598263E+02 -0.19057447319E+03  0.19349406752E+03  0.00000000000E+00 0.  1.
         21    1    1    2  503  502 -0.20766465850E+02 -0.17701599513E+02 -0.58195622349E+02  0.64275370009E+02  0.00000000000E+00 0.  1.
          1    1    1    2  501    0  0.40357388803E+02  0.40303835628E+02 -0.41170020300E+02  0.70342651136E+02  0.00000000000E+00 0. -1.
<scales pt_clust_5="13000.00000" pt_clust_6="13000.00000" pt_clust_7="13000.00000" pt_clust_8="13000.00000" pt_clust_9="27.28723" pt_clust_10="52.56910"></scales>
<clustering>
<clus scale="   27.287">  2  9  1 -1</clus>
<clus scale="   52.569">  1 10  2 -1</clus>
<clus scale="   79.986">  5  6 -1 -1</clus>
<clus scale="   80.287">  1  5  2 -1</clus>
<clus scale="  110.819">  7  8 -1 -1</clus>
<clus scale="   52.569">  1  5  2 -1</clus>
</clustering>
</event>
<event>
10    4  0.2857708E-005  0.4346717E+03  0.7546771E-02  0.1058923E+00
         21   -1    0    0  501  502  0.00000000000E+00  0.00000000000E+00  0.24416027315E+03  0.24416027315E+03  0.00000000000E+00 0. -1.
          2   -1    0    0  503    0 -0.00000000000E+00 -0.00000000000E+00 -0.19478747551E+04  0.19478747551E+04  0.00000000000E+00 0. -1.
         24    2    1    2    0    0 -0.13510775424E+03 -0.12516476657E+03 -0.16103443970E+03  0.25731387572E+03  0.79737167126E+02 0.  0.
         23    2    1    2    0    0  0.52435881989E+03  0.21431825822E+03 -0.12815574238E+04  0.14043748795E+04  0.94841362220E+02 0.  0.
        -11    1    3    3    0    0 -0.95218476754E+02 -0.74154642294E+02 -0.54004086353E+02  0.13221917649E+03  0.00000000000E+00 0.  1.
         12    1    3    3    0    0 -0.39889277483E+02 -0.51010124276E+02 -0.10703035335E+03  0.12509469922E+03  0.00000000000E+00 0. -1.
        -11    1    4    4    0    0  0.11668766275E+03  0.26027466444E+02 -0.19572066479E+03  0.22934693866E+03  0.00000000000E+00 0.  1.
         11    1    4    4    0    0  0.40767115714E+03  0.18829079178E+03 -0.10858367590E+04  0.11750279409E+04  0.00000000000E+00 0. -1.
         21    1    1    2  503  502  0.15291362087E+01 -0.28058402627E+02 -0.98951115131E+02  0.10286367387E+03  0.00000000000E+00 0. -1.
          1    1    1    2  501    0 -0.39078020187E+03 -0.61095089023E+02 -0.16217150334E+03  0.42748259914E+03  0.00000000000E+00 0. -1.
<scales pt_clust_5="13000.00000" pt_clust_6="13000.00000" pt_clust_7="13000.00000" pt_clust_8="13000.00000" pt_clust_9="28.10004" pt_clust_10="424.19876"></scales>
<clustering>
<clus scale="   28.100">  2  9  1 -1</clus>
<clus scale="   79.737">  5  6 -1 -1</clus>
<clus scale="   94.841">  7  8 -1 -1</clus>
<clus scale="  202.576">  2  5  1 -1</clus>
<clus scale="  424.199">  1 10  2 -1</clus>
<clus scale="  424.199">  1  5  2 -1</clus>
</clustering>
</event>
<event>
10    4  0.2857708E-005  0.2139941E+03  0.7546771E-02  0.1139304E+00
          4   -1    0    0  503    0 -0.00000000000E+00  0.00000000000E+00  0.10186172971E+04  0.10186172971E+04  0.00000000000E+00 0. -1.
         21   -1    0    0  501  502  0.00000000000E+00 -0.00000000000E+00 -0.65924981611E+03  0.65924981611E+03  0.00000000000E+00 0. -1.
         23    2    1    2    0    0 -0.67723714452E+02 -0.12090142782E+03  0.48846018344E+03  0.51597286647E+03  0.91820430085E+02 0.  0.
         24    2    1    2    0    0  0.12349820342E+03  0.12916863087E+03 -0.29357244125E+03  0.35310494531E+03  0.81006065803E+02 0.  0.
        -13    1    4    4    0    0  0.16280632349E+02  0.37729780744E+02 -0.13429360123E+03  0.14043990415E+03  0.00000000000E+00 0.  1.
         14    1    4    4    0    0  0.10721757107E+03  0.91438850126E+02 -0.15927884001E+03  0.21266504116E+03  0.00000000000E+00 0. -1.
        -11    1    3    3    0    0 -0.39135513732E+02 -0.12702158558E+03  0.34836350746E+03  0.37285815664E+03  0.00000000000E+00 0. -1.
         11    1    3    3    0    0 -0.28588200720E+02  0.61201577597E+01  0.14009667598E+03  0.14311470983E+03  0.00000000000E+00 0.  1.
         21    1    1    2  503  502  0.24104887635E+02 -0.76313147598E+02  0.47465019851E+03  0.48134972011E+03  0.00000000000E+00 0. -1.
          3    1    1    2  501    0 -0.79879376598E+02  0.68045944552E+02 -0.31017045968E+03  0.32743958135E+03  0.00000000000E+00 0. -1.
<scales pt_clust_5="13000.00000" pt_clust_6="13000.00000" pt_clust_7="13000.00000" pt_clust_8="13000.00000" pt_clust_9="80.02963" pt_clust_10="103.85190"></scales>
<clustering>
<clus scale="   80.030">  1  9  2 -1</clus>
<clus scale="   81.006">  5  6 -1 -1</clus>
<clus scale="   91.820">  7  8 -1 -1</clus>
<clus scale="  103.852">  2 10  1 -1</clus>
<clus scale="  209.582">  2  5  1 -1</clus>
<clus scale="  103.852">  2  5  1 -1</clus>
</clustering>
</event>
<event>
10    4  0.2857708E-005  0.1130506E+03  0.7546771E-02  0.1259188E+00
         -3   -1    0    0    0  501 -0.00000000000E+00  0.00000000000E+00  0.27931654182E+03  0.27931654182E+03  0.00000000000E+00 0.  1.
         21   -1    0    0  503  502  0.00000000000E+00 -0.00000000000E+00 -0.21437241177E+03  0.21437241177E+03  0.00000000000E+00 0.  1.
         23    2    1    2    0    0  0.26139330431E+02  0.40958516961E+02  0.20581234040E+03  0.22999335465E+03  0.90428751038E+02 0.  0.
         24    2    1    2    0    0 -0.77078194748E+02 -0.27199744790E+02 -0.11197375819E+03  0.15955483304E+03  0.78985745555E+02 0.  0.
        -11    1    4    4    0    0 -0.89649290279E+02 -0.71981845235E+01 -0.85867638657E+02  0.12434653383E+03  0.00000000000E+00 0.  1.
         12    1    4    4    0    0  0.12571095530E+02 -0.20001560266E+02 -0.26106119529E+02  0.35208299203E+02  0.00000000000E+00 0. -1.
        -11    1    3    3    0    0 -0.53482239878E+01  0.63588449238E+02  0.12396325466E+03  0.13942375293E+03  0.00000000000E+00 0.  1.
         11    1    3    3    0    0  0.31487554419E+02 -0.22629932277E+02  0.81849085744E+02  0.90569601717E+02  0.00000000000E+00 0. -1.
         21    1    1    2  503  501  0.31336078547E+02 -0.28427902170E+01  0.28539432413E+02  0.42479765506E+02  0.00000000000E+00 0.  1.
         -4    1    1    2    0  502  0.19602785770E+02 -0.10915981954E+02 -0.57433884581E+02  0.61661000397E+02  0.00000000000E+00 0.  1.
<scales pt_clust_5="13000.00000" pt_clust_6="13000.00000" pt_clust_7="13000.00000" pt_clust_8="13000.00000" pt_clust_9="32.39066" pt_clust_10="22.43720"></scales>
<clustering>
<clus scale="   22.437">  2 10  1 -1</clus>
<clus scale="   32.391">  1  9  2 -1</clus>
<clus scale="   78.986">  5  6 -1 -1</clus>
<clus scale="   90.429">  7  8 -1 -1</clus>
<clus scale="  104.124">  2  5  1 -1</clus>
<clus scale="   22.437">  2  5  1 -1</clus>
</clustering>
</event>
<event>
10    4  0.2857708E-005  0.1972249E+03  0.7546771E-02  0.1181371E+00
          2   -1    0    0  502    0 -0.00000000000E+00  0.00000000000E+00  0.10141570949E+04  0.10141570949E+04  0.00000000000E+00 0. -1.
         21   -1    0    0  503  502  0.00000000000E+00 -0.00000000000E+00 -0.99565166731E+02  0.99565166731E+02  0.00000000000E+00 0. -1.
         24    2    1    2    0    0  0.61324491518E+02 -0.75721172352E+01 -0.57500349385E+01  0.10073934530E+03  0.79355671324E+02 0.  0.
         23    2    1    2    0    0  0.64353280501E+02 -0.13103252359E+03  0.69445056062E+03  0.71548955992E+03  0.91393994720E+02 0.  0.
        -11    1    3    3    0    0  0.58538591213E+02  0.17937757822E+02  0.19977154956E+02  0.64401991716E+02  0.00000000000E+00 0.  1.
         12    1    3    3    0    0  0.27859003047E+01 -0.25509875057E+02 -0.25727189895E+02  0.36337353588E+02  0.00000000000E+00 0. -1.
        -13    1    4    4    0    0  0.69614289493E+02 -0.84964340813E+02  0.60336061227E+03  0.61327735727E+03  0.00000000000E+00 0. -1.
         13    1    4    4    0    0 -0.52610089921E+01 -0.46068182779E+02  0.91089948350E+02  0.10221220265E+03  0.00000000000E+00 0.  1.
         21    1    1    2  503  501 -0.11565089228E+03  0.10844550836E+03  0.20620575390E+03  0.26010838147E+03  0.00000000000E+00 0. -1.
          1    1    1    2  501    0 -0.10026879738E+02  0.30159132469E+02  0.19685648537E+02  0.37384974881E+02  0.00000000000E+00 0. -1.
<scales pt_clust_5="13000.00000" pt_clust_6="13000.00000" pt_clust_7="13000.00000" pt_clust_8="13000.00000" pt_clust_9="22.24848" pt_clust_10="181.69763"></scales>
<clustering>
<clus scale="   22.248">  9 10 -1 -1</clus>
<clus scale="   79.356">  5  6 -1 -1</clus>
<clus scale="   91.394">  7  8 -1 -1</clus>
<clus scale="  100.575">  1  5  2 -1</clus>
<clus scale="  181.698">  2  9  1 -1</clus>
<clus scale="  181.698">  2  5  1 -1</clus>
</clustering>
</event>
<event>
10    4  0.2857708E-005  0.1489900E+03  0.7546771E-02  0.1218965E+00
          2   -1    0    0  503    0 -0.00000000000E+00  0.00000000000E+00  0.62829320628E+03  0.62829320628E+03  0.00000000000E+00 0. -1.
         21   -1    0    0  501  502  0.00000000000E+00 -0.00000000000E+00 -0.10196001242E+03  0.10196001242E+03  0.00000000000E+00 0. -1.
         24    2    1    2    0    0  0.16981045593E+02  0.55982311596E+02  0.23650657263E+03  0.25683733390E+03  0.81287650132E+02 0.  0.
         23    2    1    2    0    0 -0.64368468552E+02  0.48483588497E+02  0.13994273471E+03  0.18527647130E+03  0.90826448364E+02 0.  0.
        -13    1    3    3    0    0  0.54098141094E+01  0.72410341199E+02  0.21702353429E+03  0.22884872304E+03  0.00000000000E+00 0.  1.
         14    1    3    3    0    0  0.11571231483E+02 -0.16428029603E+02  0.19483038343E+02  0.27988610858E+02  0.00000000000E+00 0. -1.
        -11    1    4    4    0    0 -0.41186356438E+02  0.60807402128E+02  0.43576161759E+02  0.85397529144E+02  0.00000000000E+00 0.  1.
         11    1    4    4    0    0 -0.23182112114E+02 -0.12323813631E+02  0.96366572947E+02  0.99878942155E+02  0.00000000000E+00 0. -1.
         21    1    1    2  503  502  0.75020256226E+02 -0.15788535455E+03  0.70354699184E+02  0.18842931758E+03  0.00000000000E+00 0. -1.
          1    1    1    2  501    0 -0.27632833266E+02  0.53419454460E+02  0.79529187344E+02  0.99710095922E+02  0.00000000000E+00 0. -1.
<scales pt_clust_5="13000.00000" pt_clust_6="13000.00000" pt_clust_7="13000.00000" pt_clust_8="13000.00000" pt_clust_9="118.10404" pt_clust_10="60.14329"></scales>
<clustering>
<clus scale="   60.143">  2 10  1 -1</clus>
<clus scale="   81.288">  5  6 -1 -1</clus>
<clus scale="   90.826">  7  8 -1 -1</clus>
<clus scale="  103.113">  1  5  2 -1</clus>
<clus scale="  118.104">  2  9  1 -1</clus>
<clus scale="   60.143">  2  5  1 -1</clus>
</clustering>
</event>
<event>
10    4  0.2857708E-005  0.2083244E+03  0.7546771E-02  0.1147257E+00
          2   -1    0    0  503    0 -0.00000000000E+00  0.00000000000E+00  0.14055008751E+04  0.14055008751E+04  0.00000000000E+00 0. -1.
         21   -1    0    0  501  502  0.00000000000E+00 -0.00000000000E+00 -0.34505829556E+03  0.34505829556E+03  0.00000000000E+00 0. -1.
         24    2    1    2    0    0  0.11680751925E+03  0.12140185068E+03 -0.15177125243E+03  0.24134085488E+03  0.82634673527E+02 0.  0.
         23    2    1    2    0    0  0.18147891218E+03 -0.21399518483E+02 -0.38366065401E+02  0.20770903791E+03  0.90986562193E+02 0.  0.
        -13    1    3    3    0    0  0.77704133211E+02  0.33254917190E+02 -0.10311861144E+03  0.13333142863E+03  0.00000000000E+00 0.  1.
         14    1    3    3    0    0  0.39103386037E+02  0.88146933489E+02 -0.48652640985E+02  0.10800942625E+03  0.00000000000E+00 0. -1.
        -11    1    4    4    0    0  0.12222942999E+03 -0.56868767946E+02 -0.20309926476E+02  0.13633262059E+03  0.00000000000E+00 0. -1.
         11    1    4    4    0    0  0.59249482189E+02  0.35469249463E+02 -0.18056138925E+02  0.71376417324E+02  0.00000000000E+00 0.  1.
         21    1    1    2  503  502 -0.45647216787E+02  0.45898425993E+02  0.31152194096E+03  0.31817645043E+03  0.00000000000E+00 0. -1.
          1    1    1    2  501    0 -0.25263921464E+03 -0.14590075819E+03  0.93905795644E+03  0.98333282746E+03  0.00000000000E+00 0. -1.
<scales pt_clust_5="13000.00000" pt_clust_6="13000.00000" pt_clust_7="13000.00000" pt_clust_8="13000.00000" pt_clust_9="64.73279" pt_clust_10="187.40472"></scales>
<clustering>
<clus scale="   64.733">  1  9  2 -1</clus>
<clus scale="   82.635">  5  6 -1 -1</clus>
<clus scale="   90.987">  7  8 -1 -1</clus>
<clus scale="  187.717">  1  5  2 -1</clus>
<clus scale="  187.405">  2 10  1 -1</clus>
<clus scale="  187.405">  2  5  1 -1</clus>
</clustering>
</event>
<event>
10    4  0.2857708E-005  0.1892293E+03  0.7546771E-02  0.1160011E+00
         21   -1    0    0  501  502  0.00000000000E+00  0.00000000000E+00  0.15580253763E+03  0.15580253763E+03  0.00000000000E+00 0. -1.
          2   -1    0    0  503    0 -0.00000000000E+00 -0.00000000000E+00 -0.49005134190E+03  0.49005134190E+03  0.00000000000E+00 0. -1.
         24    2    1    2    0    0  0.17045002563E+03  0.13396983036E+03 -0.21992087965E+03  0.31933665007E+03  0.81299299425E+02 0.  0.
         23    2    1    2    0    0 -0.95278767046E+02 -0.45627045831E+02  0.20274272442E+02  0.13991116944E+03  0.89466297843E+02 0.  0.
        -11    1    3    3    0    0  0.41199264149E+02  0.82572981908E+02 -0.81850017485E+02  0.12334951183E+03  0.00000000000E+00 0.  1.
         12    1    3    3    0    0  0.12925076148E+03  0.51396848453E+02 -0.13807086217E+03  0.19598713823E+03  0.00000000000E+00 0. -1.
        -11    1    4    4    0    0 -0.11043954726E+03 -0.25965533799E+02  0.19167152237E+02  0.11505860363E+03  0.00000000000E+00 0. -1.
         11    1    4    4    0    0  0.15160780215E+02 -0.19661512032E+02  0.11071202051E+01  0.24852565808E+02  0.00000000000E+00 0.  1.
         21    1    1    2  503  502 -0.21287364498E+02 -0.21518792167E+02 -0.78300296408E+02  0.83947285371E+02  0.00000000000E+00 0.  1.
          1    1    1    2  501    0 -0.53883894083E+02 -0.66823992363E+02 -0.56301900651E+02  0.10265877466E+03  0.00000000000E+00 0. -1.
<scales pt_clust_5="13000.00000" pt_clust_6="13000.00000" pt_clust_7="13000.00000" pt_clust_8="13000.00000" pt_clust_9="30.26897" pt_clust_10="91.69734"></scales>
<clustering>
<clus scale="   30.269">  2  9  1 -1</clus>
<clus scale="   81.299">  5  6 -1 -1</clus>
<clus scale="   89.466">  7  8 -1 -1</clus>
<clus scale="   91.697">  1 10  2 -1</clus>
<clus scale="  185.508">  2  5  1 -1</clus>
<clus scale="   91.697">  1  5  2 -1</clus>
</clustering>
</event>
<event>
10    4  0.2857708E-005  0.1076137E+03  0.7546771E-02  0.1268739E+00
          2   -1    0    0  503    0 -0.00000000000E+00  0.00000000000E+00  0.47505043697E+03  0.47505043697E+03  0.00000000000E+00 0. -1.
         21   -1    0    0  501  502  0.00000000000E+00 -0.00000000000E+00 -0.77007201733E+02  0.77007201733E+02  0.00000000000E+00 0.  1.
         24    2    1    2    0    0 -0.64744225757E+02 -0.25219821941E+02  0.43014724959E+02  0.11557625753E+03  0.81729740937E+02 0.  0.
         23    2    1    2    0    0  0.50256395075E+02 -0.10922300735E+02  0.44418443335E+02  0.11332878597E+03  0.90694066626E+02 0.  0.
        -11    1    3    3    0    0 -0.73990151747E+02 -0.30105591477E+02  0.94706733463E+01  0.80439933164E+02  0.00000000000E+00 0.  1.
         12    1    3    3    0    0  0.92459259899E+01  0.48857695363E+01  0.33544051613E+02  0.35136324366E+02  0.00000000000E+00 0. -1.
        -11    1    4    4    0    0  0.64683848156E+02 -0.35046862543E+02  0.42934461253E+02  0.85180107709E+02  0.00000000000E+00 0.  1.
         11    1    4    4    0    0 -0.14427453081E+02  0.24124561808E+02  0.14839820822E+01  0.28148678257E+02  0.00000000000E+00 0. -1.
         21    1    1    2  503  502  0.30267567743E+02 -0.35994096766E+01  0.22899413344E+03  0.23101384062E+03  0.00000000000E+00 0. -1.
          1    1    1    2  501    0 -0.15779737060E+02  0.39741532353E+02  0.81615933497E+02  0.92138754583E+02  0.00000000000E+00 0. -1.
<scales pt_clust_5="13000.00000" pt_clust_6="13000.00000" pt_clust_7="13000.00000" pt_clust_8="13000.00000" pt_clust_9="30.48084" pt_clust_10="38.79537"></scales>
<clustering>
<clus scale="   30.481">  1  9  2 -1</clus>
<clus scale="   38.795">  2 10  1 -1</clus>
<clus scale="   81.730">  5  6 -1 -1</clus>
<clus scale="   90.694">  7  8 -1 -1</clus>
<clus scale="  100.175">  1  5  2 -1</clus>
<clus scale="   38.795">  2  5  1 -1</clus>
</clustering>
</event>
<event>
10    4  0.2857708E-005  0.1482957E+03  0.7546771E-02  0.1229878E+00
          2   -1    0    0  503    0 -0.00000000000E+00  0.00000000000E+00  0.72410135274E+03  0.72410135274E+03  0.00000000000E+00 0. -1.
         21   -1    0    0  501  502  0.00000000000E+00 -0.00000000000E+00 -0.10186144751E+03  0.10186144751E+03  0.00000000000E+00 0. -1.
         24    2    1    2    0    0 -0.20346921867E+02 -0.85188658131E+01  0.34385374878E+02  0.90113575385E+02  0.80321442710E+02 0.  0.
         23    2    1    2    0    0  0.51014587167E+02 -0.73974210498E+02  0.22062786901E+03  0.25501320531E+03  0.90996738251E+02 0.  0.
        -11    1    3    3    0    0 -0.44708580937E+02  0.11798423409E+02  0.43753795702E+01  0.46445709713E+02  0.00000000000E+00 0.  1.
         12    1    3    3    0    0  0.24361659070E+02 -0.20317289222E+02  0.30009995308E+02  0.43667865672E+02  0.00000000000E+00 0. -1.
        -13    1    4    4    0    0  0.74347353304E+02 -0.64255828883E+02  0.14407822746E+03  0.17439861272E+03  0.00000000000E+00 0.  1.
         13    1    4    4    0    0 -0.23332766137E+02 -0.97183816155E+01  0.76549641550E+02  0.80614592589E+02  0.00000000000E+00 0. -1.
         21    1    1    2  503  502 -0.10180430566E+03 -0.81780490754E+02  0.17208763174E+03  0.21602388368E+03  0.00000000000E+00 0. -1.
          1    1    1    2  501    0  0.71136640363E+02  0.16427356707E+03  0.19513902959E+03  0.26481213588E+03  0.00000000000E+00 0. -1.
<scales pt_clust_5="13000.00000" pt_clust_6="13000.00000" pt_clust_7="13000.00000" pt_clust_8="13000.00000" pt_clust_9="13000.00000" pt_clust_10="148.29569"></scales>
<clustering>
<clus scale="   80.321">  5  6 -1 -1</clus>
<clus scale="   83.295">  1  5  2 -1</clus>
<clus scale="   90.997">  7  8 -1 -1</clus>
<clus scale="  126.984">  1  7  2 -1</clus>
<clus scale="  148.296">  1 10  2 -1</clus>
<clus scale="  148.296">  2  5  1 -1</clus>
</clustering>
</event>
<event>
10    4  0.2857708E-005  0.1015213E+03  0.7546771E-02  0.1280528E+00
          2   -1    0    0  503    0 -0.00000000000E+00  0.00000000000E+00  0.68323581240E+03  0.68323581240E+03  0.00000000000E+00 0. -1.
         21   -1    0    0  501  502  0.00000000000E+00 -0.00000000000E+00 -0.54602871827E+02  0.54602871827E+02  0.00000000000E+00 0.  1.
         24    2    1    2    0    0 -0.36996708818E+02 -0.10073186384E+01  0.22619978697E+03  0.24304864096E+03  0.80848791555E+02 0.  0.
         23    2    1    2    0    0  0.83217860680E+02  0.73267086410E+02  0.93484072469E+02  0.16977060540E+03  0.88258191487E+02 0.  0.
        -11    1    3    3    0    0 -0.22341621665E+01 -0.35343906358E+02  0.13519304802E+03  0.13975458285E+03  0.00000000000E+00 0.  1.
         12    1    3    3    0    0 -0.34762546652E+02  0.34336587719E+02  0.91006738950E+02  0.10329405811E+03  0.00000000000E+00 0. -1.
        -11    1    4    4    0    0  0.20466814340E+02 -0.15510597991E+02 -0.10500984658E+01  0.25701592286E+02  0.00000000000E+00 0. -1.
         11    1    4    4    0    0  0.62751046340E+02  0.88777684402E+02  0.94534170935E+02  0.14406901311E+03  0.00000000000E+00 0.  1.
         21    1    1    2  503  502  0.81343157638E+01 -0.27882671303E+02  0.65319913079E+02  0.71486372803E+02  0.00000000000E+00 0.  1.
          1    1    1    2  501    0 -0.54355467625E+02 -0.44377096469E+02  0.24362916806E+03  0.25353306506E+03  0.00000000000E+00 0. -1.
<scales pt_clust_5="13000.00000" pt_clust_6="13000.00000" pt_clust_7="13000.00000" pt_clust_8="13000.00000" pt_clust_9="29.04497" pt_clust_10="75.52990"></scales>
<clustering>
<clus scale="   29.045">  1  9  2 -1</clus>
<clus scale="   75.530">  2 10  1 -1</clus>
<clus scale="   80.849">  5  6 -1 -1</clus>
<clus scale="   88.258">  7  8 -1 -1</clus>
<clus scale="   95.150">  1  5  2 -1</clus>
<clus scale="   75.530">  2  5  1 -1</clus>
</clustering>
</event>
<event>
10    4  0.2857708E-005  0.1058056E+03  0.7546771E-02  0.1274016E+00
         21   -1    0    0  501  502  0.00000000000E+00  0.00000000000E+00  0.80697854565E+02  0.80697854565E+02  0.00000000000E+00 0. -1.
          2   -1    0    0  503    0 -0.00000000000E+00 -0.00000000000E+00 -0.57151724219E+03  0.57151724219E+03  0.00000000000E+00 0. -1.
         23    2    1    2    0    0 -0.14388300094E+01 -0.32899384661E+02 -0.35477373830E+03  0.36830141883E+03  0.93258189901E+02 0.  0.
         24    2    1    2    0    0  0.47534353237E+02  0.70559602525E+02 -0.81903663488E+02  0.14321520326E+03  0.81019825389E+02 0.  0.
        -11    1    4    4    0    0  0.50044243704E+02  0.14366657878E+02 -0.67323202669E+02  0.85107231209E+02  0.00000000000E+00 0.  1.
         12    1    4    4    0    0 -0.25098904671E+01  0.56192944647E+02 -0.14580460819E+02  0.58107972052E+02  0.00000000000E+00 0. -1.
        -13    1    3    3    0    0  0.31674424274E+02 -0.51731089821E+02 -0.20791885578E+03  0.21658630011E+03  0.00000000000E+00 0.  1.
         13    1    3    3    0    0 -0.33113254284E+02  0.18831705160E+02 -0.14685488252E+03  0.15171511872E+03  0.00000000000E+00 0. -1.
         21    1    1    2  503  502  0.13095717400E+02 -0.16401809694E+02 -0.72261143735E+02  0.75247525338E+02  0.00000000000E+00 0. -1.
          1    1    1    2  501    0 -0.59191240627E+02 -0.21258408171E+02  0.18119157896E+02  0.65450949327E+02  0.00000000000E+00 0. -1.
<scales pt_clust_5="13000.00000" pt_clust_6="13000.00000" pt_clust_7="13000.00000" pt_clust_8="13000.00000" pt_clust_9="20.98850" pt_clust_10="62.57768"></scales>
<clustering>
<clus scale="   20.989">  2  9  1 -1</clus>
<clus scale="   62.578">  1 10  2 -1</clus>
<clus scale="   81.020">  5  6 -1 -1</clus>
<clus scale="   93.258">  7  8 -1 -1</clus>
<clus scale="   95.194">  1  5  2 -1</clus>
<clus scale="   62.578">  1  5  2 -1</clus>
</clustering>
</event>
<event>
10    4  0.2857708E-005  0.1634610E+03  0.7546771E-02  0.1199934E+00
         21   -1    0    0  501  502  0.00000000000E+00  0.00000000000E+00  0.53522547281E+03  0.53522547281E+03  0.00000000000E+00 0. -1.
          2   -1    0    0  503    0 -0.00000000000E+00 -0.00000000000E+00 -0.19230313156E+03  0.19230313156E+03  0.00000000000E+00 0. -1.
         23    2    1    2    0    0  0.80855470211E+02 -0.11280639653E+02  0.90099182043E+02  0.15123066604E+03  0.89933263321E+02 0.  0.
         24    2    1    2    0    0 -0.38750533239E+02  0.13761596174E+03 -0.48724036778E+02  0.17080045701E+03  0.79743385950E+02 0.  0.
        -13    1    4    4    0    0 -0.48815705827E+02  0.59218902076E+02 -0.50271768973E+02  0.91744766904E+02  0.00000000000E+00 0.  1.
         14    1    4    4    0    0  0.10065172588E+02  0.78397059665E+02  0.15477321949E+01  0.79055690107E+02  0.00000000000E+00 0. -1.
        -11    1    3    3    0    0  0.46413055643E+02 -0.50914817920E+02  0.48809367722E+02  0.84432486611E+02  0.00000000000E+00 0.  1.
         11    1    3    3    0    0  0.34442414568E+02  0.39634178267E+02  0.41289814321E+02  0.66798179428E+02  0.00000000000E+00 0. -1.
         21    1    1    2  503  502 -0.30511901224E+02  0.16923320582E+02 -0.28797760491E+02  0.45240312831E+02  0.00000000000E+00 0. -1.
          1    1    1    2  501    0 -0.11593035748E+02 -0.14325864267E+03  0.33034495647E+03  0.36025716849E+03  0.00000000000E+00 0. -1.
<scales pt_clust_5="13000.00000" pt_clust_6="13000.00000" pt_clust_7="13000.00000" pt_clust_8="13000.00000" pt_clust_9="34.89090" pt_clust_10="142.69018"></scales>
<clustering>
<clus scale="   34.891">  2  9  1 -1</clus>
<clus scale="   79.743">  5  6 -1 -1</clus>
<clus scale="   89.933">  7  8 -1 -1</clus>
<clus scale="  117.276">  2  7  1 -1</clus>
<clus scale="  142.690">  1 10  2 -1</clus>
<clus scale="  142.690">  1  5  2 -1</clus>
</clustering>
</event>
<event>
10    4  0.2857708E-005  0.1706173E+03  0.7546771E-02  0.1178203E+00
         21   -1    0    0  501  502  0.00000000000E+00  0.00000000000E+00  0.50621323676E+03  0.50621323676E+03  0.00000000000E+00 0. -1.
          2   -1    0    0  503    0 -0.00000000000E+00 -0.00000000000E+00 -0.42126933562E+03  0.42126933562E+03  0.00000000000E+00 0. -1.
         23    2    1    2    0    0  0.14184086607E+03  0.13601612569E+02 -0.23128634910E+03  0.28571807257E+03  0.88530257884E+02 0.  0.
         24    2    1    2    0    0 -0.14840142973E+03 -0.77265013211E+02  0.11013365074E+02  0.18620037749E+03  0.80971721945E+02 0.  0.
        -13    1    4    4    0    0 -0.14625082417E+03 -0.81330661396E+02  0.27051052869E+02  0.16951619248E+03  0.00000000000E+00 0.  1.
         14    1    4    4    0    0 -0.21506055586E+01  0.40656481851E+01 -0.16037687794E+02  0.16684185003E+02  0.00000000000E+00 0. -1.
        -11    1    3    3    0    0  0.82700120177E+02  0.47090599939E+02 -0.16674345103E+03  0.19199013761E+03  0.00000000000E+00 0.  1.
         11    1    3    3    0    0  0.59140745891E+02 -0.33488987369E+02 -0.64542898071E+02  0.93727934956E+02  0.00000000000E+00 0. -1.
         21    1    1    2  503  502  0.35445926562E+02  0.10587838029E+03 -0.30681826706E+02  0.11579300329E+03  0.00000000000E+00 0.  1.
          1    1    1    2  501    0 -0.28885362904E+02 -0.42214979645E+02  0.33589871186E+03  0.33977111903E+03  0.00000000000E+00 0. -1.
<scales pt_clust_5="13000.00000" pt_clust_6="13000.00000" pt_clust_7="13000.00000" pt_clust_8="13000.00000" pt_clust_9="99.28209" pt_clust_10="51.15143"></scales>
<clustering>
<clus scale="   51.151">  1 10  2 -1</clus>
<clus scale="   80.972">  5  6 -1 -1</clus>
<clus scale="   88.530">  7  8 -1 -1</clus>
<clus scale="   99.282">  1  9  2 -1</clus>
<clus scale="  166.820">  1  5  2 -1</clus>
<clus scale="   51.151">  1  5  2 -1</clus>
</clustering>
</event>
<event>
10    4  0.2857708E-005  0.1030964E+03  0.7546771E-02  0.1277653E+00
          2   -1    0    0  503    0 -0.00000000000E+00  0.00000000000E+00  0.45752262508E+03  0.45752262508E+03  0.00000000000E+00 0. -1.
         21   -1    0    0  501  502  0.00000000000E+00 -0.00000000000E+00 -0.17259362471E+03  0.17259362471E+03  0.00000000000E+00 0.  1.
         23    2    1    2    0    0 -0.29118552149E+02 -0.61727682276E+02  0.30514385218E+03  0.32560854413E+03  0.90829271993E+02 0.  0.
         24    2    1    2    0    0  0.33583368354E+02  0.31043903762E+01 -0.71194801453E+02  0.11418412958E+03  0.82654920141E+02 0.  0.
        -13    1    4    4    0    0  0.51481711447E+02 -0.18599631849E+02 -0.25182983030E+02  0.60253593691E+02  0.00000000000E+00 0.  1.
         14    1    4    4    0    0 -0.17898343093E+02  0.21704022225E+02 -0.46011818423E+02  0.53930535885E+02  0.00000000000E+00 0. -1.
        -13    1    3    3    0    0  0.24715083443E+02 -0.17120188388E+02  0.33063271786E+02  0.44689105398E+02  0.00000000000E+00 0.  1.
         13    1    3    3    0    0 -0.53833635592E+02 -0.44607493888E+02  0.27208058039E+03  0.28091943873E+03  0.00000000000E+00 0. -1.
         21    1    1    2  503  502  0.17587493096E+02  0.11954470619E+02  0.10993075005E+03  0.11196874156E+03  0.00000000000E+00 0.  1.
          1    1    1    2  501    0 -0.22052309300E+02  0.46668821281E+02 -0.58950800396E+02  0.78354834519E+02  0.00000000000E+00 0. -1.
<scales pt_clust_5="13000.00000" pt_clust_6="13000.00000" pt_clust_7="13000.00000" pt_clust_8="13000.00000" pt_clust_9="21.26568" pt_clust_10="51.71227"></scales>
<clustering>
<clus scale="   21.266">  1  9  2 -1</clus>
<clus scale="   51.712">  2 10  1 -1</clus>
<clus scale="   82.655">  5  6 -1 -1</clus>
<clus scale="   90.829">  7  8 -1 -1</clus>
<clus scale="   95.973">  2  5  1 -1</clus>
<clus scale="   51.712">  2  5  1 -1</clus>
</clustering>
</event>
<event>
10    4  0.2857708E-005  0.1305627E+03  0.7546771E-02  0.1228733E+00
          2   -1    0    0  503    0 -0.00000000000E+00  0.00000000000E+00  0.59466321291E+03  0.59466321291E+03  0.00000000000E+00 0. -1.
         21   -1    0    0  501  502  0.00000000000E+00 -0.00000000000E+00 -0.17760731158E+03  0.17760731158E+03  0.00000000000E+00 0. -1.
         23    2    1    2    0    0 -0.11921397877E+03  0.15628005367E+02  0.27670459922E+03  0.31464233970E+03  0.89320543077E+02 0.  0.
         24    2    1    2    0    0  0.74882672476E+02 -0.23421639381E+02 -0.44667836473E+02  0.12125014058E+03  0.80934499112E+02 0.  0.
        -11    1    4    4    0    0  0.26386059158E+02 -0.13578594491E+02 -0.62066070704E+02  0.68795344892E+02  0.00000000000E+00 0.  1.
         12    1    4    4    0    0  0.48496613318E+02 -0.98430448898E+01  0.17398234231E+02  0.52454795685E+02  0.00000000000E+00 0. -1.
        -13    1    3    3    0    0 -0.54648648932E+02  0.46000593123E+02  0.18594326851E+03  0.19919193885E+03  0.00000000000E+00 0. -1.
         13    1    3    3    0    0 -0.64565329842E+02 -0.30372587757E+02  0.90761330707E+02  0.11545040085E+03  0.00000000000E+00 0.  1.
         21    1    1    2  503  502  0.35598638584E+02  0.32855232358E+02  0.25602854536E+03  0.26057119066E+03  0.00000000000E+00 0. -1.
          1    1    1    2  501    0  0.87326677147E+01 -0.25061598344E+02 -0.71009406768E+02  0.75806853558E+02  0.00000000000E+00 0. -1.
<scales pt_clust_5="13000.00000" pt_clust_6="13000.00000" pt_clust_7="13000.00000" pt_clust_8="13000.00000" pt_clust_9="48.21535" pt_clust_10="26.53946"></scales>
<clustering>
<clus scale="   26.539">  2 10  1 -1</clus>
<clus scale="   48.215">  1  9  2 -1</clus>
<clus scale="   80.934">  5  6 -1 -1</clus>
<clus scale="   89.321">  7  8 -1 -1</clus>
<clus scale="  124.975">  2  5  1 -1</clus>
<clus scale="   26.539">  2  5  1 -1</clus>
</clustering>
</event>
<event>
10    4  0.2857708E-005  0.1284082E+03  0.7546771E-02  0.1236474E+00
         21   -1    0    0  503  502  0.00000000000E+00  0.00000000000E+00  0.37292768117E+02  0.37292768117E+02  0.00000000000E+00 0.  1.
         -1   -1    0    0    0  501 -0.00000000000E+00 -0.00000000000E+00 -0.10876228104E+04  0.10876228104E+04  0.00000000000E+00 0.  1.
         23    2    1    2    0    0  0.59514960965E+02  0.23922948180E+02 -0.33556466174E+03  0.35379229483E+03  0.91929362245E+02 0.  0.
         24    2    1    2    0    0  0.12900347613E+02  0.85681769456E+02 -0.27015146599E+03  0.29491009998E+03  0.80513153609E+02 0.  0.
        -11    1    4    4    0    0  0.21153773343E+02  0.76494595552E+02 -0.27114352169E+03  0.28252029065E+03  0.00000000000E+00 0.  1.
         12    1    4    4    0    0 -0.82534257297E+01  0.91871739036E+01  0.99205569636E+00  0.12389809325E+02  0.00000000000E+00 0. -1.
        -11    1    3    3    0    0 -0.24104609636E+02 -0.17561298185E+01 -0.86523213541E+02  0.89835308644E+02  0.00000000000E+00 0.  1.
         11    1    3    3    0    0  0.83619570602E+02  0.25679077998E+02 -0.24904144820E+03  0.26395698618E+03  0.00000000000E+00 0. -1.
         21    1    1    2  503  501 -0.10027414452E+03 -0.78560926860E+02 -0.30588476953E+03  0.33134908408E+03  0.00000000000E+00 0.  1.
         -2    1    1    2    0  502  0.27858835938E+02 -0.31043790776E+02 -0.13872914502E+03  0.14486409964E+03  0.00000000000E+00 0.  1.
<scales pt_clust_5="13000.00000" pt_clust_6="13000.00000" pt_clust_7="13000.00000" pt_clust_8="13000.00000" pt_clust_9="89.65299" pt_clust_10="41.71131"></scales>
<clustering>
<clus scale="   41.711">  1 10  2 -1</clus>
<clus scale="   80.513">  5  6 -1 -1</clus>
<clus scale="   91.929">  7  8 -1 -1</clus>
<clus scale="  112.043">  1  5  2 -1</clus>
<clus scale="   89.653">  1  9  2 -1</clus>
<clus scale="   41.711">  1  5  2 -1</clus>
</clustering>
</event>
<event>
10    4  0.2857708E-005  0.2832092E+03  0.7546771E-02  0.1093949E+00
         21   -1    0    0  503  502  0.00000000000E+00  0.00000000000E+00  0.45170544393E+02  0.45170544393E+02  0.00000000000E+00 0. -1.
          2   -1    0    0  502    0 -0.00000000000E+00 -0.00000000000E+00 -0.14581880308E+04  0.14581880308E+04  0.00000000000E+00 0. -1.
         24    2    1    2    0    0  0.22342785610E+02 -0.53343729317E+02 -0.29618083276E+03  0.31214810706E+03  0.79803518222E+02 0.  0.
         23    2    1    2    0    0  0.68897321439E+01 -0.16007746921E+03 -0.54294940248E+03  0.57348555656E+03  0.91757099845E+02 0.  0.
        -13    1    3    3    0    0 -0.21168707784E+02 -0.32583185076E+02 -0.62868680299E+02  0.73907030122E+02  0.00000000000E+00 0.  1.
         14    1    3    3    0    0  0.43511493394E+02 -0.20760544241E+02 -0.23331215246E+03  0.23824107693E+03  0.00000000000E+00 0. -1.
        -11    1    4    4    0    0 -0.14014137248E+02 -0.93425660550E+02 -0.43327907760E+03  0.44345857662E+03  0.00000000000E+00 0. -1.
         11    1    4    4    0    0  0.20903869392E+02 -0.66651808662E+02 -0.10967032489E+03  0.13002697995E+03  0.00000000000E+00 0.  1.
         21    1    1    2  503  501 -0.16719121309E+02  0.39981598779E+02 -0.52338136886E+02  0.67950995806E+02  0.00000000000E+00 0.  1.
          1    1    1    2  501    0 -0.12513396445E+02  0.17343959975E+03 -0.52154911433E+03  0.54977391582E+03  0.00000000000E+00 0. -1.
<scales pt_clust_5="13000.00000" pt_clust_6="13000.00000" pt_clust_7="13000.00000" pt_clust_8="13000.00000" pt_clust_9="38.13162" pt_clust_10="228.55522"></scales>
<clustering>
<clus scale="   38.132">  9 10 -1 -1</clus>
<clus scale="   79.804">  5  6 -1 -1</clus>
<clus scale="   91.757">  7  8 -1 -1</clus>
<clus scale="   94.071">  5  7 -1 -1</clus>
<clus scale="  228.555">  1  9  2 -1</clus>
<clus scale="  228.555">  1  5  2 -1</clus>
</clustering>
</event>
<event>
10    4  0.2857708E-005  0.1608188E+03  0.7546771E-02  0.1197979E+00
         21   -1    0    0  503  502  0.00000000000E+00  0.00000000000E+00  0.97038401714E+02  0.97038401714E+02  0.00000000000E+00 0. -1.
         -3   -1    0    0    0  501 -0.00000000000E+00 -0.00000000000E+00 -0.16672662631E+04  0.16672662631E+04  0.00000000000E+00 0.  1.
         24    2    1    2    0    0 -0.61047254622E+02  0.79392707356E+02 -0.47905977498E+01  0.13349539407E+03  0.88136831869E+02 0.  0.
         23    2    1    2    0    0 -0.74894606321E+02  0.10316462805E+03 -0.30950980504E+03  0.34733909025E+03  0.92714516984E+02 0.  0.
        -11    1    3    3    0    0  0.22077502210E+02  0.20692278959E+02  0.69853424121E+01  0.31054492766E+02  0.00000000000E+00 0.  1.
         12    1    3    3    0    0 -0.83124756832E+02  0.58700428398E+02 -0.11775940162E+02  0.10244090130E+03  0.00000000000E+00 0. -1.
        -13    1    4    4    0    0  0.12887857805E+02  0.29662351827E+02 -0.25710697140E+02  0.41315759005E+02  0.00000000000E+00 0. -1.
         13    1    4    4    0    0 -0.87782464127E+02  0.73502276219E+02 -0.28379910790E+03  0.30602333124E+03  0.00000000000E+00 0.  1.
         21    1    1    2  503  501  0.99243608241E+01 -0.10960165982E+03 -0.70903588440E+03  0.71752554111E+03  0.00000000000E+00 0.  1.
         -4    1    1    2    0  502  0.12601750012E+03 -0.72955675582E+02 -0.54689157416E+03  0.56594463936E+03  0.00000000000E+00 0.  1.
<scales pt_clust_5="13000.00000" pt_clust_6="13000.00000" pt_clust_7="13000.00000" pt_clust_8="13000.00000" pt_clust_9="110.05006" pt_clust_10="131.40292"></scales>
<clustering>
<clus scale="   88.137">  5  6 -1 -1</clus>
<clus scale="   92.715">  7  8 -1 -1</clus>
<clus scale="  110.050">  2  9  1 -1</clus>
<clus scale="  128.501">  2  5  1 -1</clus>
<clus scale="  131.403">  1 10  2 -1</clus>
<clus scale="  131.403">  1  5  2 -1</clus>
</clustering>
</event>
<event>
10    4  0.2857708E-005  0.1099025E+03  0.7546771E-02  0.1265508E+00
          2   -1    0    0  502    0 -0.00000000000E+00  0.00000000000E+00  0.95704468470E+03  0.95704468470E+03  0.00000000000E+00 0. -1.
         21   -1    0    0  503  502  0.00000000000E+00 -0.00000000000E+00 -0.33849188644E+02  0.33849188644E+02  0.00000000000E+00 0. -1.
         24    2    1    2    0    0  0.43854984119E+02 -0.35113147172E+02  0.46530278070E+03  0.47537129897E+03  0.79466983257E+02 0.  0.
         23    2    1    2    0    0  0.75382211350E+01  0.10377276180E+03  0.31069412432E+03  0.34017977228E+03  0.91464898805E+02 0.  0.
        -11    1    3    3    0    0  0.30932723920E+02 -0.40293736343E+02  0.12700285242E+03  0.13678502521E+03  0.00000000000E+00 0.  1.
         12    1    3    3    0    0  0.12922260199E+02  0.51805891710E+01  0.33829992827E+03  0.33858627377E+03  0.00000000000E+00 0. -1.
        -13    1    4    4    0    0 -0.33462539509E+02  0.19024147718E+02  0.14054989756E+03  0.14572554152E+03  0.00000000000E+00 0.  1.
         13    1    4    4    0    0  0.41000760644E+02  0.84748614079E+02  0.17014422676E+03  0.19445423077E+03  0.00000000000E+00 0. -1.
         21    1    1    2  503  501  0.30437192388E+01 -0.25709455658E+02  0.42511403473E+02  0.49774087257E+02  0.00000000000E+00 0. -1.
          1    1    1    2  501    0 -0.54436924493E+02 -0.42950158967E+02  0.10468718756E+03  0.12556871483E+03  0.00000000000E+00 0. -1.
<scales pt_clust_5="13000.00000" pt_clust_6="13000.00000" pt_clust_7="13000.00000" pt_clust_8="13000.00000" pt_clust_9="25.35799" pt_clust_10="95.27682"></scales>
<clustering>
<clus scale="   25.358">  9 10 -1 -1</clus>
<clus scale="   79.467">  5  6 -1 -1</clus>
<clus scale="   91.465">  7  8 -1 -1</clus>
<clus scale="   95.277">  2  9  1 -1</clus>
<clus scale="  100.139">  1  5  2 -1</clus>
<clus scale="   95.277">  2  5  1 -1</clus>
</clustering>
</event>
<event>
10    4  0.2857708E-005  0.1252781E+03  0.7546771E-02  0.1236908E+00
         21   -1    0    0  501  502  0.00000000000E+00  0.00000000000E+00  0.15732837139E+03  0.15732837139E+03  0.00000000000E+00 0.  1.
          2   -1    0    0  503    0 -0.00000000000E+00 -0.00000000000E+00 -0.42083113055E+03  0.42083113055E+03  0.00000000000E+00 0. -1.
         24    2    1    2    0    0 -0.28582255365E+02 -0.48274527275E+02 -0.83873456267E+02  0.12899225891E+03  0.80354656904E+02 0.  0.
         23    2    1    2    0    0  0.71562712966E+02  0.68126469636E+02  0.78384422007E+02  0.15413285630E+03  0.88602381598E+02 0.  0.
        -13    1    3    3    0    0 -0.33809234975E+02  0.96227278793E+01 -0.13359552526E+02  0.37605038295E+02  0.00000000000E+00 0.  1.
         14    1    3    3    0    0  0.52269796101E+01 -0.57897255154E+02 -0.70513903742E+02  0.91387220612E+02  0.00000000000E+00 0. -1.
        -11    1    4    4    0    0  0.11303517137E+02  0.59099718271E+02  0.70510702775E+02  0.92694689196E+02  0.00000000000E+00 0.  1.
         11    1    4    4    0    0  0.60259195829E+02  0.90267513654E+01  0.78737192319E+01  0.61438167101E+02  0.00000000000E+00 0. -1.
         21    1    1    2  503  502 -0.25619764013E+02 -0.43728484179E+02 -0.26052320007E+03  0.26540702782E+03  0.00000000000E+00 0. -1.
          1    1    1    2  501    0 -0.17360693588E+02  0.23876541817E+02  0.25094751805E+01  0.29627358922E+02  0.00000000000E+00 0. -1.
<scales pt_clust_5="13000.00000" pt_clust_6="13000.00000" pt_clust_7="13000.00000" pt_clust_8="13000.00000" pt_clust_9="50.47864" pt_clust_10="29.52089"></scales>
<clustering>
<clus scale="   29.521">  1 10  2 -1</clus>
<clus scale="   50.479">  2  9  1 -1</clus>
<clus scale="   80.355">  5  6 -1 -1</clus>
<clus scale="   88.602">  7  8 -1 -1</clus>
<clus scale="  119.587">  2  5  1 -1</clus>
<clus scale="   29.521">  1  5  2 -1</clus>
</clustering>
</event>
<event>
10    4  0.2857708E-005  0.1016307E+03  0.7546771E-02  0.1281851E+00
         -1   -1    0    0    0  501 -0.00000000000E+00  0.00000000000E+00  0.12715835254E+03  0.12715835254E+03  0.00000000000E+00 0.  1.
         21   -1    0    0  503  502  0.00000000000E+00 -0.00000000000E+00 -0.27335912242E+03  0.27335912242E+03  0.00000000000E+00 0.  1.
         23    2    1    2    0    0  0.62144472246E+01  0.34950238300E+02  0.64111161025E+02  0.11684821889E+03  0.91011684850E+02 0.  0.
         24    2    1    2    0    0 -0.28825939357E+02 -0.79814207049E+01 -0.16426260446E+03  0.18543356083E+03  0.80676913686E+02 0.  0.
        -13    1    4    4    0    0 -0.17986145907E+02  0.33356894786E+02 -0.11010963842E+03  0.11644877134E+03  0.00000000000E+00 0.  1.
         14    1    4    4    0    0 -0.10839793450E+02 -0.41338315491E+02 -0.54152966039E+02  0.68984789486E+02  0.00000000000E+00 0. -1.
        -13    1    3    3    0    0 -0.15520203905E+02 -0.25800187589E+02  0.75395626962E+01  0.31038225054E+02  0.00000000000E+00 0. -1.
         13    1    3    3    0    0  0.21734651129E+02  0.60750425889E+02  0.56571598328E+02  0.85809993840E+02  0.00000000000E+00 0.  1.
         21    1    1    2  503  501  0.15743748474E+02  0.14457247036E+02  0.13565845155E+02  0.25316195659E+02  0.00000000000E+00 0.  1.
         -2    1    1    2    0  502  0.68677436586E+01 -0.41426064631E+02 -0.59615171607E+02  0.72919499584E+02  0.00000000000E+00 0.  1.
<scales pt_clust_5="13000.00000" pt_clust_6="13000.00000" pt_clust_7="13000.00000" pt_clust_8="13000.00000" pt_clust_9="21.37470" pt_clust_10="41.28450"></scales>
<clustering>
<clus scale="   21.375">  1  9  2 -1</clus>
<clus scale="   41.284">  2 10  1 -1</clus>
<clus scale="   80.677">  5  6 -1 -1</clus>
<clus scale="   91.012">  7  8 -1 -1</clus>
<clus scale="   92.490">  2  5  1 -1</clus>
<clus scale="   41.284">  2  5  1 -1</clus>
</clustering>
</event>
<event>
10    4  0.2857708E-005  0.1493276E+03  0.7546771E-02  0.1223882E+00
         21   -1    0    0  501  502  0.00000000000E+00  0.00000000000E+00  0.34352085600E+03  0.34352085600E+03  0.00000000000E+00 0.  1.
          2   -1    0    0  503    0 -0.00000000000E+00 -0.00000000000E+00 -0.37044974555E+03  0.37044974555E+03  0.00000000000E+00 0. -1.
         24    2    1    2    0    0 -0.48840563268E+02  0.10140872910E+02 -0.53755233765E+02  0.10806903593E+03  0.79379175137E+02 0.  0.
         23    2    1    2    0    0 -0.95962388257E+02  0.59900089151E+02  0.26868479627E+03  0.30621610053E+03  0.93701546615E+02 0.  0.
        -13    1    3    3    0    0  0.20656269384E+02  0.16279167380E+01 -0.16377410029E+01  0.20784941024E+02  0.00000000000E+00 0.  1.
         14    1    3    3    0    0 -0.69496832651E+02  0.85129561718E+01 -0.52117492762E+02  0.87284094904E+02  0.00000000000E+00 0. -1.
        -11    1    4    4    0    0 -0.98194863021E+02  0.16329037604E+02  0.21584283170E+03  0.23769096868E+03  0.00000000000E+00 0.  1.
         11    1    4    4    0    0  0.22324747637E+01  0.43571051547E+02  0.52841964564E+02  0.68525131853E+02  0.00000000000E+00 0. -1.
         21    1    1    2  503  502  0.14945328123E+02  0.15225057264E+02 -0.34990092046E+02  0.40981358479E+02  0.00000000000E+00 0. -1.
          1    1    1    2  501    0  0.12985762340E+03 -0.85266019325E+02 -0.20686836000E+03  0.25870410661E+03  0.00000000000E+00 0. -1.
<scales pt_clust_5="13000.00000" pt_clust_6="13000.00000" pt_clust_7="13000.00000" pt_clust_8="13000.00000" pt_clust_9="21.33460" pt_clust_10="116.27029"></scales>
<clustering>
<clus scale="   21.335">  2  9  1 -1</clus>
<clus scale="   79.379">  5  6 -1 -1</clus>
<clus scale="   92.391">  2  5  1 -1</clus>
<clus scale="   93.702">  7  8 -1 -1</clus>
<clus scale="  116.270">  1 10  2 -1</clus>
<clus scale="  116.270">  1  5  2 -1</clus>
</clustering>
</event>
<event>
10    4  0.2857708E-005  0.1201467E+03  0.7546771E-02  0.1261413E+00
         21   -1    0    0  501  502  0.00000000000E+00  0.00000000000E+00  0.64716866994E+02  0.64716866994E+02  0.00000000000E+00 0. -1.
          2   -1    0    0  503    0 -0.00000000000E+00 -0.00000000000E+00 -0.62545733439E+03  0.62545733439E+03  0.00000000000E+00 0. -1.
         24    2    1    2    0    0 -0.19205520559E+02  0.40786324801E+01 -0.14510171091E+03  0.16776854910E+03  0.81891955014E+02 0.  0.
         23    2    1    2    0    0  0.41676870983E+02  0.20879805751E+02 -0.22623271159E+02  0.98337973152E+02  0.83580001811E+02 0.  0.
        -13    1    3    3    0    0 -0.50825813287E+02 -0.34709393290E+01 -0.99257453201E+02  0.11156770470E+03  0.00000000000E+00 0.  1.
         14    1    3    3    0    0  0.31620292727E+02  0.75495718091E+01 -0.45844257711E+02  0.56200844404E+02  0.00000000000E+00 0. -1.
        -13    1    4    4    0    0  0.23985504173E+02  0.90102840352E+01 -0.54370384586E+02  0.60105144113E+02  0.00000000000E+00 0.  1.
         13    1    4    4    0    0  0.17691366809E+02  0.11869521716E+02  0.31747113427E+02  0.38232829039E+02  0.00000000000E+00 0. -1.
         21    1    1    2  503  502 -0.74259871778E+02 -0.57008772131E+02 -0.28603087943E+03  0.30096211164E+03  0.00000000000E+00 0. -1.
          1    1    1    2  501    0  0.51788521355E+02  0.32050333901E+02 -0.10698460589E+03  0.12310556748E+03  0.00000000000E+00 0. -1.
<scales pt_clust_5="13000.00000" pt_clust_6="13000.00000" pt_clust_7="13000.00000" pt_clust_8="13000.00000" pt_clust_9="86.31115" pt_clust_10="60.90385"></scales>
<clustering>
<clus scale="   60.904">  1 10  2 -1</clus>
<clus scale="   81.892">  5  6 -1 -1</clus>
<clus scale="   83.034">  2  5  1 -1</clus>
<clus scale="   83.580">  7  8 -1 -1</clus>
<clus scale="   86.311">  2  9  1 -1</clus>
<clus scale="   60.904">  1  5  2 -1</clus>
</clustering>
</event>
<event>
10    4  0.3943101E-005  0.1215816E+03  0.7546771E-02  0.1243445E+00
          2   -1    0    0  503    0 -0.00000000000E+00  0.00000000000E+00  0.56532592860E+03  0.56532592860E+03  0.00000000000E+00 0. -1.
         21   -1    0    0  501  502  0.00000000000E+00 -0.00000000000E+00 -0.32584104604E+03  0.32584104604E+03  0.00000000000E+00 0.  1.
         24    2    1    2    0    0 -0.82871453618E+02  0.68286283952E+02  0.50300561922E+03  0.52039062386E+03  0.79126822441E+02 0.  0.
         23    2    1    2    0    0 -0.41710929054E+01 -0.21366899033E+02 -0.11684377133E+03  0.14847103520E+03  0.88978868304E+02 0.  0.
        -11    1    3    3    0    0 -0.22465234000E+02  0.63176308067E+02  0.18786694966E+03  0.19947411716E+03  0.00000000000E+00 0.  1.
         12    1    3    3    0    0 -0.60406219618E+02  0.51099758854E+01  0.31513866956E+03  0.32091650670E+03  0.00000000000E+00 0. -1.
        -11    1    4    4    0    0  0.34295626120E+02 -0.35671796709E+02 -0.52431676008E+02  0.72095406930E+02  0.00000000000E+00 0.  1.
         11    1    4    4    0    0 -0.38466719025E+02  0.14304897675E+02 -0.64412095322E+02  0.76375628271E+02  0.00000000000E+00 0. -1.
         21    1    1    2  503  502  0.20388768934E+02 -0.68666305784E+01  0.25511480973E+02  0.33371966912E+02  0.00000000000E+00 0.  1.
          1    1    1    2  501    0  0.66653777589E+02 -0.40052754341E+02 -0.17218844631E+03  0.18893334867E+03  0.00000000000E+00 0. -1.
<scales pt_clust_5="13000.00000" pt_clust_6="13000.00000" pt_clust_7="13000.00000" pt_clust_8="13000.00000" pt_clust_9="21.51401" pt_clust_10="78.09046"></scales>
<clustering>
<clus scale="   21.514">  1  9  2 -1</clus>
<clus scale="   78.090">  2 10  1 -1</clus>
<clus scale="   79.127">  5  6 -1 -1</clus>
<clus scale="   88.979">  7  8 -1 -1</clus>
<clus scale="  114.568">  1  5  2 -1</clus>
<clus scale="   78.090">  2  5  1 -1</clus>
</clustering>
</event>
<event>
10    4  0.2857708E-005  0.1964246E+03  0.7546771E-02  0.1190964E+00
          2   -1    0    0  503    0 -0.00000000000E+00  0.00000000000E+00  0.70040232134E+03  0.70040232134E+03  0.00000000000E+00 0. -1.
         21   -1    0    0  501  502  0.00000000000E+00 -0.00000000000E+00 -0.29228236573E+03  0.29228236573E+03  0.00000000000E+00 0.  1.
         23    2    1    2    0    0 -0.69381360486E+02 -0.16667043407E+03  0.56437712266E+03  0.59979635749E+03  0.92958738733E+02 0.  0.
         24    2    1    2    0    0  0.28813623484E+02  0.34140884394E+01  0.17593691230E+02  0.85640355856E+02  0.78631111412E+02 0.  0.
        -13    1    4    4    0    0  0.56132498496E+02  0.53057567754E+01  0.13179582931E+02  0.57902589308E+02  0.00000000000E+00 0.  1.
         14    1    4    4    0    0 -0.27318875012E+02 -0.18916683361E+01  0.44141082992E+01  0.27737766548E+02  0.00000000000E+00 0. -1.
        -11    1    3    3    0    0 -0.59978265544E+02 -0.99966486102E+02  0.46739438551E+03  0.48171381783E+03  0.00000000000E+00 0. -1.
         11    1    3    3    0    0 -0.94030949426E+01 -0.66703947965E+02  0.96982737147E+02  0.11808253966E+03  0.00000000000E+00 0.  1.
         21    1    1    2  503  502  0.81814135147E+02  0.11497330495E+03 -0.22211128615E+02  0.14284868846E+03  0.00000000000E+00 0.  1.
          1    1    1    2  501    0 -0.41246398145E+02  0.48283040675E+02 -0.15163972967E+03  0.16439928526E+03  0.00000000000E+00 0. -1.
<scales pt_clust_5="13000.00000" pt_clust_6="13000.00000" pt_clust_7="13000.00000" pt_clust_8="13000.00000" pt_clust_9="173.03550" pt_clust_10="63.50211"></scales>
<clustering>
<clus scale="   63.502">  2 10  1 -1</clus>
<clus scale="   78.631">  5  6 -1 -1</clus>
<clus scale="   82.249">  2  5  1 -1</clus>
<clus scale="   92.959">  7  8 -1 -1</clus>
<clus scale="  173.036">  2  9  1 -1</clus>
<clus scale="   63.502">  2  5  1 -1</clus>
</clustering>
</event>
<event>
10    4  0.2857708E-005  0.2286119E+03  0.7546771E-02  0.1128587E+00
         21   -1    0    0  501  502  0.00000000000E+00  0.00000000000E+00  0.87688389545E+03  0.87688389545E+03  0.00000000000E+00 0.  1.
          2   -1    0    0  503    0 -0.00000000000E+00 -0.00000000000E+00 -0.86616378787E+03  0.86616378787E+03  0.00000000000E+00 0. -1.
         24    2    1    2    0    0 -0.22361117395E+03 -0.26171298142E+01  0.79136187472E+02  0.25071754658E+03  0.81166159885E+02 0.  0.
         23    2    1    2    0    0  0.13132262802E+03  0.16271757323E+03  0.50095854343E+03  0.55016510914E+03  0.89440168908E+02 0.  0.
        -11    1    3    3    0    0 -0.10660269227E+03  0.28316890202E+02  0.85993791632E+01  0.11063421528E+03  0.00000000000E+00 0.  1.
         12    1    3    3    0    0 -0.11700848169E+03 -0.30934020017E+02  0.70536808309E+02  0.14008333130E+03  0.00000000000E+00 0. -1.
        -11    1    4    4    0    0  0.24905528788E+02 -0.27296091217E+01  0.10610065528E+03  0.10901873775E+03  0.00000000000E+00 0. -1.
         11    1    4    4    0    0  0.10641709923E+03  0.16544718235E+03  0.39485788815E+03  0.44114637139E+03  0.00000000000E+00 0.  1.
         21    1    1    2  503  502 -0.23101319104E+02  0.81339499168E+02 -0.65559152913E+03  0.66102196495E+03  0.00000000000E+00 0. -1.
          1    1    1    2  501    0  0.11538986504E+03 -0.24143994258E+03  0.86216905811E+02  0.28114306265E+03  0.00000000000E+00 0. -1.
<scales pt_clust_5="13000.00000" pt_clust_6="13000.00000" pt_clust_7="13000.00000" pt_clust_8="13000.00000" pt_clust_9="84.55640" pt_clust_10="228.61186"></scales>
<clustering>
<clus scale="   81.166">  5  6 -1 -1</clus>
<clus scale="   84.556">  2  9  1 -1</clus>
<clus scale="   89.440">  7  8 -1 -1</clus>
<clus scale="  228.612">  1 10  2 -1</clus>
<clus scale="  223.233">  2  5  1 -1</clus>
<clus scale="  228.612">  1  5  2 -1</clus>
</clustering>
</event>
<event>
10    4  0.2857708E-005  0.2273629E+03  0.7546771E-02  0.1144030E+00
          2   -1    0    0  502    0 -0.00000000000E+00  0.00000000000E+00  0.12033318019E+04  0.12033318019E+04  0.00000000000E+00 0. -1.
         21   -1    0    0  503  502  0.00000000000E+00 -0.00000000000E+00 -0.27526651957E+03  0.27526651957E+03  0.00000000000E+00 0.  1.
         23    2    1    2    0    0 -0.43420000150E+01 -0.12488291279E+03 -0.80981041902E+02  0.17573722488E+03  0.93332996250E+02 0.  0.
         24    2    1    2    0    0  0.17864471357E+03  0.12866058144E+03 -0.40540911685E+02  0.23682247657E+03  0.77290626759E+02 0.  0.
        -11    1    4    4    0    0  0.52727842145E+02  0.50405880386E+02 -0.49732185398E+02  0.88285153787E+02  0.00000000000E+00 0.  1.
         12    1    4    4    0    0  0.12591687143E+03  0.78254701051E+02  0.91912737130E+01  0.14853732278E+03  0.00000000000E+00 0. -1.
        -11    1    3    3    0    0  0.36363896832E+02 -0.33029190604E+02 -0.42309707466E+01  0.49306810262E+02  0.00000000000E+00 0. -1.
         11    1    3    3    0    0 -0.40705896847E+02 -0.91853722189E+02 -0.76750071155E+02  0.12643041462E+03  0.00000000000E+00 0.  1.
         21    1    1    2  503  501 -0.68722882495E+02 -0.33963379057E+02  0.44817704850E+03  0.45468561941E+03  0.00000000000E+00 0. -1.
          1    1    1    2  501    0 -0.10557983106E+03  0.30185710413E+02  0.60141018742E+03  0.61135300062E+03  0.00000000000E+00 0. -1.
<scales pt_clust_5="13000.00000" pt_clust_6="13000.00000" pt_clust_7="13000.00000" pt_clust_8="13000.00000" pt_clust_9="55.48029" pt_clust_10="223.89588"></scales>
<clustering>
<clus scale="   55.480">  9 10 -1 -1</clus>
<clus scale="   77.291">  5  6 -1 -1</clus>
<clus scale="   93.333">  7  8 -1 -1</clus>
<clus scale="  155.967">  1  7  2 -1</clus>
<clus scale="  223.896">  2  9  1 -1</clus>
<clus scale="  223.896">  2  5  1 -1</clus>
</clustering>
</event>
<event>
10    4  0.2857708E-005  0.1274539E+03  0.7546771E-02  0.1240357E+00
         21   -1    0    0  501  502  0.00000000000E+00  0.00000000000E+00  0.77502634382E+02  0.77502634382E+02  0.00000000000E+00 0.  1.
          2   -1    0    0  503    0 -0.00000000000E+00 -0.00000000000E+00 -0.15177891517E+04  0.15177891517E+04  0.00000000000E+00 0. -1.
         24    2    1    2    0    0  0.34053068898E+01 -0.28863832965E+02 -0.54908178401E+03  0.55795418088E+03  0.94748854640E+02 0.  0.
         23    2    1    2    0    0  0.34310971451E+02  0.92118888293E+02 -0.21373948286E+02  0.15534972011E+03  0.11837887282E+03 0.  0.
        -13    1    3    3    0    0 -0.35918915446E+02 -0.19260226674E+00 -0.10023164208E+03  0.10647341291E+03  0.00000000000E+00 0.  1.
         14    1    3    3    0    0  0.39324222336E+02 -0.28671230698E+02 -0.44885014194E+03  0.45148076797E+03  0.00000000000E+00 0. -1.
        -11    1    4    4    0    0  0.74968169715E+02  0.53311069954E+02 -0.33410067660E+02  0.97869961025E+02  0.00000000000E+00 0.  1.
         11    1    4    4    0    0 -0.40657198263E+02  0.38807818339E+02  0.12036119374E+02  0.57479759084E+02  0.00000000000E+00 0. -1.
         21    1    1    2  503  502  0.43196418371E+02 -0.26008334384E+02 -0.19988337660E+03  0.20614492052E+03  0.00000000000E+00 0. -1.
          1    1    1    2  501    0 -0.80912696712E+02 -0.37246720944E+02 -0.66994740841E+03  0.67584296456E+03  0.00000000000E+00 0. -1.
<scales pt_clust_5="13000.00000" pt_clust_6="13000.00000" pt_clust_7="13000.00000" pt_clust_8="13000.00000" pt_clust_9="50.42186" pt_clust_10="77.55069"></scales>
<clustering>
<clus scale="   50.422">  2  9  1 -1</clus>
<clus scale="   77.551">  1 10  2 -1</clus>
<clus scale="   94.749">  5  6 -1 -1</clus>
<clus scale="  105.869">  2  5  1 -1</clus>
<clus scale="  118.379">  7  8 -1 -1</clus>
<clus scale="   77.551">  1  5  2 -1</clus>
</clustering>
</event>
<event>
10    4  0.2857708E-005  0.1337681E+03  0.7546771E-02  0.1241668E+00
          2   -1    0    0  503    0 -0.00000000000E+00  0.00000000000E+00  0.46171806038E+03  0.46171806038E+03  0.00000000000E+00 0. -1.
         21   -1    0    0  501  502  0.00000000000E+00 -0.00000000000E+00 -0.18881305011E+03  0.18881305011E+03  0.00000000000E+00 0.  1.
         24    2    1    2    0    0 -0.32735369014E+02 -0.32191548323E+02  0.62838236749E+02  0.11135712589E+03  0.79648385557E+02 0.  0.
         23    2    1    2    0    0 -0.14020231755E+02  0.98261518346E+02 -0.11894055674E+03  0.17853862805E+03  0.88754114179E+02 0.  0.
        -13    1    3    3    0    0 -0.91921390430E+01 -0.55394875636E+02  0.26053417983E+02  0.61902086035E+02  0.00000000000E+00 0.  1.
         14    1    3    3    0    0 -0.23543229971E+02  0.23203327313E+02  0.36784818766E+02  0.49455039859E+02  0.00000000000E+00 0. -1.
        -13    1    4    4    0    0  0.10901233822E+02  0.82394787272E+02 -0.36149188237E+02  0.90633888136E+02  0.00000000000E+00 0.  1.
         13    1    4    4    0    0 -0.24921465577E+02  0.15866731074E+02 -0.82791368502E+02  0.87904739918E+02  0.00000000000E+00 0. -1.
         21    1    1    2  503  502  0.11524080194E+01  0.34409076260E+02  0.11220532027E+03  0.11736842195E+03  0.00000000000E+00 0.  1.
          1    1    1    2  501    0  0.45603192749E+02 -0.10047904628E+03  0.21680200999E+03  0.24326693459E+03  0.00000000000E+00 0. -1.
<scales pt_clust_5="13000.00000" pt_clust_6="13000.00000" pt_clust_7="13000.00000" pt_clust_8="13000.00000" pt_clust_9="34.42837" pt_clust_10="100.08312"></scales>
<clustering>
<clus scale="   34.428">  1  9  2 -1</clus>
<clus scale="   79.648">  5  6 -1 -1</clus>
<clus scale="   88.754">  7  8 -1 -1</clus>
<clus scale="   89.170">  1  5  2 -1</clus>
<clus scale="  100.083">  2 10  1 -1</clus>
<clus scale="  100.083">  2  5  1 -1</clus>
</clustering>
</event>
<event>
10    4  0.2857708E-005  0.9568162E+02  0.7546771E-02  0.1298141E+00
          2   -1    0    0  503    0 -0.00000000000E+00  0.00000000000E+00  0.27895527552E+03  0.27895527552E+03  0.00000000000E+00 0. -1.
         21   -1    0    0  501  502  0.00000000000E+00 -0.00000000000E+00 -0.94318593544E+02  0.94318593544E+02  0.00000000000E+00 0.  1.
         23    2    1    2    0    0  0.23873128858E+02  0.52578627967E+00  0.17009539738E+03  0.19571985166E+03  0.93827572678E+02 0.  0.
         24    2    1    2    0    0 -0.22907923450E+02 -0.35040827181E+02 -0.29371131886E+02  0.94537021592E+02  0.79510707059E+02 0.  0.
        -11    1    4    4    0    0 -0.28073655292E+01 -0.54826498942E+02 -0.35889696534E+02  0.65588845124E+02  0.00000000000E+00 0.  1.
         12    1    4    4    0    0 -0.20100557920E+02  0.19785671761E+02  0.65185646481E+01  0.28948176468E+02  0.00000000000E+00 0. -1.
        -11    1    3    3    0    0  0.44524787713E+02 -0.33229396893E+02  0.80893995113E+02  0.98135049722E+02  0.00000000000E+00 0.  1.
         11    1    3    3    0    0 -0.20651658855E+02  0.33755183172E+02  0.89201402263E+02  0.97584801942E+02  0.00000000000E+00 0. -1.
         21    1    1    2  503  502 -0.25969830528E+02  0.15153676651E+02  0.41572454265E+02  0.51306285846E+02  0.00000000000E+00 0. -1.
          1    1    1    2  501    0  0.25004625120E+02  0.19361364250E+02  0.23399622209E+01  0.31710709961E+02  0.00000000000E+00 0. -1.
<scales pt_clust_5="13000.00000" pt_clust_6="13000.00000" pt_clust_7="13000.00000" pt_clust_8="13000.00000" pt_clust_9="30.06769" pt_clust_10="30.86764"></scales>
<clustering>
<clus scale="   30.068">  1  9  2 -1</clus>
<clus scale="   30.868">  2 10  1 -1</clus>
<clus scale="   79.511">  5  6 -1 -1</clus>
<clus scale="   81.690">  2  5  1 -1</clus>
<clus scale="   93.828">  7  8 -1 -1</clus>
<clus scale="   30.868">  2  5  1 -1</clus>
</clustering>
</event>
<event>
10    4  0.2857708E-005  0.1612885E+03  0.7546771E-02  0.1189031E+00
         -3   -1    0    0    0  501 -0.00000000000E+00  0.00000000000E+00  0.33401426010E+03  0.33401426010E+03  0.00000000000E+00 0.  1.
         21   -1    0    0  503  502  0.00000000000E+00 -0.00000000000E+00 -0.24146548275E+03  0.24146548275E+03  0.00000000000E+00 0.  1.
         23    2    1    2    0    0 -0.14133098493E+03 -0.50541150844E+02  0.13916490920E+03  0.22415698149E+03  0.91381755118E+02 0.  0.
         24    2    1    2    0    0  0.54770540693E+02  0.92491203209E+02 -0.71882677049E+02  0.15197857451E+03  0.79849439891E+02 0.  0.
        -11    1    4    4    0    0  0.34597662784E+02  0.38733861860E+02 -0.78558516440E+02  0.94174045415E+02  0.00000000000E+00 0.  1.
         12    1    4    4    0    0  0.20172877910E+02  0.53757341350E+02  0.66758393908E+01  0.57804529093E+02  0.00000000000E+00 0. -1.
        -13    1    3    3    0    0 -0.12157770258E+03 -0.76001314122E+02  0.11031976645E+03  0.18090823194E+03  0.00000000000E+00 0.  1.
         13    1    3    3    0    0 -0.19753282350E+02  0.25460163277E+02  0.28845142753E+02  0.43248749556E+02  0.00000000000E+00 0. -1.
         21    1    1    2  503  501  0.12961105235E+02  0.64321887583E+02 -0.73451909266E+01  0.66024596181E+02  0.00000000000E+00 0. -1.
         -4    1    1    2    0  502  0.73599339003E+02 -0.10627193995E+03  0.32611736127E+02  0.13331959067E+03  0.00000000000E+00 0.  1.
<scales pt_clust_5="13000.00000" pt_clust_6="13000.00000" pt_clust_7="13000.00000" pt_clust_8="13000.00000" pt_clust_9="65.61475" pt_clust_10="118.65235"></scales>
<clustering>
<clus scale="   65.615">  2  9  1 -1</clus>
<clus scale="   79.849">  5  6 -1 -1</clus>
<clus scale="   91.382">  7  8 -1 -1</clus>
<clus scale="  118.652">  2 10  1 -1</clus>
<clus scale="  155.046">  2  5  1 -1</clus>
<clus scale="   65.615">  2  5  1 -1</clus>
</clustering>
</event>
<event>
10    4  0.2857708E-005  0.2100701E+03  0.7546771E-02  0.1156379E+00
         21   -1    0    0  501  502  0.00000000000E+00  0.00000000000E+00  0.66310599805E+02  0.66310599805E+02  0.00000000000E+00 0.  1.
          2   -1    0    0  503    0 -0.00000000000E+00 -0.00000000000E+00 -0.13903911731E+04  0.13903911731E+04  0.00000000000E+00 0. -1.
         23    2    1    2    0    0 -0.22589532084E+02  0.10901588610E+03 -0.27649567940E+03  0.31117847619E+03  0.89372439441E+02 0.  0.
         24    2    1    2    0    0  0.16562467682E+03 -0.16948531105E+03 -0.39740448954E+03  0.46957022405E+03  0.80056622300E+02 0.  0.
        -11    1    4    4    0    0  0.16768285775E+03 -0.15049500214E+03 -0.33052444222E+03  0.40001586638E+03  0.00000000000E+00 0.  1.
         12    1    4    4    0    0 -0.20581809287E+01 -0.18990308918E+02 -0.66880047319E+02  0.69554357671E+02  0.00000000000E+00 0. -1.
        -11    1    3    3    0    0 -0.43960312528E+02  0.27258423032E+02 -0.15325540657E+03  0.16174903507E+03  0.00000000000E+00 0.  1.
         11    1    3    3    0    0  0.21370780444E+02  0.81757463069E+02 -0.12324027283E+03  0.14942944112E+03  0.00000000000E+00 0. -1.
         21    1    1    2  503  502  0.71661803239E+01  0.24103825313E+02 -0.47166883727E+02  0.53451505645E+02  0.00000000000E+00 0. -1.
          1    1    1    2  501    0 -0.15020132506E+03  0.36365599639E+02 -0.60301352066E+03  0.62250156705E+03  0.00000000000E+00 0. -1.
<scales pt_clust_5="13000.00000" pt_clust_6="13000.00000" pt_clust_7="13000.00000" pt_clust_8="13000.00000" pt_clust_9="25.14654" pt_clust_10="194.21744"></scales>
<clustering>
<clus scale="   25.147">  1  9  2 -1</clus>
<clus scale="   80.057">  5  6 -1 -1</clus>
<clus scale="   89.372">  7  8 -1 -1</clus>
<clus scale="  147.593">  2  7  1 -1</clus>
<clus scale="  194.217">  1 10  2 -1</clus>
<clus scale="   25.147">  1  5  2 -1</clus>
</clustering>
</event>
<event>
10    4  0.2857708E-005  0.1450427E+03  0.7546771E-02  0.1227752E+00
         -1   -1    0    0    0  501 -0.00000000000E+00  0.00000000000E+00  0.42315986222E+03  0.42315986222E+03  0.00000000000E+00 0.  1.
         21   -1    0    0  503  502  0.00000000000E+00 -0.00000000000E+00 -0.38105413667E+03  0.38105413667E+03  0.00000000000E+00 0.  1.
         23    2    1    2    0    0 -0.51013986877E+01 -0.18362098464E+02 -0.22283341166E+01  0.92989929064E+02  0.90988848250E+02 0.  0.
         24    2    1    2    0    0  0.68652456391E+02 -0.43790534386E+02  0.28599122886E+03  0.30834874162E+03  0.81591622124E+02 0.  0.
        -13    1    4    4    0    0  0.82239358980E+02 -0.51687655849E+02  0.21960258380E+03  0.24012542711E+03  0.00000000000E+00 0.  1.
         14    1    4    4    0    0 -0.13586902590E+02  0.78971214630E+01  0.66388645058E+02  0.68223314505E+02  0.00000000000E+00 0. -1.
        -11    1    3    3    0    0 -0.25178277377E+02 -0.18156194778E+01  0.37677473655E+02  0.45352333421E+02  0.00000000000E+00 0. -1.
         11    1    3    3    0    0  0.20076878689E+02 -0.16546478987E+02 -0.39905807771E+02  0.47637595643E+02  0.00000000000E+00 0.  1.
         21    1    1    2  503  501  0.35649330530E+02 -0.78706451964E+01  0.64168094680E+02  0.73826595464E+02  0.00000000000E+00 0.  1.
         -2    1    1    2    0  502 -0.99200388233E+02  0.70023278047E+02 -0.30582526388E+03  0.32904873274E+03  0.00000000000E+00 0.  1.
<scales pt_clust_5="13000.00000" pt_clust_6="13000.00000" pt_clust_7="13000.00000" pt_clust_8="13000.00000" pt_clust_9="36.50783" pt_clust_10="119.91748"></scales>
<clustering>
<clus scale="   36.508">  1  9  2 -1</clus>
<clus scale="   81.592">  5  6 -1 -1</clus>
<clus scale="   90.989">  7  8 -1 -1</clus>
<clus scale="   93.029">  1  7  2 -1</clus>
<clus scale="  119.917">  2 10  1 -1</clus>
<clus scale="  119.917">  2  5  1 -1</clus>
</clustering>
</event>
<event>
10    4  0.7384693E-005  0.1099638E+03  0.7546771E-02  0.1263399E+00
          2   -1    0    0  503    0 -0.00000000000E+00  0.00000000000E+00  0.83379217520E+03  0.83379217520E+03  0.00000000000E+00 0. -1.
         21   -1    0    0  501  502  0.00000000000E+00 -0.00000000000E+00 -0.25821519294E+03  0.25821519294E+03  0.00000000000E+00 0. -1.
         24    2    1    2    0    0  0.56013242891E+02  0.64259791291E+02  0.72591598742E+03  0.73558403716E+03  0.82843531861E+02 0.  0.
         23    2    1    2    0    0 -0.23263804826E+02  0.13892069042E+02 -0.94094157736E+02  0.13300769365E+03  0.90017453042E+02 0.  0.
        -13    1    3    3    0    0  0.28387332172E+02 -0.16959137763E+02  0.19713094826E+03  0.19988512637E+03  0.00000000000E+00 0.  1.
         14    1    3    3    0    0  0.27625910719E+02  0.81218929053E+02  0.52878503916E+03  0.53569891079E+03  0.00000000000E+00 0. -1.
        -11    1    4    4    0    0 -0.41166531748E+01 -0.37626836308E+02 -0.48981192405E+02  0.61902203946E+02  0.00000000000E+00 0.  1.
         11    1    4    4    0    0 -0.19147151651E+02  0.51518905350E+02 -0.45112965331E+02  0.71105489702E+02  0.00000000000E+00 0. -1.
         21    1    1    2  503  502 -0.13068171990E+02 -0.15370674899E+02  0.74427926292E+02  0.77113883174E+02  0.00000000000E+00 0. -1.
          1    1    1    2  501    0 -0.19681266076E+02 -0.62781185434E+02 -0.13067277372E+03  0.14630175416E+03  0.00000000000E+00 0. -1.
<scales pt_clust_5="13000.00000" pt_clust_6="13000.00000" pt_clust_7="13000.00000" pt_clust_8="13000.00000" pt_clust_9="20.17510" pt_clust_10="65.98539"></scales>
<clustering>
<clus scale="   20.175">  1  9  2 -1</clus>
<clus scale="   65.985">  2 10  1 -1</clus>
<clus scale="   82.844">  5  6 -1 -1</clus>
<clus scale="   90.017">  7  8 -1 -1</clus>
<clus scale="  104.173">  1  5  2 -1</clus>
<clus scale="   65.985">  2  5  1 -1</clus>
</clustering>
</event>
<event>
10    4  0.2857708E-005  0.1461554E+03  0.7546771E-02  0.1207474E+00
         21   -1    0    0  501  502  0.00000000000E+00  0.00000000000E+00  0.14948552270E+03  0.14948552270E+03  0.00000000000E+00 0.  1.
          2   -1    0    0  503    0 -0.00000000000E+00 -0.00000000000E+00 -0.44936516547E+03  0.44936516547E+03  0.00000000000E+00 0. -1.
         24    2    1    2    0    0  0.43730594736E+02 -0.74181884279E+02 -0.32426708224E+03  0.34535533979E+03  0.81889274187E+02 0.  0.
         23    2    1    2    0    0 -0.10864540320E+01  0.10643930701E+03  0.57384446956E+02  0.15248882383E+03  0.92894349569E+02 0.  0.
        -11    1    3    3    0    0  0.19190363758E+02 -0.27105428825E+02 -0.25402611927E+02  0.41812283191E+02  0.00000000000E+00 0.  1.
         12    1    3    3    0    0  0.24540230978E+02 -0.47076455454E+02 -0.29886447032E+03  0.30354305660E+03  0.00000000000E+00 0. -1.
        -11    1    4    4    0    0  0.32020211391E+02  0.92198221173E+02  0.62779264749E+02  0.11604758510E+03  0.00000000000E+00 0.  1.
         11    1    4    4    0    0 -0.33106665423E+02  0.14241085836E+02 -0.53948177936E+01  0.36441238730E+02  0.00000000000E+00 0. -1.
         21    1    1    2  503  502 -0.96492906797E+01 -0.43116238642E+02 -0.46125669690E+02  0.63872499948E+02  0.00000000000E+00 0. -1.
          1    1    1    2  501    0 -0.32994850024E+02  0.10858815913E+02  0.13128662217E+02  0.37134024597E+02  0.00000000000E+00 0. -1.
<scales pt_clust_5="13000.00000" pt_clust_6="13000.00000" pt_clust_7="13000.00000" pt_clust_8="13000.00000" pt_clust_9="44.01002" pt_clust_10="34.73577"></scales>
<clustering>
<clus scale="   34.736">  1 10  2 -1</clus>
<clus scale="   44.010">  2  9  1 -1</clus>
<clus scale="   81.889">  5  6 -1 -1</clus>
<clus scale="   92.894">  7  8 -1 -1</clus>
<clus scale="  139.420">  2  5  1 -1</clus>
<clus scale="   34.736">  1  5  2 -1</clus>
</clustering>
</event>
<event>
10    4  0.2857708E-005  0.1370037E+03  0.7546771E-02  0.1237465E+00
         21   -1    0    0  501  502  0.00000000000E+00  0.00000000000E+00  0.11030173792E+03  0.11030173792E+03  0.00000000000E+00 0. -1.
          2   -1    0    0  503    0 -0.00000000000E+00 -0.00000000000E+00 -0.85639144281E+03  0.85639144281E+03  0.00000000000E+00 0. -1.
         23    2    1    2    0    0 -0.95274441334E+01 -0.96644779552E+01  0.31868705126E+02  0.96060519398E+02  0.89598184662E+02 0.  0.
         24    2    1    2    0    0  0.47143069896E+02  0.79076466115E+02 -0.62431900023E+03  0.63596533373E+03  0.78753635629E+02 0.  0.
        -13    1    4    4    0    0  0.32188287392E+02 -0.84401897026E+00 -0.91987906355E+02  0.97460623479E+02  0.00000000000E+00 0.  1.
         14    1    4    4    0    0  0.14954782504E+02  0.79920485086E+02 -0.53233109387E+03  0.53850471025E+03  0.00000000000E+00 0. -1.
        -11    1    3    3    0    0 -0.45042356388E+02 -0.16287211278E+02  0.16068836107E-01  0.47896632224E+02  0.00000000000E+00 0.  1.
         11    1    3    3    0    0  0.35514912255E+02  0.66227333227E+01  0.31852636290E+02  0.48163887174E+02  0.00000000000E+00 0. -1.
         21    1    1    2  503  502  0.21731179749E+02  0.28990254733E+02 -0.10282320546E+03  0.10901967998E+03  0.00000000000E+00 0. -1.
          1    1    1    2  501    0 -0.59346805512E+02 -0.98402242893E+02 -0.50816204337E+02  0.12564764763E+03  0.00000000000E+00 0. -1.
<scales pt_clust_5="13000.00000" pt_clust_6="13000.00000" pt_clust_7="13000.00000" pt_clust_8="13000.00000" pt_clust_9="36.23091" pt_clust_10="112.10655"></scales>
<clustering>
<clus scale="   36.231">  2  9  1 -1</clus>
<clus scale="   78.754">  5  6 -1 -1</clus>
<clus scale="   89.598">  7  8 -1 -1</clus>
<clus scale="   90.403">  2  7  1 -1</clus>
<clus scale="  112.107">  1 10  2 -1</clus>
<clus scale="  112.107">  1  5  2 -1</clus>
</clustering>
</event>
<event>
10    4  0.2857708E-005  0.1950288E+03  0.7546771E-02  0.1190115E+00
          2   -1    0    0  503    0 -0.00000000000E+00  0.00000000000E+00  0.16230807247E+03  0.16230807247E+03  0.00000000000E+00 0. -1.
         21   -1    0    0  501  502  0.00000000000E+00 -0.00000000000E+00 -0.42638789155E+03  0.42638789155E+03  0.00000000000E+00 0. -1.
         24    2    1    2    0    0  0.29309887153E+02  0.19418635228E+01 -0.75854219822E+02  0.11329430420E+03  0.78859979587E+02 0.  0.
         23    2    1    2    0    0  0.12918137301E+03 -0.86214389802E+02 -0.28601872646E+02  0.18172446862E+03  0.89916445863E+02 0.  0.
        -13    1    3    3    0    0 -0.16804326446E+02  0.18349709737E+02 -0.23605942841E+01  0.24993391929E+02  0.00000000000E+00 0.  1.
         14    1    3    3    0    0  0.46114213599E+02 -0.16407846214E+02 -0.73493625538E+02  0.88300912271E+02  0.00000000000E+00 0. -1.
        -13    1    4    4    0    0  0.84917190510E+02 -0.25041352403E+02 -0.52000068446E+02  0.10267426987E+03  0.00000000000E+00 0.  1.
         13    1    4    4    0    0  0.44264182498E+02 -0.61173037399E+02  0.23398195799E+02  0.79050198757E+02  0.00000000000E+00 0. -1.
         21    1    1    2  503  502  0.23326509042E+02  0.41440406122E+02  0.63232957146E+00  0.47558733418E+02  0.00000000000E+00 0. -1.
          1    1    1    2  501    0 -0.18181776920E+03  0.42832120157E+02 -0.16025605618E+03  0.24611845778E+03  0.00000000000E+00 0. -1.
<scales pt_clust_5="13000.00000" pt_clust_6="13000.00000" pt_clust_7="13000.00000" pt_clust_8="13000.00000" pt_clust_9="47.55453" pt_clust_10="173.06437"></scales>
<clustering>
<clus scale="   47.555">  1  9  2 -1</clus>
<clus scale="   78.860">  5  6 -1 -1</clus>
<clus scale="   85.617">  1  5  2 -1</clus>
<clus scale="   89.916">  7  8 -1 -1</clus>
<clus scale="  173.064">  2 10  1 -1</clus>
<clus scale="  173.064">  2  5  1 -1</clus>
</clustering>
</event>
<event>
10    4  0.2857708E-005  0.1052193E+03  0.7546771E-02  0.1277929E+00
          2   -1    0    0  503    0 -0.00000000000E+00  0.00000000000E+00  0.76207051857E+03  0.76207051857E+03  0.00000000000E+00 0. -1.
         21   -1    0    0  501  502  0.00000000000E+00 -0.00000000000E+00 -0.48179551798E+02  0.48179551798E+02  0.00000000000E+00 0.  1.
         24    2    1    2    0    0  0.50678346727E+02  0.34230492134E+02  0.42538429079E+03  0.43660288857E+03  0.77008220593E+02 0.  0.
         23    2    1    2    0    0 -0.54778918323E+02 -0.32684551692E+02  0.92123932811E+02  0.14660145313E+03  0.94531250132E+02 0.  0.
        -13    1    3    3    0    0  0.24670880229E+02  0.26667044111E+02  0.59475445042E+02  0.69692984840E+02  0.00000000000E+00 0.  1.
         14    1    3    3    0    0  0.26007466498E+02  0.75634480232E+01  0.36590884575E+03  0.36690990373E+03  0.00000000000E+00 0. -1.
        -11    1    4    4    0    0 -0.72068776817E+02 -0.10767808757E+02  0.30585591178E+02  0.79027417300E+02  0.00000000000E+00 0.  1.
         11    1    4    4    0    0  0.17289858494E+02 -0.21916742935E+02  0.61538341633E+02  0.67574035831E+02  0.00000000000E+00 0. -1.
         21    1    1    2  503  502 -0.18038029085E+02 -0.18594928312E+02  0.19739219632E+03  0.19908495931E+03  0.00000000000E+00 0.  1.
          1    1    1    2  501    0  0.22138600681E+02  0.17048987869E+02 -0.10094531530E+01  0.27960769359E+02  0.00000000000E+00 0. -1.
<scales pt_clust_5="13000.00000" pt_clust_6="13000.00000" pt_clust_7="13000.00000" pt_clust_8="13000.00000" pt_clust_9="25.90641" pt_clust_10="27.32996"></scales>
<clustering>
<clus scale="   25.906">  1  9  2 -1</clus>
<clus scale="   27.330">  2 10  1 -1</clus>
<clus scale="   77.008">  5  6 -1 -1</clus>
<clus scale="   89.806">  1  5  2 -1</clus>
<clus scale="   94.531">  7  8 -1 -1</clus>
<clus scale="   27.330">  2  5  1 -1</clus>
</clustering>
</event>
<event>
10    4  0.2857708E-005  0.1632681E+03  0.7546771E-02  0.1216784E+00
          2   -1    0    0  503    0 -0.00000000000E+00  0.00000000000E+00  0.69191957888E+03  0.69191957888E+03  0.00000000000E+00 0. -1.
         21   -1    0    0  501  502  0.00000000000E+00 -0.00000000000E+00 -0.17518109759E+03  0.17518109759E+03  0.00000000000E+00 0.  1.
         23    2    1    2    0    0 -0.17551368481E+02  0.40724836141E+02  0.47628292013E+03  0.48466090821E+03  0.78001366173E+02 0.  0.
         24    2    1    2    0    0  0.11645558147E+03  0.80802187859E+02 -0.66135425549E+02  0.17514312958E+03  0.78805617238E+02 0.  0.
        -11    1    4    4    0    0  0.11606807335E+03  0.84837597255E+02 -0.77323958564E+02  0.16324279502E+03  0.00000000000E+00 0.  1.
         12    1    4    4    0    0  0.38750812184E+00 -0.40354093964E+01  0.11188533015E+02  0.11900334557E+02  0.00000000000E+00 0. -1.
        -13    1    3    3    0    0 -0.46498983135E+02  0.39043062244E+02  0.31845887789E+03  0.32419526993E+03  0.00000000000E+00 0. -1.
         13    1    3    3    0    0  0.28947614654E+02  0.16817738971E+01  0.15782404225E+03  0.16046563828E+03  0.00000000000E+00 0.  1.
         21    1    1    2  503  502  0.99411189047E+01 -0.23596215179E+02  0.37474620006E+02  0.45386720089E+02  0.00000000000E+00 0.  1.
          1    1    1    2  501    0 -0.10884533190E+03 -0.97930808820E+02  0.69116366694E+02  0.16190991859E+03  0.00000000000E+00 0. -1.
<scales pt_clust_5="13000.00000" pt_clust_6="13000.00000" pt_clust_7="13000.00000" pt_clust_8="13000.00000" pt_clust_9="25.60483" pt_clust_10="142.99011"></scales>
<clustering>
<clus scale="   25.605">  1  9  2 -1</clus>
<clus scale="   78.001">  7  8 -1 -1</clus>
<clus scale="   78.806">  5  6 -1 -1</clus>
<clus scale="   82.043">  1  7  2 -1</clus>
<clus scale="  142.990">  2 10  1 -1</clus>
<clus scale="  142.990">  2  5  1 -1</clus>
</clustering>
</event>
<event>
10    4  0.2857708E-005  0.4415504E+03  0.7546771E-02  0.1061036E+00
         21   -1    0    0  501  502  0.00000000000E+00  0.00000000000E+00  0.25544188126E+03  0.25544188126E+03  0.00000000000E+00 0. -1.
          2   -1    0    0  503    0 -0.00000000000E+00 -0.00000000000E+00 -0.13581408449E+04  0.13581408449E+04  0.00000000000E+00 0. -1.
         24    2    1    2    0    0 -0.12990265918E+03  0.10038091480E+03 -0.40974665532E+02  0.18666159156E+03  0.78820033183E+02 0.  0.
         23    2    1    2    0    0 -0.18942659140E+03 -0.38510106664E+03 -0.32748665634E+03  0.54791537232E+03  0.93693543459E+02 0.  0.
        -11    1    3    3    0    0 -0.37562562150E+02  0.44090089804E+02  0.21482260241E+02  0.61776772328E+02  0.00000000000E+00 0.  1.
         12    1    3    3    0    0 -0.92340097027E+02  0.56290824998E+02 -0.62456925773E+02  0.12488481923E+03  0.00000000000E+00 0. -1.
        -13    1    4    4    0    0 -0.24986396362E+02 -0.14554799701E+03 -0.92815215792E+02  0.17442248628E+03  0.00000000000E+00 0. -1.
         13    1    4    4    0    0 -0.16444019504E+03 -0.23955306962E+03 -0.23467144055E+03  0.37349288604E+03  0.00000000000E+00 0.  1.
         21    1    1    2  503  502 -0.17425309209E+02 -0.21793706264E+02 -0.42781084827E+02  0.51076689916E+02  0.00000000000E+00 0. -1.
          1    1    1    2  501    0  0.33675455979E+03  0.30651385810E+03 -0.69145655697E+03  0.82792907240E+03  0.00000000000E+00 0. -1.
<scales pt_clust_5="13000.00000" pt_clust_6="13000.00000" pt_clust_7="13000.00000" pt_clust_8="13000.00000" pt_clust_9="27.90353" pt_clust_10="431.49563"></scales>
<clustering>
<clus scale="   27.904">  2  9  1 -1</clus>
<clus scale="   78.820">  5  6 -1 -1</clus>
<clus scale="   93.694">  7  8 -1 -1</clus>
<clus scale="  182.161">  2  5  1 -1</clus>
<clus scale="  431.496">  1 10  2 -1</clus>
<clus scale="  431.496">  1  5  2 -1</clus>
</clustering>
</event>
<event>
10    4  0.2857708E-005  0.1424540E+03  0.7546771E-02  0.1215921E+00
         21   -1    0    0  501  502  0.00000000000E+00  0.00000000000E+00  0.10178724506E+03  0.10178724506E+03  0.00000000000E+00 0. -1.
          2   -1    0    0  503    0 -0.00000000000E+00 -0.00000000000E+00 -0.49843983066E+03  0.49843983066E+03  0.00000000000E+00 0. -1.
         24    2    1    2    0    0 -0.76390317450E+02 -0.29636378845E+02 -0.12823020140E+03  0.17308480259E+03  0.82471624135E+02 0.  0.
         23    2    1    2    0    0  0.11417187063E+03  0.10492028387E+02 -0.11209368182E+02  0.15666281512E+03  0.10617103656E+03 0.  0.
        -11    1    3    3    0    0 -0.88985813647E+01  0.26034814396E+02 -0.20541428447E+02  0.34335791728E+02  0.00000000000E+00 0.  1.
         12    1    3    3    0    0 -0.67491736086E+02 -0.55671193241E+02 -0.10768877295E+03  0.13874901086E+03  0.00000000000E+00 0. -1.
        -13    1    4    4    0    0  0.93302784270E+02  0.12803555347E+02 -0.54313592718E+02  0.10871663597E+03  0.00000000000E+00 0.  1.
         13    1    4    4    0    0  0.20869086359E+02 -0.23115269597E+01  0.43104224536E+02  0.47946179151E+02  0.00000000000E+00 0. -1.
         21    1    1    2  503  502 -0.29716318140E+02  0.44309847749E+02 -0.12947246186E+03  0.14003406925E+03  0.00000000000E+00 0. -1.
          1    1    1    2  501    0 -0.80652350384E+01 -0.25165497291E+02 -0.12774055417E+03  0.13044538876E+03  0.00000000000E+00 0. -1.
<scales pt_clust_5="13000.00000" pt_clust_6="13000.00000" pt_clust_7="13000.00000" pt_clust_8="13000.00000" pt_clust_9="52.50044" pt_clust_10="26.42633"></scales>
<clustering>
<clus scale="   26.426">  1 10  2 -1</clus>
<clus scale="   52.500">  2  9  1 -1</clus>
<clus scale="   82.472">  5  6 -1 -1</clus>
<clus scale="  106.171">  7  8 -1 -1</clus>
<clus scale="  125.787">  2  5  1 -1</clus>
<clus scale="   26.426">  1  5  2 -1</clus>
</clustering>
</event>
<event>
10    4  0.2857708E-005  0.3452873E+03  0.7546771E-02  0.1081965E+00
          2   -1    0    0  503    0 -0.00000000000E+00  0.00000000000E+00  0.40595871818E+03  0.40595871818E+03  0.00000000000E+00 0. -1.
         21   -1    0    0  501  502  0.00000000000E+00 -0.00000000000E+00 -0.10843883143E+04  0.10843883143E+04  0.00000000000E+00 0. -1.
         24    2    1    2    0    0  0.19000519539E+03 -0.72862748783E+02  0.12533167422E+03  0.25353279139E+03  0.84616152782E+02 0.  0.
         23    2    1    2    0    0  0.11528958408E+03  0.30029614830E+03 -0.69612994498E+03  0.77222571712E+03  0.90918606469E+02 0.  0.
        -11    1    3    3    0    0  0.12406143831E+03 -0.15968067686E+02  0.10682605635E+03  0.16449323991E+03  0.00000000000E+00 0.  1.
         12    1    3    3    0    0  0.65943757085E+02 -0.56894681097E+02  0.18505617873E+02  0.89039551484E+02  0.00000000000E+00 0. -1.
        -13    1    4    4    0    0  0.23426044555E+02  0.18534124023E+03 -0.37304704447E+03  0.41721008171E+03  0.00000000000E+00 0. -1.
         13    1    4    4    0    0  0.91863539520E+02  0.11495490807E+03 -0.32308290051E+03  0.35501563541E+03  0.00000000000E+00 0.  1.
         21    1    1    2  503  502 -0.22012754252E+03 -0.27663914065E+03 -0.87229868210E+02  0.36413513841E+03  0.00000000000E+00 0. -1.
          1    1    1    2  501    0 -0.85167236946E+02  0.49205741132E+02 -0.20401457097E+02  0.10045338551E+03  0.00000000000E+00 0. -1.
<scales pt_clust_5="13000.00000" pt_clust_6="13000.00000" pt_clust_7="13000.00000" pt_clust_8="13000.00000" pt_clust_9="333.10225" pt_clust_10="98.35992"></scales>
<clustering>
<clus scale="   84.616">  5  6 -1 -1</clus>
<clus scale="   90.919">  7  8 -1 -1</clus>
<clus scale="   98.360">  2 10  1 -1</clus>
<clus scale="  214.788">  1  5  2 -1</clus>
<clus scale="  333.102">  1  9  2 -1</clus>
<clus scale="   98.360">  2  5  1 -1</clus>
</clustering>
</event>
<event>
10    4  0.2857708E-005  0.1631749E+03  0.7546771E-02  0.1187135E+00
          2   -1    0    0  503    0 -0.00000000000E+00  0.00000000000E+00  0.26354030152E+03  0.26354030152E+03  0.00000000000E+00 0. -1.
         21   -1    0    0  501  502  0.00000000000E+00 -0.00000000000E+00 -0.27064705218E+03  0.27064705218E+03  0.00000000000E+00 0.  1.
         23    2    1    2    0    0 -0.12677393726E+03 -0.44069188215E+02  0.11068978632E+03  0.19649619161E+03  0.91349876875E+02 0.  0.
         24    2    1    2    0    0  0.15661648613E+03  0.20862257736E+02 -0.18290934518E+03  0.25401393222E+03  0.78123566769E+02 0.  0.
        -11    1    4    4    0    0  0.11577407583E+03  0.10474418493E+02 -0.75448774864E+02  0.13858523624E+03  0.00000000000E+00 0.  1.
         12    1    4    4    0    0  0.40842410305E+02  0.10387839243E+02 -0.10746057031E+03  0.11542869598E+03  0.00000000000E+00 0. -1.
        -13    1    3    3    0    0 -0.31377060938E+02  0.21399547430E+02  0.24506397892E+01  0.38058720666E+02  0.00000000000E+00 0.  1.
         13    1    3    3    0    0 -0.95396876318E+02 -0.65468735645E+02  0.10823914653E+03  0.15843747095E+03  0.00000000000E+00 0. -1.
         21    1    1    2  503  502 -0.67202385845E+00  0.22748157821E+02  0.22247038320E+02  0.31825477441E+02  0.00000000000E+00 0. -1.
          1    1    1    2  501    0 -0.29170525017E+02  0.45877265825E+00  0.42865769877E+02  0.51851752422E+02  0.00000000000E+00 0. -1.
<scales pt_clust_5="13000.00000" pt_clust_6="13000.00000" pt_clust_7="13000.00000" pt_clust_8="13000.00000" pt_clust_9="22.75808" pt_clust_10="29.73095"></scales>
<clustering>
<clus scale="   22.758">  1  9  2 -1</clus>
<clus scale="   29.731">  2 10  1 -1</clus>
<clus scale="   78.124">  5  6 -1 -1</clus>
<clus scale="   91.350">  7  8 -1 -1</clus>
<clus scale="  156.156">  2  5  1 -1</clus>
<clus scale="   29.731">  2  5  1 -1</clus>
</clustering>
</event>
<event>
10    4  0.2857708E-005  0.9532099E+02  0.7546771E-02  0.1300426E+00
         21   -1    0    0  501  502  0.00000000000E+00  0.00000000000E+00  0.23273519192E+03  0.23273519192E+03  0.00000000000E+00 0. -1.
          2   -1    0    0  503    0 -0.00000000000E+00 -0.00000000000E+00 -0.51715225089E+03  0.51715225089E+03  0.00000000000E+00 0. -1.
         24    2    1    2    0    0  0.24154874863E+02 -0.66815759433E+01 -0.42326856885E+03  0.43072260488E+03  0.75746812127E+02 0.  0.
         23    2    1    2    0    0  0.47299352207E+01  0.27803436400E+02 -0.26703593939E+02  0.10028973358E+03  0.92463751648E+02 0.  0.
        -11    1    3    3    0    0  0.14370669204E+02  0.18049645152E+02 -0.37436594475E+02  0.43975043256E+02  0.00000000000E+00 0.  1.
         12    1    3    3    0    0  0.97842056595E+01 -0.24731221096E+02 -0.38583197437E+03  0.38674756163E+03  0.00000000000E+00 0. -1.
        -13    1    4    4    0    0  0.16617218391E+02  0.56005581420E+02  0.18290130241E+01  0.58447432672E+02  0.00000000000E+00 0.  1.
         13    1    4    4    0    0 -0.11887283170E+02 -0.28202145021E+02 -0.28532606963E+02  0.41842300905E+02  0.00000000000E+00 0. -1.
         21    1    1    2  503  502 -0.15631294902E+02 -0.39795921658E+02 -0.82699534049E+01  0.43548190436E+02  0.00000000000E+00 0. -1.
          1    1    1    2  501    0 -0.13253515182E+02  0.18674061201E+02  0.17382505721E+03  0.17532691391E+03  0.00000000000E+00 0. -1.
<scales pt_clust_5="13000.00000" pt_clust_6="13000.00000" pt_clust_7="13000.00000" pt_clust_8="13000.00000" pt_clust_9="39.38491" pt_clust_10="22.89926"></scales>
<clustering>
<clus scale="   22.899">  1 10  2 -1</clus>
<clus scale="   39.385">  1  9  2 -1</clus>
<clus scale="   75.747">  5  6 -1 -1</clus>
<clus scale="   79.209">  2  5  1 -1</clus>
<clus scale="   92.464">  7  8 -1 -1</clus>
<clus scale="   22.899">  1  5  2 -1</clus>
</clustering>
</event>
<event>
10    4  0.2857708E-005  0.2058264E+03  0.7546771E-02  0.1162338E+00
         21   -1    0    0  501  502  0.00000000000E+00  0.00000000000E+00  0.50709442327E+03  0.50709442327E+03  0.00000000000E+00 0. -1.
          2   -1    0    0  503    0 -0.00000000000E+00 -0.00000000000E+00 -0.49875003859E+03  0.49875003859E+03  0.00000000000E+00 0. -1.
         23    2    1    2    0    0  0.33446850486E+02 -0.95972837230E+02 -0.27144747899E+02  0.13942488479E+03  0.91504010109E+02 0.  0.
         24    2    1    2    0    0  0.89151830821E+02  0.19416226091E+03 -0.32568324647E+03  0.39763777380E+03  0.79994934966E+02 0.  0.
        -13    1    4    4    0    0  0.49930852388E+02  0.48706892765E+02 -0.59063686952E+02  0.91400057655E+02  0.00000000000E+00 0.  1.
         14    1    4    4    0    0  0.39220978432E+02  0.14545536815E+03 -0.26661955951E+03  0.30623771614E+03  0.00000000000E+00 0. -1.
        -11    1    3    3    0    0 -0.29724146209E+01 -0.45999029927E+02 -0.54865949704E+02  0.71659042973E+02  0.00000000000E+00 0.  1.
         11    1    3    3    0    0  0.36419265107E+02 -0.49973807303E+02  0.27721201805E+02  0.67765841814E+02  0.00000000000E+00 0. -1.
         21    1    1    2  503  502  0.30907016975E+02  0.13351257022E+02 -0.22677371681E+02  0.40592646486E+02  0.00000000000E+00 0.  1.
          1    1    1    2  501    0 -0.15350569828E+03 -0.11154068071E+03  0.38384975073E+03  0.42818915679E+03  0.00000000000E+00 0. -1.
<scales pt_clust_5="13000.00000" pt_clust_6="13000.00000" pt_clust_7="13000.00000" pt_clust_8="13000.00000" pt_clust_9="33.66749" pt_clust_10="189.64525"></scales>
<clustering>
<clus scale="   33.667">  2  9  1 -1</clus>
<clus scale="   79.995">  5  6 -1 -1</clus>
<clus scale="   91.504">  7  8 -1 -1</clus>
<clus scale="  136.566">  2  7  1 -1</clus>
<clus scale="  189.645">  1 10  2 -1</clus>
<clus scale="  189.645">  1  5  2 -1</clus>
</clustering>
</event>
<event>
10    4  0.2857708E-005  0.2303959E+03  0.7546771E-02  0.1166421E+00
         21   -1    0    0  501  502  0.00000000000E+00  0.00000000000E+00  0.35136312968E+03  0.35136312968E+03  0.00000000000E+00 0. -1.
          2   -1    0    0  503    0 -0.00000000000E+00 -0.00000000000E+00 -0.29211180895E+03  0.29211180895E+03  0.00000000000E+00 0. -1.
         24    2    1    2    0    0  0.28411139114E+02 -0.20275457340E+02 -0.25196889827E+02  0.92598197578E+02  0.81983266229E+02 0.  0.
         23    2    1    2    0    0 -0.21524941466E+03 -0.59451911684E+01  0.70659954085E+02  0.24366655747E+03  0.89514838495E+02 0.  0.
        -11    1    3    3    0    0  0.22372105936E+02 -0.55000281662E+01  0.28460818044E+02  0.36616657379E+02  0.00000000000E+00 0.  1.
         12    1    3    3    0    0  0.60390331781E+01 -0.14775429174E+02 -0.53657707872E+02  0.55981540199E+02  0.00000000000E+00 0. -1.
        -13    1    4    4    0    0 -0.52338716608E+02  0.29752194064E+02 -0.52400350433E+01  0.60431715804E+02  0.00000000000E+00 0.  1.
         13    1    4    4    0    0 -0.16291069805E+03 -0.35697385233E+02  0.75899989129E+02  0.18323484167E+03  0.00000000000E+00 0. -1.
         21    1    1    2  503  502 -0.20183153823E+02 -0.15854345475E+02 -0.74088342911E+02  0.78407923860E+02  0.00000000000E+00 0. -1.
          1    1    1    2  501    0  0.20702142936E+03  0.42074993983E+02  0.87876599388E+02  0.22880225972E+03  0.00000000000E+00 0. -1.
<scales pt_clust_5="13000.00000" pt_clust_6="13000.00000" pt_clust_7="13000.00000" pt_clust_8="13000.00000" pt_clust_9="25.66554" pt_clust_10="212.29545"></scales>
<clustering>
<clus scale="   25.666">  2  9  1 -1</clus>
<clus scale="   81.983">  5  6 -1 -1</clus>
<clus scale="   88.606">  2  5  1 -1</clus>
<clus scale="   89.515">  7  8 -1 -1</clus>
<clus scale="  212.295">  1 10  2 -1</clus>
<clus scale="  212.295">  1  5  2 -1</clus>
</clustering>
</event>
<event>
10    4  0.2857708E-005  0.1923079E+03  0.7546771E-02  0.1157416E+00
         21   -1    0    0  501  502  0.00000000000E+00  0.00000000000E+00  0.13796238370E+03  0.13796238370E+03  0.00000000000E+00 0. -1.
          4   -1    0    0  503    0 -0.00000000000E+00 -0.00000000000E+00 -0.96641344871E+03  0.96641344871E+03  0.00000000000E+00 0. -1.
         24    2    1    2    0    0 -0.13946227027E+03 -0.63403643002E+02 -0.39734373759E+03  0.43344170204E+03  0.80745999853E+02 0.  0.
         23    2    1    2    0    0  0.18448937264E+03  0.41369703497E+02 -0.42436431450E+03  0.47336824935E+03  0.90800039047E+02 0.  0.
        -13    1    3    3    0    0 -0.60941917871E+01 -0.24679555217E+02 -0.12693782013E+03  0.12945821642E+03  0.00000000000E+00 0.  1.
         14    1    3    3    0    0 -0.13336807849E+03 -0.38724087785E+02 -0.27040591745E+03  0.30398348562E+03  0.00000000000E+00 0. -1.
        -13    1    4    4    0    0  0.42776673234E+02  0.44167404737E+02 -0.18760371023E+03  0.19742278365E+03  0.00000000000E+00 0.  1.
         13    1    4    4    0    0  0.14171269941E+03 -0.27977012398E+01 -0.23676060427E+03  0.27594546570E+03  0.00000000000E+00 0. -1.
         21    1    1    2  503  502 -0.15202102026E+02 -0.28239472266E+02 -0.90166913617E+02  0.95700804652E+02  0.00000000000E+00 0.  1.
          3    1    1    2  501    0 -0.29825000342E+02  0.50273411770E+02  0.83423900693E+02  0.10186507637E+03  0.00000000000E+00 0. -1.
<scales pt_clust_5="13000.00000" pt_clust_6="13000.00000" pt_clust_7="13000.00000" pt_clust_8="13000.00000" pt_clust_9="32.07135" pt_clust_10="58.28088"></scales>
<clustering>
<clus scale="   32.071">  2  9  1 -1</clus>
<clus scale="   58.281">  1 10  2 -1</clus>
<clus scale="   80.746">  5  6 -1 -1</clus>
<clus scale="   90.800">  7  8 -1 -1</clus>
<clus scale="  187.770">  2  5  1 -1</clus>
<clus scale="   58.281">  1  5  2 -1</clus>
</clustering>
</event>
<event>
10    4  0.2857708E-005  0.2353226E+03  0.7546771E-02  0.1151961E+00
         21   -1    0    0  503  502  0.00000000000E+00  0.00000000000E+00  0.10032734766E+03  0.10032734766E+03  0.00000000000E+00 0.  1.
         -1   -1    0    0    0  501 -0.00000000000E+00 -0.00000000000E+00 -0.92406229544E+03  0.92406229544E+03  0.00000000000E+00 0.  1.
         24    2    1    2    0    0  0.73806910725E+02  0.48326958869E+02 -0.11485642997E+03  0.16520775001E+03  0.79489912151E+02 0.  0.
         23    2    1    2    0    0 -0.19461915148E+03 -0.15015460692E+03 -0.27069793611E+03  0.37739183182E+03  0.93403436809E+02 0.  0.
        -11    1    3    3    0    0  0.68710455861E+02  0.65510520059E+02 -0.73265194039E+02  0.11991890443E+03  0.00000000000E+00 0.  1.
         12    1    3    3    0    0  0.50964548634E+01 -0.17183561190E+02 -0.41591235933E+02  0.45288845578E+02  0.00000000000E+00 0. -1.
        -13    1    4    4    0    0 -0.32870898593E+02  0.99988824625E+01 -0.47273859347E+02  0.58440494543E+02  0.00000000000E+00 0. -1.
         13    1    4    4    0    0 -0.16174825289E+03 -0.16015348938E+03 -0.22342407676E+03  0.31895133728E+03  0.00000000000E+00 0.  1.
         21    1    1    2  503  501 -0.10573171587E+02 -0.19024977034E+02 -0.45633844860E+02  0.50558772782E+02  0.00000000000E+00 0. -1.
         -2    1    1    2    0  502  0.13138541234E+03  0.12085262508E+03 -0.39254673684E+03  0.43123128849E+03  0.00000000000E+00 0.  1.
<scales pt_clust_5="13000.00000" pt_clust_6="13000.00000" pt_clust_7="13000.00000" pt_clust_8="13000.00000" pt_clust_9="21.76561" pt_clust_10="215.99207"></scales>
<clustering>
<clus scale="   21.766">  2  9  1 -1</clus>
<clus scale="   79.490">  5  6 -1 -1</clus>
<clus scale="   93.403">  7  8 -1 -1</clus>
<clus scale="  116.491">  2  5  1 -1</clus>
<clus scale="  215.992">  1 10  2 -1</clus>
<clus scale="  215.992">  1  5  2 -1</clus>
</clustering>
</event>
<event>
10    4  0.2857708E-005  0.1929054E+03  0.7546771E-02  0.1176439E+00
         -1   -1    0    0    0  501 -0.00000000000E+00  0.00000000000E+00  0.10884533285E+03  0.10884533285E+03  0.00000000000E+00 0.  1.
         21   -1    0    0  503  502  0.00000000000E+00 -0.00000000000E+00 -0.90972538561E+03  0.90972538561E+03  0.00000000000E+00 0.  1.
         23    2    1    2    0    0  0.20187148490E+03  0.10027745106E+03 -0.41583903613E+03  0.48112947853E+03  0.88067062711E+02 0.  0.
         24    2    1    2    0    0 -0.70493494966E+02 -0.64513941653E+02 -0.31676205375E+03  0.34017119288E+03  0.79037081600E+02 0.  0.
        -11    1    4    4    0    0 -0.57905329769E+02 -0.23017917963E+02 -0.91047922949E+02  0.11032939788E+03  0.00000000000E+00 0.  1.
         12    1    4    4    0    0 -0.12588165197E+02 -0.41496023690E+02 -0.22571413080E+03  0.22984179500E+03  0.00000000000E+00 0. -1.
        -11    1    3    3    0    0  0.55022088099E+02  0.16610907009E+02 -0.43026246557E+02  0.71795614791E+02  0.00000000000E+00 0. -1.
         11    1    3    3    0    0  0.14684939680E+03  0.83666544046E+02 -0.37281278958E+03  0.40933386374E+03  0.00000000000E+00 0.  1.
         21    1    1    2  503  501 -0.15646386747E+03 -0.30260061037E+02 -0.60048113947E+02  0.17030087817E+03  0.00000000000E+00 0.  1.
         -2    1    1    2    0  502  0.25085877540E+02 -0.55034483642E+01 -0.82308489200E+01  0.26969168875E+02  0.00000000000E+00 0.  1.
<scales pt_clust_5="13000.00000" pt_clust_6="13000.00000" pt_clust_7="13000.00000" pt_clust_8="13000.00000" pt_clust_9="171.62950" pt_clust_10="25.68248"></scales>
<clustering>
<clus scale="   25.682">  2 10  1 -1</clus>
<clus scale="   79.037">  5  6 -1 -1</clus>
<clus scale="   88.067">  7  8 -1 -1</clus>
<clus scale="  120.112">  2  5  1 -1</clus>
<clus scale="  171.629">  1  9  2 -1</clus>
<clus scale="   25.682">  2  5  1 -1</clus>
</clustering>
</event>
<event>
10    4  0.2857708E-005  0.1832897E+03  0.7546771E-02  0.1190549E+00
          2   -1    0    0  502    0 -0.00000000000E+00  0.00000000000E+00  0.47748079596E+03  0.47748079596E+03  0.00000000000E+00 0. -1.
         21   -1    0    0  503  502  0.00000000000E+00 -0.00000000000E+00 -0.39053357765E+03  0.39053357765E+03  0.00000000000E+00 0.  1.
         23    2    1    2    0    0  0.51331094311E+01  0.46387779141E+02 -0.10201842603E+03  0.14437659480E+03  0.90877208416E+02 0.  0.
         24    2    1    2    0    0 -0.91331012925E+02 -0.14125038443E+03 -0.22230935879E+03  0.28990466573E+03  0.79562800217E+02 0.  0.
        -11    1    4    4    0    0 -0.88668299012E+02 -0.15146673391E+03 -0.21014525229E+03  0.27379785571E+03  0.00000000000E+00 0.  1.
         12    1    4    4    0    0 -0.26627139135E+01  0.10216349474E+02 -0.12164106502E+02  0.16106810018E+02  0.00000000000E+00 0. -1.
        -11    1    3    3    0    0 -0.13167233502E+02  0.68546727756E+02 -0.88229393959E+02  0.11250091503E+03  0.00000000000E+00 0.  1.
         11    1    3    3    0    0  0.18300342933E+02 -0.22158948615E+02 -0.13789032072E+02  0.31875679768E+02  0.00000000000E+00 0. -1.
         21    1    1    2  503  501  0.50823160702E+02  0.68016259735E+02  0.19093647921E+03  0.20896397858E+03  0.00000000000E+00 0. -1.
          1    1    1    2  501    0  0.35374742793E+02  0.26846345556E+02  0.22033852393E+03  0.22476913450E+03  0.00000000000E+00 0. -1.
<scales pt_clust_5="13000.00000" pt_clust_6="13000.00000" pt_clust_7="13000.00000" pt_clust_8="13000.00000" pt_clust_9="36.50774" pt_clust_10="172.66502"></scales>
<clustering>
<clus scale="   36.508">  9 10 -1 -1</clus>
<clus scale="   79.563">  5  6 -1 -1</clus>
<clus scale="   90.877">  7  8 -1 -1</clus>
<clus scale="  102.161">  1  7  2 -1</clus>
<clus scale="  172.665">  2  9  1 -1</clus>
<clus scale="  172.665">  2  5  1 -1</clus>
</clustering>
</event>
<event>
10    4  0.2857708E-005  0.2235703E+03  0.7546771E-02  0.1141938E+00
         -1   -1    0    0    0  501 -0.00000000000E+00  0.00000000000E+00  0.28623819789E+03  0.28623819789E+03  0.00000000000E+00 0.  1.
         21   -1    0    0  503  502  0.00000000000E+00 -0.00000000000E+00 -0.71440382033E+03  0.71440382033E+03  0.00000000000E+00 0.  1.
         23    2    1    2    0    0 -0.97043646972E+02 -0.12240710985E+03  0.84504532475E+02  0.19953402133E+03  0.90949654757E+02 0.  0.
         24    2    1    2    0    0 -0.80957933033E+02 -0.18834109042E+03 -0.13416001327E+03  0.25187619607E+03  0.58447888948E+02 0.  0.
        -13    1    4    4    0    0 -0.89526381126E+02 -0.15797622959E+03 -0.11605408021E+03  0.21549944679E+03  0.00000000000E+00 0.  1.
         14    1    4    4    0    0  0.85684480938E+01 -0.30364860832E+02 -0.18105933063E+02  0.36376749280E+02  0.00000000000E+00 0. -1.
        -11    1    3    3    0    0 -0.33258432423E+02 -0.17070519093E+02 -0.15921119228E+02  0.40632597589E+02  0.00000000000E+00 0. -1.
         11    1    3    3    0    0 -0.63785214549E+02 -0.10533659076E+03  0.10042565170E+03  0.15890142374E+03  0.00000000000E+00 0.  1.
         21    1    1    2  503  501  0.14390188343E+01  0.10869023719E+03 -0.19787257740E+03  0.22576358281E+03  0.00000000000E+00 0. -1.
         -2    1    1    2    0  502  0.17656256117E+03  0.20205796308E+03 -0.18063756424E+03  0.32346821801E+03  0.00000000000E+00 0.  1.
<scales pt_clust_5="13000.00000" pt_clust_6="13000.00000" pt_clust_7="13000.00000" pt_clust_8="13000.00000" pt_clust_9="108.69976" pt_clust_10="215.79517"></scales>
<clustering>
<clus scale="   58.448">  5  6 -1 -1</clus>
<clus scale="   90.950">  7  8 -1 -1</clus>
<clus scale="  108.700">  2  9  1 -1</clus>
<clus scale="  172.483">  1  7  2 -1</clus>
<clus scale="  215.795">  2 10  1 -1</clus>
<clus scale="  108.700">  2  5  1 -1</clus>
</clustering>
</event>
<event>
10    4  0.2857708E-005  0.1146874E+03  0.7546771E-02  0.1256442E+00
         21   -1    0    0  501  502  0.00000000000E+00  0.00000000000E+00  0.28975039040E+03  0.28975039040E+03  0.00000000000E+00 0.  1.
          2   -1    0    0  503    0 -0.00000000000E+00 -0.00000000000E+00 -0.28437011363E+03  0.28437011363E+03  0.00000000000E+00 0. -1.
         24    2    1    2    0    0  0.53787484485E+02  0.57139669987E+01 -0.16501266742E+03  0.19132369556E+03  0.80310853359E+02 0.  0.
         23    2    1    2    0    0 -0.51669067818E+02 -0.35359888877E+02  0.18361765637E+03  0.21483617038E+03  0.92299090265E+02 0.  0.
        -11    1    3    3    0    0  0.89177141696E+01  0.29372285326E+02 -0.17502002901E+02  0.35335207327E+02  0.00000000000E+00 0.  1.
         12    1    3    3    0    0  0.44869770315E+02 -0.23658318327E+02 -0.14751066452E+03  0.15598848823E+03  0.00000000000E+00 0. -1.
        -13    1    4    4    0    0 -0.36647429313E+02  0.31949851271E+00  0.16983341271E+03  0.17374269546E+03  0.00000000000E+00 0.  1.
         13    1    4    4    0    0 -0.15021638505E+02 -0.35679387389E+02  0.13784243664E+02  0.41093474923E+02  0.00000000000E+00 0. -1.
         21    1    1    2  503  502  0.13329714826E+02  0.15637433587E+02 -0.87981816694E+02  0.90349381267E+02  0.00000000000E+00 0. -1.
          1    1    1    2  501    0 -0.15448131493E+02  0.14008488291E+02  0.74757104511E+02  0.77611256823E+02  0.00000000000E+00 0. -1.
<scales pt_clust_5="13000.00000" pt_clust_6="13000.00000" pt_clust_7="13000.00000" pt_clust_8="13000.00000" pt_clust_9="20.54776" pt_clust_10="20.85898"></scales>
<clustering>
<clus scale="   20.548">  2  9  1 -1</clus>
<clus scale="   20.859">  1 10  2 -1</clus>
<clus scale="   80.311">  5  6 -1 -1</clus>
<clus scale="   92.299">  7  8 -1 -1</clus>
<clus scale="  105.280">  2  5  1 -1</clus>
<clus scale="   20.859">  1  5  2 -1</clus>
</clustering>
</event>
<event>
10    4  0.2857708E-005  0.1634901E+03  0.7546771E-02  0.1188955E+00
          2   -1    0    0  502    0 -0.00000000000E+00  0.00000000000E+00  0.14045517534E+04  0.14045517534E+04  0.00000000000E+00 0. -1.
         21   -1    0    0  503  502  0.00000000000E+00 -0.00000000000E+00 -0.67398775610E+02  0.67398775610E+02  0.00000000000E+00 0.  1.
         23    2    1    2    0    0 -0.10664453413E+03  0.49042091879E+02  0.22672436409E+03  0.27136612903E+03  0.91964423983E+02 0.  0.
         24    2    1    2    0    0 -0.10518482987E+03 -0.72380945236E+02  0.15089654794E+03  0.21378080542E+03  0.81422447244E+02 0.  0.
        -13    1    4    4    0    0 -0.80970751896E+02 -0.69846246386E+02  0.66458118922E+02  0.12590251136E+03  0.00000000000E+00 0.  1.
         14    1    4    4    0    0 -0.24214077979E+02 -0.25346988499E+01  0.84438429019E+02  0.87878294054E+02  0.00000000000E+00 0. -1.
        -13    1    3    3    0    0 -0.69525543175E+02  0.69686994481E+02  0.11242646212E+03  0.14943154867E+03  0.00000000000E+00 0.  1.
         13    1    3    3    0    0 -0.37118990952E+02 -0.20644902602E+02  0.11429790197E+03  0.12193458036E+03  0.00000000000E+00 0. -1.
         21    1    1    2  503  501  0.13451735940E+03  0.16714247802E+02  0.41015832814E+03  0.43197701351E+03  0.00000000000E+00 0. -1.
          1    1    1    2  501    0  0.77312004599E+02  0.66246055554E+01  0.54937373760E+03  0.55482658104E+03  0.00000000000E+00 0. -1.
<scales pt_clust_5="13000.00000" pt_clust_6="13000.00000" pt_clust_7="13000.00000" pt_clust_8="13000.00000" pt_clust_9="66.23221" pt_clust_10="66.23221"></scales>
<clustering>
<clus scale="   66.232">  9 10 -1 -1</clus>
<clus scale="   81.422">  5  6 -1 -1</clus>
<clus scale="   91.964">  7  8 -1 -1</clus>
<clus scale="  149.116">  1  7  2 -1</clus>
<clus scale="  160.298">  1  5  2 -1</clus>
<clus scale="  163.490">  2  5  1 -1</clus>
</clustering>
</event>
<event>
10    4  0.2857708E-005  0.1088603E+03  0.7546771E-02  0.1270760E+00
         21   -1    0    0  501  502  0.00000000000E+00  0.00000000000E+00  0.19872785139E+03  0.19872785139E+03  0.00000000000E+00 0. -1.
          2   -1    0    0  503    0 -0.00000000000E+00 -0.00000000000E+00 -0.12306604564E+03  0.12306604564E+03  0.00000000000E+00 0. -1.
         23    2    1    2    0    0 -0.19619020057E+02  0.40908166654E+02  0.25021092021E+02  0.10859206457E+03  0.95434780841E+02 0.  0.
         24    2    1    2    0    0  0.64946536594E+02 -0.39767766120E+02  0.79169832068E+02  0.13410923140E+03  0.76927861004E+02 0.  0.
        -11    1    4    4    0    0  0.18072150477E+02  0.15786941147E+02  0.50612116703E+02  0.56012645811E+02  0.00000000000E+00 0.  1.
         12    1    4    4    0    0  0.46874386117E+02 -0.55554707267E+02  0.28557715365E+02  0.78096585586E+02  0.00000000000E+00 0. -1.
        -13    1    3    3    0    0 -0.28248412690E+02 -0.25032652910E+02  0.17697292284E+02  0.41686936628E+02  0.00000000000E+00 0. -1.
         13    1    3    3    0    0  0.86293926333E+01  0.65940819564E+02  0.73237997365E+01  0.66905127939E+02  0.00000000000E+00 0.  1.
         21    1    1    2  503  502 -0.57738156207E+01 -0.26272247781E+02 -0.99094403158E+01  0.28666443059E+02  0.00000000000E+00 0.  1.
          1    1    1    2  501    0 -0.39553700916E+02  0.25131847248E+02 -0.18619678023E+02  0.50426158013E+02  0.00000000000E+00 0. -1.
<scales pt_clust_5="13000.00000" pt_clust_6="13000.00000" pt_clust_7="13000.00000" pt_clust_8="13000.00000" pt_clust_9="26.89922" pt_clust_10="44.59631"></scales>
<clustering>
<clus scale="   26.899">  2  9  1 -1</clus>
<clus scale="   44.596">  1 10  2 -1</clus>
<clus scale="   76.928">  5  6 -1 -1</clus>
<clus scale="   93.063">  1  5  2 -1</clus>
<clus scale="   95.435">  7  8 -1 -1</clus>
<clus scale="   44.596">  1  5  2 -1</clus>
</clustering>
</event>
<event>
10    4  0.2857708E-005  0.1005327E+03  0.7546771E-02  0.1284253E+00
         -1   -1    0    0    0  501 -0.00000000000E+00  0.00000000000E+00  0.95022027688E+02  0.95022027688E+02  0.00000000000E+00 0.  1.
         21   -1    0    0  503  502  0.00000000000E+00 -0.00000000000E+00 -0.33002322841E+03  0.33002322841E+03  0.00000000000E+00 0. -1.
         23    2    1    2    0    0  0.45259559005E+00  0.38676516924E+02  0.28640135031E+02  0.10351251530E+03  0.91643361375E+02 0.  0.
         24    2    1    2    0    0 -0.28552833263E+02 -0.52987743221E+02 -0.18620914297E+03  0.21195485528E+03  0.81412840083E+02 0.  0.
        -11    1    4    4    0    0  0.17411499531E+02 -0.50919576021E+02 -0.82530977919E+02  0.98525762389E+02  0.00000000000E+00 0.  1.
         12    1    4    4    0    0 -0.45964332794E+02 -0.20681671997E+01 -0.10367816505E+03  0.11342909289E+03  0.00000000000E+00 0. -1.
        -11    1    3    3    0    0 -0.25484013907E+02  0.31522722836E+01 -0.23839019254E+02  0.35038131006E+02  0.00000000000E+00 0. -1.
         11    1    3    3    0    0  0.25936609497E+02  0.35524244641E+02  0.52479154285E+02  0.68474384290E+02  0.00000000000E+00 0.  1.
         21    1    1    2  503  501  0.20066525759E+02 -0.67429162504E+01  0.69168546116E+01  0.22270501865E+02  0.00000000000E+00 0.  1.
         -2    1    1    2    0  502  0.80337119140E+01  0.21054142547E+02 -0.84349047396E+02  0.87307383664E+02  0.00000000000E+00 0.  1.
<scales pt_clust_5="13000.00000" pt_clust_6="13000.00000" pt_clust_7="13000.00000" pt_clust_8="13000.00000" pt_clust_9="21.16914" pt_clust_10="22.55386"></scales>
<clustering>
<clus scale="   21.169">  1  9  2 -1</clus>
<clus scale="   22.554">  2 10  1 -1</clus>
<clus scale="   81.413">  5  6 -1 -1</clus>
<clus scale="   91.304">  2  5  1 -1</clus>
<clus scale="   91.643">  7  8 -1 -1</clus>
<clus scale="   22.554">  2  5  1 -1</clus>
</clustering>
</event>
<event>
10    4  0.2857708E-005  0.4360624E+03  0.7546771E-02  0.1031962E+00
         21   -1    0    0  501  502  0.00000000000E+00  0.00000000000E+00  0.10332829725E+03  0.10332829725E+03  0.00000000000E+00 0. -1.
          2   -1    0    0  503    0 -0.00000000000E+00 -0.00000000000E+00 -0.20098080952E+04  0.20098080952E+04  0.00000000000E+00 0. -1.
         24    2    1    2    0    0  0.38071074188E+02  0.11149131497E+03 -0.47470287654E+03  0.49676381112E+03  0.86900765493E+02 0.  0.
         23    2    1    2    0    0  0.96247294716E+02  0.24602771535E+03 -0.71342648660E+03  0.76693876312E+03  0.97080050214E+02 0.  0.
        -13    1    3    3    0    0 -0.28184083026E+02  0.27253779915E+02 -0.13057148031E+03  0.13633056343E+03  0.00000000000E+00 0.  1.
         14    1    3    3    0    0  0.66255157214E+02  0.84237535060E+02 -0.34413139623E+03  0.36043324769E+03  0.00000000000E+00 0. -1.
        -11    1    4    4    0    0  0.40462291166E+02  0.15403991420E+02 -0.13367634293E+03  0.14051279165E+03  0.00000000000E+00 0.  1.
         11    1    4    4    0    0  0.55785003550E+02  0.23062372393E+03 -0.57975014367E+03  0.62642597148E+03  0.00000000000E+00 0. -1.
         21    1    1    2  503  502  0.27868408360E+02 -0.11168094817E+01 -0.18873122559E+03  0.19078095020E+03  0.00000000000E+00 0. -1.
          1    1    1    2  501    0 -0.16218677726E+03 -0.35640222084E+03 -0.52961920926E+03  0.65865286802E+03  0.00000000000E+00 0. -1.
<scales pt_clust_5="13000.00000" pt_clust_6="13000.00000" pt_clust_7="13000.00000" pt_clust_8="13000.00000" pt_clust_9="27.89078" pt_clust_10="388.22535"></scales>
<clustering>
<clus scale="   27.891">  2  9  1 -1</clus>
<clus scale="   86.901">  5  6 -1 -1</clus>
<clus scale="   97.080">  7  8 -1 -1</clus>
<clus scale="  104.273">  5  7 -1 -1</clus>
<clus scale="  388.225">  1 10  2 -1</clus>
<clus scale="  388.225">  1  5  2 -1</clus>
</clustering>
</event>
<event>
10    4  0.2857708E-005  0.1616032E+03  0.7546771E-02  0.1210251E+00
          2   -1    0    0  503    0 -0.00000000000E+00  0.00000000000E+00  0.22864083371E+04  0.22864083371E+04  0.00000000000E+00 0. -1.
         21   -1    0    0  501  502  0.00000000000E+00 -0.00000000000E+00 -0.24299452182E+02  0.24299452182E+02  0.00000000000E+00 0.  1.
         23    2    1    2    0    0  0.11206306007E+02 -0.30082519020E+02  0.20395416755E+03  0.22572909314E+03  0.91245722017E+02 0.  0.
         24    2    1    2    0    0 -0.12624248178E+03  0.79808985100E+02  0.98181268133E+03  0.99633209830E+03  0.80092887159E+02 0.  0.
        -11    1    4    4    0    0 -0.86428489993E+00  0.33633916288E+02  0.14025592896E+03  0.14423492269E+03  0.00000000000E+00 0.  1.
         12    1    4    4    0    0 -0.12537819688E+03  0.46175068812E+02  0.84155675237E+03  0.85209717562E+03  0.00000000000E+00 0. -1.
        -13    1    3    3    0    0  0.16490409029E+02 -0.61843538080E+02  0.14642971399E+03  0.15980681440E+03  0.00000000000E+00 0.  1.
         13    1    3    3    0    0 -0.52841030223E+01  0.31761019061E+02  0.57524453563E+02  0.65922278740E+02  0.00000000000E+00 0. -1.
         21    1    1    2  503  502 -0.17730388375E+02 -0.20189180295E+02  0.15317741990E+03  0.15551621022E+03  0.00000000000E+00 0.  1.
          1    1    1    2  501    0  0.13276656415E+03 -0.29537285785E+02  0.92316461613E+03  0.93313038761E+03  0.00000000000E+00 0. -1.
<scales pt_clust_5="13000.00000" pt_clust_6="13000.00000" pt_clust_7="13000.00000" pt_clust_8="13000.00000" pt_clust_9="26.86949" pt_clust_10="140.35936"></scales>
<clustering>
<clus scale="   26.869">  1  9  2 -1</clus>
<clus scale="   80.093">  5  6 -1 -1</clus>
<clus scale="   91.246">  7  8 -1 -1</clus>
<clus scale="   97.191">  1  7  2 -1</clus>
<clus scale="  140.359">  2 10  1 -1</clus>
<clus scale="  140.359">  2  5  1 -1</clus>
</clustering>
</event>
<event>
10    4  0.2857708E-005  0.1106746E+03  0.7546771E-02  0.1263911E+00
         21   -1    0    0  501  502  0.00000000000E+00  0.00000000000E+00  0.14552737760E+03  0.14552737760E+03  0.00000000000E+00 0.  1.
          2   -1    0    0  503    0 -0.00000000000E+00 -0.00000000000E+00 -0.53549323958E+03  0.53549323958E+03  0.00000000000E+00 0. -1.
         24    2    1    2    0    0  0.45566663466E+02  0.75768251944E+02 -0.15674910938E+03  0.19690671891E+03  0.79905092706E+02 0.  0.
         23    2    1    2    0    0 -0.32385454695E+02 -0.28858272678E+02 -0.22640464586E+02  0.10389562328E+03  0.91652017563E+02 0.  0.
        -13    1    3    3    0    0  0.44949255522E+02  0.62095913028E+01 -0.88504317859E+02  0.99458578694E+02  0.00000000000E+00 0.  1.
         14    1    3    3    0    0  0.61740794362E+00  0.69558660641E+02 -0.68244791520E+02  0.97448140220E+02  0.00000000000E+00 0. -1.
        -11    1    4    4    0    0 -0.11578976853E+02 -0.48026386950E+02 -0.45775887727E+02  0.67350118379E+02  0.00000000000E+00 0. -1.
         11    1    4    4    0    0 -0.20806477842E+02  0.19168114272E+02  0.23135423140E+02  0.36545504906E+02  0.00000000000E+00 0.  1.
         21    1    1    2  503  502 -0.32228693816E+02 -0.15629387041E+02 -0.29029131053E+03  0.29249275446E+03  0.00000000000E+00 0. -1.
          1    1    1    2  501    0  0.19047485045E+02 -0.31280592225E+02  0.79715022513E+02  0.87725520521E+02  0.00000000000E+00 0. -1.
<scales pt_clust_5="13000.00000" pt_clust_6="13000.00000" pt_clust_7="13000.00000" pt_clust_8="13000.00000" pt_clust_9="35.81852" pt_clust_10="36.57221"></scales>
<clustering>
<clus scale="   35.819">  2  9  1 -1</clus>
<clus scale="   36.572">  1 10  2 -1</clus>
<clus scale="   79.905">  5  6 -1 -1</clus>
<clus scale="   91.652">  7  8 -1 -1</clus>
<clus scale="  101.161">  2  5  1 -1</clus>
<clus scale="   36.572">  1  5  2 -1</clus>
</clustering>
</event>
<event>
10    4  0.2857708E-005  0.9017758E+02  0.7546771E-02  0.1304518E+00
          2   -1    0    0  503    0 -0.00000000000E+00  0.00000000000E+00  0.63511122078E+03  0.63511122078E+03  0.00000000000E+00 0. -1.
         21   -1    0    0  501  502  0.00000000000E+00 -0.00000000000E+00 -0.12701633282E+03  0.12701633282E+03  0.00000000000E+00 0. -1.
         23    2    1    2    0    0 -0.22490820206E+02  0.70523003247E+02  0.22845065263E+03  0.25466157581E+03  0.84755451304E+02 0.  0.
         24    2    1    2    0    0  0.36977881163E+02  0.26748430049E+02  0.79681193749E+02  0.12253058578E+03  0.81128352678E+02 0.  0.
        -13    1    4    4    0    0  0.37435719916E+02  0.92956491043E+01  0.92927836281E+02  0.10061523231E+03  0.00000000000E+00 0.  1.
         14    1    4    4    0    0 -0.45783875277E+00  0.17452780944E+02 -0.13246642532E+02  0.21915353463E+02  0.00000000000E+00 0. -1.
        -11    1    3    3    0    0 -0.32835793267E+02 -0.56124994590E+01  0.46949025348E+02  0.57566487219E+02  0.00000000000E+00 0.  1.
         11    1    3    3    0    0  0.10344973061E+02  0.76135502706E+02  0.18150162728E+03  0.19709508859E+03  0.00000000000E+00 0. -1.
         21    1    1    2  503  502  0.14914219156E+02 -0.44896618458E+02  0.28050342072E+03  0.28446495271E+03  0.00000000000E+00 0.  1.
          1    1    1    2  501    0 -0.29401280114E+02 -0.52374814838E+02 -0.80540379143E+02  0.10047043930E+03  0.00000000000E+00 0. -1.
<scales pt_clust_5="13000.00000" pt_clust_6="13000.00000" pt_clust_7="13000.00000" pt_clust_8="13000.00000" pt_clust_9="47.30899" pt_clust_10="60.97099"></scales>
<clustering>
<clus scale="   47.309">  1  9  2 -1</clus>
<clus scale="   60.971">  2 10  1 -1</clus>
<clus scale="   81.128">  5  6 -1 -1</clus>
<clus scale="   84.755">  7  8 -1 -1</clus>
<clus scale="   86.777">  2  5  1 -1</clus>
<clus scale="   60.971">  2  5  1 -1</clus>
</clustering>
</event>
<event>
10    4  0.2857708E-005  0.1122027E+03  0.7546771E-02  0.1260089E+00
          2   -1    0    0  503    0 -0.00000000000E+00  0.00000000000E+00  0.34506880216E+03  0.34506880216E+03  0.00000000000E+00 0. -1.
         21   -1    0    0  501  502  0.00000000000E+00 -0.00000000000E+00 -0.87662564659E+02  0.87662564659E+02  0.00000000000E+00 0. -1.
         24    2    1    2    0    0  0.60225809736E+02  0.20508833340E+02  0.23036757015E+03  0.25245707805E+03  0.81348623080E+02 0.  0.
         23    2    1    2    0    0 -0.51987797471E+02 -0.22514181265E+02 -0.21817722678E+02  0.10929364932E+03  0.90881622536E+02 0.  0.
        -13    1    3    3    0    0  0.46434824354E+02  0.24711664419E+02  0.53586505716E+02  0.75089099515E+02  0.00000000000E+00 0.  1.
         14    1    3    3    0    0  0.13790985382E+02 -0.42028310787E+01  0.17678106443E+03  0.17736797853E+03  0.00000000000E+00 0. -1.
        -13    1    4    4    0    0 -0.15778109579E+02 -0.38874504452E+02 -0.46411859498E+02  0.62563859699E+02  0.00000000000E+00 0. -1.
         13    1    4    4    0    0 -0.36209687891E+02  0.16360323187E+02  0.24594136821E+02  0.46729789620E+02  0.00000000000E+00 0.  1.
         21    1    1    2  503  502  0.10201515315E+02 -0.18079006134E+02  0.34248934317E+02  0.40048856156E+02  0.00000000000E+00 0.  1.
          1    1    1    2  501    0 -0.18439527580E+02  0.20084354059E+02  0.14607455710E+02  0.30931783293E+02  0.00000000000E+00 0. -1.
<scales pt_clust_5="13000.00000" pt_clust_6="13000.00000" pt_clust_7="13000.00000" pt_clust_8="13000.00000" pt_clust_9="20.75865" pt_clust_10="25.77271"></scales>
<clustering>
<clus scale="   20.759">  1  9  2 -1</clus>
<clus scale="   25.773">  2 10  1 -1</clus>
<clus scale="   81.349">  5  6 -1 -1</clus>
<clus scale="   90.882">  7  8 -1 -1</clus>
<clus scale="  104.631">  1  5  2 -1</clus>
<clus scale="   25.773">  2  5  1 -1</clus>
</clustering>
</event>
<event>
10    4  0.2857708E-005  0.2366212E+03  0.7546771E-02  0.1122064E+00
         21   -1    0    0  501  502  0.00000000000E+00  0.00000000000E+00  0.32650666475E+02  0.32650666475E+02  0.00000000000E+00 0.  1.
          2   -1    0    0  503    0 -0.00000000000E+00 -0.00000000000E+00 -0.12956943878E+04  0.12956943878E+04  0.00000000000E+00 0. -1.
         24    2    1    2    0    0 -0.53901675143E+02 -0.76665728814E+02 -0.22825751027E+03  0.26118436043E+03  0.85631504617E+02 0.  0.
         23    2    1    2    0    0 -0.50041183229E+01 -0.15780635371E+02 -0.30596411036E+03  0.32074479754E+03  0.94810962804E+02 0.  0.
        -13    1    3    3    0    0 -0.55543563792E+02 -0.87607125531E+02 -0.15135225601E+03  0.18348733287E+03  0.00000000000E+00 0.  1.
         14    1    3    3    0    0  0.16418886492E+01  0.10941396717E+02 -0.76905254255E+02  0.77697027565E+02  0.00000000000E+00 0. -1.
        -13    1    4    4    0    0  0.42059625594E+02 -0.21126037977E+02 -0.12154357558E+03  0.13033864489E+03  0.00000000000E+00 0. -1.
         13    1    4    4    0    0 -0.47063743917E+02  0.53454026055E+01 -0.18442053478E+03  0.19040615265E+03  0.00000000000E+00 0.  1.
         21    1    1    2  503  502  0.19465180418E+02 -0.26437460334E+02 -0.10036107912E+03  0.10559440686E+03  0.00000000000E+00 0. -1.
          1    1    1    2  501    0  0.39440613047E+02  0.11888382452E+03 -0.62846102155E+03  0.64082148942E+03  0.00000000000E+00 0. -1.
<scales pt_clust_5="13000.00000" pt_clust_6="13000.00000" pt_clust_7="13000.00000" pt_clust_8="13000.00000" pt_clust_9="32.83036" pt_clust_10="121.47856"></scales>
<clustering>
<clus scale="   32.830">  1  9  2 -1</clus>
<clus scale="   85.632">  5  6 -1 -1</clus>
<clus scale="   94.811">  7  8 -1 -1</clus>
<clus scale="   96.960">  5  7 -1 -1</clus>
<clus scale="  121.479">  1 10  2 -1</clus>
<clus scale="   32.830">  1  5  2 -1</clus>
</clustering>
</event>
<event>
10    4  0.2857708E-005  0.9353235E+02  0.7546771E-02  0.1295885E+00
          2   -1    0    0  503    0 -0.00000000000E+00  0.00000000000E+00  0.27966385509E+03  0.27966385509E+03  0.00000000000E+00 0. -1.
         21   -1    0    0  501  502  0.00000000000E+00 -0.00000000000E+00 -0.40315617786E+03  0.40315617786E+03  0.00000000000E+00 0.  1.
         23    2    1    2    0    0 -0.22203539592E+02 -0.19230250208E+02  0.11797531447E+03  0.14720359202E+03  0.82993511716E+02 0.  0.
         24    2    1    2    0    0  0.48239618752E+02 -0.12349899102E+02 -0.98529326591E+02  0.13653530481E+03  0.80338536426E+02 0.  0.
        -11    1    4    4    0    0  0.68495351705E+02 -0.30046048481E+01 -0.88827053072E+02  0.11220911822E+03  0.00000000000E+00 0.  1.
         12    1    4    4    0    0 -0.20255732953E+02 -0.93452942543E+01 -0.97022735190E+01  0.24326186581E+02  0.00000000000E+00 0. -1.
        -11    1    3    3    0    0  0.26298978554E+02  0.83065019343E+01  0.63542558858E+02  0.69269697802E+02  0.00000000000E+00 0.  1.
         11    1    3    3    0    0 -0.48502518146E+02 -0.27536752142E+02  0.54432755612E+02  0.77933894222E+02  0.00000000000E+00 0. -1.
         21    1    1    2  503  502 -0.73623945299E+01  0.61917706437E+02  0.11920506203E+03  0.13452826483E+03  0.00000000000E+00 0.  1.
          1    1    1    2  501    0 -0.18673684630E+02 -0.30337557127E+02 -0.26214337268E+03  0.26455287130E+03  0.00000000000E+00 0. -1.
<scales pt_clust_5="13000.00000" pt_clust_6="13000.00000" pt_clust_7="13000.00000" pt_clust_8="13000.00000" pt_clust_9="60.83591" pt_clust_10="35.62406"></scales>
<clustering>
<clus scale="   35.624">  2 10  1 -1</clus>
<clus scale="   60.836">  1  9  2 -1</clus>
<clus scale="   80.339">  5  6 -1 -1</clus>
<clus scale="   82.994">  7  8 -1 -1</clus>
<clus scale="   91.185">  2  5  1 -1</clus>
<clus scale="   35.624">  2  5  1 -1</clus>
</clustering>
</event>
<event>
10    4  0.2857708E-005  0.9459454E+02  0.7546771E-02  0.1298372E+00
         21   -1    0    0  503  502  0.00000000000E+00  0.00000000000E+00  0.39138829942E+03  0.39138829942E+03  0.00000000000E+00 0.  1.
         -1   -1    0    0    0  501 -0.00000000000E+00 -0.00000000000E+00 -0.66889375525E+02  0.66889375525E+02  0.00000000000E+00 0.  1.
         24    2    1    2    0    0  0.91657205153E+01 -0.19346044650E+02 -0.11317582058E+02  0.83010976855E+02  0.79400596588E+02 0.  0.
         23    2    1    2    0    0 -0.15072179043E+02 -0.41514999961E+01  0.20833113483E+03  0.22762435203E+03  0.90369122866E+02 0.  0.
        -13    1    3    3    0    0 -0.17329872241E+02 -0.23998363566E+02 -0.35927438166E+02  0.46551334448E+02  0.00000000000E+00 0.  1.
         14    1    3    3    0    0  0.26495592756E+02  0.46523189161E+01  0.24609856108E+02  0.36459642407E+02  0.00000000000E+00 0. -1.
        -11    1    4    4    0    0 -0.46826570697E+02 -0.23120586159E+02  0.14701941895E+03  0.15601922566E+03  0.00000000000E+00 0.  1.
         11    1    4    4    0    0  0.31754391654E+02  0.18969086163E+02  0.61311715877E+02  0.71605126373E+02  0.00000000000E+00 0. -1.
         21    1    1    2  503  501  0.22001492260E+02  0.68811315368E+00  0.57552007126E+01  0.22752175646E+02  0.00000000000E+00 0.  1.
         -2    1    1    2    0  502 -0.16095033732E+02  0.22809431492E+02  0.12173017041E+03  0.12489017041E+03  0.00000000000E+00 0.  1.
<scales pt_clust_5="13000.00000" pt_clust_6="13000.00000" pt_clust_7="13000.00000" pt_clust_8="13000.00000" pt_clust_9="22.01225" pt_clust_10="27.59276"></scales>
<clustering>
<clus scale="   22.012">  2  9  1 -1</clus>
<clus scale="   27.593">  1 10  2 -1</clus>
<clus scale="   79.401">  5  6 -1 -1</clus>
<clus scale="   84.178">  2  5  1 -1</clus>
<clus scale="   90.369">  7  8 -1 -1</clus>
<clus scale="   27.593">  1  5  2 -1</clus>
</clustering>
</event>
<event>
10    4  0.2857708E-005  0.4338855E+03  0.7546771E-02  0.1073267E+00
          2   -1    0    0  503    0 -0.00000000000E+00  0.00000000000E+00  0.22048437481E+04  0.22048437481E+04  0.00000000000E+00 0. -1.
         21   -1    0    0  501  502  0.00000000000E+00 -0.00000000000E+00 -0.18948071360E+03  0.18948071360E+03  0.00000000000E+00 0. -1.
         23    2    1    2    0    0  0.78929310087E+02 -0.34636766758E+03  0.20690675492E+03  0.42047237198E+03  0.88239521928E+02 0.  0.
         24    2    1    2    0    0  0.10025003726E+03 -0.31606594780E+02  0.17644502794E+03  0.21991205287E+03  0.78609263498E+02 0.  0.
        -13    1    4    4    0    0  0.11095689875E+03 -0.32667731418E+02  0.13837259544E+03  0.18034852155E+03  0.00000000000E+00 0.  1.
         14    1    4    4    0    0 -0.10706861489E+02  0.10611366384E+01  0.38072432504E+02  0.39563531322E+02  0.00000000000E+00 0. -1.
        -13    1    3    3    0    0  0.38617564501E+01 -0.13774304282E+03  0.41689961210E+02  0.14396566213E+03  0.00000000000E+00 0. -1.
         13    1    3    3    0    0  0.75067553637E+02 -0.20862462476E+03  0.16521679371E+03  0.27650670985E+03  0.00000000000E+00 0.  1.
         21    1    1    2  503  502 -0.23109998523E+03  0.38441193415E+03  0.16407006193E+04  0.17009051298E+04  0.00000000000E+00 0. -1.
          1    1    1    2  501    0  0.51920637879E+02 -0.64376717902E+01 -0.86893676885E+01  0.53034907059E+02  0.00000000000E+00 0. -1.
<scales pt_clust_5="13000.00000" pt_clust_6="13000.00000" pt_clust_7="13000.00000" pt_clust_8="13000.00000" pt_clust_9="424.81812" pt_clust_10="52.31822"></scales>
<clustering>
<clus scale="   52.318">  2 10  1 -1</clus>
<clus scale="   78.609">  5  6 -1 -1</clus>
<clus scale="   88.240">  7  8 -1 -1</clus>
<clus scale="  136.974">  2  5  1 -1</clus>
<clus scale="  424.818">  1  9  2 -1</clus>
<clus scale="   52.318">  2  5  1 -1</clus>
</clustering>
</event>
<event>
10    4  0.2857708E-005  0.1248128E+03  0.7546771E-02  0.1238488E+00
         21   -1    0    0  501  502  0.00000000000E+00  0.00000000000E+00  0.28328873125E+03  0.28328873125E+03  0.00000000000E+00 0. -1.
          4   -1    0    0  503    0 -0.00000000000E+00 -0.00000000000E+00 -0.32000843523E+03  0.32000843523E+03  0.00000000000E+00 0. -1.
         23    2    1    2    0    0  0.10445923270E+03  0.20256752350E+02 -0.18011415695E+03  0.22793941721E+03  0.90516302799E+02 0.  0.
         24    2    1    2    0    0 -0.89570017894E+02  0.30739765539E+02  0.56771189493E+02  0.13607975228E+03  0.79542502684E+02 0.  0.
        -13    1    4    4    0    0 -0.97505436362E+02  0.16626855989E+02  0.64555171476E+02  0.11811491279E+03  0.00000000000E+00 0.  1.
         14    1    4    4    0    0  0.79354184673E+01  0.14112909550E+02 -0.77839819834E+01  0.17964839485E+02  0.00000000000E+00 0. -1.
        -11    1    3    3    0    0  0.65983303057E+01 -0.29269005149E+02 -0.37364736569E+02  0.47920101879E+02  0.00000000000E+00 0.  1.
         11    1    3    3    0    0  0.97860902395E+02  0.49525757499E+02 -0.14274942038E+03  0.18001931533E+03  0.00000000000E+00 0. -1.
         21    1    1    2  503  502 -0.25223917252E+02 -0.30795102969E+02 -0.70264924057E+02  0.80757314970E+02  0.00000000000E+00 0.  1.
          3    1    1    2  501    0  0.10334702446E+02 -0.20201414921E+02  0.15688818753E+03  0.15852068202E+03  0.00000000000E+00 0. -1.
<scales pt_clust_5="13000.00000" pt_clust_6="13000.00000" pt_clust_7="13000.00000" pt_clust_8="13000.00000" pt_clust_9="40.19551" pt_clust_10="22.69148"></scales>
<clustering>
<clus scale="   22.691">  1 10  2 -1</clus>
<clus scale="   40.196">  2  9  1 -1</clus>
<clus scale="   79.543">  5  6 -1 -1</clus>
<clus scale="   90.516">  7  8 -1 -1</clus>
<clus scale="  117.098">  1  5  2 -1</clus>
<clus scale="   22.691">  1  5  2 -1</clus>
</clustering>
</event>
<event>
10    4  0.2857708E-005  0.1684892E+03  0.7546771E-02  0.1199627E+00
         21   -1    0    0  501  502  0.00000000000E+00  0.00000000000E+00  0.67776772274E+02  0.67776772274E+02  0.00000000000E+00 0. -1.
          2   -1    0    0  503    0 -0.00000000000E+00 -0.00000000000E+00 -0.13377666250E+04  0.13377666250E+04  0.00000000000E+00 0. -1.
         23    2    1    2    0    0  0.10601485015E+02 -0.53773184815E+02 -0.28600489776E+03  0.30567040056E+03  0.92906648539E+02 0.  0.
         24    2    1    2    0    0 -0.60883457303E+02  0.18068028524E+03 -0.69420743071E+03  0.72497962468E+03  0.85553132574E+02 0.  0.
        -13    1    4    4    0    0 -0.41633381123E+02  0.28408595135E+02 -0.11088136205E+03  0.12179927402E+03  0.00000000000E+00 0.  1.
         14    1    4    4    0    0 -0.19250076180E+02  0.15227169011E+03 -0.58332606866E+03  0.60318035066E+03  0.00000000000E+00 0. -1.
        -11    1    3    3    0    0  0.46580400412E+02 -0.19612087693E+02 -0.20090164399E+03  0.20716138212E+03  0.00000000000E+00 0.  1.
         11    1    3    3    0    0 -0.35978915397E+02 -0.34161097123E+02 -0.85103253777E+02  0.98509018436E+02  0.00000000000E+00 0. -1.
         21    1    1    2  503  502  0.34268190233E+02  0.10409308950E+02 -0.21452114831E+03  0.21749019667E+03  0.00000000000E+00 0. -1.
          1    1    1    2  501    0  0.16013782056E+02 -0.13731640938E+03 -0.75256375954E+02  0.15740317538E+03  0.00000000000E+00 0. -1.
<scales pt_clust_5="13000.00000" pt_clust_6="13000.00000" pt_clust_7="13000.00000" pt_clust_8="13000.00000" pt_clust_9="35.81428" pt_clust_10="145.15258"></scales>
<clustering>
<clus scale="   35.814">  2  9  1 -1</clus>
<clus scale="   85.553">  5  6 -1 -1</clus>
<clus scale="   92.907">  7  8 -1 -1</clus>
<clus scale="  107.802">  2  7  1 -1</clus>
<clus scale="  145.153">  1 10  2 -1</clus>
<clus scale="  145.153">  1  5  2 -1</clus>
</clustering>
</event>
<event>
10    4  0.2857708E-005  0.3164723E+03  0.7546771E-02  0.1118417E+00
         -3   -1    0    0    0  501 -0.00000000000E+00  0.00000000000E+00  0.10272119071E+04  0.10272119071E+04  0.00000000000E+00 0.  1.
         21   -1    0    0  503  502  0.00000000000E+00 -0.00000000000E+00 -0.21506489883E+03  0.21506489883E+03  0.00000000000E+00 0.  1.
         23    2    1    2    0    0  0.12421499748E+01  0.66471146752E+02  0.51488138895E+02  0.12308407977E+03  0.89881621914E+02 0.  0.
         24    2    1    2    0    0  0.30856465650E+02  0.26478949137E+03  0.68489681430E+03  0.73967298617E+03  0.83467862252E+02 0.  0.
        -11    1    4    4    0    0  0.26941809137E+02  0.19925244450E+03  0.59709196579E+03  0.63003667618E+03  0.00000000000E+00 0.  1.
         12    1    4    4    0    0  0.39146565123E+01  0.65537046872E+02  0.87804848509E+02  0.10963631000E+03  0.00000000000E+00 0. -1.
        -13    1    3    3    0    0 -0.35102408895E+02  0.19029420811E+02  0.49082637225E+02  0.63272452486E+02  0.00000000000E+00 0. -1.
         13    1    3    3    0    0  0.36344558869E+02  0.47441725941E+02  0.24055016701E+01  0.59811627280E+02  0.00000000000E+00 0.  1.
         21    1    1    2  503  501 -0.51801733431E+02 -0.36444370630E+02  0.54022962333E+02  0.83247175305E+02  0.00000000000E+00 0.  1.
         -4    1    1    2    0  502  0.19703117806E+02 -0.29481626749E+03  0.21739092734E+02  0.29627256468E+03  0.00000000000E+00 0.  1.
<scales pt_clust_5="13000.00000" pt_clust_6="13000.00000" pt_clust_7="13000.00000" pt_clust_8="13000.00000" pt_clust_9="63.33729" pt_clust_10="305.26685"></scales>
<clustering>
<clus scale="   63.337">  2  9  1 -1</clus>
<clus scale="   83.468">  5  6 -1 -1</clus>
<clus scale="   89.882">  7  8 -1 -1</clus>
<clus scale="  108.344">  1  7  2 -1</clus>
<clus scale="  305.267">  2 10  1 -1</clus>
<clus scale="   63.337">  2  5  1 -1</clus>
</clustering>
</event>
<event>
10    4  0.2857708E-005  0.1404887E+03  0.7546771E-02  0.1214618E+00
         21   -1    0    0  501  502  0.00000000000E+00  0.00000000000E+00  0.14570335855E+03  0.14570335855E+03  0.00000000000E+00 0. -1.
          2   -1    0    0  503    0 -0.00000000000E+00 -0.00000000000E+00 -0.58432914812E+03  0.58432914812E+03  0.00000000000E+00 0. -1.
         24    2    1    2    0    0  0.53999096595E+02 -0.11854913571E+03 -0.32561146250E+03  0.36037302032E+03  0.82922187926E+02 0.  0.
         23    2    1    2    0    0 -0.14130192760E+02  0.35891364204E+02  0.23725283473E+02  0.10242541995E+03  0.91870698293E+02 0.  0.
        -11    1    3    3    0    0  0.52672478687E+02 -0.20814464305E+02 -0.12350445704E+03  0.13587119946E+03  0.00000000000E+00 0.  1.
         12    1    3    3    0    0  0.13266179072E+01 -0.97734671406E+02 -0.20210700546E+03  0.22450182085E+03  0.00000000000E+00 0. -1.
        -13    1    4    4    0    0  0.22103458817E+02  0.17609409155E+02  0.47586886559E+02  0.55345875681E+02  0.00000000000E+00 0. -1.
         13    1    4    4    0    0 -0.36233651578E+02  0.18281955049E+02 -0.23861603086E+02  0.47079544272E+02  0.00000000000E+00 0.  1.
         21    1    1    2  503  502 -0.35032071832E+02 -0.56920928056E+01 -0.16927807165E+03  0.17295869888E+03  0.00000000000E+00 0. -1.
          1    1    1    2  501    0 -0.48368320024E+01  0.88349864313E+02  0.32538461112E+02  0.94275367512E+02  0.00000000000E+00 0. -1.
<scales pt_clust_5="13000.00000" pt_clust_6="13000.00000" pt_clust_7="13000.00000" pt_clust_8="13000.00000" pt_clust_9="35.49149" pt_clust_10="88.24003"></scales>
<clustering>
<clus scale="   35.491">  2  9  1 -1</clus>
<clus scale="   82.922">  5  6 -1 -1</clus>
<clus scale="   88.240">  1 10  2 -1</clus>
<clus scale="   91.871">  7  8 -1 -1</clus>
<clus scale="  134.807">  2  5  1 -1</clus>
<clus scale="   88.240">  1  5  2 -1</clus>
</clustering>
</event>
<event>
10    4  0.2857708E-005  0.2135251E+03  0.7546771E-02  0.1174031E+00
         21   -1    0    0  501  502  0.00000000000E+00  0.00000000000E+00  0.51084334828E+02  0.51084334828E+02  0.00000000000E+00 0.  1.
          2   -1    0    0  503    0 -0.00000000000E+00 -0.00000000000E+00 -0.17546966436E+04  0.17546966436E+04  0.00000000000E+00 0. -1.
         23    2    1    2    0    0  0.11504773477E+03 -0.14569187948E+03 -0.51116993452E+03  0.55129238847E+03  0.90368637311E+02 0.  0.
         24    2    1    2    0    0 -0.54205563107E+02  0.35103752338E+02 -0.27260123794E+03  0.29078477174E+03  0.77934793578E+02 0.  0.
        -11    1    4    4    0    0 -0.63219500099E+02  0.37751746192E+02 -0.14300803716E+03  0.16085147878E+03  0.00000000000E+00 0.  1.
         12    1    4    4    0    0  0.90139369917E+01 -0.26479938539E+01 -0.12959320077E+03  0.12993329295E+03  0.00000000000E+00 0. -1.
        -13    1    3    3    0    0  0.50589586945E+02 -0.77304338089E+02 -0.13516943713E+03  0.16372551337E+03  0.00000000000E+00 0.  1.
         13    1    3    3    0    0  0.64458147828E+02 -0.68387541390E+02 -0.37600049739E+03  0.38756687511E+03  0.00000000000E+00 0. -1.
         21    1    1    2  503  502 -0.10188043371E+03  0.17378939344E+03 -0.53758003470E+03  0.57408594283E+03  0.00000000000E+00 0.  1.
          1    1    1    2  501    0  0.41038262045E+02 -0.63201266300E+02 -0.38226110161E+03  0.38961787539E+03  0.00000000000E+00 0. -1.
<scales pt_clust_5="13000.00000" pt_clust_6="13000.00000" pt_clust_7="13000.00000" pt_clust_8="13000.00000" pt_clust_9="193.45927" pt_clust_10="75.35612"></scales>
<clustering>
<clus scale="   75.356">  1 10  2 -1</clus>
<clus scale="   77.935">  5  6 -1 -1</clus>
<clus scale="   90.369">  7  8 -1 -1</clus>
<clus scale="   93.536">  1  5  2 -1</clus>
<clus scale="  193.459">  1  9  2 -1</clus>
<clus scale="   75.356">  1  5  2 -1</clus>
</clustering>
</event>
<event>
10    4  0.2857708E-005  0.1254430E+03  0.7546771E-02  0.1251619E+00
         21   -1    0    0  501  502  0.00000000000E+00  0.00000000000E+00  0.66529632198E+02  0.66529632198E+02  0.00000000000E+00 0. -1.
          2   -1    0    0  503    0 -0.00000000000E+00 -0.00000000000E+00 -0.10447435345E+04  0.10447435345E+04  0.00000000000E+00 0. -1.
         24    2    1    2    0    0  0.43023835105E+02  0.27495016705E+01 -0.28216643891E+03  0.29573051070E+03  0.77330625008E+02 0.  0.
         23    2    1    2    0    0 -0.15078412929E+02  0.60485243089E+02 -0.38324404434E+03  0.39898430501E+03  0.91796813408E+02 0.  0.
        -11    1    3    3    0    0  0.19414580900E+02  0.62310809694E+01 -0.10346300575E+02  0.22864782027E+02  0.00000000000E+00 0.  1.
         12    1    3    3    0    0  0.23609254205E+02 -0.34815792989E+01 -0.27182013834E+03  0.27286572868E+03  0.00000000000E+00 0. -1.
        -11    1    4    4    0    0 -0.44007079604E+02  0.62873764686E+02 -0.32460900167E+03  0.33355769712E+03  0.00000000000E+00 0. -1.
         11    1    4    4    0    0  0.28928666675E+02 -0.23885215975E+01 -0.58635042673E+02  0.65426607893E+02  0.00000000000E+00 0.  1.
         21    1    1    2  503  502  0.91314578203E+02 -0.10256536486E+03 -0.22403776738E+03  0.26277543164E+03  0.00000000000E+00 0. -1.
          1    1    1    2  501    0 -0.11926000038E+03  0.39330620104E+02 -0.88765651678E+02  0.15378291936E+03  0.00000000000E+00 0. -1.
<scales pt_clust_5="13000.00000" pt_clust_6="13000.00000" pt_clust_7="13000.00000" pt_clust_8="13000.00000" pt_clust_9="13000.00000" pt_clust_10="125.44295"></scales>
<clustering>
<clus scale="   77.331">  5  6 -1 -1</clus>
<clus scale="   88.536">  2  5  1 -1</clus>
<clus scale="   91.797">  7  8 -1 -1</clus>
<clus scale="  110.955">  2  7  1 -1</clus>
<clus scale="  125.443">  1 10  2 -1</clus>
<clus scale="  125.443">  1  5  2 -1</clus>
</clustering>
</event>
<event>
10    4  0.2857708E-005  0.2204858E+03  0.7546771E-02  0.1134421E+00
         21   -1    0    0  501  502  0.00000000000E+00  0.00000000000E+00  0.49044046447E+03  0.49044046447E+03  0.00000000000E+00 0.  1.
          2   -1    0    0  503    0 -0.00000000000E+00 -0.00000000000E+00 -0.36488558894E+03  0.36488558894E+03  0.00000000000E+00 0. -1.
         24    2    1    2    0    0 -0.14162945915E+03  0.17345630824E+03  0.39326708047E+02  0.24090328985E+03  0.79635485342E+02 0.  0.
         23    2    1    2    0    0  0.93601406748E+02 -0.14215391823E+03  0.23830653525E+03  0.30690056914E+03  0.91809557145E+02 0.  0.
        -13    1    3    3    0    0 -0.62987115587E+01  0.38953243483E+02  0.30543111275E+02  0.49899003913E+02  0.00000000000E+00 0.  1.
         14    1    3    3    0    0 -0.13533074759E+03  0.13450306476E+03  0.87835967724E+01  0.19100428593E+03  0.00000000000E+00 0. -1.
        -11    1    4    4    0    0  0.93560917514E+02 -0.11240871955E+03  0.23524120308E+03  0.27699781432E+03  0.00000000000E+00 0.  1.
         11    1    4    4    0    0  0.40489234355E-01 -0.29745198687E+02  0.30653321715E+01  0.29902754816E+02  0.00000000000E+00 0. -1.
         21    1    1    2  503  502  0.27893423608E+02  0.15615236519E+01 -0.22410097489E+03  0.22583562249E+03  0.00000000000E+00 0.  1.
          1    1    1    2  501    0  0.20134628796E+02 -0.32863913659E+02  0.72022607126E+02  0.81686571938E+02  0.00000000000E+00 0. -1.
<scales pt_clust_5="13000.00000" pt_clust_6="13000.00000" pt_clust_7="13000.00000" pt_clust_8="13000.00000" pt_clust_9="27.93710" pt_clust_10="39.00791"></scales>
<clustering>
<clus scale="   27.937">  2  9  1 -1</clus>
<clus scale="   39.008">  1 10  2 -1</clus>
<clus scale="   79.635">  5  6 -1 -1</clus>
<clus scale="   91.810">  7  8 -1 -1</clus>
<clus scale="  215.701">  2  5  1 -1</clus>
<clus scale="   39.008">  1  5  2 -1</clus>
</clustering>
</event>
<event>
10    4  0.2857708E-005  0.1536249E+03  0.7546771E-02  0.1218650E+00
         -1   -1    0    0    0  501 -0.00000000000E+00  0.00000000000E+00  0.21910881131E+03  0.21910881131E+03  0.00000000000E+00 0.  1.
         21   -1    0    0  503  502  0.00000000000E+00 -0.00000000000E+00 -0.10164159598E+04  0.10164159598E+04  0.00000000000E+00 0.  1.
         24    2    1    2    0    0  0.11158082792E+02 -0.46338450880E+02 -0.16009667268E+03  0.18563622734E+03  0.80982155173E+02 0.  0.
         23    2    1    2    0    0 -0.54411213844E+02 -0.68691262552E+02  0.16656128710E+03  0.20891925924E+03  0.90694678889E+02 0.  0.
        -13    1    3    3    0    0  0.44683716871E+02 -0.32527963706E+02 -0.11639920916E+03  0.12885448719E+03  0.00000000000E+00 0.  1.
         14    1    3    3    0    0 -0.33525634079E+02 -0.13810487174E+02 -0.43697463525E+02  0.56781740154E+02  0.00000000000E+00 0. -1.
        -11    1    4    4    0    0 -0.10089124940E+02  0.22507858530E+02  0.30319741454E+02  0.39085558196E+02  0.00000000000E+00 0. -1.
         11    1    4    4    0    0 -0.44322088904E+02 -0.91199121082E+02  0.13624154565E+03  0.16983370105E+03  0.00000000000E+00 0.  1.
         21    1    1    2  503  501  0.47724156359E+02 -0.10422196083E+02 -0.30531226825E+02  0.57605321654E+02  0.00000000000E+00 0.  1.
         -2    1    1    2    0  502 -0.44710253082E+01  0.12545190951E+03 -0.77324053613E+03  0.78336396291E+03  0.00000000000E+00 0.  1.
<scales pt_clust_5="13000.00000" pt_clust_6="13000.00000" pt_clust_7="13000.00000" pt_clust_8="13000.00000" pt_clust_9="48.84892" pt_clust_10="123.99626"></scales>
<clustering>
<clus scale="   48.849">  1  9  2 -1</clus>
<clus scale="   80.982">  5  6 -1 -1</clus>
<clus scale="   90.695">  7  8 -1 -1</clus>
<clus scale="   94.685">  1  5  2 -1</clus>
<clus scale="  123.996">  2 10  1 -1</clus>
<clus scale="  123.996">  2  5  1 -1</clus>
</clustering>
</event>
<event>
10    4  0.2857708E-005  0.9285182E+02  0.7546771E-02  0.1299312E+00
         21   -1    0    0  501  502  0.00000000000E+00  0.00000000000E+00  0.30332898529E+02  0.30332898529E+02  0.00000000000E+00 0.  1.
          2   -1    0    0  503    0 -0.00000000000E+00 -0.00000000000E+00 -0.76553505952E+03  0.76553505952E+03  0.00000000000E+00 0. -1.
         24    2    1    2    0    0  0.16853158263E+01  0.37591512206E+02 -0.38044201195E+03  0.39087549148E+03  0.81434411058E+02 0.  0.
         23    2    1    2    0    0 -0.58223116923E+01 -0.44396960244E+02 -0.14444649502E+03  0.17455820334E+03  0.87182492713E+02 0.  0.
        -11    1    3    3    0    0 -0.23627406873E+02  0.48299884893E+02 -0.31989368710E+03  0.32438110962E+03  0.00000000000E+00 0.  1.
         12    1    3    3    0    0  0.25312722699E+02 -0.10708372687E+02 -0.60548324851E+02  0.66494381856E+02  0.00000000000E+00 0. -1.
        -13    1    4    4    0    0  0.18849530923E+02 -0.58269556817E+02 -0.60986283449E+02  0.86429004603E+02  0.00000000000E+00 0.  1.
         13    1    4    4    0    0 -0.24671842616E+02  0.13872596572E+02 -0.83460211573E+02  0.88129198735E+02  0.00000000000E+00 0. -1.
         21    1    1    2  503  502 -0.15994834249E+02 -0.17650429914E+02 -0.19274687543E+03  0.19421310560E+03  0.00000000000E+00 0.  1.
          1    1    1    2  501    0  0.20131830115E+02  0.24455877952E+02 -0.17566778589E+02  0.36221157631E+02  0.00000000000E+00 0. -1.
<scales pt_clust_5="13000.00000" pt_clust_6="13000.00000" pt_clust_7="13000.00000" pt_clust_8="13000.00000" pt_clust_9="23.81958" pt_clust_10="30.55766"></scales>
<clustering>
<clus scale="   23.820">  2  9  1 -1</clus>
<clus scale="   30.558">  1 10  2 -1</clus>
<clus scale="   81.434">  5  6 -1 -1</clus>
<clus scale="   87.182">  7  8 -1 -1</clus>
<clus scale="   87.477">  2  5  1 -1</clus>
<clus scale="   30.558">  1  5  2 -1</clus>
</clustering>
</event>
<event>
10    4  0.2857708E-005  0.1417655E+03  0.7546771E-02  0.1213579E+00
          2   -1    0    0  503    0 -0.00000000000E+00  0.00000000000E+00  0.17732000788E+04  0.17732000788E+04  0.00000000000E+00 0. -1.
         21   -1    0    0  501  502  0.00000000000E+00 -0.00000000000E+00 -0.78482383022E+02  0.78482383022E+02  0.00000000000E+00 0. -1.
         24    2    1    2    0    0 -0.16324156329E+03 -0.59957063628E+02  0.12268298885E+04  0.12416334601E+04  0.79368862680E+02 0.  0.
         23    2    1    2    0    0 -0.42533854147E+02  0.86251523030E+02  0.10701641186E+03  0.17061497604E+03  0.91697893490E+02 0.  0.
        -13    1    3    3    0    0 -0.39515931309E+02 -0.82950885848E+01  0.11779128869E+03  0.12451949651E+03  0.00000000000E+00 0.  1.
         14    1    3    3    0    0 -0.12372563198E+03 -0.51661975043E+02  0.11090385999E+04  0.11171139636E+04  0.00000000000E+00 0. -1.
        -13    1    4    4    0    0 -0.23043778647E+02  0.96030466649E+02  0.11086529445E+03  0.14847215151E+03  0.00000000000E+00 0.  1.
         13    1    4    4    0    0 -0.19490075500E+02 -0.97789436196E+01 -0.38488825941E+01  0.22142824539E+02  0.00000000000E+00 0. -1.
         21    1    1    2  503  502  0.95722581209E+02 -0.55443926973E+02  0.27626989647E+03  0.29759351016E+03  0.00000000000E+00 0. -1.
          1    1    1    2  501    0  0.11005283623E+03  0.29149467571E+02  0.84601498885E+02  0.14184051549E+03  0.00000000000E+00 0. -1.
<scales pt_clust_5="13000.00000" pt_clust_6="13000.00000" pt_clust_7="13000.00000" pt_clust_8="13000.00000" pt_clust_9="110.62026" pt_clust_10="119.96291"></scales>
<clustering>
<clus scale="   79.369">  5  6 -1 -1</clus>
<clus scale="   91.698">  7  8 -1 -1</clus>
<clus scale="  110.620">  1  9  2 -1</clus>
<clus scale="  119.963">  2 10  1 -1</clus>
<clus scale="  134.121">  1  5  2 -1</clus>
<clus scale="  119.963">  2  5  1 -1</clus>
</clustering>
</event>
<event>
10    4  0.2857708E-005  0.6030803E+03  0.7546771E-02  0.1031759E+00
         -1   -1    0    0    0  501 -0.00000000000E+00  0.00000000000E+00  0.59310586419E+03  0.59310586419E+03  0.00000000000E+00 0.  1.
         21   -1    0    0  503  502  0.00000000000E+00 -0.00000000000E+00 -0.16228235378E+04  0.16228235378E+04  0.00000000000E+00 0.  1.
         24    2    1    2    0    0  0.75378680137E+02 -0.12310623267E+03 -0.23745449306E+03  0.28921442937E+03  0.80145242775E+02 0.  0.
         23    2    1    2    0    0 -0.22908660388E+03 -0.47245987110E+03  0.27530172589E+03  0.60162429959E+03  0.10228272436E+03 0.  0.
        -11    1    3    3    0    0  0.72931065115E+02 -0.12763106476E+03 -0.18398289083E+03  0.23549593004E+03  0.00000000000E+00 0.  1.
         12    1    3    3    0    0  0.24476150228E+01  0.45248320841E+01 -0.53471602231E+02  0.53718499326E+02  0.00000000000E+00 0. -1.
        -11    1    4    4    0    0 -0.20743069505E+03 -0.46906184462E+03  0.26666970120E+03  0.57806508013E+03  0.00000000000E+00 0.  1.
         11    1    4    4    0    0 -0.21655908836E+02 -0.33980264820E+01  0.86320246873E+01  0.23559219463E+02  0.00000000000E+00 0. -1.
         21    1    1    2  503  501  0.31288579012E+02 -0.11502060736E+01  0.46094810098E+02  0.55722793079E+02  0.00000000000E+00 0. -1.
         -2    1    1    2    0  502  0.12241934473E+03  0.59671630985E+03 -0.11136597165E+04  0.12693678799E+04  0.00000000000E+00 0.  1.
<scales pt_clust_5="13000.00000" pt_clust_6="13000.00000" pt_clust_7="13000.00000" pt_clust_8="13000.00000" pt_clust_9="31.30971" pt_clust_10="594.34341"></scales>
<clustering>
<clus scale="   31.310">  1  9  2 -1</clus>
<clus scale="   80.145">  5  6 -1 -1</clus>
<clus scale="  102.283">  7  8 -1 -1</clus>
<clus scale="  165.835">  1  5  2 -1</clus>
<clus scale="  594.343">  2 10  1 -1</clus>
<clus scale="  594.343">  2  5  1 -1</clus>
</clustering>
</event>
<event>
10    4  0.2857708E-005  0.9979368E+02  0.7546771E-02  0.1285835E+00
         21   -1    0    0  501  502  0.00000000000E+00  0.00000000000E+00  0.81455171524E+02  0.81455171524E+02  0.00000000000E+00 0.  1.
          2   -1    0    0  503    0 -0.00000000000E+00 -0.00000000000E+00 -0.58811915391E+03  0.58811915391E+03  0.00000000000E+00 0. -1.
         23    2    1    2    0    0 -0.18246406776E+02 -0.10225025720E+02 -0.22801951711E+03  0.24675695919E+03  0.91970724771E+02 0.  0.
         24    2    1    2    0    0 -0.54720667980E+02 -0.71005410558E+02 -0.91502998179E+01  0.12177083898E+03  0.81904147674E+02 0.  0.
        -13    1    4    4    0    0  0.13804613413E+02 -0.25262286350E+02  0.19240952296E+02  0.34626069779E+02  0.00000000000E+00 0.  1.
         14    1    4    4    0    0 -0.68525281393E+02 -0.45743124208E+02 -0.28391252114E+02  0.87144769200E+02  0.00000000000E+00 0. -1.
        -13    1    3    3    0    0 -0.28388116434E+02  0.26761923848E+02 -0.44096037148E+02  0.58877382881E+02  0.00000000000E+00 0.  1.
         13    1    3    3    0    0  0.10141709658E+02 -0.36986949569E+02 -0.18392347996E+03  0.18787957631E+03  0.00000000000E+00 0. -1.
         21    1    1    2  503  502  0.53992270421E+02  0.42488234923E+02 -0.23777201631E+03  0.24749938811E+03  0.00000000000E+00 0. -1.
          1    1    1    2  501    0  0.18974804335E+02  0.38742201356E+02 -0.31722149145E+02  0.53547139156E+02  0.00000000000E+00 0. -1.
<scales pt_clust_5="13000.00000" pt_clust_6="13000.00000" pt_clust_7="13000.00000" pt_clust_8="13000.00000" pt_clust_9="71.39690" pt_clust_10="43.13933"></scales>
<clustering>
<clus scale="   43.139">  1 10  2 -1</clus>
<clus scale="   71.397">  2  9  1 -1</clus>
<clus scale="   81.904">  5  6 -1 -1</clus>
<clus scale="   90.601">  1  5  2 -1</clus>
<clus scale="   91.971">  7  8 -1 -1</clus>
<clus scale="   43.139">  1  5  2 -1</clus>
</clustering>
</event>
<event>
10    4  0.2857708E-005  0.3658849E+03  0.7546771E-02  0.1056610E+00
         21   -1    0    0  501  502  0.00000000000E+00  0.00000000000E+00  0.30279893268E+03  0.30279893268E+03  0.00000000000E+00 0. -1.
          2   -1    0    0  503    0 -0.00000000000E+00 -0.00000000000E+00 -0.11800915930E+04  0.11800915930E+04  0.00000000000E+00 0. -1.
         23    2    1    2    0    0 -0.73255794718E+02 -0.44819331341E+03 -0.34987832202E+03  0.58081533975E+03  0.93209232523E+02 0.  0.
         24    2    1    2    0    0  0.74195472243E+02  0.24934517267E+03 -0.15253595674E+02  0.27224548963E+03  0.78784206557E+02 0.  0.
        -13    1    4    4    0    0 -0.93800461302E+01  0.53524952386E+02 -0.23435778860E+02  0.59178894246E+02  0.00000000000E+00 0.  1.
         14    1    4    4    0    0  0.83575518373E+02  0.19582022029E+03  0.81821831852E+01  0.21306659538E+03  0.00000000000E+00 0. -1.
        -13    1    3    3    0    0  0.11576149678E+02 -0.36869960952E+02 -0.84427342247E+01  0.39556049135E+02  0.00000000000E+00 0.  1.
         13    1    3    3    0    0 -0.84831944395E+02 -0.41132335245E+03 -0.34143558780E+03  0.54125929062E+03  0.00000000000E+00 0. -1.
         21    1    1    2  503  502 -0.11955555454E+03  0.96327821931E+02 -0.42179860388E+03  0.44887263465E+03  0.00000000000E+00 0. -1.
          1    1    1    2  501    0  0.11861587702E+03  0.10252031880E+03 -0.90362138767E+02  0.18095706168E+03  0.00000000000E+00 0. -1.
<scales pt_clust_5="13000.00000" pt_clust_6="13000.00000" pt_clust_7="13000.00000" pt_clust_8="13000.00000" pt_clust_9="153.53364" pt_clust_10="154.25217"></scales>
<clustering>
<clus scale="   78.784">  5  6 -1 -1</clus>
<clus scale="   93.209">  7  8 -1 -1</clus>
<clus scale="  153.534">  2  9  1 -1</clus>
<clus scale="  154.252">  1 10  2 -1</clus>
<clus scale="  362.479">  1  5  2 -1</clus>
<clus scale="  154.252">  1  5  2 -1</clus>
</clustering>
</event>
<event>
10    4  0.2857708E-005  0.2432150E+03  0.7546771E-02  0.1155605E+00
         21   -1    0    0  501  502  0.00000000000E+00  0.00000000000E+00  0.11156062852E+03  0.11156062852E+03  0.00000000000E+00 0.  1.
          2   -1    0    0  503    0 -0.00000000000E+00 -0.00000000000E+00 -0.10551781082E+04  0.10551781082E+04  0.00000000000E+00 0. -1.
         23    2    1    2    0    0 -0.83860970682E+01  0.28604449177E+02 -0.10440159234E+03  0.14278863811E+03  0.92738134300E+02 0.  0.
         24    2    1    2    0    0  0.25808518384E+03 -0.20926258408E+02 -0.23731979834E+03  0.36068664186E+03  0.82026194099E+02 0.  0.
        -13    1    4    4    0    0  0.17507994984E+03  0.66980915639E+01 -0.11233317586E+03  0.20812639349E+03  0.00000000000E+00 0.  1.
         14    1    4    4    0    0  0.83005234002E+02 -0.27624349972E+02 -0.12498662248E+03  0.15256024837E+03  0.00000000000E+00 0. -1.
        -13    1    3    3    0    0  0.19288307705E+02 -0.54463839958E+01 -0.96054394431E+02  0.98123129802E+02  0.00000000000E+00 0.  1.
         13    1    3    3    0    0 -0.27674404773E+02  0.34050833172E+02 -0.83471979066E+01  0.44665508305E+02  0.00000000000E+00 0. -1.
         21    1    1    2  503  502 -0.60712302753E+02 -0.45948832984E+02 -0.25797222424E+03  0.26897387873E+03  0.00000000000E+00 0.  1.
          1    1    1    2  501    0 -0.18898678402E+03  0.38270642215E+02 -0.34392386479E+03  0.39428957805E+03  0.00000000000E+00 0. -1.
<scales pt_clust_5="13000.00000" pt_clust_6="13000.00000" pt_clust_7="13000.00000" pt_clust_8="13000.00000" pt_clust_9="76.13986" pt_clust_10="228.96567"></scales>
<clustering>
<clus scale="   76.140">  2  9  1 -1</clus>
<clus scale="   82.026">  5  6 -1 -1</clus>
<clus scale="   92.738">  7  8 -1 -1</clus>
<clus scale="   96.844">  2  7  1 -1</clus>
<clus scale="  228.966">  1 10  2 -1</clus>
<clus scale="  228.966">  1  5  2 -1</clus>
</clustering>
</event>
<event>
10    4  0.2857708E-005  0.1390551E+03  0.7546771E-02  0.1230309E+00
         21   -1    0    0  501  502  0.00000000000E+00  0.00000000000E+00  0.17705944662E+03  0.17705944662E+03  0.00000000000E+00 0.  1.
          2   -1    0    0  503    0 -0.00000000000E+00 -0.00000000000E+00 -0.50601025539E+03  0.50601025539E+03  0.00000000000E+00 0. -1.
         24    2    1    2    0    0 -0.40535958592E+01 -0.59266602492E+02  0.73770229144E+02  0.12437376617E+03  0.80609088770E+02 0.  0.
         23    2    1    2    0    0  0.18256863288E+02 -0.76211514515E+02 -0.25389789719E+03  0.28087460812E+03  0.91021400170E+02 0.  0.
        -13    1    3    3    0    0  0.23039849950E+02 -0.67892561610E+02  0.52262568487E+02  0.88722097995E+02  0.00000000000E+00 0.  1.
         14    1    3    3    0    0 -0.27093445809E+02  0.86259591185E+01  0.21507660656E+02  0.35651668172E+02  0.00000000000E+00 0. -1.
        -13    1    4    4    0    0  0.49889038278E+02 -0.34236366482E+02 -0.18213802056E+03  0.19192525489E+03  0.00000000000E+00 0.  1.
         13    1    4    4    0    0 -0.31632174990E+02 -0.41975148033E+02 -0.71759876632E+02  0.88949353237E+02  0.00000000000E+00 0. -1.
         21    1    1    2  503  502  0.81471636966E+02  0.66674381032E+02 -0.11347306688E+03  0.15478771793E+03  0.00000000000E+00 0. -1.
          1    1    1    2  501    0 -0.95674904395E+02  0.68803735975E+02 -0.35350073849E+02  0.12303360978E+03  0.00000000000E+00 0. -1.
<scales pt_clust_5="13000.00000" pt_clust_6="13000.00000" pt_clust_7="13000.00000" pt_clust_8="13000.00000" pt_clust_9="94.70148" pt_clust_10="105.12576"></scales>
<clustering>
<clus scale="   80.609">  5  6 -1 -1</clus>
<clus scale="   91.021">  7  8 -1 -1</clus>
<clus scale="  100.134">  2  5  1 -1</clus>
<clus scale="   94.701">  2  9  1 -1</clus>
<clus scale="  105.126">  1 10  2 -1</clus>
<clus scale="  105.126">  1  5  2 -1</clus>
</clustering>
</event>
<event>
10    4  0.2857708E-005  0.2200944E+03  0.7546771E-02  0.1155743E+00
          2   -1    0    0  503    0 -0.00000000000E+00  0.00000000000E+00  0.12304694134E+03  0.12304694134E+03  0.00000000000E+00 0. -1.
         21   -1    0    0  501  502  0.00000000000E+00 -0.00000000000E+00 -0.11227765718E+04  0.11227765718E+04  0.00000000000E+00 0. -1.
         23    2    1    2    0    0  0.94880071699E+02 -0.33888041699E+02 -0.68503424516E+02  0.15184166990E+03  0.90623099543E+02 0.  0.
         24    2    1    2    0    0 -0.12971138310E+03 -0.19743493921E+03 -0.66240821539E+03  0.70815578396E+03  0.83032357597E+02 0.  0.
        -11    1    4    4    0    0 -0.44939279575E+01 -0.42029818357E+02 -0.20164050736E+03  0.20602328808E+03  0.00000000000E+00 0.  1.
         12    1    4    4    0    0 -0.12521745514E+03 -0.15540512085E+03 -0.46076770803E+03  0.50213249588E+03  0.00000000000E+00 0. -1.
        -11    1    3    3    0    0  0.87136809927E+02 -0.57481750799E+02 -0.34919161119E+02  0.11007417105E+03  0.00000000000E+00 0. -1.
         11    1    3    3    0    0  0.77432617717E+01  0.23593709100E+02 -0.33584263396E+02  0.41767498846E+02  0.00000000000E+00 0.  1.
         21    1    1    2  503  502 -0.32064723924E+01  0.60927810129E+02  0.48559134810E+01  0.61205060314E+02  0.00000000000E+00 0. -1.
          1    1    1    2  501    0  0.38037783791E+02  0.17039517078E+03 -0.27367390400E+03  0.32462099894E+03  0.00000000000E+00 0. -1.
<scales pt_clust_5="13000.00000" pt_clust_6="13000.00000" pt_clust_7="13000.00000" pt_clust_8="13000.00000" pt_clust_9="61.01213" pt_clust_10="203.83133"></scales>
<clustering>
<clus scale="   61.012">  1  9  2 -1</clus>
<clus scale="   83.032">  5  6 -1 -1</clus>
<clus scale="   90.623">  7  8 -1 -1</clus>
<clus scale="  130.260">  1  7  2 -1</clus>
<clus scale="  203.831">  2 10  1 -1</clus>
<clus scale="  203.831">  2  5  1 -1</clus>
</clustering>
</event>
<event>
10    4  0.2857708E-005  0.9734259E+02  0.7546771E-02  0.1292081E+00
         21   -1    0    0  501  502  0.00000000000E+00  0.00000000000E+00  0.67636818155E+02  0.67636818155E+02  0.00000000000E+00 0. -1.
          2   -1    0    0  503    0 -0.00000000000E+00 -0.00000000000E+00 -0.86506902703E+03  0.86506902703E+03  0.00000000000E+00 0. -1.
         24    2    1    2    0    0 -0.36826635673E+02  0.27739491532E+02 -0.59785624693E+03  0.60517482352E+03  0.81723892105E+02 0.  0.
         23    2    1    2    0    0 -0.14515884335E+02 -0.23059333342E+02 -0.18199756984E+03  0.20610997365E+03  0.92821129372E+02 0.  0.
        -13    1    3    3    0    0  0.20040614068E+02  0.40389388357E+01 -0.52342989345E+02  0.56193663101E+02  0.00000000000E+00 0.  1.
         14    1    3    3    0    0 -0.56867249741E+02  0.23700552696E+02 -0.54551325759E+03  0.54898116042E+03  0.00000000000E+00 0. -1.
        -11    1    4    4    0    0 -0.46341691332E+02 -0.39401666292E+02 -0.11975715194E+03  0.13431983883E+03  0.00000000000E+00 0. -1.
         11    1    4    4    0    0  0.31825806997E+02  0.16342332950E+02 -0.62240417899E+02  0.71790134820E+02  0.00000000000E+00 0.  1.
         21    1    1    2  503  502  0.25219694334E+02  0.25099867639E+01 -0.63349862075E+02  0.68231503287E+02  0.00000000000E+00 0.  1.
          1    1    1    2  501    0  0.26122825675E+02 -0.71901449536E+01  0.45771469969E+02  0.53189544732E+02  0.00000000000E+00 0. -1.
<scales pt_clust_5="13000.00000" pt_clust_6="13000.00000" pt_clust_7="13000.00000" pt_clust_8="13000.00000" pt_clust_9="25.34429" pt_clust_10="27.20406"></scales>
<clustering>
<clus scale="   25.344">  2  9  1 -1</clus>
<clus scale="   27.204">  1 10  2 -1</clus>
<clus scale="   81.724">  5  6 -1 -1</clus>
<clus scale="   86.825">  2  5  1 -1</clus>
<clus scale="   92.821">  7  8 -1 -1</clus>
<clus scale="   27.204">  1  5  2 -1</clus>
</clustering>
</event>
<event>
10    4  0.2857708E-005  0.1019219E+03  0.7546771E-02  0.1282439E+00
         21   -1    0    0  501  502  0.00000000000E+00  0.00000000000E+00  0.22630401043E+03  0.22630401043E+03  0.00000000000E+00 0. -1.
          2   -1    0    0  503    0 -0.00000000000E+00 -0.00000000000E+00 -0.14598213403E+03  0.14598213403E+03  0.00000000000E+00 0. -1.
         24    2    1    2    0    0 -0.14822075528E+02  0.51764035721E+02 -0.24520066534E+02  0.10038471813E+03  0.81096539106E+02 0.  0.
         23    2    1    2    0    0  0.52502227534E+02 -0.84729611784E+01  0.13249864364E+03  0.17066209661E+03  0.93495377885E+02 0.  0.
        -13    1    3    3    0    0 -0.13634771669E+02 -0.20391252528E+02 -0.12538023642E+01  0.24561803649E+02  0.00000000000E+00 0.  1.
         14    1    3    3    0    0 -0.11873038589E+01  0.72155288249E+02 -0.23266264170E+02  0.75822914486E+02  0.00000000000E+00 0. -1.
        -13    1    4    4    0    0  0.24860060588E+02 -0.26265824763E+02  0.21466506577E+01  0.36228776848E+02  0.00000000000E+00 0.  1.
         13    1    4    4    0    0  0.27642166946E+02  0.17792863584E+02  0.13035199298E+03  0.13443331976E+03  0.00000000000E+00 0. -1.
         21    1    1    2  503  502  0.24382391450E+02 -0.12826129469E+02 -0.13450633845E+02  0.30658280461E+02  0.00000000000E+00 0. -1.
          1    1    1    2  501    0 -0.62062543456E+02 -0.30464945074E+02 -0.14206066859E+02  0.70581049257E+02  0.00000000000E+00 0. -1.
<scales pt_clust_5="13000.00000" pt_clust_6="13000.00000" pt_clust_7="13000.00000" pt_clust_8="13000.00000" pt_clust_9="27.55015" pt_clust_10="64.03694"></scales>
<clustering>
<clus scale="   27.550">  2  9  1 -1</clus>
<clus scale="   64.037">  1 10  2 -1</clus>
<clus scale="   81.097">  5  6 -1 -1</clus>
<clus scale="   90.683">  2  5  1 -1</clus>
<clus scale="   93.495">  7  8 -1 -1</clus>
<clus scale="   64.037">  1  5  2 -1</clus>
</clustering>
</event>
<event>
10    4  0.2857708E-005  0.9550539E+02  0.7546771E-02  0.1298367E+00
         21   -1    0    0  503  502  0.00000000000E+00  0.00000000000E+00  0.12121403365E+03  0.12121403365E+03  0.00000000000E+00 0. -1.
         -1   -1    0    0    0  501 -0.00000000000E+00 -0.00000000000E+00 -0.23891340283E+03  0.23891340283E+03  0.00000000000E+00 0.  1.
         24    2    1    2    0    0  0.38287703246E+02  0.41593314492E+02 -0.66502780807E+02  0.11666349949E+03  0.77406719530E+02 0.  0.
         23    2    1    2    0    0  0.99412275255E+01 -0.89170675160E+01  0.44807223937E+02  0.10299373367E+03  0.91769710480E+02 0.  0.
        -13    1    3    3    0    0  0.12020492694E+02 -0.21757560679E+02 -0.30044459355E+02  0.38994271749E+02  0.00000000000E+00 0.  1.
         14    1    3    3    0    0  0.26267210553E+02  0.63350875171E+02 -0.36458321452E+02  0.77669227743E+02  0.00000000000E+00 0. -1.
        -13    1    4    4    0    0 -0.21693500705E+02 -0.14362337647E+02 -0.18560785523E+02  0.31959153223E+02  0.00000000000E+00 0.  1.
         13    1    4    4    0    0  0.31634728231E+02  0.54452701308E+01  0.63368009460E+02  0.71034580452E+02  0.00000000000E+00 0. -1.
         21    1    1    2  503  501 -0.78526431745E+01 -0.55067253356E+02 -0.60837342452E+02  0.82433298087E+02  0.00000000000E+00 0. -1.
         -2    1    1    2    0  502 -0.40376287597E+02  0.22391006380E+02 -0.35166469856E+02  0.58036905232E+02  0.00000000000E+00 0.  1.
<scales pt_clust_5="13000.00000" pt_clust_6="13000.00000" pt_clust_7="13000.00000" pt_clust_8="13000.00000" pt_clust_9="54.17104" pt_clust_10="46.16930"></scales>
<clustering>
<clus scale="   46.169">  1 10  2 -1</clus>
<clus scale="   54.171">  2  9  1 -1</clus>
<clus scale="   77.407">  5  6 -1 -1</clus>
<clus scale="   81.801">  2  5  1 -1</clus>
<clus scale="   91.770">  7  8 -1 -1</clus>
<clus scale="   46.169">  1  5  2 -1</clus>
</clustering>
</event>
<event>
10    4  0.2857708E-005  0.1028502E+03  0.7546771E-02  0.1280563E+00
         21   -1    0    0  501  502  0.00000000000E+00  0.00000000000E+00  0.11761166991E+03  0.11761166991E+03  0.00000000000E+00 0. -1.
          2   -1    0    0  503    0 -0.00000000000E+00 -0.00000000000E+00 -0.45476908330E+03  0.45476908330E+03  0.00000000000E+00 0. -1.
         24    2    1    2    0    0 -0.32215587585E+02  0.83438895317E+01 -0.20750059566E+03  0.22432110122E+03  0.78460147051E+02 0.  0.
         23    2    1    2    0    0  0.98674316188E+02 -0.16868169748E+02 -0.76927857603E+02  0.15591737876E+03  0.91494141337E+02 0.  0.
        -13    1    3    3    0    0 -0.97411872694E+01  0.35176182177E+02 -0.16630900769E+03  0.17026726215E+03  0.00000000000E+00 0.  1.
         14    1    3    3    0    0 -0.22474400316E+02 -0.26832292645E+02 -0.41191587977E+02  0.54053839070E+02  0.00000000000E+00 0. -1.
        -13    1    4    4    0    0  0.10290358273E+03  0.14540823077E+02 -0.58904316678E+02  0.11945836680E+03  0.00000000000E+00 0. -1.
         13    1    4    4    0    0 -0.42292665451E+01 -0.31408992826E+02 -0.18023540924E+02  0.36459011963E+02  0.00000000000E+00 0.  1.
         21    1    1    2  503  502  0.68959292176E+01  0.23841601898E+02 -0.10033725712E+03  0.10336121607E+03  0.00000000000E+00 0.  1.
          1    1    1    2  501    0 -0.73354657821E+02 -0.15317321681E+02  0.47608296995E+02  0.88781057159E+02  0.00000000000E+00 0. -1.
<scales pt_clust_5="13000.00000" pt_clust_6="13000.00000" pt_clust_7="13000.00000" pt_clust_8="13000.00000" pt_clust_9="24.81886" pt_clust_10="74.26981"></scales>
<clustering>
<clus scale="   24.819">  2  9  1 -1</clus>
<clus scale="   74.270">  1 10  2 -1</clus>
<clus scale="   78.460">  5  6 -1 -1</clus>
<clus scale="   91.449">  2  5  1 -1</clus>
<clus scale="   91.494">  7  8 -1 -1</clus>
<clus scale="   74.270">  1  5  2 -1</clus>
</clustering>
</event>
<event>
10    4  0.2857708E-005  0.1312102E+03  0.7546771E-02  0.1242032E+00
         21   -1    0    0  501  502  0.00000000000E+00  0.00000000000E+00  0.97719814465E+03  0.97719814465E+03  0.00000000000E+00 0. -1.
          2   -1    0    0  503    0 -0.00000000000E+00 -0.00000000000E+00 -0.11951584467E+03  0.11951584467E+03  0.00000000000E+00 0. -1.
         24    2    1    2    0    0  0.51268656798E+02 -0.32497323338E+01  0.16538198176E+01  0.96656930821E+02  0.81858360755E+02 0.  0.
         23    2    1    2    0    0  0.64224146171E+02  0.12699601678E+03  0.10760776762E+03  0.19886379370E+03  0.87833066451E+02 0.  0.
        -11    1    3    3    0    0 -0.85765662590E+01 -0.29835607122E+02  0.27263726952E+01  0.31163344641E+02  0.00000000000E+00 0.  1.
         12    1    3    3    0    0  0.59845223057E+02  0.26585874788E+02 -0.10725528776E+01  0.65493586180E+02  0.00000000000E+00 0. -1.
        -13    1    4    4    0    0  0.20132313099E+02 -0.58031181175E+00 -0.74751905443E+01  0.21483139114E+02  0.00000000000E+00 0.  1.
         13    1    4    4    0    0  0.44091833072E+02  0.12757632860E+03  0.11508295817E+03  0.17738065459E+03  0.00000000000E+00 0. -1.
         21    1    1    2  503  502 -0.42398240241E+02 -0.62911200072E+02  0.38766512264E+02  0.85195494853E+02  0.00000000000E+00 0.  1.
          1    1    1    2  501    0 -0.73094562728E+02 -0.60835084377E+02  0.70965420028E+03  0.71599776995E+03  0.00000000000E+00 0. -1.
<scales pt_clust_5="13000.00000" pt_clust_6="13000.00000" pt_clust_7="13000.00000" pt_clust_8="13000.00000" pt_clust_9="75.86455" pt_clust_10="97.47547"></scales>
<clustering>
<clus scale="   75.865">  2  9  1 -1</clus>
<clus scale="   81.858">  5  6 -1 -1</clus>
<clus scale="   87.833">  7  8 -1 -1</clus>
<clus scale="   93.795">  2  5  1 -1</clus>
<clus scale="   97.475">  1 10  2 -1</clus>
<clus scale="   97.475">  1  5  2 -1</clus>
</clustering>
</event>
<event>
10    4  0.2857708E-005  0.1771864E+03  0.7546771E-02  0.1177950E+00
         21   -1    0    0  501  502  0.00000000000E+00  0.00000000000E+00  0.21842290065E+03  0.21842290065E+03  0.00000000000E+00 0. -1.
          2   -1    0    0  503    0 -0.00000000000E+00 -0.00000000000E+00 -0.89512680751E+03  0.89512680751E+03  0.00000000000E+00 0. -1.
         24    2    1    2    0    0 -0.91738615297E+02 -0.17356516129E+03 -0.40840518863E+03  0.46028238885E+03  0.80772771609E+02 0.  0.
         23    2    1    2    0    0 -0.32514877277E+02  0.74444807845E+02  0.11079796039E+02  0.14900213429E+03  0.12441715109E+03 0.  0.
        -13    1    3    3    0    0  0.37047082898E+01 -0.26010801696E+02 -0.11764007112E+03  0.12053826364E+03  0.00000000000E+00 0.  1.
         14    1    3    3    0    0 -0.95443323587E+02 -0.14755435959E+03 -0.29076511751E+03  0.33974412521E+03  0.00000000000E+00 0. -1.
        -13    1    4    4    0    0 -0.57517893360E+01  0.10271690522E+03  0.27899395181E+02  0.10659372379E+03  0.00000000000E+00 0.  1.
         13    1    4    4    0    0 -0.26763087941E+02 -0.28272097379E+02 -0.16819599142E+02  0.42408410506E+02  0.00000000000E+00 0. -1.
         21    1    1    2  503  502  0.37517429436E+02  0.57166372362E+02 -0.36743209947E+03  0.37374041708E+03  0.00000000000E+00 0.  1.
          1    1    1    2  501    0  0.86736063139E+02  0.41953981082E+02  0.88053585200E+02  0.13052476793E+03  0.00000000000E+00 0. -1.
<scales pt_clust_5="13000.00000" pt_clust_6="13000.00000" pt_clust_7="13000.00000" pt_clust_8="13000.00000" pt_clust_9="68.37801" pt_clust_10="98.73508"></scales>
<clustering>
<clus scale="   68.378">  2  9  1 -1</clus>
<clus scale="   80.773">  5  6 -1 -1</clus>
<clus scale="   98.735">  1 10  2 -1</clus>
<clus scale="  124.417">  7  8 -1 -1</clus>
<clus scale="  149.799">  2  5  1 -1</clus>
<clus scale="   98.735">  1  5  2 -1</clus>
</clustering>
</event>
<event>
10    4  0.2857708E-005  0.2195109E+03  0.7546771E-02  0.1151442E+00
         21   -1    0    0  501  502  0.00000000000E+00  0.00000000000E+00  0.23574698486E+03  0.23574698486E+03  0.00000000000E+00 0.  1.
          2   -1    0    0  503    0 -0.00000000000E+00 -0.00000000000E+00 -0.49119613842E+03  0.49119613842E+03  0.00000000000E+00 0. -1.
         24    2    1    2    0    0  0.11137818581E+03  0.14610065743E+02 -0.45828937231E+02  0.14559282733E+03  0.80488667430E+02 0.  0.
         23    2    1    2    0    0  0.18827054783E+02 -0.16670400779E+03 -0.80248430823E+02  0.20852693536E+03  0.94334447136E+02 0.  0.
        -13    1    3    3    0    0  0.57953812044E+02  0.16525012599E+02  0.17465336236E+02  0.62743592037E+02  0.00000000000E+00 0.  1.
         14    1    3    3    0    0  0.53424373770E+02 -0.19149468558E+01 -0.63294273468E+02  0.82849235289E+02  0.00000000000E+00 0. -1.
        -13    1    4    4    0    0  0.39675444959E+02 -0.16347412389E+03 -0.58180449094E+02  0.17799689539E+03  0.00000000000E+00 0.  1.
         13    1    4    4    0    0 -0.20848390176E+02 -0.32298839076E+01 -0.22067981729E+02  0.30530039970E+02  0.00000000000E+00 0. -1.
         21    1    1    2  503  502  0.35577492001E+02 -0.25498307088E+02 -0.12216535988E+03  0.12977016898E+03  0.00000000000E+00 0. -1.
          1    1    1    2  501    0 -0.16578273260E+03  0.17759224914E+03 -0.72064256221E+01  0.24305319161E+03  0.00000000000E+00 0. -1.
<scales pt_clust_5="13000.00000" pt_clust_6="13000.00000" pt_clust_7="13000.00000" pt_clust_8="13000.00000" pt_clust_9="43.77124" pt_clust_10="198.20712"></scales>
<clustering>
<clus scale="   43.771">  2  9  1 -1</clus>
<clus scale="   80.489">  5  6 -1 -1</clus>
<clus scale="   94.334">  7  8 -1 -1</clus>
<clus scale="  145.293">  2  5  1 -1</clus>
<clus scale="  198.207">  1 10  2 -1</clus>
<clus scale="  198.207">  1  5  2 -1</clus>
</clustering>
</event>
<event>
10    4  0.2857708E-005  0.1004232E+03  0.7546771E-02  0.1284815E+00
         -1   -1    0    0    0  501 -0.00000000000E+00  0.00000000000E+00  0.45995692338E+03  0.45995692338E+03  0.00000000000E+00 0.  1.
         21   -1    0    0  503  502  0.00000000000E+00 -0.00000000000E+00 -0.49288691007E+03  0.49288691007E+03  0.00000000000E+00 0. -1.
         24    2    1    2    0    0 -0.56147983366E+01 -0.32653952363E+02  0.14255220027E+03  0.16614635176E+03  0.78649054882E+02 0.  0.
         23    2    1    2    0    0  0.48337402150E+01 -0.25985840845E+02 -0.29031355125E+03  0.30501822945E+03  0.89752622736E+02 0.  0.
        -11    1    3    3    0    0 -0.18404382884E+02  0.22250867159E+02  0.51996856605E+02  0.59476848399E+02  0.00000000000E+00 0.  1.
         12    1    3    3    0    0  0.12789584547E+02 -0.54904819522E+02  0.90555343668E+02  0.10666950336E+03  0.00000000000E+00 0. -1.
        -13    1    4    4    0    0 -0.24906048645E+02  0.92614685116E+01 -0.27694321806E+02  0.38380483561E+02  0.00000000000E+00 0.  1.
         13    1    4    4    0    0  0.29739788860E+02 -0.35247309356E+02 -0.26261922945E+03  0.26663774589E+03  0.00000000000E+00 0. -1.
         21    1    1    2  503  501  0.13019962398E+01  0.84029619485E+02  0.29140883109E+03  0.30328497982E+03  0.00000000000E+00 0.  1.
         -2    1    1    2    0  502 -0.52093811822E+00 -0.25389826277E+02 -0.17657746680E+03  0.17839427243E+03  0.00000000000E+00 0.  1.
<scales pt_clust_5="13000.00000" pt_clust_6="13000.00000" pt_clust_7="13000.00000" pt_clust_8="13000.00000" pt_clust_9="83.56160" pt_clust_10="25.39517"></scales>
<clustering>
<clus scale="   25.395">  2 10  1 -1</clus>
<clus scale="   78.649">  5  6 -1 -1</clus>
<clus scale="   83.562">  1  9  2 -1</clus>
<clus scale="   89.753">  7  8 -1 -1</clus>
<clus scale="   90.636">  1  5  2 -1</clus>
<clus scale="   25.395">  2  5  1 -1</clus>
</clustering>
</event>
<event>
10    4  0.2857708E-005  0.8976799E+02  0.7546771E-02  0.1307025E+00
         21   -1    0    0  501  502  0.00000000000E+00  0.00000000000E+00  0.81992383611E+02  0.81992383611E+02  0.00000000000E+00 0.  1.
          2   -1    0    0  503    0 -0.00000000000E+00 -0.00000000000E+00 -0.45262642276E+03  0.45262642276E+03  0.00000000000E+00 0. -1.
         24    2    1    2    0    0  0.27431290879E+02  0.14512006991E+02 -0.24123318556E+03  0.25630784227E+03  0.80852867168E+02 0.  0.
         23    2    1    2    0    0 -0.22816545610E+02 -0.17754899899E+02 -0.11216808503E+03  0.14474567374E+03  0.86797462775E+02 0.  0.
        -11    1    3    3    0    0 -0.11334809156E+02  0.31011534542E+02 -0.46260694028E+02  0.56835244217E+02  0.00000000000E+00 0.  1.
         12    1    3    3    0    0  0.38766100034E+02 -0.16499527551E+02 -0.19497249153E+03  0.19947259805E+03  0.00000000000E+00 0. -1.
        -13    1    4    4    0    0 -0.41587157563E+02 -0.46194861289E+01 -0.14280332691E+02  0.44212659137E+02  0.00000000000E+00 0.  1.
         13    1    4    4    0    0  0.18770611952E+02 -0.13135413770E+02 -0.97887752337E+02  0.10053301460E+03  0.00000000000E+00 0. -1.
         21    1    1    2  503  502 -0.11716766719E+02 -0.41320871589E+02 -0.58392792254E+02  0.72487345368E+02  0.00000000000E+00 0. -1.
          1    1    1    2  501    0  0.71020214510E+01  0.44563764498E+02  0.41160023686E+02  0.61077944995E+02  0.00000000000E+00 0. -1.
<scales pt_clust_5="13000.00000" pt_clust_6="13000.00000" pt_clust_7="13000.00000" pt_clust_8="13000.00000" pt_clust_9="42.94994" pt_clust_10="44.02931"></scales>
<clustering>
<clus scale="   42.950">  2  9  1 -1</clus>
<clus scale="   44.029">  1 10  2 -1</clus>
<clus scale="   80.853">  5  6 -1 -1</clus>
<clus scale="   84.034">  2  5  1 -1</clus>
<clus scale="   86.797">  7  8 -1 -1</clus>
<clus scale="   44.029">  1  5  2 -1</clus>
</clustering>
</event>
<event>
10    4  0.2857708E-005  0.2276020E+03  0.7546771E-02  0.1171126E+00
         -1   -1    0    0    0  501 -0.00000000000E+00  0.00000000000E+00  0.24294645546E+03  0.24294645546E+03  0.00000000000E+00 0.  1.
         21   -1    0    0  503  502  0.00000000000E+00 -0.00000000000E+00 -0.10799732416E+04  0.10799732416E+04  0.00000000000E+00 0.  1.
         24    2    1    2    0    0 -0.17742583869E+01 -0.22596101560E+02  0.10778263746E+03  0.13627038773E+03  0.80242070240E+02 0.  0.
         23    2    1    2    0    0 -0.19240630932E+03  0.13388329704E+02 -0.77153347568E+03  0.80262545300E+03  0.10837102227E+03 0.  0.
        -13    1    3    3    0    0 -0.27883799445E+02  0.11524303789E+02  0.14302770027E+02  0.33389894875E+02  0.00000000000E+00 0.  1.
         14    1    3    3    0    0  0.26109541058E+02 -0.34120405349E+02  0.93479867428E+02  0.10288049285E+03  0.00000000000E+00 0. -1.
        -11    1    4    4    0    0 -0.48740799303E+02  0.52235862732E+02 -0.21638012147E+03  0.22786971681E+03  0.00000000000E+00 0.  1.
         11    1    4    4    0    0 -0.14366551002E+03 -0.38847533028E+02 -0.55515335421E+03  0.57475573619E+03  0.00000000000E+00 0. -1.
         21    1    1    2  503  501 -0.26008209835E+02  0.31385682376E+02  0.53435082384E+02  0.67207113213E+02  0.00000000000E+00 0.  1.
         -2    1    1    2    0  502  0.22018877754E+03 -0.22177910520E+02 -0.22671103033E+03  0.31681674316E+03  0.00000000000E+00 0.  1.
<scales pt_clust_5="13000.00000" pt_clust_6="13000.00000" pt_clust_7="13000.00000" pt_clust_8="13000.00000" pt_clust_9="40.76135" pt_clust_10="200.14597"></scales>
<clustering>
<clus scale="   40.761">  1  9  2 -1</clus>
<clus scale="   80.242">  5  6 -1 -1</clus>
<clus scale="   82.512">  1  5  2 -1</clus>
<clus scale="  108.371">  7  8 -1 -1</clus>
<clus scale="  200.146">  2 10  1 -1</clus>
<clus scale="  200.146">  2  5  1 -1</clus>
</clustering>
</event>
<event>
10    4  0.2857708E-005  0.9188897E+02  0.7546771E-02  0.1318676E+00
         21   -1    0    0  501  502  0.00000000000E+00  0.00000000000E+00  0.61259834567E+02  0.61259834567E+02  0.00000000000E+00 0.  1.
          2   -1    0    0  503    0 -0.00000000000E+00 -0.00000000000E+00 -0.25083720917E+03  0.25083720917E+03  0.00000000000E+00 0. -1.
         24    2    1    2    0    0  0.32410143631E+01  0.33933790199E+01 -0.11386516664E+03  0.13038261455E+03  0.63342961785E+02 0.  0.
         23    2    1    2    0    0 -0.14068437312E+01  0.32384568494E+02 -0.21624303896E+02  0.99725957812E+02  0.91798238854E+02 0.  0.
        -11    1    3    3    0    0  0.17493199571E+02 -0.21771053792E+02 -0.85210654637E+02  0.89670767132E+02  0.00000000000E+00 0.  1.
         12    1    3    3    0    0 -0.14252185208E+02  0.25164432812E+02 -0.28654511999E+02  0.40711847414E+02  0.00000000000E+00 0. -1.
        -11    1    4    4    0    0 -0.17844257425E+02  0.55621151197E+02  0.76304245392E+01  0.58909705161E+02  0.00000000000E+00 0.  1.
         11    1    4    4    0    0  0.16437413694E+02 -0.23236582703E+02 -0.29254728435E+02  0.40816252651E+02  0.00000000000E+00 0. -1.
         21    1    1    2  503  502 -0.20258747854E+02 -0.12156876030E+01 -0.88206272646E+01  0.22129126198E+02  0.00000000000E+00 0. -1.
          1    1    1    2  501    0  0.18424577222E+02 -0.34562259911E+02 -0.45267276804E+02  0.59859345179E+02  0.00000000000E+00 0. -1.
<scales pt_clust_5="13000.00000" pt_clust_6="13000.00000" pt_clust_7="13000.00000" pt_clust_8="13000.00000" pt_clust_9="20.29519" pt_clust_10="38.11631"></scales>
<clustering>
<clus scale="   20.295">  1  9  2 -1</clus>
<clus scale="   38.116">  1 10  2 -1</clus>
<clus scale="   63.343">  5  6 -1 -1</clus>
<clus scale="   63.474">  2  5  1 -1</clus>
<clus scale="   91.798">  7  8 -1 -1</clus>
<clus scale="   20.295">  1  5  2 -1</clus>
</clustering>
</event>
<event>
10    4  0.2857708E-005  0.9200149E+02  0.7546771E-02  0.1303410E+00
          2   -1    0    0  503    0 -0.00000000000E+00  0.00000000000E+00  0.56875101824E+03  0.56875101824E+03  0.00000000000E+00 0. -1.
         21   -1    0    0  501  502  0.00000000000E+00 -0.00000000000E+00 -0.79437187574E+02  0.79437187574E+02  0.00000000000E+00 0. -1.
         24    2    1    2    0    0 -0.30025198494E+02  0.53027614467E+02  0.19306176226E+03  0.21804048621E+03  0.80965234153E+02 0.  0.
         23    2    1    2    0    0 -0.12546126705E+02 -0.70331426691E+01  0.44296108932E+02  0.10116370789E+03  0.89805791214E+02 0.  0.
        -13    1    3    3    0    0  0.14318019033E+02 -0.14383281495E+02  0.46493723935E+02  0.50730176630E+02  0.00000000000E+00 0.  1.
         14    1    3    3    0    0 -0.44343217527E+02  0.67410895962E+02  0.14656803832E+03  0.16731030958E+03  0.00000000000E+00 0. -1.
        -13    1    4    4    0    0 -0.98043316270E+00  0.39605726969E+02  0.33573640046E+02  0.51930378045E+02  0.00000000000E+00 0. -1.
         13    1    4    4    0    0 -0.11565693542E+02 -0.46638869638E+02  0.10722468887E+02  0.49233329841E+02  0.00000000000E+00 0.  1.
         21    1    1    2  503  502  0.79438994068E+01 -0.58876807412E+02  0.27768020232E+03  0.28396457305E+03  0.00000000000E+00 0. -1.
          1    1    1    2  501    0  0.34627425792E+02  0.12882335614E+02 -0.25724242842E+02  0.45019438664E+02  0.00000000000E+00 0. -1.
<scales pt_clust_5="13000.00000" pt_clust_6="13000.00000" pt_clust_7="13000.00000" pt_clust_8="13000.00000" pt_clust_9="58.88621" pt_clust_10="36.94608"></scales>
<clustering>
<clus scale="   36.946">  2 10  1 -1</clus>
<clus scale="   58.886">  1  9  2 -1</clus>
<clus scale="   80.965">  5  6 -1 -1</clus>
<clus scale="   83.394">  1  5  2 -1</clus>
<clus scale="   89.806">  7  8 -1 -1</clus>
<clus scale="   36.946">  2  5  1 -1</clus>
</clustering>
</event>
<event>
10    4  0.2857708E-005  0.2146709E+03  0.7546771E-02  0.1139317E+00
          2   -1    0    0  503    0 -0.00000000000E+00  0.00000000000E+00  0.39036157486E+03  0.39036157486E+03  0.00000000000E+00 0. -1.
         21   -1    0    0  501  502  0.00000000000E+00 -0.00000000000E+00 -0.19854441759E+03  0.19854441759E+03  0.00000000000E+00 0. -1.
         23    2    1    2    0    0  0.16213702577E+03  0.14474913927E+03  0.17499156392E+03  0.29381603051E+03  0.92005890541E+02 0.  0.
         24    2    1    2    0    0 -0.92256115115E+02 -0.15431846089E+03 -0.12969338726E+02  0.19480055891E+03  0.73849007157E+02 0.  0.
        -11    1    4    4    0    0 -0.49242184339E+02 -0.19906575970E+02 -0.67004653072E+01  0.53534668399E+02  0.00000000000E+00 0.  1.
         12    1    4    4    0    0 -0.43013930777E+02 -0.13441188492E+03 -0.62688734187E+01  0.14126589051E+03  0.00000000000E+00 0. -1.
        -11    1    3    3    0    0  0.18409290732E+02  0.41649949209E+02  0.77301091864E+00  0.45543581329E+02  0.00000000000E+00 0.  1.
         11    1    3    3    0    0  0.14372773504E+03  0.10309919006E+03  0.17421855301E+03  0.24827244918E+03  0.00000000000E+00 0. -1.
         21    1    1    2  503  502 -0.33638667835E+02 -0.19220166122E+01  0.47590484180E+02  0.58310447658E+02  0.00000000000E+00 0. -1.
          1    1    1    2  501    0 -0.36242242821E+02  0.11491338228E+02 -0.17795552108E+02  0.41978955369E+02  0.00000000000E+00 0. -1.
<scales pt_clust_5="13000.00000" pt_clust_6="13000.00000" pt_clust_7="13000.00000" pt_clust_8="13000.00000" pt_clust_9="33.69353" pt_clust_10="39.15107"></scales>
<clustering>
<clus scale="   33.694">  1  9  2 -1</clus>
<clus scale="   39.151">  2 10  1 -1</clus>
<clus scale="   73.849">  5  6 -1 -1</clus>
<clus scale="   92.006">  7  8 -1 -1</clus>
<clus scale="  207.538">  2  5  1 -1</clus>
<clus scale="   39.151">  2  5  1 -1</clus>
</clustering>
</event>
<event>
10    4  0.2857708E-005  0.2493566E+03  0.7546771E-02  0.1155857E+00
         21   -1    0    0  501  502  0.00000000000E+00  0.00000000000E+00  0.21046798651E+03  0.21046798651E+03  0.00000000000E+00 0. -1.
          2   -1    0    0  503    0 -0.00000000000E+00 -0.00000000000E+00 -0.54609018127E+03  0.54609018127E+03  0.00000000000E+00 0. -1.
         24    2    1    2    0    0  0.14938429644E+02  0.38561966739E+02 -0.95360200362E+02  0.13076608023E+03  0.79347450918E+02 0.  0.
         23    2    1    2    0    0 -0.22627980685E+03 -0.13459955581E+03 -0.24945520949E+03  0.37351313553E+03  0.89244436557E+02 0.  0.
        -13    1    3    3    0    0  0.68801545099E+01  0.45281757648E+02 -0.12820222567E+02  0.47561877680E+02  0.00000000000E+00 0.  1.
         14    1    3    3    0    0  0.80582751338E+01 -0.67197909087E+01 -0.82539977795E+02  0.83204202552E+02  0.00000000000E+00 0. -1.
        -13    1    4    4    0    0 -0.36948859638E+02 -0.20935315954E+02 -0.94905781996E+02  0.10397409840E+03  0.00000000000E+00 0.  1.
         13    1    4    4    0    0 -0.18933094721E+03 -0.11366423985E+03 -0.15454942750E+03  0.26953903713E+03  0.00000000000E+00 0. -1.
         21    1    1    2  503  502  0.33458132904E+02 -0.18374329874E+02 -0.11244155534E+02  0.39793136210E+02  0.00000000000E+00 0.  1.
          1    1    1    2  501    0  0.17788324430E+03  0.11441191894E+03  0.20437370625E+02  0.21248581580E+03  0.00000000000E+00 0. -1.
<scales pt_clust_5="13000.00000" pt_clust_6="13000.00000" pt_clust_7="13000.00000" pt_clust_8="13000.00000" pt_clust_9="38.17149" pt_clust_10="232.83933"></scales>
<clustering>
<clus scale="   38.171">  1  9  2 -1</clus>
<clus scale="   79.347">  5  6 -1 -1</clus>
<clus scale="   89.244">  7  8 -1 -1</clus>
<clus scale="   89.333">  2  5  1 -1</clus>
<clus scale="  232.839">  1 10  2 -1</clus>
<clus scale="   38.171">  1  5  2 -1</clus>
</clustering>
</event>
<event>
10    4  0.2857708E-005  0.1032416E+03  0.7546771E-02  0.1274466E+00
         21   -1    0    0  501  502  0.00000000000E+00  0.00000000000E+00  0.11548004537E+03  0.11548004537E+03  0.00000000000E+00 0. -1.
          2   -1    0    0  503    0 -0.00000000000E+00 -0.00000000000E+00 -0.22089380140E+03  0.22089380140E+03  0.00000000000E+00 0. -1.
         24    2    1    2    0    0  0.29803559298E+02  0.15940755504E+02 -0.42028069451E+02  0.97020402408E+02  0.80648868738E+02 0.  0.
         23    2    1    2    0    0 -0.95720410250E+02 -0.50501392954E+02 -0.47166735653E+02  0.14178189397E+03  0.78515074193E+02 0.  0.
        -13    1    3    3    0    0  0.55397065608E+02  0.23042352118E+02 -0.22603062878E+02  0.64114610820E+02  0.00000000000E+00 0.  1.
         14    1    3    3    0    0 -0.25593506310E+02 -0.71015966132E+01 -0.19425006572E+02  0.32905791588E+02  0.00000000000E+00 0. -1.
        -13    1    4    4    0    0 -0.25737481757E+02 -0.38915215472E+02  0.13361797740E+02  0.48531944132E+02  0.00000000000E+00 0. -1.
         13    1    4    4    0    0 -0.69982928493E+02 -0.11586177482E+02 -0.60528533393E+02  0.93249949833E+02  0.00000000000E+00 0.  1.
         21    1    1    2  503  502  0.20968967094E+02 -0.95664640081E+01 -0.24966846707E+02  0.33978791166E+02  0.00000000000E+00 0. -1.
          1    1    1    2  501    0  0.44947883858E+02  0.44127101458E+02  0.87478957830E+01  0.63592759234E+02  0.00000000000E+00 0. -1.
<scales pt_clust_5="13000.00000" pt_clust_6="13000.00000" pt_clust_7="13000.00000" pt_clust_8="13000.00000" pt_clust_9="23.04810" pt_clust_10="64.24569"></scales>
<clustering>
<clus scale="   23.048">  2  9  1 -1</clus>
<clus scale="   64.246">  1 10  2 -1</clus>
<clus scale="   78.515">  7  8 -1 -1</clus>
<clus scale="   80.649">  5  6 -1 -1</clus>
<clus scale="  101.583">  1  7  2 -1</clus>
<clus scale="   64.246">  1  5  2 -1</clus>
</clustering>
</event>
<event>
10    4  0.2857708E-005  0.4840494E+03  0.7546771E-02  0.1050854E+00
          2   -1    0    0  503    0 -0.00000000000E+00  0.00000000000E+00  0.13896332766E+04  0.13896332766E+04  0.00000000000E+00 0. -1.
         21   -1    0    0  501  502  0.00000000000E+00 -0.00000000000E+00 -0.39310950187E+03  0.39310950187E+03  0.00000000000E+00 0. -1.
         23    2    1    2    0    0 -0.83187919509E+02 -0.13924877948E+03 -0.10310978888E+03  0.21381905351E+03  0.93683010970E+02 0.  0.
         24    2    1    2    0    0 -0.35294597948E+03  0.35047741876E+03  0.20145701337E+03  0.54252588293E+03  0.79649983858E+02 0.  0.
        -11    1    4    4    0    0 -0.20577562411E+03  0.14965353452E+03  0.92172999835E+02  0.27062085982E+03  0.00000000000E+00 0.  1.
         12    1    4    4    0    0 -0.14717035537E+03  0.20082388424E+03  0.10928401354E+03  0.27190502311E+03  0.00000000000E+00 0. -1.
        -11    1    3    3    0    0  0.27872903641E+00 -0.84624802661E+02 -0.66255708521E+02  0.10747675947E+03  0.00000000000E+00 0.  1.
         11    1    3    3    0    0 -0.83466648545E+02 -0.54623976818E+02 -0.36854080358E+02  0.10634229404E+03  0.00000000000E+00 0. -1.
         21    1    1    2  503  502  0.23312082882E+02 -0.32116791034E+01  0.10926703279E+02  0.25945345161E+02  0.00000000000E+00 0.  1.
          1    1    1    2  501    0  0.41282181610E+03 -0.20801696017E+03  0.88724984697E+03  0.10004524969E+04  0.00000000000E+00 0. -1.
<scales pt_clust_5="13000.00000" pt_clust_6="13000.00000" pt_clust_7="13000.00000" pt_clust_8="13000.00000" pt_clust_9="23.53228" pt_clust_10="477.45146"></scales>
<clustering>
<clus scale="   23.532">  2  9  1 -1</clus>
<clus scale="   79.650">  5  6 -1 -1</clus>
<clus scale="   93.683">  7  8 -1 -1</clus>
<clus scale="  184.267">  1  7  2 -1</clus>
<clus scale="  477.451">  2 10  1 -1</clus>
<clus scale="   23.532">  2  5  1 -1</clus>
</clustering>
</event>
<event>
10    4  0.2857708E-005  0.1130836E+03  0.7546771E-02  0.1261299E+00
          2   -1    0    0  503    0 -0.00000000000E+00  0.00000000000E+00  0.24176290584E+03  0.24176290584E+03  0.00000000000E+00 0. -1.
         21   -1    0    0  501  502  0.00000000000E+00 -0.00000000000E+00 -0.26104111127E+03  0.26104111127E+03  0.00000000000E+00 0.  1.
         23    2    1    2    0    0  0.57727542990E+01 -0.67793599397E+02 -0.33994220043E+02  0.11831271243E+03  0.90625570982E+02 0.  0.
         24    2    1    2    0    0 -0.29696194034E+00  0.53933494310E+02 -0.16805427431E+03  0.19114790386E+03  0.73391907201E+02 0.  0.
        -13    1    4    4    0    0  0.19222528302E+01  0.63677727684E+02 -0.16947528079E+03  0.18105363530E+03  0.00000000000E+00 0.  1.
         14    1    4    4    0    0 -0.22192147705E+01 -0.97442333736E+01  0.14210064820E+01  0.10094268555E+02  0.00000000000E+00 0. -1.
        -11    1    3    3    0    0  0.34907223467E+02 -0.72823615896E+02 -0.36536577852E+02  0.88638111461E+02  0.00000000000E+00 0.  1.
         11    1    3    3    0    0 -0.29134469168E+02  0.50300164982E+01  0.25423578087E+01  0.29674600973E+02  0.00000000000E+00 0. -1.
         21    1    1    2  503  502  0.30668999461E+00 -0.21359752547E+02  0.11270087270E+03  0.11470754027E+03  0.00000000000E+00 0. -1.
          1    1    1    2  501    0 -0.57824823533E+01  0.35219857634E+02  0.70069416224E+02  0.78635860547E+02  0.00000000000E+00 0. -1.
<scales pt_clust_5="13000.00000" pt_clust_6="13000.00000" pt_clust_7="13000.00000" pt_clust_8="13000.00000" pt_clust_9="21.36195" pt_clust_10="23.49628"></scales>
<clustering>
<clus scale="   21.362">  1  9  2 -1</clus>
<clus scale="   23.496">  2 10  1 -1</clus>
<clus scale="   73.392">  5  6 -1 -1</clus>
<clus scale="   90.626">  7  8 -1 -1</clus>
<clus scale="   99.806">  2  5  1 -1</clus>
<clus scale="   23.496">  2  5  1 -1</clus>
</clustering>
</event>
<event>
10    4  0.2857708E-005  0.9959181E+02  0.7546771E-02  0.1287908E+00
         21   -1    0    0  501  502  0.00000000000E+00  0.00000000000E+00  0.53232655530E+03  0.53232655530E+03  0.00000000000E+00 0. -1.
          2   -1    0    0  503    0 -0.00000000000E+00 -0.00000000000E+00 -0.70778497149E+02  0.70778497149E+02  0.00000000000E+00 0. -1.
         24    2    1    2    0    0 -0.86752800243E+01 -0.61111937247E+02  0.53221960060E+02  0.11345520478E+03  0.78927670067E+02 0.  0.
         23    2    1    2    0    0 -0.13555516447E+02 -0.92018757221E+00  0.11746753230E+03  0.14981999267E+03  0.91993533950E+02 0.  0.
        -11    1    3    3    0    0  0.20885076341E+02 -0.51934454049E+02  0.59693899441E+02  0.81833584558E+02  0.00000000000E+00 0.  1.
         12    1    3    3    0    0 -0.29560356366E+02 -0.91774831989E+01 -0.64719393811E+01  0.31621620225E+02  0.00000000000E+00 0. -1.
        -11    1    4    4    0    0 -0.50715565936E+02 -0.10609990301E+02  0.48976714284E+02  0.71297679236E+02  0.00000000000E+00 0. -1.
         11    1    4    4    0    0  0.37160049489E+02  0.96898027284E+01  0.68490818015E+02  0.78522313436E+02  0.00000000000E+00 0.  1.
         21    1    1    2  503  502  0.27501847557E+02 -0.87079707786E+01 -0.10145910606E+02  0.30579729825E+02  0.00000000000E+00 0. -1.
          1    1    1    2  501    0 -0.52710510861E+01  0.70740095598E+02  0.30100447640E+03  0.30925012517E+03  0.00000000000E+00 0. -1.
<scales pt_clust_5="13000.00000" pt_clust_6="13000.00000" pt_clust_7="13000.00000" pt_clust_8="13000.00000" pt_clust_9="28.84754" pt_clust_10="70.09316"></scales>
<clustering>
<clus scale="   28.848">  2  9  1 -1</clus>
<clus scale="   70.093">  1 10  2 -1</clus>
<clus scale="   78.928">  5  6 -1 -1</clus>
<clus scale="   87.666">  2  5  1 -1</clus>
<clus scale="   91.994">  7  8 -1 -1</clus>
<clus scale="   70.093">  1  5  2 -1</clus>
</clustering>
</event>
<event>
10    4  0.2857708E-005  0.1688457E+03  0.7546771E-02  0.1200528E+00
         -1   -1    0    0    0  501 -0.00000000000E+00  0.00000000000E+00  0.31781162586E+03  0.31781162586E+03  0.00000000000E+00 0.  1.
         21   -1    0    0  503  502  0.00000000000E+00 -0.00000000000E+00 -0.32320590717E+03  0.32320590717E+03  0.00000000000E+00 0.  1.
         23    2    1    2    0    0 -0.58130358443E+01  0.14410600839E+03  0.74436787706E+02  0.19090603776E+03  0.10051839060E+03 0.  0.
         24    2    1    2    0    0  0.17287744187E+02 -0.67430073596E+02  0.37261206037E+02  0.11926340352E+03  0.89385015635E+02 0.  0.
        -13    1    4    4    0    0 -0.35704674505E+02 -0.16694429647E+02  0.18487637036E+02  0.43535278636E+02  0.00000000000E+00 0.  1.
         14    1    4    4    0    0  0.52992418692E+02 -0.50735643949E+02  0.18773569002E+02  0.75728124887E+02  0.00000000000E+00 0. -1.
        -13    1    3    3    0    0  0.32726144651E+02  0.33681379297E+02 -0.82377963712E+01  0.47679105949E+02  0.00000000000E+00 0. -1.
         13    1    3    3    0    0 -0.38539180495E+02  0.11042462909E+03  0.82674584077E+02  0.14322693181E+03  0.00000000000E+00 0.  1.
         21    1    1    2  503  501 -0.15197556691E+02 -0.12942745123E+03  0.61854244945E+02  0.14425109525E+03  0.00000000000E+00 0.  1.
         -2    1    1    2    0  502  0.37228483475E+01  0.52751516439E+02 -0.17894651999E+03  0.18659699650E+03  0.00000000000E+00 0.  1.
<scales pt_clust_5="13000.00000" pt_clust_6="13000.00000" pt_clust_7="13000.00000" pt_clust_8="13000.00000" pt_clust_9="135.66470" pt_clust_10="52.88272"></scales>
<clustering>
<clus scale="   52.883">  2 10  1 -1</clus>
<clus scale="   89.385">  5  6 -1 -1</clus>
<clus scale="  100.518">  7  8 -1 -1</clus>
<clus scale="  105.044">  2  5  1 -1</clus>
<clus scale="  135.665">  1  9  2 -1</clus>
<clus scale="   52.883">  2  5  1 -1</clus>
</clustering>
</event>
<event>
10    4  0.2857708E-005  0.1132659E+03  0.7546771E-02  0.1256859E+00
         -1   -1    0    0    0  501 -0.00000000000E+00  0.00000000000E+00  0.17880972327E+03  0.17880972327E+03  0.00000000000E+00 0.  1.
         21   -1    0    0  503  502  0.00000000000E+00 -0.00000000000E+00 -0.17126296961E+03  0.17126296961E+03  0.00000000000E+00 0. -1.
         24    2    1    2    0    0 -0.49745058328E+02 -0.67270014603E+02  0.56266845124E+02  0.12836679766E+03  0.79449677077E+02 0.  0.
         23    2    1    2    0    0  0.82090826403E+01  0.71211614881E+02 -0.42990971656E+02  0.11991062187E+03  0.85975871393E+02 0.  0.
        -11    1    3    3    0    0 -0.44995411253E+02 -0.40516080177E+02  0.74230783521E+02  0.95793261813E+02  0.00000000000E+00 0.  1.
         12    1    3    3    0    0 -0.47496470750E+01 -0.26753934425E+02 -0.17963938397E+02  0.32573535843E+02  0.00000000000E+00 0. -1.
        -13    1    4    4    0    0  0.42762686597E+02  0.15004494420E+02 -0.23850702955E+02  0.51211700316E+02  0.00000000000E+00 0.  1.
         13    1    4    4    0    0 -0.34553603956E+02  0.56207120461E+02 -0.19140268701E+02  0.68698921555E+02  0.00000000000E+00 0. -1.
         21    1    1    2  503  501  0.21839644719E+02  0.12284362863E+01  0.43406754154E+02  0.48606845642E+02  0.00000000000E+00 0. -1.
         -2    1    1    2    0  502  0.19696330969E+02 -0.51700365645E+01 -0.49135873961E+02  0.53188427704E+02  0.00000000000E+00 0.  1.
<scales pt_clust_5="13000.00000" pt_clust_6="13000.00000" pt_clust_7="13000.00000" pt_clust_8="13000.00000" pt_clust_9="22.29402" pt_clust_10="20.36356"></scales>
<clustering>
<clus scale="   20.364">  2 10  1 -1</clus>
<clus scale="   22.294">  1  9  2 -1</clus>
<clus scale="   79.450">  5  6 -1 -1</clus>
<clus scale="   85.976">  7  8 -1 -1</clus>
<clus scale="  108.395">  1  5  2 -1</clus>
<clus scale="   20.364">  2  5  1 -1</clus>
</clustering>
</event>
<event>
10    4  0.2857708E-005  0.1424473E+03  0.7546771E-02  0.1212198E+00
         21   -1    0    0  501  502  0.00000000000E+00  0.00000000000E+00  0.92267413118E+02  0.92267413118E+02  0.00000000000E+00 0. -1.
          2   -1    0    0  503    0 -0.00000000000E+00 -0.00000000000E+00 -0.11952611005E+04  0.11952611005E+04  0.00000000000E+00 0. -1.
         23    2    1    2    0    0 -0.35195348705E+02  0.11089762824E+03 -0.18264960003E+03  0.23554780763E+03  0.92654717995E+02 0.  0.
         24    2    1    2    0    0 -0.60025350597E+02 -0.12797158023E+03 -0.53962805078E+02  0.17239367599E+03  0.82630666994E+02 0.  0.
        -13    1    4    4    0    0 -0.30954978765E+02 -0.68748230677E+02 -0.71733951974E+02  0.10406867827E+03  0.00000000000E+00 0.  1.
         14    1    4    4    0    0 -0.29070371832E+02 -0.59223349556E+02  0.17771146897E+02  0.68324997717E+02  0.00000000000E+00 0. -1.
        -11    1    3    3    0    0 -0.38824890865E+02  0.30828288442E+02 -0.18573137141E+02  0.52940692687E+02  0.00000000000E+00 0. -1.
         11    1    3    3    0    0  0.36295421601E+01  0.80069339799E+02 -0.16407646289E+03  0.18260711494E+03  0.00000000000E+00 0.  1.
         21    1    1    2  503  502  0.73406551340E+02 -0.44960083703E+02 -0.48728296759E+03  0.49482787049E+03  0.00000000000E+00 0. -1.
          1    1    1    2  501    0  0.21814147963E+02  0.62034035695E+02 -0.37909831465E+03  0.38475915948E+03  0.00000000000E+00 0. -1.
<scales pt_clust_5="13000.00000" pt_clust_6="13000.00000" pt_clust_7="13000.00000" pt_clust_8="13000.00000" pt_clust_9="85.54195" pt_clust_10="65.75776"></scales>
<clustering>
<clus scale="   65.758">  1 10  2 -1</clus>
<clus scale="   82.631">  5  6 -1 -1</clus>
<clus scale="   85.542">  2  9  1 -1</clus>
<clus scale="   92.655">  7  8 -1 -1</clus>
<clus scale="  136.140">  1  5  2 -1</clus>
<clus scale="   65.758">  1  5  2 -1</clus>
</clustering>
</event>
<event>
10    4  0.2857708E-005  0.9255303E+02  0.7546771E-02  0.1305046E+00
          2   -1    0    0  503    0 -0.00000000000E+00  0.00000000000E+00  0.81468022350E+03  0.81468022350E+03  0.00000000000E+00 0. -1.
         21   -1    0    0  501  502  0.00000000000E+00 -0.00000000000E+00 -0.69514447295E+02  0.69514447295E+02  0.00000000000E+00 0. -1.
         24    2    1    2    0    0  0.15550635979E+02 -0.24086258239E+02  0.35225967531E+03  0.36211959739E+03  0.78878094878E+02 0.  0.
         23    2    1    2    0    0  0.31288293078E+02 -0.63500040949E+00 -0.23811968108E+02  0.10007412830E+03  0.92024240393E+02 0.  0.
        -13    1    3    3    0    0  0.17818235907E+02  0.26435462433E+02  0.10464877196E+03  0.10939693175E+03  0.00000000000E+00 0.  1.
         14    1    3    3    0    0 -0.22675999288E+01 -0.50521720672E+02  0.24761090335E+03  0.25272266564E+03  0.00000000000E+00 0. -1.
        -13    1    4    4    0    0  0.10457552684E+02  0.27034407009E+02 -0.49218980753E+02  0.57120290938E+02  0.00000000000E+00 0. -1.
         13    1    4    4    0    0  0.20830740394E+02 -0.27669407419E+02  0.25407012645E+02  0.42953837359E+02  0.00000000000E+00 0.  1.
         21    1    1    2  503  502 -0.99460929926E+01  0.27483519268E+02  0.20534112958E+03  0.20741081962E+03  0.00000000000E+00 0.  1.
          1    1    1    2  501    0 -0.36892836064E+02 -0.27622606195E+01  0.21137693943E+03  0.21459012549E+03  0.00000000000E+00 0. -1.
<scales pt_clust_5="13000.00000" pt_clust_6="13000.00000" pt_clust_7="13000.00000" pt_clust_8="13000.00000" pt_clust_9="29.22787" pt_clust_10="40.95396"></scales>
<clustering>
<clus scale="   29.228">  1  9  2 -1</clus>
<clus scale="   40.954">  2 10  1 -1</clus>
<clus scale="   78.878">  5  6 -1 -1</clus>
<clus scale="   79.494">  1  5  2 -1</clus>
<clus scale="   92.024">  7  8 -1 -1</clus>
<clus scale="   40.954">  2  5  1 -1</clus>
</clustering>
</event>
<event>
10    4  0.2857708E-005  0.1197734E+03  0.7546771E-02  0.1244878E+00
          2   -1    0    0  503    0 -0.00000000000E+00  0.00000000000E+00  0.14218534887E+04  0.14218534887E+04  0.00000000000E+00 0. -1.
         21   -1    0    0  501  502  0.00000000000E+00 -0.00000000000E+00 -0.41883754820E+02  0.41883754820E+02  0.00000000000E+00 0. -1.
         24    2    1    2    0    0 -0.93829679819E+02  0.58732455119E+02  0.80985041404E+03  0.82148928200E+03  0.82057523893E+02 0.  0.
         23    2    1    2    0    0  0.67040018220E+02 -0.30134352531E+02  0.16453791497E+03  0.20000023725E+03  0.86746332434E+02 0.  0.
        -11    1    3    3    0    0 -0.85228977624E+02  0.34202817413E+02  0.38331913114E+03  0.39416667495E+03  0.00000000000E+00 0.  1.
         12    1    3    3    0    0 -0.86007021952E+01  0.24529637706E+02  0.42653128290E+03  0.42732260705E+03  0.00000000000E+00 0. -1.
        -11    1    4    4    0    0  0.75951118562E+02 -0.48297970173E+01  0.15282700588E+03  0.17072783333E+03  0.00000000000E+00 0.  1.
         11    1    4    4    0    0 -0.89111003417E+01 -0.25304555513E+02  0.11710909095E+02  0.29272403913E+02  0.00000000000E+00 0. -1.
         21    1    1    2  503  502  0.12753211103E+02 -0.55639186236E+02  0.40772872051E+03  0.41170508008E+03  0.00000000000E+00 0.  1.
          1    1    1    2  501    0  0.14036450496E+02  0.27041083648E+02 -0.21473156701E+01  0.30542644155E+02  0.00000000000E+00 0. -1.
<scales pt_clust_5="13000.00000" pt_clust_6="13000.00000" pt_clust_7="13000.00000" pt_clust_8="13000.00000" pt_clust_9="55.29561" pt_clust_10="30.46707"></scales>
<clustering>
<clus scale="   30.467">  2 10  1 -1</clus>
<clus scale="   55.296">  1  9  2 -1</clus>
<clus scale="   82.058">  5  6 -1 -1</clus>
<clus scale="   86.746">  7  8 -1 -1</clus>
<clus scale="  116.422">  1  5  2 -1</clus>
<clus scale="   30.467">  2  5  1 -1</clus>
</clustering>
</event>
<event>
10    4  0.2857708E-005  0.8957488E+02  0.7546771E-02  0.1309398E+00
         -3   -1    0    0    0  501 -0.00000000000E+00  0.00000000000E+00  0.38316035719E+02  0.38316035719E+02  0.00000000000E+00 0.  1.
         21   -1    0    0  503  502  0.00000000000E+00 -0.00000000000E+00 -0.63376638091E+03  0.63376638091E+03  0.00000000000E+00 0.  1.
         23    2    1    2    0    0 -0.49278563144E+02 -0.13439469983E+01 -0.17078284155E+03  0.19862049149E+03  0.88617930980E+02 0.  0.
         24    2    1    2    0    0 -0.35093006287E+02 -0.22159857617E+02 -0.28104909520E+03  0.29513080743E+03  0.79943862798E+02 0.  0.
        -13    1    4    4    0    0 -0.47511319648E+02 -0.11032883443E+02 -0.27164175991E+03  0.27598604266E+03  0.00000000000E+00 0.  1.
         14    1    4    4    0    0  0.12418313361E+02 -0.11126974173E+02 -0.94073352908E+01  0.19144764774E+02  0.00000000000E+00 0. -1.
        -13    1    3    3    0    0 -0.23098412465E+02 -0.42713210631E+02 -0.11231309337E+03  0.12236088412E+03  0.00000000000E+00 0. -1.
         13    1    3    3    0    0 -0.26180150679E+02  0.41369263632E+02 -0.58469748183E+02  0.76259607366E+02  0.00000000000E+00 0.  1.
         21    1    1    2  503  501  0.23440372299E+02 -0.16352904520E+02 -0.20066660347E+02  0.34921904261E+02  0.00000000000E+00 0.  1.
         -4    1    1    2    0  502  0.60931197132E+02  0.39856709135E+02 -0.12355174809E+03  0.14340921345E+03  0.00000000000E+00 0.  1.
<scales pt_clust_5="13000.00000" pt_clust_6="13000.00000" pt_clust_7="13000.00000" pt_clust_8="13000.00000" pt_clust_9="28.58091" pt_clust_10="76.71215"></scales>
<clustering>
<clus scale="   28.581">  1  9  2 -1</clus>
<clus scale="   76.712">  2 10  1 -1</clus>
<clus scale="   79.944">  5  6 -1 -1</clus>
<clus scale="   81.003">  2  5  1 -1</clus>
<clus scale="   88.618">  7  8 -1 -1</clus>
<clus scale="   76.712">  2  5  1 -1</clus>
</clustering>
</event>
<event>
10    4  0.2857708E-005  0.8301421E+02  0.7546771E-02  0.1321427E+00
         21   -1    0    0  503  502  0.00000000000E+00  0.00000000000E+00  0.24024860934E+03  0.24024860934E+03  0.00000000000E+00 0.  1.
         -3   -1    0    0    0  501 -0.00000000000E+00 -0.00000000000E+00 -0.29212459634E+03  0.29212459634E+03  0.00000000000E+00 0.  1.
         24    2    1    2    0    0 -0.63058474456E+01 -0.29463673793E+02 -0.21436103065E+02  0.88273497372E+02  0.80155049986E+02 0.  0.
         23    2    1    2    0    0 -0.15582717719E+02 -0.38815629317E+02  0.17540251717E+03  0.19689100614E+03  0.79060426880E+02 0.  0.
        -11    1    3    3    0    0  0.19707354899E+02 -0.44541791765E+02 -0.29755424772E+02  0.57076583238E+02  0.00000000000E+00 0.  1.
         12    1    3    3    0    0 -0.26013202344E+02  0.15078117972E+02  0.83193217069E+01  0.31196914134E+02  0.00000000000E+00 0. -1.
        -13    1    4    4    0    0  0.16684876867E+02 -0.20141687241E+02  0.11101513822E+02  0.28413311847E+02  0.00000000000E+00 0. -1.
         13    1    4    4    0    0 -0.32267594586E+02 -0.18673942076E+02  0.16430100335E+03  0.16847769429E+03  0.00000000000E+00 0.  1.
         21    1    1    2  503  501 -0.40750557069E+02 -0.31055317301E+01 -0.48469524097E+02  0.63399897437E+02  0.00000000000E+00 0.  1.
         -4    1    1    2    0  502  0.62639122234E+02  0.71384834840E+02 -0.15737287701E+03  0.18380880473E+03  0.00000000000E+00 0.  1.
<scales pt_clust_5="13000.00000" pt_clust_6="13000.00000" pt_clust_7="13000.00000" pt_clust_8="13000.00000" pt_clust_9="40.86872" pt_clust_10="76.70251"></scales>
<clustering>
<clus scale="   40.869">  2  9  1 -1</clus>
<clus scale="   76.703">  1 10  2 -1</clus>
<clus scale="   79.060">  7  8 -1 -1</clus>
<clus scale="   80.155">  5  6 -1 -1</clus>
<clus scale="   81.958">  1  7  2 -1</clus>
<clus scale="   76.703">  1  5  2 -1</clus>
</clustering>
</event>
<event>
10    4  0.2857708E-005  0.2710877E+03  0.7546771E-02  0.1122875E+00
         -1   -1    0    0    0  501 -0.00000000000E+00  0.00000000000E+00  0.45897581539E+03  0.45897581539E+03  0.00000000000E+00 0.  1.
         21   -1    0    0  503  502  0.00000000000E+00 -0.00000000000E+00 -0.40107163565E+03  0.40107163565E+03  0.00000000000E+00 0.  1.
         23    2    1    2    0    0 -0.87101360115E+02  0.83494884542E+02 -0.20197118607E+02  0.15255316454E+03  0.91140011704E+02 0.  0.
         24    2    1    2    0    0 -0.96979660980E+02  0.10498530226E+03  0.27338331023E+03  0.31861837466E+03  0.79701104281E+02 0.  0.
        -13    1    4    4    0    0 -0.10914734545E+03  0.78696464744E+02  0.22025048878E+03  0.25810182949E+03  0.00000000000E+00 0.  1.
         14    1    4    4    0    0  0.12167684466E+02  0.26288837521E+02  0.53132821450E+02  0.60516545165E+02  0.00000000000E+00 0. -1.
        -11    1    3    3    0    0 -0.18009764713E+02  0.24378833035E+02  0.34906542478E+02  0.46229274631E+02  0.00000000000E+00 0. -1.
         11    1    3    3    0    0 -0.69091595403E+02  0.59116051508E+02 -0.55103661085E+02  0.10632388991E+03  0.00000000000E+00 0.  1.
         21    1    1    2  503  501 -0.27169959793E+02  0.70489344851E+01  0.15534659981E+02  0.32081456532E+02  0.00000000000E+00 0. -1.
         -2    1    1    2    0  502  0.21125098089E+03 -0.19552912129E+03 -0.21081667186E+03  0.35679445530E+03  0.00000000000E+00 0.  1.
<scales pt_clust_5="13000.00000" pt_clust_6="13000.00000" pt_clust_7="13000.00000" pt_clust_8="13000.00000" pt_clust_9="28.06945" pt_clust_10="259.10666"></scales>
<clustering>
<clus scale="   28.069">  1  9  2 -1</clus>
<clus scale="   79.701">  5  6 -1 -1</clus>
<clus scale="   91.140">  7  8 -1 -1</clus>
<clus scale="  154.213">  1  7  2 -1</clus>
<clus scale="  259.107">  2 10  1 -1</clus>
<clus scale="  259.107">  2  5  1 -1</clus>
</clustering>
</event>
<event>
10    4  0.2857708E-005  0.2124634E+03  0.7546771E-02  0.1140471E+00
         21   -1    0    0  501  502  0.00000000000E+00  0.00000000000E+00  0.93196087620E+02  0.93196087620E+02  0.00000000000E+00 0. -1.
          2   -1    0    0  503    0 -0.00000000000E+00 -0.00000000000E+00 -0.99852575198E+03  0.99852575198E+03  0.00000000000E+00 0. -1.
         24    2    1    2    0    0 -0.31293574529E+02 -0.18873006892E+03 -0.27395256568E+03  0.34372852589E+03  0.80628559168E+02 0.  0.
         23    2    1    2    0    0  0.31720016703E+02  0.20727737293E+03 -0.24641692957E+03  0.33613689844E+03  0.91085907385E+02 0.  0.
        -13    1    3    3    0    0 -0.29134130167E+02 -0.35546381830E+02 -0.11064297352E+03  0.11980905805E+03  0.00000000000E+00 0.  1.
         14    1    3    3    0    0 -0.21594443621E+01 -0.15318368709E+03 -0.16330959216E+03  0.22391946784E+03  0.00000000000E+00 0. -1.
        -13    1    4    4    0    0  0.54876782244E+01  0.20170160827E+03 -0.21907216439E+03  0.29783597265E+03  0.00000000000E+00 0. -1.
         13    1    4    4    0    0  0.26232338478E+02  0.55757646547E+01 -0.27344765178E+02  0.38300925787E+02  0.00000000000E+00 0.  1.
         21    1    1    2  503  502  0.27200291297E+02  0.43543602182E+02 -0.29325115295E+03  0.29771150438E+03  0.00000000000E+00 0.  1.
          1    1    1    2  501    0 -0.27626733470E+02 -0.62090906194E+02 -0.91709016167E+02  0.11414491088E+03  0.00000000000E+00 0. -1.
<scales pt_clust_5="13000.00000" pt_clust_6="13000.00000" pt_clust_7="13000.00000" pt_clust_8="13000.00000" pt_clust_9="51.34103" pt_clust_10="60.52559"></scales>
<clustering>
<clus scale="   51.341">  2  9  1 -1</clus>
<clus scale="   60.526">  1 10  2 -1</clus>
<clus scale="   80.629">  5  6 -1 -1</clus>
<clus scale="   91.086">  7  8 -1 -1</clus>
<clus scale="  208.195">  2  5  1 -1</clus>
<clus scale="   60.526">  1  5  2 -1</clus>
</clustering>
</event>
<event>
10    4  0.2857708E-005  0.1262239E+03  0.7546771E-02  0.1235263E+00
         21   -1    0    0  501  502  0.00000000000E+00  0.00000000000E+00  0.13490932115E+03  0.13490932115E+03  0.00000000000E+00 0. -1.
          2   -1    0    0  503    0 -0.00000000000E+00 -0.00000000000E+00 -0.72414300802E+03  0.72414300802E+03  0.00000000000E+00 0. -1.
         24    2    1    2    0    0  0.11825499647E+03 -0.12247217198E+02 -0.55677331594E+03  0.57537421217E+03  0.83214903531E+02 0.  0.
         23    2    1    2    0    0 -0.75975955348E+02  0.32572871013E+02  0.13140005161E+01  0.12276397866E+03  0.90752025559E+02 0.  0.
        -13    1    3    3    0    0  0.84387981493E+02  0.81481554458E+01 -0.21172424439E+03  0.22806770819E+03  0.00000000000E+00 0.  1.
         14    1    3    3    0    0  0.33867014981E+02 -0.20395372643E+02 -0.34504907155E+03  0.34730650398E+03  0.00000000000E+00 0. -1.
        -13    1    4    4    0    0 -0.65418347451E+02  0.61903107126E+02 -0.74814889633E+01  0.90374374311E+02  0.00000000000E+00 0. -1.
         13    1    4    4    0    0 -0.10557607897E+02 -0.29330236113E+02  0.87954894795E+01  0.32389604353E+02  0.00000000000E+00 0.  1.
         21    1    1    2  503  502 -0.33064439661E+02  0.87102769439E+01 -0.90380216250E+02  0.96631824902E+02  0.00000000000E+00 0.  1.
          1    1    1    2  501    0 -0.92146014649E+01 -0.29035930759E+02  0.56605844795E+02  0.64282313432E+02  0.00000000000E+00 0. -1.
<scales pt_clust_5="13000.00000" pt_clust_6="13000.00000" pt_clust_7="13000.00000" pt_clust_8="13000.00000" pt_clust_9="34.27983" pt_clust_10="30.46300"></scales>
<clustering>
<clus scale="   30.463">  1 10  2 -1</clus>
<clus scale="   34.280">  2  9  1 -1</clus>
<clus scale="   83.215">  5  6 -1 -1</clus>
<clus scale="   90.752">  7  8 -1 -1</clus>
<clus scale="  120.918">  2  5  1 -1</clus>
<clus scale="   30.463">  1  5  2 -1</clus>
</clustering>
</event>
<event>
10    4  0.2857708E-005  0.1098753E+03  0.7546771E-02  0.1267176E+00
          2   -1    0    0  503    0 -0.00000000000E+00  0.00000000000E+00  0.60005472867E+03  0.60005472867E+03  0.00000000000E+00 0. -1.
         21   -1    0    0  501  502  0.00000000000E+00 -0.00000000000E+00 -0.87497289896E+02  0.87497289896E+02  0.00000000000E+00 0.  1.
         24    2    1    2    0    0 -0.48618314481E+02  0.47961611174E+01  0.28973830148E+03  0.30449321541E+03  0.79881732723E+02 0.  0.
         23    2    1    2    0    0 -0.50500962368E+00 -0.19745330789E+02 -0.23277211149E+02  0.99868805834E+02  0.95088467740E+02 0.  0.
        -13    1    3    3    0    0 -0.83543866820E+01  0.35113988668E+02  0.18204942971E+03  0.18559305708E+03  0.00000000000E+00 0.  1.
         14    1    3    3    0    0 -0.40263927799E+02 -0.30317827550E+02  0.10768887177E+03  0.11890015833E+03  0.00000000000E+00 0. -1.
        -13    1    4    4    0    0 -0.19458356160E+02  0.32656733646E+02 -0.22429257145E+02  0.44137981976E+02  0.00000000000E+00 0. -1.
         13    1    4    4    0    0  0.18953346536E+02 -0.52402064434E+02 -0.84795400350E+00  0.55730823858E+02  0.00000000000E+00 0.  1.
         21    1    1    2  503  502 -0.12622747499E+02  0.25277344637E+02  0.20799063226E+03  0.20990088379E+03  0.00000000000E+00 0. -1.
          1    1    1    2  501    0  0.61746071604E+02 -0.10328174966E+02  0.38105716181E+02  0.73289113532E+02  0.00000000000E+00 0. -1.
<scales pt_clust_5="13000.00000" pt_clust_6="13000.00000" pt_clust_7="13000.00000" pt_clust_8="13000.00000" pt_clust_9="28.25381" pt_clust_10="60.32489"></scales>
<clustering>
<clus scale="   28.254">  1  9  2 -1</clus>
<clus scale="   60.325">  2 10  1 -1</clus>
<clus scale="   79.882">  5  6 -1 -1</clus>
<clus scale="   95.088">  7  8 -1 -1</clus>
<clus scale="   97.015">  1  5  2 -1</clus>
<clus scale="   60.325">  2  5  1 -1</clus>
</clustering>
</event>
<event>
10    4  0.2857708E-005  0.1177799E+03  0.7546771E-02  0.1265921E+00
         21   -1    0    0  501  502  0.00000000000E+00  0.00000000000E+00  0.13226928170E+03  0.13226928170E+03  0.00000000000E+00 0. -1.
          2   -1    0    0  503    0 -0.00000000000E+00 -0.00000000000E+00 -0.31668011049E+03  0.31668011049E+03  0.00000000000E+00 0. -1.
         24    2    1    2    0    0 -0.53029660067E+02 -0.14205545988E+01 -0.61645060506E+02  0.10155743287E+03  0.60824632045E+02 0.  0.
         23    2    1    2    0    0  0.34383605628E+02  0.14495481149E+01  0.28175309192E+02  0.10082878722E+03  0.90489020096E+02 0.  0.
        -13    1    3    3    0    0 -0.32811106570E+02 -0.25166223994E+02 -0.12226335629E+02  0.43120654302E+02  0.00000000000E+00 0.  1.
         14    1    3    3    0    0 -0.20218553497E+02  0.23745669396E+02 -0.49418724877E+02  0.58436778565E+02  0.00000000000E+00 0. -1.
        -13    1    4    4    0    0  0.31554437137E+02  0.34644390224E+02 -0.12259030530E+02  0.48437589810E+02  0.00000000000E+00 0.  1.
         13    1    4    4    0    0  0.28291684902E+01 -0.33194842109E+02  0.40434339722E+02  0.52391197407E+02  0.00000000000E+00 0. -1.
         21    1    1    2  503  502 -0.22971728463E+02 -0.88706321973E+02 -0.10181442989E+03  0.13697696887E+03  0.00000000000E+00 0. -1.
          1    1    1    2  501    0  0.41617782902E+02  0.88677328457E+02 -0.49126647588E+02  0.10958620323E+03  0.00000000000E+00 0. -1.
<scales pt_clust_5="13000.00000" pt_clust_6="13000.00000" pt_clust_7="13000.00000" pt_clust_8="13000.00000" pt_clust_9="75.39124" pt_clust_10="91.33085"></scales>
<clustering>
<clus scale="   60.825">  5  6 -1 -1</clus>
<clus scale="   80.708">  2  5  1 -1</clus>
<clus scale="   90.489">  7  8 -1 -1</clus>
<clus scale="   91.331">  1 10  2 -1</clus>
<clus scale="   75.391">  2  9  1 -1</clus>
<clus scale="   91.331">  1  5  2 -1</clus>
</clustering>
</event>
<event>
10    4  0.2857708E-005  0.1371129E+03  0.7546771E-02  0.1220899E+00
         -3   -1    0    0    0  501 -0.00000000000E+00  0.00000000000E+00  0.75763582775E+02  0.75763582775E+02  0.00000000000E+00 0.  1.
         21   -1    0    0  503  502  0.00000000000E+00 -0.00000000000E+00 -0.83517456420E+03  0.83517456420E+03  0.00000000000E+00 0.  1.
         24    2    1    2    0    0 -0.95547989724E+02 -0.40226679923E+02 -0.11105575980E+03  0.17175509318E+03  0.80117576912E+02 0.  0.
         23    2    1    2    0    0  0.10651374969E+03  0.53264079799E+02 -0.64157256228E+03  0.65945394486E+03  0.95299064272E+02 0.  0.
        -13    1    3    3    0    0 -0.60017869353E+02 -0.49617997736E+02 -0.11027212638E+03  0.13499641550E+03  0.00000000000E+00 0.  1.
         14    1    3    3    0    0 -0.35530120372E+02  0.93913178126E+01 -0.78363342630E+00  0.36758677686E+02  0.00000000000E+00 0. -1.
        -13    1    4    4    0    0  0.78753877811E+02  0.74810964416E+02 -0.56297583625E+03  0.57335908981E+03  0.00000000000E+00 0.  1.
         13    1    4    4    0    0  0.27759871877E+02 -0.21546884616E+02 -0.78596726030E+02  0.86094855049E+02  0.00000000000E+00 0. -1.
         21    1    1    2  503  501  0.31333664069E+02 -0.19115533847E+02 -0.34118817310E+01  0.36862488727E+02  0.00000000000E+00 0.  1.
         -4    1    1    2    0  502 -0.42299424033E+02  0.60781339708E+01 -0.33707776094E+01  0.42866620205E+02  0.00000000000E+00 0.  1.
<scales pt_clust_5="13000.00000" pt_clust_6="13000.00000" pt_clust_7="13000.00000" pt_clust_8="13000.00000" pt_clust_9="36.70425" pt_clust_10="31.82010"></scales>
<clustering>
<clus scale="   36.704">  1  9  2 -1</clus>
<clus scale="   31.820">  2 10  1 -1</clus>
<clus scale="   80.118">  5  6 -1 -1</clus>
<clus scale="   95.299">  7  8 -1 -1</clus>
<clus scale="  127.031">  1  5  2 -1</clus>
<clus scale="   31.820">  2  5  1 -1</clus>
</clustering>
</event>
<event>
10    4  0.2857708E-005  0.1710629E+03  0.7546771E-02  0.1177858E+00
         -1   -1    0    0    0  501 -0.00000000000E+00  0.00000000000E+00  0.18806518751E+03  0.18806518751E+03  0.00000000000E+00 0.  1.
         21   -1    0    0  503  502  0.00000000000E+00 -0.00000000000E+00 -0.81963253432E+03  0.81963253432E+03  0.00000000000E+00 0.  1.
         24    2    1    2    0    0  0.12926086821E+03 -0.74993036513E+02  0.32912427248E+02  0.17312710697E+03  0.80978020010E+02 0.  0.
         23    2    1    2    0    0 -0.11273871236E+03 -0.19434461651E+01 -0.15438309181E+03  0.21104892578E+03  0.89407582383E+02 0.  0.
        -11    1    3    3    0    0  0.92139045138E+02 -0.66727451567E+02 -0.11862815700E+02  0.11438043027E+03  0.00000000000E+00 0.  1.
         12    1    3    3    0    0  0.37121823068E+02 -0.82655849460E+01  0.44775242948E+02  0.58746676701E+02  0.00000000000E+00 0. -1.
        -13    1    4    4    0    0 -0.93498867945E+01  0.31429639945E+02 -0.20662992229E+02  0.38758249419E+02  0.00000000000E+00 0.  1.
         13    1    4    4    0    0 -0.10338882557E+03 -0.33373086110E+02 -0.13372009959E+03  0.17229067636E+03  0.00000000000E+00 0. -1.
         21    1    1    2  503  501  0.28079829132E+02 -0.14504092380E+02  0.47316064390E+02  0.56900399377E+02  0.00000000000E+00 0. -1.
         -2    1    1    2    0  502 -0.44601984975E+02  0.91440575059E+02 -0.55741274664E+03  0.56662128970E+03  0.00000000000E+00 0.  1.
<scales pt_clust_5="13000.00000" pt_clust_6="13000.00000" pt_clust_7="13000.00000" pt_clust_8="13000.00000" pt_clust_9="31.60452" pt_clust_10="100.88213"></scales>
<clustering>
<clus scale="   31.605">  1  9  2 -1</clus>
<clus scale="   80.978">  5  6 -1 -1</clus>
<clus scale="   89.408">  7  8 -1 -1</clus>
<clus scale="  100.882">  2 10  1 -1</clus>
<clus scale="  166.812">  1  5  2 -1</clus>
<clus scale="  100.882">  2  5  1 -1</clus>
</clustering>
</event>
<event>
10    4  0.2857708E-005  0.1772599E+03  0.7546771E-02  0.1182619E+00
          2   -1    0    0  503    0 -0.00000000000E+00  0.00000000000E+00  0.10304247898E+04  0.10304247898E+04  0.00000000000E+00 0. -1.
         21   -1    0    0  501  502  0.00000000000E+00 -0.00000000000E+00 -0.80321230428E+02  0.80321230428E+02  0.00000000000E+00 0. -1.
         23    2    1    2    0    0 -0.24268469013E+02  0.10415512425E+03  0.26423756890E+03  0.29977816018E+03  0.92780407460E+02 0.  0.
         24    2    1    2    0    0 -0.10735389959E+03 -0.72614148786E+02  0.13117680760E+03  0.20111149125E+03  0.80254611685E+02 0.  0.
        -11    1    4    4    0    0 -0.51548281749E+02 -0.78347641912E+02  0.99303689708E+02  0.13658990129E+03  0.00000000000E+00 0.  1.
         12    1    4    4    0    0 -0.55805617844E+02  0.57334931258E+01  0.31873117896E+02  0.64521589958E+02  0.00000000000E+00 0. -1.
        -11    1    3    3    0    0 -0.44167891541E+02  0.52915904971E+02  0.21570930643E+03  0.22645396999E+03  0.00000000000E+00 0. -1.
         11    1    3    3    0    0  0.19899422528E+02  0.51239219282E+02  0.48528262465E+02  0.73324190193E+02  0.00000000000E+00 0.  1.
         21    1    1    2  503  502  0.17926414997E+03  0.22359329711E+02  0.41875839929E+03  0.45606378070E+03  0.00000000000E+00 0. -1.
          1    1    1    2  501    0 -0.47641781362E+02 -0.53900305178E+02  0.13593078357E+03  0.15379258809E+03  0.00000000000E+00 0. -1.
<scales pt_clust_5="13000.00000" pt_clust_6="13000.00000" pt_clust_7="13000.00000" pt_clust_8="13000.00000" pt_clust_9="158.05149" pt_clust_10="71.93739"></scales>
<clustering>
<clus scale="   71.937">  2 10  1 -1</clus>
<clus scale="   80.255">  5  6 -1 -1</clus>
<clus scale="   92.780">  7  8 -1 -1</clus>
<clus scale="  134.710">  1  7  2 -1</clus>
<clus scale="  158.051">  1  9  2 -1</clus>
<clus scale="   71.937">  2  5  1 -1</clus>
</clustering>
</event>
<event>
10    4  0.2857708E-005  0.1773248E+03  0.7546771E-02  0.1185541E+00
          2   -1    0    0  503    0 -0.00000000000E+00  0.00000000000E+00  0.22490076977E+04  0.22490076977E+04  0.00000000000E+00 0. -1.
         21   -1    0    0  501  502  0.00000000000E+00 -0.00000000000E+00 -0.39175900297E+02  0.39175900297E+02  0.00000000000E+00 0.  1.
         24    2    1    2    0    0  0.59937364806E+02 -0.69966177578E+02  0.23404221219E+03  0.26390752183E+03  0.79897867855E+02 0.  0.
         23    2    1    2    0    0  0.95544053908E+02  0.15681082810E+03  0.63315462694E+03  0.66555711050E+03  0.91450443796E+02 0.  0.
        -13    1    3    3    0    0  0.66678080574E+02 -0.83441546776E+02  0.20796771496E+03  0.23379270438E+03  0.00000000000E+00 0.  1.
         14    1    3    3    0    0 -0.67407157686E+01  0.13475369198E+02  0.26074497227E+02  0.30114817445E+02  0.00000000000E+00 0. -1.
        -11    1    4    4    0    0  0.77343823812E+02  0.74854513287E+02  0.23256661603E+03  0.25626645534E+03  0.00000000000E+00 0.  1.
         11    1    4    4    0    0  0.18200230096E+02  0.81956314811E+02  0.40058801091E+03  0.40929065515E+03  0.00000000000E+00 0. -1.
         21    1    1    2  503  502 -0.18173195024E+02 -0.65904944145E+02  0.37744258392E+03  0.38358392933E+03  0.00000000000E+00 0. -1.
          1    1    1    2  501    0 -0.13730822369E+03 -0.20939706376E+02  0.96519237431E+03  0.97513503630E+03  0.00000000000E+00 0. -1.
<scales pt_clust_5="13000.00000" pt_clust_6="13000.00000" pt_clust_7="13000.00000" pt_clust_8="13000.00000" pt_clust_9="68.36466" pt_clust_10="151.92409"></scales>
<clustering>
<clus scale="   68.365">  1  9  2 -1</clus>
<clus scale="   79.898">  5  6 -1 -1</clus>
<clus scale="   91.450">  7  8 -1 -1</clus>
<clus scale="  126.067">  1  5  2 -1</clus>
<clus scale="  151.924">  2 10  1 -1</clus>
<clus scale="  151.924">  2  5  1 -1</clus>
</clustering>
</event>
<event>
10    4  0.2857708E-005  0.4771174E+03  0.7546771E-02  0.1046903E+00
          2   -1    0    0  503    0 -0.00000000000E+00  0.00000000000E+00  0.28760838338E+03  0.28760838338E+03  0.00000000000E+00 0. -1.
         21   -1    0    0  501  502  0.00000000000E+00 -0.00000000000E+00 -0.22737112090E+04  0.22737112090E+04  0.00000000000E+00 0. -1.
         24    2    1    2    0    0 -0.16877937627E+03 -0.10654915522E+03 -0.60891792659E+03  0.64578119288E+03  0.80081879487E+02 0.  0.
         23    2    1    2    0    0  0.40652646868E+01 -0.36716695017E+03  0.62713562073E+02  0.38312863450E+03  0.89590535379E+02 0.  0.
        -13    1    3    3    0    0 -0.61240267715E+02 -0.50422953649E+02 -0.36307115191E+03  0.37163625495E+03  0.00000000000E+00 0.  1.
         14    1    3    3    0    0 -0.10753910855E+03 -0.56126201575E+02 -0.24584677468E+03  0.27414493793E+03  0.00000000000E+00 0. -1.
        -13    1    4    4    0    0 -0.13298845925E+02 -0.35442968028E+03  0.50178000766E+02  0.35821095645E+03  0.00000000000E+00 0. -1.
         13    1    4    4    0    0  0.17364110612E+02 -0.12737269894E+02  0.12535561307E+02  0.24917678042E+02  0.00000000000E+00 0.  1.
         21    1    1    2  503  502 -0.17588725887E+02  0.16605757316E+02 -0.26957112574E+02  0.36218784804E+02  0.00000000000E+00 0.  1.
          1    1    1    2  501    0  0.18230283747E+03  0.45711034808E+03 -0.14129413486E+04  0.14961909803E+04  0.00000000000E+00 0. -1.
<scales pt_clust_5="13000.00000" pt_clust_6="13000.00000" pt_clust_7="13000.00000" pt_clust_8="13000.00000" pt_clust_9="24.18914" pt_clust_10="468.63051"></scales>
<clustering>
<clus scale="   24.189">  1  9  2 -1</clus>
<clus scale="   80.082">  5  6 -1 -1</clus>
<clus scale="   89.591">  7  8 -1 -1</clus>
<clus scale="  215.432">  1  5  2 -1</clus>
<clus scale="  468.631">  2 10  1 -1</clus>
<clus scale="  468.631">  2  5  1 -1</clus>
</clustering>
</event>
<event>
10    4  0.2857708E-005  0.2755932E+03  0.7546771E-02  0.1131835E+00
         21   -1    0    0  503  502  0.00000000000E+00  0.00000000000E+00  0.36652223446E+03  0.36652223446E+03  0.00000000000E+00 0. -1.
          2   -1    0    0  502    0 -0.00000000000E+00 -0.00000000000E+00 -0.83414285202E+03  0.83414285202E+03  0.00000000000E+00 0. -1.
         23    2    1    2    0    0  0.57360652030E+02 -0.40599823803E+02  0.14544910326E+03  0.18707836627E+03  0.94362510529E+02 0.  0.
         24    2    1    2    0    0 -0.15604469829E+03  0.22317289898E+03  0.74552751000E+02  0.29372387632E+03  0.80990815153E+02 0.  0.
        -11    1    4    4    0    0 -0.12496282520E+02  0.80782323865E+02  0.26092706958E+02  0.85806586473E+02  0.00000000000E+00 0.  1.
         12    1    4    4    0    0 -0.14354841577E+03  0.14239057511E+03  0.48460044043E+02  0.20791728985E+03  0.00000000000E+00 0. -1.
        -11    1    3    3    0    0  0.38568454575E+02  0.79047293418E+01  0.80806431815E+01  0.40190884893E+02  0.00000000000E+00 0. -1.
         11    1    3    3    0    0  0.18792197455E+02 -0.48504553145E+02  0.13736846008E+03  0.14688748138E+03  0.00000000000E+00 0.  1.
         21    1    1    2  503  501  0.77130897721E+02 -0.12612295703E+03 -0.55072690101E+03  0.57022477601E+03  0.00000000000E+00 0. -1.
          1    1    1    2  501    0  0.21553148534E+02 -0.56450118146E+02 -0.13689557081E+03  0.14963806788E+03  0.00000000000E+00 0. -1.
<scales pt_clust_5="13000.00000" pt_clust_6="13000.00000" pt_clust_7="13000.00000" pt_clust_8="13000.00000" pt_clust_9="30.70291" pt_clust_10="267.76582"></scales>
<clustering>
<clus scale="   30.703">  9 10 -1 -1</clus>
<clus scale="   80.991">  5  6 -1 -1</clus>
<clus scale="   94.363">  7  8 -1 -1</clus>
<clus scale="  117.656">  2  7  1 -1</clus>
<clus scale="  267.766">  1  9  2 -1</clus>
<clus scale="  267.766">  1  5  2 -1</clus>
</clustering>
</event>
<event>
10    4  0.2857708E-005  0.2071458E+03  0.7546771E-02  0.1144784E+00
         21   -1    0    0  501  502  0.00000000000E+00  0.00000000000E+00  0.29826098044E+03  0.29826098044E+03  0.00000000000E+00 0. -1.
          2   -1    0    0  503    0 -0.00000000000E+00 -0.00000000000E+00 -0.10997371956E+04  0.10997371956E+04  0.00000000000E+00 0. -1.
         24    2    1    2    0    0 -0.16829991235E+03  0.42982587306E+02 -0.99854497304E+03  0.10162891952E+04  0.74694724001E+02 0.  0.
         23    2    1    2    0    0  0.13585777451E+03  0.68037328460E+01  0.17804439105E+03  0.24013635839E+03  0.86383098819E+02 0.  0.
        -11    1    3    3    0    0 -0.29234815447E+02  0.39061721336E+02 -0.21263680059E+03  0.21816255745E+03  0.00000000000E+00 0.  1.
         12    1    3    3    0    0 -0.13906509691E+03  0.39208659700E+01 -0.78590817245E+03  0.79812663775E+03  0.00000000000E+00 0. -1.
        -11    1    4    4    0    0  0.26260270192E+02  0.11054627436E+02  0.10392630451E+03  0.10776123305E+03  0.00000000000E+00 0.  1.
         11    1    4    4    0    0  0.10959750432E+03 -0.42508945899E+01  0.74118086533E+02  0.13237512534E+03  0.00000000000E+00 0. -1.
         21    1    1    2  503  502 -0.20565008237E+02 -0.49940366821E+01 -0.43364837092E+02  0.48253176706E+02  0.00000000000E+00 0. -1.
          1    1    1    2  501    0  0.53007146083E+02 -0.44792283470E+02  0.62389203899E+02  0.93319445762E+02  0.00000000000E+00 0. -1.
<scales pt_clust_5="13000.00000" pt_clust_6="13000.00000" pt_clust_7="13000.00000" pt_clust_8="13000.00000" pt_clust_9="21.16270" pt_clust_10="69.21543"></scales>
<clustering>
<clus scale="   21.163">  2  9  1 -1</clus>
<clus scale="   69.215">  1 10  2 -1</clus>
<clus scale="   74.695">  5  6 -1 -1</clus>
<clus scale="   86.383">  7  8 -1 -1</clus>
<clus scale="  202.550">  2  5  1 -1</clus>
<clus scale="   69.215">  1  5  2 -1</clus>
</clustering>
</event>
<event>
10    4  0.2857708E-005  0.1615863E+03  0.7546771E-02  0.1202006E+00
          2   -1    0    0  503    0 -0.00000000000E+00  0.00000000000E+00  0.12557611375E+04  0.12557611375E+04  0.00000000000E+00 0. -1.
         21   -1    0    0  501  502  0.00000000000E+00 -0.00000000000E+00 -0.74439329777E+02  0.74439329777E+02  0.00000000000E+00 0. -1.
         24    2    1    2    0    0  0.23564610306E+02  0.83683724199E+02  0.66215320574E+03  0.67272019154E+03  0.80915583653E+02 0.  0.
         23    2    1    2    0    0 -0.30830615489E+02  0.11171246521E+03  0.97383287607E+02  0.17478787765E+03  0.87390478512E+02 0.  0.
        -11    1    3    3    0    0  0.14708761291E+02 -0.13677617773E+02  0.84635928889E+02  0.86986581411E+02  0.00000000000E+00 0.  1.
         12    1    3    3    0    0  0.88558490151E+01  0.97361341971E+02  0.57751727685E+03  0.58573361013E+03  0.00000000000E+00 0. -1.
        -13    1    4    4    0    0  0.23590755682E+02  0.65555222488E+02  0.68803477052E+02  0.97917972832E+02  0.00000000000E+00 0. -1.
         13    1    4    4    0    0 -0.54421371171E+02  0.46157242719E+02  0.28579810555E+02  0.76869904819E+02  0.00000000000E+00 0.  1.
         21    1    1    2  503  502  0.17827963562E+02 -0.12950351784E+02  0.17083706095E+03  0.17225228385E+03  0.00000000000E+00 0.  1.
          1    1    1    2  501    0 -0.10561958380E+02 -0.18244583762E+03  0.25094825341E+03  0.31044011422E+03  0.00000000000E+00 0. -1.
<scales pt_clust_5="13000.00000" pt_clust_6="13000.00000" pt_clust_7="13000.00000" pt_clust_8="13000.00000" pt_clust_9="22.03515" pt_clust_10="135.91563"></scales>
<clustering>
<clus scale="   22.035">  1  9  2 -1</clus>
<clus scale="   80.916">  5  6 -1 -1</clus>
<clus scale="   87.390">  7  8 -1 -1</clus>
<clus scale="  116.071">  1  5  2 -1</clus>
<clus scale="  135.916">  2 10  1 -1</clus>
<clus scale="  135.916">  2  5  1 -1</clus>
</clustering>
</event>
<event>
10    4  0.2857708E-005  0.1654459E+03  0.7546771E-02  0.1210144E+00
         21   -1    0    0  501  502  0.00000000000E+00  0.00000000000E+00  0.22643789590E+03  0.22643789590E+03  0.00000000000E+00 0.  1.
          2   -1    0    0  503    0 -0.00000000000E+00 -0.00000000000E+00 -0.56180710296E+03  0.56180710296E+03  0.00000000000E+00 0. -1.
         24    2    1    2    0    0 -0.34601513634E+02  0.34360722498E+02 -0.24631199869E+03  0.26333602435E+03  0.79362062903E+02 0.  0.
         23    2    1    2    0    0  0.11490610973E+03 -0.27463597290E+02 -0.63565160172E+01  0.14749637439E+03  0.88074468108E+02 0.  0.
        -11    1    3    3    0    0 -0.38267201378E+02 -0.16632696226E+02 -0.12120011134E+03  0.12818148179E+03  0.00000000000E+00 0.  1.
         12    1    3    3    0    0  0.36656877438E+01  0.50993418724E+02 -0.12511188735E+03  0.13515454257E+03  0.00000000000E+00 0. -1.
        -13    1    4    4    0    0  0.24276525882E+02 -0.36337242879E+02  0.26006553438E+02  0.50853571661E+02  0.00000000000E+00 0.  1.
         13    1    4    4    0    0  0.90629583851E+02  0.88736455890E+01 -0.32363069455E+02  0.96642802730E+02  0.00000000000E+00 0. -1.
         21    1    1    2  503  502 -0.12307484289E+03  0.25645139871E+02 -0.20689077813E+03  0.24209271824E+03  0.00000000000E+00 0.  1.
          1    1    1    2  501    0  0.42770246789E+02 -0.32542265079E+02  0.12419008577E+03  0.13531988187E+03  0.00000000000E+00 0. -1.
<scales pt_clust_5="13000.00000" pt_clust_6="13000.00000" pt_clust_7="13000.00000" pt_clust_8="13000.00000" pt_clust_9="140.05439" pt_clust_10="53.74284"></scales>
<clustering>
<clus scale="   53.743">  1 10  2 -1</clus>
<clus scale="   79.362">  5  6 -1 -1</clus>
<clus scale="   88.074">  7  8 -1 -1</clus>
<clus scale="   90.781">  2  5  1 -1</clus>
<clus scale="  140.054">  2  9  1 -1</clus>
<clus scale="   53.743">  1  5  2 -1</clus>
</clustering>
</event>
<event>
10    4  0.2857708E-005  0.1721410E+03  0.7546771E-02  0.1176333E+00
         21   -1    0    0  501  502  0.00000000000E+00  0.00000000000E+00  0.34325207708E+03  0.34325207708E+03  0.00000000000E+00 0. -1.
          2   -1    0    0  503    0 -0.00000000000E+00 -0.00000000000E+00 -0.41954892991E+03  0.41954892991E+03  0.00000000000E+00 0. -1.
         23    2    1    2    0    0  0.98328815018E+01 -0.15204955044E+03 -0.26599819782E+03  0.31804823786E+03  0.84757825690E+02 0.  0.
         24    2    1    2    0    0 -0.14476675496E+02  0.83542183736E+02  0.88504869394E+02  0.14588468352E+03  0.79122426548E+02 0.  0.
        -11    1    4    4    0    0 -0.40577233157E+02  0.72060143705E+02  0.45799019271E+02  0.94534260074E+02  0.00000000000E+00 0.  1.
         12    1    4    4    0    0  0.26100557661E+02  0.11482040030E+02  0.42705850124E+02  0.51350423447E+02  0.00000000000E+00 0. -1.
        -13    1    3    3    0    0  0.40890966907E+02 -0.81644029676E+02 -0.10204383245E+03  0.13693342359E+03  0.00000000000E+00 0.  1.
         13    1    3    3    0    0 -0.31058085405E+02 -0.70405520767E+02 -0.16395436537E+03  0.18111481427E+03  0.00000000000E+00 0. -1.
         21    1    1    2  503  502  0.59668248665E+02 -0.12939923994E+02 -0.75242424534E+02  0.96897698535E+02  0.00000000000E+00 0. -1.
          1    1    1    2  501    0 -0.55024454670E+02  0.81447290702E+02  0.17643890013E+03  0.20197038707E+03  0.00000000000E+00 0. -1.
<scales pt_clust_5="13000.00000" pt_clust_6="13000.00000" pt_clust_7="13000.00000" pt_clust_8="13000.00000" pt_clust_9="61.05523" pt_clust_10="96.61656"></scales>
<clustering>
<clus scale="   61.055">  2  9  1 -1</clus>
<clus scale="   79.122">  5  6 -1 -1</clus>
<clus scale="   84.758">  7  8 -1 -1</clus>
<clus scale="   96.617">  1 10  2 -1</clus>
<clus scale="  169.437">  1  5  2 -1</clus>
<clus scale="   96.617">  1  5  2 -1</clus>
</clustering>
</event>
<event>
10    4  0.2857708E-005  0.1708000E+03  0.7546771E-02  0.1204372E+00
         21   -1    0    0  503  502  0.00000000000E+00  0.00000000000E+00  0.98196220692E+02  0.98196220692E+02  0.00000000000E+00 0.  1.
          2   -1    0    0  502    0 -0.00000000000E+00 -0.00000000000E+00 -0.87843966008E+03  0.87843966008E+03  0.00000000000E+00 0. -1.
         23    2    1    2    0    0  0.22528148937E+02 -0.16191493017E+02 -0.15587646183E+03  0.18170900558E+03  0.89168432849E+02 0.  0.
         24    2    1    2    0    0 -0.15769569994E+03  0.75208566329E+02 -0.60890288869E+03  0.63853441820E+03  0.80244707862E+02 0.  0.
        -11    1    4    4    0    0 -0.13883655422E+03  0.79613732597E+02 -0.43411280015E+03  0.46267467886E+03  0.00000000000E+00 0.  1.
         12    1    4    4    0    0 -0.18859145712E+02 -0.44051662683E+01 -0.17479008854E+03  0.17585973934E+03  0.00000000000E+00 0. -1.
        -11    1    3    3    0    0 -0.19970792037E+02 -0.39708671762E+02 -0.66492526333E+02  0.79980417640E+02  0.00000000000E+00 0. -1.
         11    1    3    3    0    0  0.42498940974E+02  0.23517178745E+02 -0.89383935493E+02  0.10172858794E+03  0.00000000000E+00 0.  1.
         21    1    1    2  503  501  0.12731769731E+02 -0.18251139861E+02 -0.15896242819E+02  0.27347625171E+02  0.00000000000E+00 0. -1.
          1    1    1    2  501    0  0.12243578127E+03 -0.40765933450E+02  0.43215394272E+00  0.12904483183E+03  0.00000000000E+00 0. -1.
<scales pt_clust_5="13000.00000" pt_clust_6="13000.00000" pt_clust_7="13000.00000" pt_clust_8="13000.00000" pt_clust_9="20.62239" pt_clust_10="158.74379"></scales>
<clustering>
<clus scale="   20.622">  9 10 -1 -1</clus>
<clus scale="   80.245">  5  6 -1 -1</clus>
<clus scale="   89.168">  7  8 -1 -1</clus>
<clus scale="   93.385">  2  7  1 -1</clus>
<clus scale="  158.744">  1  9  2 -1</clus>
<clus scale="  158.744">  1  5  2 -1</clus>
</clustering>
</event>
<event>
10    4  0.2857708E-005  0.2327362E+03  0.7546771E-02  0.1161031E+00
         -1   -1    0    0    0  501 -0.00000000000E+00  0.00000000000E+00  0.37128593238E+03  0.37128593238E+03  0.00000000000E+00 0.  1.
         21   -1    0    0  503  502  0.00000000000E+00 -0.00000000000E+00 -0.62618058632E+03  0.62618058632E+03  0.00000000000E+00 0.  1.
         23    2    1    2    0    0  0.43856621057E+01 -0.29845378641E+02 -0.18736507956E+02  0.99158511996E+02  0.92581710465E+02 0.  0.
         24    2    1    2    0    0  0.39537886999E+02 -0.76406040901E+02  0.11560412303E+03  0.16401463671E+03  0.78328540120E+02 0.  0.
        -13    1    4    4    0    0  0.50122677560E+02 -0.41948958561E+02  0.31590171910E+02  0.72594330986E+02  0.00000000000E+00 0.  1.
         14    1    4    4    0    0 -0.10584790560E+02 -0.34457082340E+02  0.84013951125E+02  0.91420305721E+02  0.00000000000E+00 0. -1.
        -11    1    3    3    0    0 -0.17654983189E+02 -0.49753714260E+02  0.14338016660E+02  0.54705659998E+02  0.00000000000E+00 0.  1.
         11    1    3    3    0    0  0.22040645294E+02  0.19908335619E+02 -0.33074524617E+02  0.44452851998E+02  0.00000000000E+00 0. -1.
         21    1    1    2  503  501 -0.45120303126E+02 -0.14338030602E+03  0.12541542099E+03  0.19576205386E+03  0.00000000000E+00 0.  1.
         -2    1    1    2    0  502  0.11967540206E+01  0.24963172556E+03 -0.47717769000E+03  0.53853131614E+03  0.00000000000E+00 0.  1.
<scales pt_clust_5="13000.00000" pt_clust_6="13000.00000" pt_clust_7="13000.00000" pt_clust_8="13000.00000" pt_clust_9="232.73618" pt_clust_10="13000.00000"></scales>
<clustering>
<clus scale="   78.329">  5  6 -1 -1</clus>
<clus scale="   92.582">  7  8 -1 -1</clus>
<clus scale="   97.372">  1  7  2 -1</clus>
<clus scale="  125.583">  1  5  2 -1</clus>
<clus scale="  232.736">  1  9  2 -1</clus>
<clus scale="  232.736">  2  5  1 -1</clus>
</clustering>
</event>
<event>
10    4  0.2857708E-005  0.2513898E+03  0.7546771E-02  0.1149844E+00
          2   -1    0    0  503    0 -0.00000000000E+00  0.00000000000E+00  0.12102002465E+04  0.12102002465E+04  0.00000000000E+00 0. -1.
         21   -1    0    0  501  502  0.00000000000E+00 -0.00000000000E+00 -0.13374605619E+03  0.13374605619E+03  0.00000000000E+00 0. -1.
         24    2    1    2    0    0 -0.50451216584E+02 -0.43195919625E+02  0.35528669783E+03  0.37014851725E+03  0.79812746137E+02 0.  0.
         23    2    1    2    0    0 -0.34784026602E+02  0.23394475590E+03  0.51469021707E+02  0.25901742814E+03  0.92200274197E+02 0.  0.
        -13    1    3    3    0    0 -0.11923533305E+02  0.22935685536E+02  0.11900738621E+03  0.12178248762E+03  0.00000000000E+00 0.  1.
         14    1    3    3    0    0 -0.38527683279E+02 -0.66131605162E+02  0.23627931162E+03  0.24836602964E+03  0.00000000000E+00 0. -1.
        -13    1    4    4    0    0 -0.22886005077E+02  0.13867508247E+03 -0.16309243729E+02  0.14149395449E+03  0.00000000000E+00 0. -1.
         13    1    4    4    0    0 -0.11898021525E+02  0.95269673431E+02  0.67778265436E+02  0.11752347364E+03  0.00000000000E+00 0.  1.
         21    1    1    2  503  502  0.43696256609E+01  0.21866388878E+02  0.64266176663E+02  0.68024804695E+02  0.00000000000E+00 0.  1.
          1    1    1    2  501    0  0.80865617525E+02 -0.21261522515E+03  0.60543229411E+03  0.64675555260E+03  0.00000000000E+00 0. -1.
<scales pt_clust_5="13000.00000" pt_clust_6="13000.00000" pt_clust_7="13000.00000" pt_clust_8="13000.00000" pt_clust_9="22.29871" pt_clust_10="233.87174"></scales>
<clustering>
<clus scale="   22.299">  1  9  2 -1</clus>
<clus scale="   79.813">  5  6 -1 -1</clus>
<clus scale="   92.200">  7  8 -1 -1</clus>
<clus scale="  100.462">  1  5  2 -1</clus>
<clus scale="  233.872">  2 10  1 -1</clus>
<clus scale="  233.872">  2  5  1 -1</clus>
</clustering>
</event>
<event>
10    4  0.2857708E-005  0.2409738E+03  0.7546771E-02  0.1145718E+00
         21   -1    0    0  503  502  0.00000000000E+00  0.00000000000E+00  0.98002721641E+02  0.98002721641E+02  0.00000000000E+00 0. -1.
          2   -1    0    0  502    0 -0.00000000000E+00 -0.00000000000E+00 -0.10842350881E+04  0.10842350881E+04  0.00000000000E+00 0. -1.
         23    2    1    2    0    0 -0.27465396796E+01  0.85814045167E+02 -0.34528656517E+03  0.36749648968E+03  0.91974257339E+02 0.  0.
         24    2    1    2    0    0 -0.12949566867E+02 -0.25747495916E+03 -0.19328330908E+03  0.33225589350E+03  0.81083261667E+02 0.  0.
        -11    1    4    4    0    0  0.12256209038E+02 -0.74806381324E+02 -0.18156329280E+02  0.77947813566E+02  0.00000000000E+00 0.  1.
         12    1    4    4    0    0 -0.25205775906E+02 -0.18266857783E+03 -0.17512697980E+03  0.25430807994E+03  0.00000000000E+00 0. -1.
        -13    1    3    3    0    0 -0.29334959547E+02 -0.62501050188E+01 -0.82821475596E+02  0.88085188790E+02  0.00000000000E+00 0.  1.
         13    1    3    3    0    0  0.26588419867E+02  0.92064150186E+02 -0.26246508957E+03  0.27941130089E+03  0.00000000000E+00 0. -1.
         21    1    1    2  503  501 -0.13611311034E+02  0.38357395274E+02 -0.14234069588E+03  0.14804536894E+03  0.00000000000E+00 0.  1.
          1    1    1    2  501    0  0.29307417581E+02  0.13330351872E+03 -0.30532179634E+03  0.33444005763E+03  0.00000000000E+00 0. -1.
<scales pt_clust_5="13000.00000" pt_clust_6="13000.00000" pt_clust_7="13000.00000" pt_clust_8="13000.00000" pt_clust_9="28.25211" pt_clust_10="232.74571"></scales>
<clustering>
<clus scale="   28.252">  9 10 -1 -1</clus>
<clus scale="   81.083">  5  6 -1 -1</clus>
<clus scale="   91.974">  7  8 -1 -1</clus>
<clus scale="  125.821">  2  7  1 -1</clus>
<clus scale="  232.746">  1  9  2 -1</clus>
<clus scale="  232.746">  1  5  2 -1</clus>
</clustering>
</event>
<event>
10    4  0.2857708E-005  0.3357763E+03  0.7546771E-02  0.1073530E+00
          2   -1    0    0  503    0 -0.00000000000E+00  0.00000000000E+00  0.22005183509E+04  0.22005183509E+04  0.00000000000E+00 0. -1.
         21   -1    0    0  501  502  0.00000000000E+00 -0.00000000000E+00 -0.37507594864E+03  0.37507594864E+03  0.00000000000E+00 0. -1.
         23    2    1    2    0    0  0.19956321164E+03 -0.10965396603E+03  0.89135846396E+03  0.92512372067E+03  0.97388498138E+02 0.  0.
         24    2    1    2    0    0 -0.31082014111E+03  0.51723142695E+03  0.90444637919E+03  0.10898644112E+04  0.75124382917E+02 0.  0.
        -11    1    4    4    0    0 -0.58580285373E+02  0.11399978442E+03  0.24874402242E+03  0.27982349682E+03  0.00000000000E+00 0.  1.
         12    1    4    4    0    0 -0.25223985574E+03  0.40323164252E+03  0.65570235677E+03  0.81004091441E+03  0.00000000000E+00 0. -1.
        -13    1    3    3    0    0  0.12679016914E+03 -0.78341539218E+02  0.73363901695E+03  0.74862497350E+03  0.00000000000E+00 0. -1.
         13    1    3    3    0    0  0.72773042499E+02 -0.31312426814E+02  0.15771944701E+03  0.17649874717E+03  0.00000000000E+00 0.  1.
         21    1    1    2  503  502  0.60378164249E+02 -0.10731481424E+03  0.18226291117E+03  0.21995854351E+03  0.00000000000E+00 0. -1.
          1    1    1    2  501    0  0.50878765227E+02 -0.30026264667E+03 -0.15262535206E+03  0.34064762413E+03  0.00000000000E+00 0. -1.
<scales pt_clust_5="13000.00000" pt_clust_6="13000.00000" pt_clust_7="13000.00000" pt_clust_8="13000.00000" pt_clust_9="123.13404" pt_clust_10="327.26445"></scales>
<clustering>
<clus scale="   75.124">  5  6 -1 -1</clus>
<clus scale="   97.388">  7  8 -1 -1</clus>
<clus scale="  123.134">  1  9  2 -1</clus>
<clus scale="  293.429">  1  7  2 -1</clus>
<clus scale="  327.264">  2 10  1 -1</clus>
<clus scale="  327.264">  2  5  1 -1</clus>
</clustering>
</event>
<event>
10    4  0.2857708E-005  0.2309950E+03  0.7546771E-02  0.1127897E+00
         -3   -1    0    0    0  501 -0.00000000000E+00  0.00000000000E+00  0.23125402899E+03  0.23125402899E+03  0.00000000000E+00 0.  1.
         21   -1    0    0  501  502  0.00000000000E+00 -0.00000000000E+00 -0.95927585923E+03  0.95927585923E+03  0.00000000000E+00 0. -1.
         23    2    1    2    0    0  0.20514341971E+03  0.40238715760E+02  0.12890923603E+03  0.26200880321E+03  0.91258122554E+02 0.  0.
         24    2    1    2    0    0 -0.23691486705E+03 -0.92652196202E+02 -0.79157218089E+03  0.83349493425E+03  0.58431191860E+02 0.  0.
        -11    1    4    4    0    0 -0.55628594164E+02 -0.22602002296E+02 -0.11734043650E+03  0.13181111120E+03  0.00000000000E+00 0.  1.
         12    1    4    4    0    0 -0.18128627288E+03 -0.70050193906E+02 -0.67423174439E+03  0.70168382306E+03  0.00000000000E+00 0. -1.
        -13    1    3    3    0    0  0.16940852754E+03 -0.59512637372E+01  0.10050174726E+03  0.19706665864E+03  0.00000000000E+00 0.  1.
         13    1    3    3    0    0  0.35734892171E+02  0.46189979498E+02  0.28407488761E+02  0.64942144576E+02  0.00000000000E+00 0. -1.
         21    1    1    2  503  502  0.29628117181E+02  0.24019558626E+02 -0.49311397456E+02  0.62340824853E+02  0.00000000000E+00 0.  1.
         -4    1    1    2    0  503  0.21433301557E+01  0.28393921816E+02 -0.16047487930E+02  0.32685325899E+02  0.00000000000E+00 0.  1.
<scales pt_clust_5="13000.00000" pt_clust_6="13000.00000" pt_clust_7="13000.00000" pt_clust_8="13000.00000" pt_clust_9="27.34487" pt_clust_10="68.97960"></scales>
<clustering>
<clus scale="   27.345">  9 10 -1 -1</clus>
<clus scale="   58.431">  5  6 -1 -1</clus>
<clus scale="   68.980">  2  9  1 -1</clus>
<clus scale="   91.258">  7  8 -1 -1</clus>
<clus scale="  220.102">  2  5  1 -1</clus>
<clus scale="   68.980">  2  5  1 -1</clus>
</clustering>
</event>
<event>
10    4  0.2857708E-005  0.1344910E+03  0.7546771E-02  0.1227016E+00
         21   -1    0    0  501  502  0.00000000000E+00  0.00000000000E+00  0.10010741003E+03  0.10010741003E+03  0.00000000000E+00 0. -1.
          2   -1    0    0  503    0 -0.00000000000E+00 -0.00000000000E+00 -0.43969711481E+03  0.43969711481E+03  0.00000000000E+00 0. -1.
         23    2    1    2    0    0 -0.74096948439E+02  0.86139189909E+01 -0.11882477826E+03  0.17418594499E+03  0.10323205964E+03 0.  0.
         24    2    1    2    0    0  0.71831831468E+02 -0.35228395633E+02 -0.15714301756E+02  0.11512999728E+03  0.81284224320E+02 0.  0.
        -13    1    4    4    0    0  0.47282905296E+02 -0.61627541634E+02 -0.14769739472E+02  0.79068149246E+02  0.00000000000E+00 0.  1.
         14    1    4    4    0    0  0.24548926172E+02  0.26399146001E+02 -0.94456228309E+00  0.36061848035E+02  0.00000000000E+00 0. -1.
        -11    1    3    3    0    0 -0.87050449861E+02  0.25440369719E+02 -0.53049369844E+02  0.10506773469E+03  0.00000000000E+00 0. -1.
         11    1    3    3    0    0  0.12953501422E+02 -0.16826450728E+02 -0.65775408413E+02  0.69118210301E+02  0.00000000000E+00 0.  1.
         21    1    1    2  503  502 -0.55011286621E+02  0.32148505673E+02 -0.17357369742E+03  0.18489888185E+03  0.00000000000E+00 0. -1.
          1    1    1    2  501    0  0.57276403592E+02 -0.55340290308E+01 -0.31476927348E+02  0.65589700724E+02  0.00000000000E+00 0. -1.
<scales pt_clust_5="13000.00000" pt_clust_6="13000.00000" pt_clust_7="13000.00000" pt_clust_8="13000.00000" pt_clust_9="60.17672" pt_clust_10="57.54313"></scales>
<clustering>
<clus scale="   57.543">  1 10  2 -1</clus>
<clus scale="   60.177">  2  9  1 -1</clus>
<clus scale="   81.284">  5  6 -1 -1</clus>
<clus scale="  103.232">  7  8 -1 -1</clus>
<clus scale="  118.482">  1  5  2 -1</clus>
<clus scale="   57.543">  1  5  2 -1</clus>
</clustering>
</event>
<event>
10    4  0.2857708E-005  0.1786177E+03  0.7546771E-02  0.1175583E+00
         21   -1    0    0  501  502  0.00000000000E+00  0.00000000000E+00  0.27191215106E+03  0.27191215106E+03  0.00000000000E+00 0. -1.
          2   -1    0    0  503    0 -0.00000000000E+00 -0.00000000000E+00 -0.75340414681E+03  0.75340414681E+03  0.00000000000E+00 0. -1.
         23    2    1    2    0    0  0.35389642909E+02  0.43711957679E+02 -0.40287278314E+03  0.42434244503E+03  0.12081750365E+03 0.  0.
         24    2    1    2    0    0 -0.39045176029E+02 -0.17120803128E+03  0.13219561470E+03  0.23409803268E+03  0.80557387084E+02 0.  0.
        -11    1    4    4    0    0  0.43283002964E+01 -0.40857825056E+02  0.74538535880E+02  0.85112216413E+02  0.00000000000E+00 0.  1.
         12    1    4    4    0    0 -0.43373476325E+02 -0.13035020622E+03  0.57657078820E+02  0.14898581627E+03  0.00000000000E+00 0. -1.
        -13    1    3    3    0    0  0.52313309473E+01  0.81994510605E+02 -0.28963133938E+03  0.30105942826E+03  0.00000000000E+00 0.  1.
         13    1    3    3    0    0  0.30158311961E+02 -0.38282552926E+02 -0.11324144376E+03  0.12328301677E+03  0.00000000000E+00 0. -1.
         21    1    1    2  503  502  0.25149333339E+00  0.87428001071E+02 -0.27642582234E+03  0.28992232387E+03  0.00000000000E+00 0. -1.
          1    1    1    2  501    0  0.34040397867E+01  0.40068072526E+02  0.65610995029E+02  0.76953496291E+02  0.00000000000E+00 0. -1.
<scales pt_clust_5="13000.00000" pt_clust_6="13000.00000" pt_clust_7="13000.00000" pt_clust_8="13000.00000" pt_clust_9="88.77646" pt_clust_10="40.21241"></scales>
<clustering>
<clus scale="   40.212">  1 10  2 -1</clus>
<clus scale="   80.557">  5  6 -1 -1</clus>
<clus scale="   88.776">  2  9  1 -1</clus>
<clus scale="  120.818">  7  8 -1 -1</clus>
<clus scale="  154.263">  1  5  2 -1</clus>
<clus scale="   40.212">  1  5  2 -1</clus>
</clustering>
</event>
<event>
10    4  0.2857708E-005  0.1739690E+03  0.7546771E-02  0.1190811E+00
          2   -1    0    0  502    0 -0.00000000000E+00  0.00000000000E+00  0.16328384171E+03  0.16328384171E+03  0.00000000000E+00 0. -1.
         21   -1    0    0  503  502  0.00000000000E+00 -0.00000000000E+00 -0.36338921602E+03  0.36338921602E+03  0.00000000000E+00 0. -1.
         23    2    1    2    0    0 -0.80200598825E+02 -0.34388637677E+01 -0.18617922154E+02  0.12307940433E+03  0.91421829499E+02 0.  0.
         24    2    1    2    0    0  0.14305981333E+03  0.10952379429E+03 -0.14190801341E+03  0.24229570739E+03  0.78152119879E+02 0.  0.
        -11    1    4    4    0    0  0.13995825635E+02  0.40669604631E+02 -0.75378012896E+01  0.43665985897E+02  0.00000000000E+00 0.  1.
         12    1    4    4    0    0  0.12906398769E+03  0.68854189661E+02 -0.13437021212E+03  0.19862972149E+03  0.00000000000E+00 0. -1.
        -11    1    3    3    0    0 -0.18317356710E+02 -0.11164917698E+02 -0.49161352644E+02  0.53637855455E+02  0.00000000000E+00 0.  1.
         11    1    3    3    0    0 -0.61883242115E+02  0.77260539299E+01  0.30543430490E+02  0.69441548875E+02  0.00000000000E+00 0. -1.
         21    1    1    2  503  501  0.21650208576E+02 -0.91901444845E+01 -0.20732294717E+02  0.31353123150E+02  0.00000000000E+00 0.  1.
          1    1    1    2  501    0 -0.84509423079E+02 -0.96894786040E+02 -0.18847144033E+02  0.12994482286E+03  0.00000000000E+00 0. -1.
<scales pt_clust_5="13000.00000" pt_clust_6="13000.00000" pt_clust_7="13000.00000" pt_clust_8="13000.00000" pt_clust_9="23.52000" pt_clust_10="155.42683"></scales>
<clustering>
<clus scale="   23.520">  2  9  1 -1</clus>
<clus scale="   78.152">  5  6 -1 -1</clus>
<clus scale="   91.422">  7  8 -1 -1</clus>
<clus scale="  118.787">  1  7  2 -1</clus>
<clus scale="  155.427">  2 10  1 -1</clus>
<clus scale="   23.520">  2  5  1 -1</clus>
</clustering>
</event>
<event>
10    4  0.2857708E-005  0.9111245E+02  0.7546771E-02  0.1306600E+00
         -1   -1    0    0    0  501 -0.00000000000E+00  0.00000000000E+00  0.56330905030E+03  0.56330905030E+03  0.00000000000E+00 0.  1.
         21   -1    0    0  503  502  0.00000000000E+00 -0.00000000000E+00 -0.76970877942E+02  0.76970877942E+02  0.00000000000E+00 0.  1.
         24    2    1    2    0    0 -0.16400636593E+02  0.79286812773E+01  0.31713516412E+03  0.32778334639E+03  0.80841604277E+02 0.  0.
         23    2    1    2    0    0  0.25986336640E+02 -0.43170792409E+02  0.66551055934E+02  0.12347109107E+03  0.90978350578E+02 0.  0.
        -11    1    3    3    0    0 -0.24073333120E+02  0.21537351482E+02  0.46055144170E+02  0.56253525942E+02  0.00000000000E+00 0.  1.
         12    1    3    3    0    0  0.76726965273E+01 -0.13608670205E+02  0.27108001995E+03  0.27152982045E+03  0.00000000000E+00 0. -1.
        -13    1    4    4    0    0 -0.24657078549E+02  0.13366784214E+02  0.16267387709E+02  0.32423299426E+02  0.00000000000E+00 0. -1.
         13    1    4    4    0    0  0.50643415189E+02 -0.56537576623E+02  0.50283668225E+02  0.91047791640E+02  0.00000000000E+00 0.  1.
         21    1    1    2  503  501  0.27772785288E+02 -0.20068367165E+02  0.11600344180E+03  0.12095811454E+03  0.00000000000E+00 0.  1.
         -2    1    1    2    0  502 -0.37358485335E+02  0.55310478297E+02 -0.13351489506E+02  0.68067376238E+02  0.00000000000E+00 0.  1.
<scales pt_clust_5="13000.00000" pt_clust_6="13000.00000" pt_clust_7="13000.00000" pt_clust_8="13000.00000" pt_clust_9="34.26466" pt_clust_10="64.77028"></scales>
<clustering>
<clus scale="   34.265">  1  9  2 -1</clus>
<clus scale="   64.770">  2 10  1 -1</clus>
<clus scale="   80.842">  5  6 -1 -1</clus>
<clus scale="   80.992">  1  5  2 -1</clus>
<clus scale="   90.978">  7  8 -1 -1</clus>
<clus scale="   64.770">  2  5  1 -1</clus>
</clustering>
</event>
<event>
10    4  0.2857708E-005  0.1074993E+03  0.7546771E-02  0.1270034E+00
          2   -1    0    0  503    0 -0.00000000000E+00  0.00000000000E+00  0.15451540995E+03  0.15451540995E+03  0.00000000000E+00 0. -1.
         21   -1    0    0  501  502  0.00000000000E+00 -0.00000000000E+00 -0.54850277820E+03  0.54850277820E+03  0.00000000000E+00 0. -1.
         24    2    1    2    0    0 -0.23715989064E+02 -0.42090639439E+02  0.99520764268E+02  0.13728952468E+03  0.81301666660E+02 0.  0.
         23    2    1    2    0    0 -0.69835895563E+02  0.26607230151E+02 -0.32276859982E+03  0.34398451896E+03  0.92524500799E+02 0.  0.
        -13    1    3    3    0    0 -0.17850406128E+02 -0.60900531755E+02  0.41034154925E+02  0.75573233604E+02  0.00000000000E+00 0.  1.
         14    1    3    3    0    0 -0.58655829359E+01  0.18809892316E+02  0.58486609343E+02  0.61716291079E+02  0.00000000000E+00 0. -1.
        -11    1    4    4    0    0 -0.62870626437E+01 -0.22254247273E+02 -0.19342647390E+02  0.30148245163E+02  0.00000000000E+00 0.  1.
         11    1    4    4    0    0 -0.63548832919E+02  0.48861477424E+02 -0.30342595243E+03  0.31383627380E+03  0.00000000000E+00 0. -1.
         21    1    1    2  503  502  0.28047190872E+02 -0.17667938158E+02  0.28477005135E+01  0.33270262289E+02  0.00000000000E+00 0. -1.
          1    1    1    2  501    0  0.65504693755E+02  0.33151347445E+02 -0.17358723321E+03  0.18847388221E+03  0.00000000000E+00 0. -1.
<scales pt_clust_5="13000.00000" pt_clust_6="13000.00000" pt_clust_7="13000.00000" pt_clust_8="13000.00000" pt_clust_9="33.14817" pt_clust_10="74.36181"></scales>
<clustering>
<clus scale="   33.148">  1  9  2 -1</clus>
<clus scale="   74.362">  2 10  1 -1</clus>
<clus scale="   81.302">  5  6 -1 -1</clus>
<clus scale="   92.525">  7  8 -1 -1</clus>
<clus scale="   98.007">  1  5  2 -1</clus>
<clus scale="   74.362">  2  5  1 -1</clus>
</clustering>
</event>
<event>
10    4  0.2857708E-005  0.1480892E+03  0.7546771E-02  0.1224411E+00
         21   -1    0    0  501  502  0.00000000000E+00  0.00000000000E+00  0.28388868171E+03  0.28388868171E+03  0.00000000000E+00 0. -1.
          2   -1    0    0  503    0 -0.00000000000E+00 -0.00000000000E+00 -0.47744582527E+03  0.47744582527E+03  0.00000000000E+00 0. -1.
         23    2    1    2    0    0 -0.35399832120E+01 -0.24786976895E+02  0.49778967926E+02  0.10599269506E+03  0.90164183869E+02 0.  0.
         24    2    1    2    0    0  0.88890558266E+02  0.13956271377E+02 -0.33362170866E+03  0.35501766009E+03  0.81472606596E+02 0.  0.
        -13    1    4    4    0    0 -0.20662293923E+01  0.26239585261E+02 -0.11380178509E+03  0.11680595631E+03  0.00000000000E+00 0.  1.
         14    1    4    4    0    0  0.90956787658E+02 -0.12283313884E+02 -0.21981992357E+03  0.23821170378E+03  0.00000000000E+00 0. -1.
        -13    1    3    3    0    0  0.18519957029E+01  0.21603059167E+02  0.54884489993E+02  0.59012111428E+02  0.00000000000E+00 0.  1.
         13    1    3    3    0    0 -0.53919789149E+01 -0.46390036062E+02 -0.51055220669E+01  0.46980583628E+02  0.00000000000E+00 0. -1.
         21    1    1    2  503  502  0.38993518383E+02 -0.92696046114E+01 -0.79432780330E+02  0.88971830578E+02  0.00000000000E+00 0. -1.
          1    1    1    2  501    0 -0.12434409344E+03  0.20100310129E+02  0.16971837750E+03  0.21135232126E+03  0.00000000000E+00 0. -1.
<scales pt_clust_5="13000.00000" pt_clust_6="13000.00000" pt_clust_7="13000.00000" pt_clust_8="13000.00000" pt_clust_9="40.08017" pt_clust_10="123.66331"></scales>
<clustering>
<clus scale="   40.080">  2  9  1 -1</clus>
<clus scale="   81.473">  5  6 -1 -1</clus>
<clus scale="   90.164">  7  8 -1 -1</clus>
<clus scale="   93.690">  2  7  1 -1</clus>
<clus scale="  123.663">  1 10  2 -1</clus>
<clus scale="  123.663">  1  5  2 -1</clus>
</clustering>
</event>
<event>
10    4  0.2857708E-005  0.1170718E+03  0.7546771E-02  0.1252087E+00
         -3   -1    0    0    0  501 -0.00000000000E+00  0.00000000000E+00  0.43627787287E+03  0.43627787287E+03  0.00000000000E+00 0.  1.
         21   -1    0    0  503  502  0.00000000000E+00 -0.00000000000E+00 -0.54422238399E+02  0.54422238399E+02  0.00000000000E+00 0. -1.
         23    2    1    2    0    0  0.29872059242E+02  0.70008029494E+02  0.22490954504E+03  0.25439243293E+03  0.91311238979E+02 0.  0.
         24    2    1    2    0    0 -0.39878785221E+02 -0.62704866169E+02  0.57621452071E+02  0.12295746059E+03  0.79221762312E+02 0.  0.
        -11    1    4    4    0    0 -0.46487879514E+02 -0.33126571372E+02  0.69908805787E+02  0.90253719032E+02  0.00000000000E+00 0.  1.
         12    1    4    4    0    0  0.66090942927E+01 -0.29578294798E+02 -0.12287353716E+02  0.32703741557E+02  0.00000000000E+00 0. -1.
        -11    1    3    3    0    0  0.45861840789E+02  0.84857473993E+02  0.17280979807E+03  0.19790736632E+03  0.00000000000E+00 0.  1.
         11    1    3    3    0    0 -0.15989781547E+02 -0.14849444498E+02  0.52099746976E+02  0.56485066617E+02  0.00000000000E+00 0. -1.
         21    1    1    2  503  501 -0.21120858706E+02  0.26711876538E+01  0.47881210261E+02  0.52400727209E+02  0.00000000000E+00 0. -1.
         -4    1    1    2    0  502  0.31127584685E+02 -0.99743509789E+01  0.51443427099E+02  0.60949490543E+02  0.00000000000E+00 0.  1.
<scales pt_clust_5="13000.00000" pt_clust_6="13000.00000" pt_clust_7="13000.00000" pt_clust_8="13000.00000" pt_clust_9="21.28910" pt_clust_10="29.64621"></scales>
<clustering>
<clus scale="   21.289">  1  9  2 -1</clus>
<clus scale="   29.646">  2 10  1 -1</clus>
<clus scale="   79.222">  5  6 -1 -1</clus>
<clus scale="   91.311">  7  8 -1 -1</clus>
<clus scale="  107.908">  2  5  1 -1</clus>
<clus scale="   29.646">  2  5  1 -1</clus>
</clustering>
</event>
<event>
10    4  0.2857708E-005  0.1004076E+03  0.7546771E-02  0.1284518E+00
         21   -1    0    0  503  502  0.00000000000E+00  0.00000000000E+00  0.71484604279E+03  0.71484604279E+03  0.00000000000E+00 0.  1.
         -3   -1    0    0    0  501 -0.00000000000E+00 -0.00000000000E+00 -0.42692429830E+02  0.42692429830E+02  0.00000000000E+00 0.  1.
         23    2    1    2    0    0 -0.35539972663E+02  0.52631158369E+02  0.16418080117E+03  0.19732220884E+03  0.89149257658E+02 0.  0.
         24    2    1    2    0    0 -0.59901404733E+02 -0.38308828146E+02  0.31208954867E+03  0.32960121650E+03  0.78621440640E+02 0.  0.
        -11    1    4    4    0    0 -0.60256879127E+02 -0.58218214251E+02  0.22074452409E+03  0.23611098422E+03  0.00000000000E+00 0.  1.
         12    1    4    4    0    0  0.35547439407E+00  0.19909386105E+02  0.91345024578E+02  0.93490232283E+02  0.00000000000E+00 0. -1.
        -11    1    3    3    0    0  0.30192858050E+02  0.15478829423E+02  0.52722076171E+02  0.62696253104E+02  0.00000000000E+00 0. -1.
         11    1    3    3    0    0 -0.65732830713E+02  0.37152328947E+02  0.11145872500E+03  0.13462595574E+03  0.00000000000E+00 0.  1.
         21    1    1    2  503  501  0.89293632475E+02 -0.37145231911E+02  0.14233815587E+03  0.17208507102E+03  0.00000000000E+00 0.  1.
         -4    1    1    2    0  502  0.61477449207E+01  0.22822901687E+02  0.53545107258E+02  0.58529976254E+02  0.00000000000E+00 0.  1.
<scales pt_clust_5="13000.00000" pt_clust_6="13000.00000" pt_clust_7="13000.00000" pt_clust_8="13000.00000" pt_clust_9="96.13702" pt_clust_10="23.63640"></scales>
<clustering>
<clus scale="   23.636">  1 10  2 -1</clus>
<clus scale="   78.621">  5  6 -1 -1</clus>
<clus scale="   89.149">  7  8 -1 -1</clus>
<clus scale="   96.137">  2  9  1 -1</clus>
<clus scale="   91.189">  1  5  2 -1</clus>
<clus scale="   23.636">  1  5  2 -1</clus>
</clustering>
</event>
<event>
10    4  0.2857708E-005  0.9842156E+02  0.7546771E-02  0.1283779E+00
          4   -1    0    0  503    0 -0.00000000000E+00  0.00000000000E+00  0.40653658330E+03  0.40653658330E+03  0.00000000000E+00 0. -1.
         21   -1    0    0  501  502  0.00000000000E+00 -0.00000000000E+00 -0.67457513899E+02  0.67457513899E+02  0.00000000000E+00 0. -1.
         24    2    1    2    0    0 -0.19050875980E+02 -0.53565436142E+02  0.23648788528E+03  0.25942606192E+03  0.90239514040E+02 0.  0.
         23    2    1    2    0    0 -0.17554680513E+02  0.70213426607E+01  0.20205629648E+02  0.94635157317E+02  0.90499057842E+02 0.  0.
        -13    1    3    3    0    0 -0.14871713617E+02  0.18071497950E+02  0.12261829450E+03  0.12483185912E+03  0.00000000000E+00 0.  1.
         14    1    3    3    0    0 -0.41791623626E+01 -0.71636934092E+02  0.11386959078E+03  0.13459420281E+03  0.00000000000E+00 0. -1.
        -11    1    4    4    0    0 -0.25816876769E+02 -0.15954898406E+02 -0.27556992206E+02  0.40993386402E+02  0.00000000000E+00 0. -1.
         11    1    4    4    0    0  0.82621962561E+01  0.22976241066E+02  0.47762621855E+02  0.53641770916E+02  0.00000000000E+00 0.  1.
         21    1    1    2  503  502  0.38436743102E+02  0.57851087544E+01  0.64670660330E+02  0.75452932422E+02  0.00000000000E+00 0. -1.
          3    1    1    2  501    0 -0.18311866093E+01  0.40758984727E+02  0.17714894134E+02  0.44479945532E+02  0.00000000000E+00 0. -1.
<scales pt_clust_5="13000.00000" pt_clust_6="13000.00000" pt_clust_7="13000.00000" pt_clust_8="13000.00000" pt_clust_9="38.86966" pt_clust_10="41.32951"></scales>
<clustering>
<clus scale="   38.870">  1  9  2 -1</clus>
<clus scale="   41.330">  2 10  1 -1</clus>
<clus scale="   90.240">  5  6 -1 -1</clus>
<clus scale="   90.499">  7  8 -1 -1</clus>
<clus scale="   98.183">  1  5  2 -1</clus>
<clus scale="   41.330">  2  5  1 -1</clus>
</clustering>
</event>
<event>
10    4  0.2857708E-005  0.1024914E+03  0.7546771E-02  0.1279790E+00
         21   -1    0    0  501  502  0.00000000000E+00  0.00000000000E+00  0.68349061203E+02  0.68349061203E+02  0.00000000000E+00 0. -1.
          2   -1    0    0  503    0 -0.00000000000E+00 -0.00000000000E+00 -0.49585474637E+03  0.49585474637E+03  0.00000000000E+00 0. -1.
         24    2    1    2    0    0 -0.18163855136E+02 -0.56148436855E+02 -0.25080729239E+03  0.27016002026E+03  0.81237713133E+02 0.  0.
         23    2    1    2    0    0 -0.44849285137E+01  0.63790995828E+02 -0.88439470956E+02  0.14219699582E+03  0.91153934992E+02 0.  0.
        -11    1    3    3    0    0  0.16945790260E+02 -0.10709418454E+02 -0.96270690573E+01  0.22238073428E+02  0.00000000000E+00 0.  1.
         12    1    3    3    0    0 -0.35109645396E+02 -0.45439018400E+02 -0.24118022333E+03  0.24792194683E+03  0.00000000000E+00 0. -1.
        -11    1    4    4    0    0  0.33555571273E+02  0.37095974471E+02 -0.80902305102E+02  0.95117141758E+02  0.00000000000E+00 0.  1.
         11    1    4    4    0    0 -0.38040499787E+02  0.26695021357E+02 -0.75371658542E+01  0.47079854061E+02  0.00000000000E+00 0. -1.
         21    1    1    2  503  502  0.27374672509E+02  0.27114770050E+02 -0.10582207080E+03  0.11261835604E+03  0.00000000000E+00 0. -1.
          1    1    1    2  501    0 -0.47258888592E+01 -0.34757329023E+02  0.17563148975E+02  0.39228435455E+02  0.00000000000E+00 0. -1.
<scales pt_clust_5="13000.00000" pt_clust_6="13000.00000" pt_clust_7="13000.00000" pt_clust_8="13000.00000" pt_clust_9="36.20999" pt_clust_10="35.07714"></scales>
<clustering>
<clus scale="   35.077">  1 10  2 -1</clus>
<clus scale="   36.210">  2  9  1 -1</clus>
<clus scale="   81.238">  5  6 -1 -1</clus>
<clus scale="   91.154">  7  8 -1 -1</clus>
<clus scale="   93.782">  2  5  1 -1</clus>
<clus scale="   35.077">  1  5  2 -1</clus>
</clustering>
</event>
<event>
10    4  0.2857708E-005  0.1010448E+03  0.7546771E-02  0.1283193E+00
          2   -1    0    0  502    0 -0.00000000000E+00  0.00000000000E+00  0.57523767249E+03  0.57523767249E+03  0.00000000000E+00 0. -1.
         21   -1    0    0  503  502  0.00000000000E+00 -0.00000000000E+00 -0.37588299585E+02  0.37588299585E+02  0.00000000000E+00 0. -1.
         24    2    1    2    0    0 -0.43558652167E+02 -0.22478900056E+02  0.32739515695E+03  0.34063934998E+03  0.80280264272E+02 0.  0.
         23    2    1    2    0    0  0.32891889152E+02 -0.63649402622E+00  0.88199491640E+02  0.13076495039E+03  0.90763651466E+02 0.  0.
        -13    1    3    3    0    0 -0.65266593947E+02 -0.38622848805E+01  0.23425383457E+03  0.24320671155E+03  0.00000000000E+00 0.  1.
         14    1    3    3    0    0  0.21707941780E+02 -0.18616615176E+02  0.93141322383E+02  0.97432638434E+02  0.00000000000E+00 0. -1.
        -13    1    4    4    0    0  0.43825298642E+02 -0.37736558036E+02  0.51227959160E+02  0.77259358095E+02  0.00000000000E+00 0. -1.
         13    1    4    4    0    0 -0.10933409490E+02  0.37100064010E+02  0.36971532480E+02  0.53505592292E+02  0.00000000000E+00 0.  1.
         21    1    1    2  503  501  0.16712749642E+02 -0.12404030354E+02  0.88408922314E+01  0.22612769513E+02  0.00000000000E+00 0. -1.
          1    1    1    2  501    0 -0.60459866264E+01  0.35519424437E+02  0.11321383208E+03  0.11880890219E+03  0.00000000000E+00 0. -1.
<scales pt_clust_5="13000.00000" pt_clust_6="13000.00000" pt_clust_7="13000.00000" pt_clust_8="13000.00000" pt_clust_9="20.81288" pt_clust_10="34.68540"></scales>
<clustering>
<clus scale="   20.813">  2  9  1 -1</clus>
<clus scale="   34.685">  2 10  1 -1</clus>
<clus scale="   80.280">  5  6 -1 -1</clus>
<clus scale="   90.764">  7  8 -1 -1</clus>
<clus scale="   91.744">  1  5  2 -1</clus>
<clus scale="   20.813">  2  5  1 -1</clus>
</clustering>
</event>
<event>
10    4  0.2857708E-005  0.3578100E+03  0.7546771E-02  0.1059454E+00
          2   -1    0    0  503    0 -0.00000000000E+00  0.00000000000E+00  0.11667940621E+04  0.11667940621E+04  0.00000000000E+00 0. -1.
         21   -1    0    0  501  502  0.00000000000E+00 -0.00000000000E+00 -0.13835040330E+03  0.13835040330E+03  0.00000000000E+00 0.  1.
         24    2    1    2    0    0  0.17227098342E+03 -0.19284617776E+03  0.34876780772E+03  0.44142401441E+03  0.79682098296E+02 0.  0.
         23    2    1    2    0    0  0.31116878941E+02 -0.21128913368E+02  0.12404963174E+03  0.15904978971E+03  0.92161995075E+02 0.  0.
        -13    1    3    3    0    0  0.61732739598E+02 -0.12656225947E+03  0.16426592026E+03  0.21636133948E+03  0.00000000000E+00 0.  1.
         14    1    3    3    0    0  0.11053824382E+03 -0.66283918287E+02  0.18450188746E+03  0.22506267493E+03  0.00000000000E+00 0. -1.
        -13    1    4    4    0    0  0.46472566587E+02 -0.39005327732E+02  0.12090561449E+03  0.13527484117E+03  0.00000000000E+00 0. -1.
         13    1    4    4    0    0 -0.15355687647E+02  0.17876414364E+02  0.31440172446E+01  0.23774948539E+02  0.00000000000E+00 0.  1.
         21    1    1    2  503  502 -0.10158816614E+03 -0.45326889339E+02  0.32340975482E+03  0.34200665477E+03  0.00000000000E+00 0. -1.
          1    1    1    2  501    0 -0.10179969623E+03  0.25930198047E+03  0.23221646454E+03  0.36266400653E+03  0.00000000000E+00 0. -1.
<scales pt_clust_5="13000.00000" pt_clust_6="13000.00000" pt_clust_7="13000.00000" pt_clust_8="13000.00000" pt_clust_9="111.24155" pt_clust_10="279.58453"></scales>
<clustering>
<clus scale="   79.682">  5  6 -1 -1</clus>
<clus scale="   92.162">  7  8 -1 -1</clus>
<clus scale="   92.648">  5  7 -1 -1</clus>
<clus scale="  111.242">  1  9  2 -1</clus>
<clus scale="  279.585">  2 10  1 -1</clus>
<clus scale="  279.585">  2  5  1 -1</clus>
</clustering>
</event>
<event>
10    4  0.2857708E-005  0.1071462E+03  0.7546771E-02  0.1268161E+00
         -3   -1    0    0    0  501 -0.00000000000E+00  0.00000000000E+00  0.62055204952E+03  0.62055204952E+03  0.00000000000E+00 0.  1.
         21   -1    0    0  501  502  0.00000000000E+00 -0.00000000000E+00 -0.69651457496E+02  0.69651457496E+02  0.00000000000E+00 0.  1.
         24    2    1    2    0    0  0.12468324875E+02 -0.69370264692E+02  0.46754257711E+03  0.47934983670E+03  0.78819488617E+02 0.  0.
         23    2    1    2    0    0  0.34921009512E+02  0.46609268450E+02  0.59725977808E+02  0.11881816195E+03  0.84608878805E+02 0.  0.
        -13    1    3    3    0    0  0.92922177366E+01 -0.85749894945E+02  0.34224259491E+03  0.35294388161E+03  0.00000000000E+00 0.  1.
         14    1    3    3    0    0  0.31761071388E+01  0.16379630253E+02  0.12529998219E+03  0.12640595509E+03  0.00000000000E+00 0. -1.
        -13    1    4    4    0    0  0.46978083450E+02 -0.46703253692E+01  0.42142546761E+02  0.63283066543E+02  0.00000000000E+00 0.  1.
         13    1    4    4    0    0 -0.12057073937E+02  0.51279593819E+02  0.17583431047E+02  0.55535095404E+02  0.00000000000E+00 0. -1.
         21    1    1    2  503  502  0.73169054069E+01  0.27896931621E+02  0.23318019898E+02  0.37087814044E+02  0.00000000000E+00 0.  1.
         -4    1    1    2    0  503 -0.54706239795E+02 -0.51359353777E+01  0.31401720813E+00  0.54947694324E+02  0.00000000000E+00 0.  1.
<scales pt_clust_5="13000.00000" pt_clust_6="13000.00000" pt_clust_7="13000.00000" pt_clust_8="13000.00000" pt_clust_9="28.84053" pt_clust_10="51.99588"></scales>
<clustering>
<clus scale="   28.841">  2  9  1 -1</clus>
<clus scale="   51.996">  2 10  1 -1</clus>
<clus scale="   78.819">  5  6 -1 -1</clus>
<clus scale="   84.609">  7  8 -1 -1</clus>
<clus scale="  102.636">  1  5  2 -1</clus>
<clus scale="   28.841">  2  5  1 -1</clus>
</clustering>
</event>
<event>
10    4  0.2857708E-005  0.9306985E+02  0.7546771E-02  0.1301629E+00
         21   -1    0    0  503  502  0.00000000000E+00  0.00000000000E+00  0.11758649865E+03  0.11758649865E+03  0.00000000000E+00 0. -1.
          4   -1    0    0  502    0 -0.00000000000E+00 -0.00000000000E+00 -0.32810066099E+03  0.32810066099E+03  0.00000000000E+00 0. -1.
         24    2    1    2    0    0 -0.87366187192E+01  0.14781408699E+02 -0.13161937272E+03  0.15498359345E+03  0.80008977083E+02 0.  0.
         23    2    1    2    0    0  0.33525854916E+02 -0.64054713682E+02  0.66213750974E+02  0.13321707114E+03  0.90197216873E+02 0.  0.
        -11    1    3    3    0    0 -0.16797846339E+02 -0.23635243405E+02 -0.10134569687E+03  0.10541225093E+03  0.00000000000E+00 0.  1.
         12    1    3    3    0    0  0.80612276201E+01  0.38416652104E+02 -0.30273675850E+02  0.49571342519E+02  0.00000000000E+00 0. -1.
        -13    1    4    4    0    0 -0.15117959859E+02 -0.18750474845E+02 -0.14917653821E+02  0.28331420944E+02  0.00000000000E+00 0.  1.
         13    1    4    4    0    0  0.48643814775E+02 -0.45304238836E+02  0.81131404795E+02  0.10488565019E+03  0.00000000000E+00 0. -1.
         21    1    1    2  503  501 -0.12529584627E+02  0.17196776874E+02 -0.26378018356E+02  0.33889813782E+02  0.00000000000E+00 0. -1.
          3    1    1    2  501    0 -0.12259651570E+02  0.32076528108E+02 -0.11873052223E+03  0.12359668127E+03  0.00000000000E+00 0. -1.
<scales pt_clust_5="13000.00000" pt_clust_6="13000.00000" pt_clust_7="13000.00000" pt_clust_8="13000.00000" pt_clust_9="20.87286" pt_clust_10="61.20058"></scales>
<clustering>
<clus scale="   20.873">  9 10 -1 -1</clus>
<clus scale="   61.201">  1  9  2 -1</clus>
<clus scale="   80.009">  5  6 -1 -1</clus>
<clus scale="   83.234">  2  5  1 -1</clus>
<clus scale="   90.197">  7  8 -1 -1</clus>
<clus scale="   61.201">  1  5  2 -1</clus>
</clustering>
</event>
<event>
10    4  0.2857708E-005  0.1011954E+03  0.7546771E-02  0.1281107E+00
         -1   -1    0    0    0  501 -0.00000000000E+00  0.00000000000E+00  0.56086669877E+03  0.56086669877E+03  0.00000000000E+00 0.  1.
         21   -1    0    0  503  502  0.00000000000E+00 -0.00000000000E+00 -0.63835124525E+02  0.63835124525E+02  0.00000000000E+00 0.  1.
         23    2    1    2    0    0  0.10073238655E+02  0.48997358814E+02  0.13915119550E+03  0.17150814249E+03  0.86889449437E+02 0.  0.
         24    2    1    2    0    0  0.24844066631E+02 -0.43107071681E+02  0.41322010167E+02  0.10257379035E+03  0.79614236584E+02 0.  0.
        -13    1    4    4    0    0  0.23347772273E+02  0.37338438593E+01 -0.15987390032E+02  0.28542191579E+02  0.00000000000E+00 0.  1.
         14    1    4    4    0    0  0.14962943576E+01 -0.46840915540E+02  0.57309400199E+02  0.74031598771E+02  0.00000000000E+00 0. -1.
        -11    1    3    3    0    0  0.13055441613E+02  0.72196755640E+02  0.12252173903E+03  0.14280893745E+03  0.00000000000E+00 0.  1.
         11    1    3    3    0    0 -0.29822029585E+01 -0.23199396826E+02  0.16629456477E+02  0.28699205046E+02  0.00000000000E+00 0. -1.
         21    1    1    2  503  501  0.24248487598E+02  0.23169530268E+02  0.26451932271E+03  0.26663699738E+03  0.00000000000E+00 0.  1.
         -2    1    1    2    0  502 -0.59165792884E+02 -0.29059817402E+02  0.52039045868E+02  0.83982893078E+02  0.00000000000E+00 0.  1.
<scales pt_clust_5="13000.00000" pt_clust_6="13000.00000" pt_clust_7="13000.00000" pt_clust_8="13000.00000" pt_clust_9="33.53828" pt_clust_10="58.59789"></scales>
<clustering>
<clus scale="   33.538">  1  9  2 -1</clus>
<clus scale="   58.598">  2 10  1 -1</clus>
<clus scale="   79.614">  5  6 -1 -1</clus>
<clus scale="   86.889">  7  8 -1 -1</clus>
<clus scale="   95.022">  2  5  1 -1</clus>
<clus scale="   58.598">  2  5  1 -1</clus>
</clustering>
</event>
<event>
10    4  0.2857708E-005  0.1568315E+03  0.7546771E-02  0.1193504E+00
         21   -1    0    0  501  502  0.00000000000E+00  0.00000000000E+00  0.14311043320E+03  0.14311043320E+03  0.00000000000E+00 0. -1.
          2   -1    0    0  503    0 -0.00000000000E+00 -0.00000000000E+00 -0.69972840402E+03  0.69972840402E+03  0.00000000000E+00 0. -1.
         24    2    1    2    0    0  0.17404193831E+03 -0.27721448337E+02 -0.22993555358E+03  0.30188086835E+03  0.84868279592E+02 0.  0.
         23    2    1    2    0    0 -0.85285955680E+02 -0.63119623195E+02 -0.17682185626E+03  0.22577269379E+03  0.91921484643E+02 0.  0.
        -13    1    3    3    0    0  0.86973947481E+02  0.26489996977E+01 -0.17260916128E+03  0.19330133806E+03  0.00000000000E+00 0.  1.
         14    1    3    3    0    0  0.87067990834E+02 -0.30370448034E+02 -0.57326392306E+02  0.10857953028E+03  0.00000000000E+00 0. -1.
        -13    1    4    4    0    0  0.18988243995E+02 -0.19777372459E+02 -0.36779146817E+02  0.45873778044E+02  0.00000000000E+00 0.  1.
         13    1    4    4    0    0 -0.10427419967E+03 -0.43342250736E+02 -0.14004270945E+03  0.17989891574E+03  0.00000000000E+00 0. -1.
         21    1    1    2  503  502 -0.67908589859E+02 -0.67048551110E+02 -0.11971514685E+03  0.15309735846E+03  0.00000000000E+00 0. -1.
          1    1    1    2  501    0 -0.20847392776E+02  0.15788962264E+03 -0.30145414111E+02  0.16208791662E+03  0.00000000000E+00 0. -1.
<scales pt_clust_5="13000.00000" pt_clust_6="13000.00000" pt_clust_7="13000.00000" pt_clust_8="13000.00000" pt_clust_9="95.43105" pt_clust_10="149.99811"></scales>
<clustering>
<clus scale="   84.868">  5  6 -1 -1</clus>
<clus scale="   91.921">  7  8 -1 -1</clus>
<clus scale="   95.431">  2  9  1 -1</clus>
<clus scale="  149.998">  1 10  2 -1</clus>
<clus scale="  152.804">  2  5  1 -1</clus>
<clus scale="  149.998">  1  5  2 -1</clus>
</clustering>
</event>
<event>
10    4  0.2857708E-005  0.2697793E+03  0.7546771E-02  0.1125136E+00
         -1   -1    0    0    0  501 -0.00000000000E+00  0.00000000000E+00  0.15590355092E+04  0.15590355092E+04  0.00000000000E+00 0.  1.
         21   -1    0    0  503  502  0.00000000000E+00 -0.00000000000E+00 -0.47316495019E+03  0.47316495019E+03  0.00000000000E+00 0.  1.
         24    2    1    2    0    0  0.80093530688E+02 -0.95231506798E+02 -0.85318897907E+02  0.17076824219E+03  0.79990403531E+02 0.  0.
         23    2    1    2    0    0  0.78798000724E+02 -0.17031300616E+03  0.48039764802E+03  0.52357515636E+03  0.90185359965E+02 0.  0.
        -13    1    3    3    0    0  0.12351512623E+02 -0.50388209403E+02 -0.71535090848E+02  0.88367418959E+02  0.00000000000E+00 0.  1.
         14    1    3    3    0    0  0.67742018066E+02 -0.44843297396E+02 -0.13783807059E+02  0.82400823236E+02  0.00000000000E+00 0. -1.
        -13    1    4    4    0    0  0.48853525395E+02 -0.16753966617E+02  0.11212011294E+03  0.12344343671E+03  0.00000000000E+00 0. -1.
         13    1    4    4    0    0  0.29944475329E+02 -0.15355903955E+03  0.36827753508E+03  0.40013171965E+03  0.00000000000E+00 0.  1.
         21    1    1    2  503  501 -0.30436379520E+03  0.46894696358E+03  0.86722801206E+03  0.10318105443E+04  0.00000000000E+00 0.  1.
         -2    1    1    2    0  502  0.14547226378E+03 -0.20340245062E+03 -0.17643620320E+03  0.30604651648E+03  0.00000000000E+00 0.  1.
<scales pt_clust_5="13000.00000" pt_clust_6="13000.00000" pt_clust_7="13000.00000" pt_clust_8="13000.00000" pt_clust_9="269.77930" pt_clust_10="13000.00000"></scales>
<clustering>
<clus scale="   79.990">  5  6 -1 -1</clus>
<clus scale="   90.185">  7  8 -1 -1</clus>
<clus scale="  147.927">  1  5  2 -1</clus>
<clus scale="  244.875">  1  7  2 -1</clus>
<clus scale="  269.779">  1  9  2 -1</clus>
<clus scale="  269.779">  2  5  1 -1</clus>
</clustering>
</event>
<event>
10    4  0.2857708E-005  0.1002207E+03  0.7546771E-02  0.1286377E+00
         21   -1    0    0  501  502  0.00000000000E+00  0.00000000000E+00  0.23591228311E+03  0.23591228311E+03  0.00000000000E+00 0. -1.
          2   -1    0    0  503    0 -0.00000000000E+00 -0.00000000000E+00 -0.34990351162E+03  0.34990351162E+03  0.00000000000E+00 0. -1.
         23    2    1    2    0    0 -0.29850297665E+01  0.20768043519E+02 -0.19732258722E+03  0.21934397617E+03  0.93463117967E+02 0.  0.
         24    2    1    2    0    0  0.50447929098E+02 -0.95709482837E+02 -0.41089254667E+02  0.14115277162E+03  0.80811381819E+02 0.  0.
        -11    1    4    4    0    0  0.26085741429E+02  0.63523386582E+01 -0.21533799747E+02  0.34416894745E+02  0.00000000000E+00 0.  1.
         12    1    4    4    0    0  0.24362187669E+02 -0.10206182150E+03 -0.19555454919E+02  0.10673587687E+03  0.00000000000E+00 0. -1.
        -13    1    3    3    0    0  0.44287571582E+02  0.16234521682E+02 -0.11513419673E+03  0.12442199141E+03  0.00000000000E+00 0.  1.
         13    1    3    3    0    0 -0.47272601348E+02  0.45335218376E+01 -0.82188390491E+02  0.94921984756E+02  0.00000000000E+00 0. -1.
         21    1    1    2  503  502 -0.25057866892E+02  0.48391376791E+02 -0.33269607311E+02  0.63847386881E+02  0.00000000000E+00 0. -1.
          1    1    1    2  501    0 -0.22405032440E+02  0.26550062527E+02  0.15769022069E+03  0.16147166005E+03  0.00000000000E+00 0. -1.
<scales pt_clust_5="13000.00000" pt_clust_6="13000.00000" pt_clust_7="13000.00000" pt_clust_8="13000.00000" pt_clust_9="61.29944" pt_clust_10="34.74034"></scales>
<clustering>
<clus scale="   34.740">  1 10  2 -1</clus>
<clus scale="   61.299">  1  9  2 -1</clus>
<clus scale="   80.811">  5  6 -1 -1</clus>
<clus scale="   88.540">  1  5  2 -1</clus>
<clus scale="   93.463">  7  8 -1 -1</clus>
<clus scale="   34.740">  1  5  2 -1</clus>
</clustering>
</event>
<event>
10    4  0.2857708E-005  0.1543516E+03  0.7546771E-02  0.1224339E+00
          2   -1    0    0  503    0 -0.00000000000E+00  0.00000000000E+00  0.68006145901E+02  0.68006145901E+02  0.00000000000E+00 0. -1.
         21   -1    0    0  501  502  0.00000000000E+00 -0.00000000000E+00 -0.95740021766E+03  0.95740021766E+03  0.00000000000E+00 0. -1.
         23    2    1    2    0    0 -0.34119950028E+02  0.11009770336E+03 -0.40503218808E+03  0.43133135600E+03  0.93327327247E+02 0.  0.
         24    2    1    2    0    0  0.95438516336E+01  0.33625210182E+02 -0.41620675780E+03  0.42498368947E+03  0.78494147617E+02 0.  0.
        -11    1    4    4    0    0  0.37885562220E+02  0.12031356080E+02 -0.11498467889E+03  0.12166160336E+03  0.00000000000E+00 0.  1.
         12    1    4    4    0    0 -0.28341710586E+02  0.21593854102E+02 -0.30122207891E+03  0.30332208610E+03  0.00000000000E+00 0. -1.
        -11    1    3    3    0    0  0.19467545517E+02  0.33960554482E+02 -0.22773337520E+03  0.23107313728E+03  0.00000000000E+00 0.  1.
         11    1    3    3    0    0 -0.53587495545E+02  0.76137148882E+02 -0.17729881288E+03  0.20025821873E+03  0.00000000000E+00 0. -1.
         21    1    1    2  503  502  0.20944976301E+02 -0.12283640785E+03 -0.34467780721E+02  0.12928844896E+03  0.00000000000E+00 0. -1.
          1    1    1    2  501    0  0.36311220934E+01 -0.20886505695E+02 -0.33687345150E+02  0.39802869131E+02  0.00000000000E+00 0. -1.
<scales pt_clust_5="13000.00000" pt_clust_6="13000.00000" pt_clust_7="13000.00000" pt_clust_8="13000.00000" pt_clust_9="122.94073" pt_clust_10="21.19980"></scales>
<clustering>
<clus scale="   21.200">  2 10  1 -1</clus>
<clus scale="   78.494">  5  6 -1 -1</clus>
<clus scale="   82.866">  2  5  1 -1</clus>
<clus scale="   93.327">  7  8 -1 -1</clus>
<clus scale="  122.941">  1  9  2 -1</clus>
<clus scale="   21.200">  2  5  1 -1</clus>
</clustering>
</event>
<event>
10    4  0.2857708E-005  0.1756293E+03  0.7546771E-02  0.1173429E+00
         21   -1    0    0  501  502  0.00000000000E+00  0.00000000000E+00  0.85422487003E+02  0.85422487003E+02  0.00000000000E+00 0. -1.
          2   -1    0    0  503    0 -0.00000000000E+00 -0.00000000000E+00 -0.58515140388E+03  0.58515140388E+03  0.00000000000E+00 0. -1.
         24    2    1    2    0    0  0.92323184611E+02 -0.13306465146E+03 -0.33015531806E+03  0.37641388467E+03  0.80343678266E+02 0.  0.
         23    2    1    2    0    0 -0.62965386871E+02  0.10195392410E+03 -0.98339852689E+02  0.17970713816E+03  0.90910320070E+02 0.  0.
        -13    1    3    3    0    0  0.73535896961E+02 -0.12961992330E+03 -0.22728560666E+03  0.27178594455E+03  0.00000000000E+00 0.  1.
         14    1    3    3    0    0  0.18787287650E+02 -0.34447281639E+01 -0.10286971140E+03  0.10462794012E+03  0.00000000000E+00 0. -1.
        -11    1    4    4    0    0 -0.85180380296E+02  0.64548180247E+02 -0.68177103407E+02  0.12676861674E+03  0.00000000000E+00 0.  1.
         11    1    4    4    0    0  0.22214993425E+02  0.37405743855E+02 -0.30162749282E+02  0.52938521423E+02  0.00000000000E+00 0. -1.
         21    1    1    2  503  502  0.95980689327E+01 -0.21209162971E+02 -0.26943965376E+02  0.35607987746E+02  0.00000000000E+00 0.  1.
          1    1    1    2  501    0 -0.38955866673E+02  0.52319890332E+02 -0.44289780747E+02  0.78844880310E+02  0.00000000000E+00 0. -1.
<scales pt_clust_5="13000.00000" pt_clust_6="13000.00000" pt_clust_7="13000.00000" pt_clust_8="13000.00000" pt_clust_9="23.27985" pt_clust_10="62.70414"></scales>
<clustering>
<clus scale="   23.280">  2  9  1 -1</clus>
<clus scale="   62.704">  1 10  2 -1</clus>
<clus scale="   80.344">  5  6 -1 -1</clus>
<clus scale="   90.910">  7  8 -1 -1</clus>
<clus scale="  170.400">  2  5  1 -1</clus>
<clus scale="   62.704">  1  5  2 -1</clus>
</clustering>
</event>
<event>
10    4  0.2857708E-005  0.1093508E+03  0.7546771E-02  0.1267298E+00
         -1   -1    0    0    0  501 -0.00000000000E+00  0.00000000000E+00  0.34650382815E+03  0.34650382815E+03  0.00000000000E+00 0.  1.
         21   -1    0    0  503  502  0.00000000000E+00 -0.00000000000E+00 -0.87048433394E+02  0.87048433394E+02  0.00000000000E+00 0. -1.
         23    2    1    2    0    0  0.43230575900E+02 -0.15746964152E+02  0.17512993457E+03  0.20329766020E+03  0.92426160184E+02 0.  0.
         24    2    1    2    0    0 -0.87196749659E+02 -0.51701400433E+01  0.20628479371E+01  0.11772482412E+03  0.78897879400E+02 0.  0.
        -13    1    4    4    0    0 -0.16689380145E+02 -0.12470539938E+02  0.34081149000E+02  0.39944642859E+02  0.00000000000E+00 0.  1.
         14    1    4    4    0    0 -0.70507369514E+02  0.73003998948E+01 -0.32018301063E+02  0.77780181264E+02  0.00000000000E+00 0. -1.
        -11    1    3    3    0    0 -0.22832281532E+02  0.86747801205E+01  0.15786893274E+02  0.29082484236E+02  0.00000000000E+00 0. -1.
         11    1    3    3    0    0  0.66062857432E+02 -0.24421744273E+02  0.15934304130E+03  0.17421517596E+03  0.00000000000E+00 0.  1.
         21    1    1    2  503  501  0.44866124400E+01 -0.19565939583E+02  0.24868713542E+02  0.31959483666E+02  0.00000000000E+00 0. -1.
         -2    1    1    2    0  502  0.39479561319E+02  0.40483043779E+02  0.57393898712E+02  0.80570293564E+02  0.00000000000E+00 0.  1.
<scales pt_clust_5="13000.00000" pt_clust_6="13000.00000" pt_clust_7="13000.00000" pt_clust_8="13000.00000" pt_clust_9="20.07376" pt_clust_10="54.31153"></scales>
<clustering>
<clus scale="   20.074">  1  9  2 -1</clus>
<clus scale="   54.312">  2 10  1 -1</clus>
<clus scale="   78.898">  5  6 -1 -1</clus>
<clus scale="   92.426">  7  8 -1 -1</clus>
<clus scale="   98.183">  2  5  1 -1</clus>
<clus scale="   54.312">  2  5  1 -1</clus>
</clustering>
</event>
<event>
10    4  0.2857708E-005  0.4338043E+03  0.7546771E-02  0.1032816E+00
         21   -1    0    0  501  502  0.00000000000E+00  0.00000000000E+00  0.86449196587E+03  0.86449196587E+03  0.00000000000E+00 0. -1.
          2   -1    0    0  503    0 -0.00000000000E+00 -0.00000000000E+00 -0.77377036693E+03  0.77377036693E+03  0.00000000000E+00 0. -1.
         24    2    1    2    0    0  0.16563502689E+03 -0.47084733251E+03 -0.45646486875E+03  0.68114106900E+03  0.80379144080E+02 0.  0.
         23    2    1    2    0    0  0.63240737118E+02  0.29696174653E+03  0.26149470086E+03  0.41073137964E+03  0.90194888504E+02 0.  0.
        -11    1    3    3    0    0  0.22762784102E+02 -0.29042808322E+02 -0.13170292152E+02  0.39180169099E+02  0.00000000000E+00 0.  1.
         12    1    3    3    0    0  0.14287224279E+03 -0.44180452419E+03 -0.44329457660E+03  0.64196089990E+03  0.00000000000E+00 0. -1.
        -13    1    4    4    0    0  0.15885258094E+02  0.24804225184E+02  0.66099806202E+02  0.72365567721E+02  0.00000000000E+00 0.  1.
         13    1    4    4    0    0  0.47355479023E+02  0.27215752135E+03  0.19539489466E+03  0.33836581192E+03  0.00000000000E+00 0. -1.
         21    1    1    2  503  502 -0.11704922729E+03 -0.45708949466E+00 -0.68837044849E+02  0.13579127102E+03  0.00000000000E+00 0.  1.
          1    1    1    2  501    0 -0.11182653672E+03  0.17434267548E+03  0.35452881168E+03  0.41059861315E+03  0.00000000000E+00 0. -1.
<scales pt_clust_5="13000.00000" pt_clust_6="13000.00000" pt_clust_7="13000.00000" pt_clust_8="13000.00000" pt_clust_9="117.05012" pt_clust_10="209.78747"></scales>
<clustering>
<clus scale="   80.379">  5  6 -1 -1</clus>
<clus scale="   90.195">  7  8 -1 -1</clus>
<clus scale="  117.050">  2  9  1 -1</clus>
<clus scale="  209.787">  1 10  2 -1</clus>
<clus scale="  431.870">  2  5  1 -1</clus>
<clus scale="  209.787">  1  5  2 -1</clus>
</clustering>
</event>
<event>
10    4  0.2857708E-005  0.9630327E+02  0.7546771E-02  0.1290883E+00
          2   -1    0    0  503    0 -0.00000000000E+00  0.00000000000E+00  0.34685385802E+03  0.34685385802E+03  0.00000000000E+00 0. -1.
         21   -1    0    0  501  502  0.00000000000E+00 -0.00000000000E+00 -0.25194661823E+03  0.25194661823E+03  0.00000000000E+00 0.  1.
         24    2    1    2    0    0 -0.47179984247E+02 -0.20929606283E+02  0.20941603767E+02  0.97219451536E+02  0.79681062092E+02 0.  0.
         23    2    1    2    0    0  0.11274092325E+01  0.60134585845E+02 -0.19037785058E+03  0.21697067017E+03  0.84941781565E+02 0.  0.
        -13    1    3    3    0    0  0.16897740483E+02 -0.19642338340E+02 -0.76850133585E+01  0.27026182106E+02  0.00000000000E+00 0.  1.
         14    1    3    3    0    0 -0.64077724730E+02 -0.12872679430E+01  0.28626617126E+02  0.70193269431E+02  0.00000000000E+00 0. -1.
        -13    1    4    4    0    0 -0.39946897861E+02  0.20124804617E+02 -0.62819568082E+02  0.77117187084E+02  0.00000000000E+00 0.  1.
         13    1    4    4    0    0  0.41074307094E+02  0.40009781228E+02 -0.12755828250E+03  0.13985348308E+03  0.00000000000E+00 0. -1.
         21    1    1    2  503  502  0.11748625661E+02  0.18305948562E+02  0.14977495717E+02  0.26409531151E+02  0.00000000000E+00 0. -1.
          1    1    1    2  501    0  0.34303949353E+02 -0.57510928125E+02  0.24936599088E+03  0.25820082340E+03  0.00000000000E+00 0. -1.
<scales pt_clust_5="13000.00000" pt_clust_6="13000.00000" pt_clust_7="13000.00000" pt_clust_8="13000.00000" pt_clust_9="21.75173" pt_clust_10="61.31527"></scales>
<clustering>
<clus scale="   21.752">  1  9  2 -1</clus>
<clus scale="   61.315">  2 10  1 -1</clus>
<clus scale="   79.681">  5  6 -1 -1</clus>
<clus scale="   84.942">  7  8 -1 -1</clus>
<clus scale="   91.697">  1  5  2 -1</clus>
<clus scale="   61.315">  2  5  1 -1</clus>
</clustering>
</event>
<event>
10    4  0.2857708E-005  0.1015509E+03  0.7546771E-02  0.1280927E+00
         21   -1    0    0  501  502  0.00000000000E+00  0.00000000000E+00  0.36225402928E+03  0.36225402928E+03  0.00000000000E+00 0.  1.
          2   -1    0    0  503    0 -0.00000000000E+00 -0.00000000000E+00 -0.81251722478E+02  0.81251722478E+02  0.00000000000E+00 0. -1.
         23    2    1    2    0    0  0.90098994856E+00 -0.31201946725E+02  0.33979966334E+01  0.96707673172E+02  0.91468324610E+02 0.  0.
         24    2    1    2    0    0  0.34385376398E+02  0.13526109535E+02  0.23150949284E+03  0.24883270311E+03  0.83401193688E+02 0.  0.
        -13    1    4    4    0    0 -0.55939965747E+01  0.38542731996E+02  0.14681333198E+03  0.15189137380E+03  0.00000000000E+00 0.  1.
         14    1    4    4    0    0  0.39979372972E+02 -0.25016622461E+02  0.84696160865E+02  0.96941329308E+02  0.00000000000E+00 0. -1.
        -11    1    3    3    0    0 -0.38506090091E+02 -0.18042763368E+02  0.25565965977E+02  0.49617324600E+02  0.00000000000E+00 0.  1.
         11    1    3    3    0    0  0.39407080040E+02 -0.13159183357E+02 -0.22167969343E+02  0.47090348573E+02  0.00000000000E+00 0. -1.
         21    1    1    2  503  502 -0.49566200373E+02  0.10145833407E+01  0.30743960305E+01  0.49671818063E+02  0.00000000000E+00 0.  1.
          1    1    1    2  501    0  0.14279834026E+02  0.16661253850E+02  0.43020421290E+02  0.48293557413E+02  0.00000000000E+00 0. -1.
<scales pt_clust_5="13000.00000" pt_clust_6="13000.00000" pt_clust_7="13000.00000" pt_clust_8="13000.00000" pt_clust_9="48.43628" pt_clust_10="21.94336"></scales>
<clustering>
<clus scale="   21.943">  1 10  2 -1</clus>
<clus scale="   48.436">  2  9  1 -1</clus>
<clus scale="   83.401">  5  6 -1 -1</clus>
<clus scale="   91.468">  7  8 -1 -1</clus>
<clus scale="   94.350">  1  5  2 -1</clus>
<clus scale="   21.943">  1  5  2 -1</clus>
</clustering>
</event>
<event>
10    4  0.2857708E-005  0.1497002E+03  0.7546771E-02  0.1214438E+00
         21   -1    0    0  503  502  0.00000000000E+00  0.00000000000E+00  0.38954303199E+03  0.38954303199E+03  0.00000000000E+00 0.  1.
         -1   -1    0    0    0  501 -0.00000000000E+00 -0.00000000000E+00 -0.18872567338E+03  0.18872567338E+03  0.00000000000E+00 0.  1.
         23    2    1    2    0    0  0.37094594048E+02  0.46241236934E+02  0.17765597832E+03  0.20964271302E+03  0.94202757868E+02 0.  0.
         24    2    1    2    0    0 -0.74589316220E+02  0.10401021095E+03  0.61497124484E+02  0.16273740518E+03  0.79497651848E+02 0.  0.
        -11    1    4    4    0    0 -0.14501418857E+02  0.43316640661E+02 -0.15001772461E+02  0.48079888561E+02  0.00000000000E+00 0.  1.
         12    1    4    4    0    0 -0.60087897363E+02  0.60693570291E+02  0.76498896945E+02  0.11465751662E+03  0.00000000000E+00 0. -1.
        -13    1    3    3    0    0  0.65389535930E+01 -0.27337254160E+02  0.72170763100E+02  0.77451290664E+02  0.00000000000E+00 0. -1.
         13    1    3    3    0    0  0.30555640455E+02  0.73578491094E+02  0.10548521522E+03  0.13219142236E+03  0.00000000000E+00 0.  1.
         21    1    1    2  503  501  0.28602296203E+02 -0.14091084042E+02 -0.59791205703E+02  0.67761628353E+02  0.00000000000E+00 0.  1.
         -2    1    1    2    0  502  0.88924259685E+01 -0.13616036384E+03  0.21455461512E+02  0.13812695881E+03  0.00000000000E+00 0.  1.
<scales pt_clust_5="13000.00000" pt_clust_6="13000.00000" pt_clust_7="13000.00000" pt_clust_8="13000.00000" pt_clust_9="31.88495" pt_clust_10="126.84752"></scales>
<clustering>
<clus scale="   31.885">  2  9  1 -1</clus>
<clus scale="   79.498">  5  6 -1 -1</clus>
<clus scale="   94.203">  7  8 -1 -1</clus>
<clus scale="  111.848">  2  7  1 -1</clus>
<clus scale="  126.848">  1 10  2 -1</clus>
<clus scale="  126.848">  1  5  2 -1</clus>
</clustering>
</event>
<event>
10    4  0.2857708E-005  0.1573130E+03  0.7546771E-02  0.1209725E+00
         21   -1    0    0  501  502  0.00000000000E+00  0.00000000000E+00  0.15213092916E+04  0.15213092916E+04  0.00000000000E+00 0. -1.
          2   -1    0    0  503    0 -0.00000000000E+00 -0.00000000000E+00 -0.48187628475E+02  0.48187628475E+02  0.00000000000E+00 0. -1.
         24    2    1    2    0    0  0.46635420690E+02  0.53393374107E+02  0.10063920327E+03  0.14718840477E+03  0.80687436456E+02 0.  0.
         23    2    1    2    0    0 -0.15086792386E+03 -0.77366272287E+02  0.47880813882E+03  0.51628564984E+03  0.92449812847E+02 0.  0.
        -11    1    3    3    0    0  0.30516845734E+02  0.65808829471E+02  0.10376210396E+03  0.12660432113E+03  0.00000000000E+00 0.  1.
         12    1    3    3    0    0  0.16118574956E+02 -0.12415455364E+02 -0.31229006934E+01  0.20584083638E+02  0.00000000000E+00 0. -1.
        -13    1    4    4    0    0 -0.44569554613E+01 -0.40420647834E+02  0.77740534023E+02  0.87734165828E+02  0.00000000000E+00 0.  1.
         13    1    4    4    0    0 -0.14641096839E+03 -0.36945624453E+02  0.40106760479E+03  0.42855148401E+03  0.00000000000E+00 0. -1.
         21    1    1    2  503  502 -0.20934417216E+02 -0.16609898852E+01  0.10708176023E+03  0.10912154730E+03  0.00000000000E+00 0. -1.
          1    1    1    2  501    0  0.12516692038E+03  0.25633888065E+02  0.78659256080E+03  0.79690131816E+03  0.00000000000E+00 0. -1.
<scales pt_clust_5="13000.00000" pt_clust_6="13000.00000" pt_clust_7="13000.00000" pt_clust_8="13000.00000" pt_clust_9="21.00021" pt_clust_10="127.28082"></scales>
<clustering>
<clus scale="   21.000">  1  9  2 -1</clus>
<clus scale="   80.687">  5  6 -1 -1</clus>
<clus scale="   92.450">  7  8 -1 -1</clus>
<clus scale="  106.550">  2  5  1 -1</clus>
<clus scale="  127.281">  1 10  2 -1</clus>
<clus scale="   21.000">  1  5  2 -1</clus>
</clustering>
</event>
<event>
10    4  0.2857708E-005  0.1796087E+03  0.7546771E-02  0.1193799E+00
         -3   -1    0    0    0  501 -0.00000000000E+00  0.00000000000E+00  0.56280148884E+03  0.56280148884E+03  0.00000000000E+00 0.  1.
         21   -1    0    0  503  502  0.00000000000E+00 -0.00000000000E+00 -0.13123603287E+03  0.13123603287E+03  0.00000000000E+00 0.  1.
         23    2    1    2    0    0  0.39624737722E+02 -0.65701930541E+01  0.23365846925E+03  0.25425164221E+03  0.91838608629E+02 0.  0.
         24    2    1    2    0    0  0.13115488449E+03  0.21499542915E+01  0.25748552990E+02  0.15622754399E+03  0.80856858029E+02 0.  0.
        -11    1    4    4    0    0  0.53502906127E+02 -0.93937578510E+01 -0.27973149471E+02  0.61100742564E+02  0.00000000000E+00 0.  1.
         12    1    4    4    0    0  0.77651978363E+02  0.11543712143E+02  0.53721702461E+02  0.95126801423E+02  0.00000000000E+00 0. -1.
        -13    1    3    3    0    0 -0.19085228071E+02 -0.23569977130E+02  0.13362141150E+03  0.13701996702E+03  0.00000000000E+00 0.  1.
         13    1    3    3    0    0  0.58709965792E+02  0.16999784076E+02  0.10003705775E+03  0.11723167518E+03  0.00000000000E+00 0. -1.
         21    1    1    2  503  501 -0.19332067809E+03  0.21294196614E+02  0.13419898993E+03  0.23629578135E+03  0.00000000000E+00 0.  1.
         -4    1    1    2    0  502  0.22541055874E+02 -0.16873957852E+02  0.37959443795E+02  0.47262554171E+02  0.00000000000E+00 0.  1.
<scales pt_clust_5="13000.00000" pt_clust_6="13000.00000" pt_clust_7="13000.00000" pt_clust_8="13000.00000" pt_clust_9="160.37909" pt_clust_10="28.15725"></scales>
<clustering>
<clus scale="   28.157">  2 10  1 -1</clus>
<clus scale="   80.857">  5  6 -1 -1</clus>
<clus scale="   91.839">  7  8 -1 -1</clus>
<clus scale="  101.075">  1  7  2 -1</clus>
<clus scale="  160.379">  1  9  2 -1</clus>
<clus scale="   28.157">  2  5  1 -1</clus>
</clustering>
</event>
<event>
10    4  0.2857708E-005  0.2077273E+03  0.7546771E-02  0.1173231E+00
         -1   -1    0    0    0  501 -0.00000000000E+00  0.00000000000E+00  0.15156416106E+03  0.15156416106E+03  0.00000000000E+00 0.  1.
         21   -1    0    0  501  502  0.00000000000E+00 -0.00000000000E+00 -0.57559860906E+03  0.57559860906E+03  0.00000000000E+00 0.  1.
         23    2    1    2    0    0  0.43231250856E+02 -0.21888245681E+02 -0.16623775838E+02  0.10349857133E+03  0.89930906781E+02 0.  0.
         24    2    1    2    0    0 -0.20277569554E+03  0.97905327797E+02 -0.34169101263E+03  0.41694537906E+03  0.79920367190E+02 0.  0.
        -13    1    4    4    0    0 -0.79875049364E+02  0.78330376618E+02 -0.13124503985E+03  0.17245559399E+03  0.00000000000E+00 0.  1.
         14    1    4    4    0    0 -0.12290064618E+03  0.19574951179E+02 -0.21044597278E+03  0.24448978507E+03  0.00000000000E+00 0. -1.
        -11    1    3    3    0    0  0.42250450460E+02 -0.42705477662E+02 -0.40006881280E+02  0.72176235259E+02  0.00000000000E+00 0. -1.
         11    1    3    3    0    0  0.98080039568E+00  0.20817231981E+02  0.23383105442E+02  0.31322336070E+02  0.00000000000E+00 0.  1.
         21    1    1    2  503  502  0.17795057493E+02 -0.16711747500E+02 -0.45637662184E+02  0.51756572388E+02  0.00000000000E+00 0.  1.
         -2    1    1    2    0  503  0.14174938719E+03 -0.59305334617E+02 -0.20081997346E+02  0.15496224734E+03  0.00000000000E+00 0.  1.
<scales pt_clust_5="13000.00000" pt_clust_6="13000.00000" pt_clust_7="13000.00000" pt_clust_8="13000.00000" pt_clust_9="24.41202" pt_clust_10="191.73781"></scales>
<clustering>
<clus scale="   24.412">  2  9  1 -1</clus>
<clus scale="   79.920">  5  6 -1 -1</clus>
<clus scale="   89.931">  7  8 -1 -1</clus>
<clus scale="  103.451">  1  7  2 -1</clus>
<clus scale="  191.738">  2 10  1 -1</clus>
<clus scale="   24.412">  2  5  1 -1</clus>
</clustering>
</event>
<event>
10    4  0.2857708E-005  0.1211798E+03  0.7546771E-02  0.1244266E+00
         21   -1    0    0  501  502  0.00000000000E+00  0.00000000000E+00  0.64517308265E+02  0.64517308265E+02  0.00000000000E+00 0. -1.
          2   -1    0    0  503    0 -0.00000000000E+00 -0.00000000000E+00 -0.10606803684E+04  0.10606803684E+04  0.00000000000E+00 0. -1.
         24    2    1    2    0    0 -0.18084023693E+02  0.61123273390E+02 -0.67723122461E+03  0.68494183833E+03  0.80250257575E+02 0.  0.
         23    2    1    2    0    0  0.53516244013E+02 -0.89724244962E+02 -0.19628806499E+03  0.24003170369E+03  0.90397930344E+02 0.  0.
        -11    1    3    3    0    0 -0.40254434115E+02  0.50301946759E+02 -0.29681987078E+03  0.30373136322E+03  0.00000000000E+00 0.  1.
         12    1    3    3    0    0  0.22170410422E+02  0.10821326631E+02 -0.38041135383E+03  0.38121047511E+03  0.00000000000E+00 0. -1.
        -13    1    4    4    0    0 -0.24080322117E+02 -0.16393268681E+02 -0.26020428473E+02  0.39059747429E+02  0.00000000000E+00 0.  1.
         13    1    4    4    0    0  0.77596566130E+02 -0.73330976281E+02 -0.17026763652E+03  0.20097195626E+03  0.00000000000E+00 0. -1.
         21    1    1    2  503  502  0.38537672236E+02  0.24317336773E+02 -0.11741333720E+03  0.12594592808E+03  0.00000000000E+00 0. -1.
          1    1    1    2  501    0 -0.73969892557E+02  0.42836347987E+01 -0.52304332953E+01  0.74278206524E+02  0.00000000000E+00 0. -1.
<scales pt_clust_5="13000.00000" pt_clust_6="13000.00000" pt_clust_7="13000.00000" pt_clust_8="13000.00000" pt_clust_9="45.56847" pt_clust_10="72.53319"></scales>
<clustering>
<clus scale="   45.568">  2  9  1 -1</clus>
<clus scale="   72.533">  1 10  2 -1</clus>
<clus scale="   80.250">  5  6 -1 -1</clus>
<clus scale="   90.398">  7  8 -1 -1</clus>
<clus scale="  113.811">  2  5  1 -1</clus>
<clus scale="   72.533">  1  5  2 -1</clus>
</clustering>
</event>
<event>
10    4  0.2857708E-005  0.1080285E+03  0.7546771E-02  0.1269228E+00
          2   -1    0    0  503    0 -0.00000000000E+00  0.00000000000E+00  0.85625476040E+03  0.85625476040E+03  0.00000000000E+00 0. -1.
         21   -1    0    0  501  502  0.00000000000E+00 -0.00000000000E+00 -0.24822474209E+02  0.24822474209E+02  0.00000000000E+00 0. -1.
         23    2    1    2    0    0 -0.48140134572E+02 -0.65044855288E+01  0.37309976418E+03  0.38732116759E+03  0.91948202489E+02 0.  0.
         24    2    1    2    0    0  0.41984611207E+02  0.50672217102E+02  0.22850987776E+03  0.25090559749E+03  0.80040448869E+02 0.  0.
        -11    1    4    4    0    0  0.35042455556E+02 -0.14589515962E+02  0.80812418940E+02  0.89283115550E+02  0.00000000000E+00 0.  1.
         12    1    4    4    0    0  0.69421556514E+01  0.65261733064E+02  0.14769745882E+03  0.16162248194E+03  0.00000000000E+00 0. -1.
        -11    1    3    3    0    0  0.47642433065E+01  0.34405937259E+02  0.16938979708E+03  0.17291434263E+03  0.00000000000E+00 0.  1.
         11    1    3    3    0    0 -0.52904377878E+02 -0.40910422788E+02  0.20370996710E+03  0.21440682496E+03  0.00000000000E+00 0. -1.
         21    1    1    2  503  502 -0.24620923516E+02 -0.17696044538E+02  0.15285764885E+03  0.15583581321E+03  0.00000000000E+00 0. -1.
          1    1    1    2  501    0  0.30776446881E+02 -0.26471687035E+02  0.76964995399E+02  0.87014656317E+02  0.00000000000E+00 0. -1.
<scales pt_clust_5="13000.00000" pt_clust_6="13000.00000" pt_clust_7="13000.00000" pt_clust_8="13000.00000" pt_clust_9="30.32062" pt_clust_10="39.91112"></scales>
<clustering>
<clus scale="   30.321">  1  9  2 -1</clus>
<clus scale="   39.911">  2 10  1 -1</clus>
<clus scale="   80.040">  5  6 -1 -1</clus>
<clus scale="   91.948">  7  8 -1 -1</clus>
<clus scale="   98.093">  2  5  1 -1</clus>
<clus scale="   39.911">  2  5  1 -1</clus>
</clustering>
</event>
<event>
10    4  0.2857708E-005  0.1079060E+03  0.7546771E-02  0.1269796E+00
          2   -1    0    0  503    0 -0.00000000000E+00  0.00000000000E+00  0.52858684829E+03  0.52858684829E+03  0.00000000000E+00 0. -1.
         21   -1    0    0  501  502  0.00000000000E+00 -0.00000000000E+00 -0.10388147537E+03  0.10388147537E+03  0.00000000000E+00 0. -1.
         24    2    1    2    0    0 -0.22274602157E+02  0.98321241881E+01  0.35190255913E+03  0.36164248793E+03  0.79731106737E+02 0.  0.
         23    2    1    2    0    0 -0.48179167287E+02 -0.46408384961E+02 -0.18240560086E+02  0.11546048366E+03  0.92322450677E+02 0.  0.
        -11    1    3    3    0    0  0.27027792622E+02 -0.92672376239E+01  0.88928381547E+02  0.93405783075E+02  0.00000000000E+00 0.  1.
         12    1    3    3    0    0 -0.49302394779E+02  0.19099361812E+02  0.26297417759E+03  0.26823670485E+03  0.00000000000E+00 0. -1.
        -11    1    4    4    0    0 -0.51223619845E+02  0.13514332825E+02 -0.82018232610E+00  0.52982724739E+02  0.00000000000E+00 0. -1.
         11    1    4    4    0    0  0.30444525580E+01 -0.59922717786E+02 -0.17420377760E+02  0.62477758918E+02  0.00000000000E+00 0.  1.
         21    1    1    2  503  502  0.40810949039E+02  0.54106650491E+02  0.99042231005E+02  0.12001011087E+03  0.00000000000E+00 0. -1.
          1    1    1    2  501    0  0.29642820406E+02 -0.17530389719E+02 -0.79988571315E+01  0.35355241205E+02  0.00000000000E+00 0. -1.
<scales pt_clust_5="13000.00000" pt_clust_6="13000.00000" pt_clust_7="13000.00000" pt_clust_8="13000.00000" pt_clust_9="68.40313" pt_clust_10="34.43852"></scales>
<clustering>
<clus scale="   34.439">  2 10  1 -1</clus>
<clus scale="   68.403">  1  9  2 -1</clus>
<clus scale="   79.731">  5  6 -1 -1</clus>
<clus scale="   92.322">  7  8 -1 -1</clus>
<clus scale="   97.352">  1  5  2 -1</clus>
<clus scale="   34.439">  2  5  1 -1</clus>
</clustering>
</event>
<event>
10    4  0.2857708E-005  0.3423554E+03  0.7546771E-02  0.1066021E+00
         21   -1    0    0  501  502  0.00000000000E+00  0.00000000000E+00  0.40412649097E+03  0.40412649097E+03  0.00000000000E+00 0. -1.
          2   -1    0    0  503    0 -0.00000000000E+00 -0.00000000000E+00 -0.11117532290E+04  0.11117532290E+04  0.00000000000E+00 0. -1.
         24    2    1    2    0    0  0.18584496587E+03 -0.30430703338E+03 -0.78580920014E+03  0.86687493358E+03  0.82673632590E+02 0.  0.
         23    2    1    2    0    0 -0.21092958948E+03  0.24374378686E+03  0.23274956408E+03  0.40430708223E+03  0.73413430683E+02 0.  0.
        -13    1    3    3    0    0  0.11078976705E+02 -0.52945035927E+02 -0.18229435845E+03  0.19015034493E+03  0.00000000000E+00 0.  1.
         14    1    3    3    0    0  0.17476598916E+03 -0.25136199746E+03 -0.60351484170E+03  0.67672458865E+03  0.00000000000E+00 0. -1.
        -13    1    4    4    0    0 -0.99637925876E+02  0.10675381133E+03  0.15010339892E+03  0.20941614760E+03  0.00000000000E+00 0. -1.
         13    1    4    4    0    0 -0.11129166361E+03  0.13698997553E+03  0.82646165156E+02  0.19489093463E+03  0.00000000000E+00 0.  1.
         21    1    1    2  503  502  0.65406245799E+02  0.85948675397E+02 -0.16376221198E+03  0.19617138901E+03  0.00000000000E+00 0. -1.
          1    1    1    2  501    0 -0.40321622181E+02 -0.25385428877E+02  0.91951100153E+01  0.48526315158E+02  0.00000000000E+00 0. -1.
<scales pt_clust_5="13000.00000" pt_clust_6="13000.00000" pt_clust_7="13000.00000" pt_clust_8="13000.00000" pt_clust_9="106.08105" pt_clust_10="47.64717"></scales>
<clustering>
<clus scale="   47.647">  1 10  2 -1</clus>
<clus scale="   73.413">  7  8 -1 -1</clus>
<clus scale="   82.674">  5  6 -1 -1</clus>
<clus scale="  106.081">  2  9  1 -1</clus>
<clus scale="  340.238">  1  7  2 -1</clus>
<clus scale="   47.647">  1  5  2 -1</clus>
</clustering>
</event>
<event>
10    4  0.2857708E-005  0.1142765E+03  0.7546771E-02  0.1253089E+00
         21   -1    0    0  501  502  0.00000000000E+00  0.00000000000E+00  0.53641352122E+02  0.53641352122E+02  0.00000000000E+00 0. -1.
          2   -1    0    0  503    0 -0.00000000000E+00 -0.00000000000E+00 -0.16456782832E+04  0.16456782832E+04  0.00000000000E+00 0. -1.
         24    2    1    2    0    0 -0.68021893140E+02 -0.23309138159E+02 -0.10175411686E+04  0.10234029914E+04  0.82421837019E+02 0.  0.
         23    2    1    2    0    0  0.99809980673E+02  0.10468551389E+02 -0.31629703503E+03  0.34173813684E+03  0.81667110846E+02 0.  0.
        -11    1    3    3    0    0 -0.45695746026E+02  0.96097281006E+01 -0.22148981938E+03  0.22635853898E+03  0.00000000000E+00 0.  1.
         12    1    3    3    0    0 -0.22326147113E+02 -0.32918866260E+02 -0.79605134923E+03  0.79704445247E+03  0.00000000000E+00 0. -1.
        -11    1    4    4    0    0  0.29813361280E+02  0.42206313610E+02 -0.10830720615E+03  0.12000275132E+03  0.00000000000E+00 0.  1.
         11    1    4    4    0    0  0.69996619393E+02 -0.31737762222E+02 -0.20798982888E+03  0.22173538552E+03  0.00000000000E+00 0. -1.
         21    1    1    2  503  502  0.10267666151E+02 -0.31786850984E+02 -0.26972314206E+03  0.27178374165E+03  0.00000000000E+00 0. -1.
          1    1    1    2  501    0 -0.42055753685E+02  0.44627437754E+02  0.11524414594E+02  0.62394765407E+02  0.00000000000E+00 0. -1.
<scales pt_clust_5="13000.00000" pt_clust_6="13000.00000" pt_clust_7="13000.00000" pt_clust_8="13000.00000" pt_clust_9="33.40402" pt_clust_10="60.76360"></scales>
<clustering>
<clus scale="   33.404">  2  9  1 -1</clus>
<clus scale="   60.764">  1 10  2 -1</clus>
<clus scale="   81.667">  7  8 -1 -1</clus>
<clus scale="   82.422">  5  6 -1 -1</clus>
<clus scale="  113.733">  1  7  2 -1</clus>
<clus scale="   60.764">  1  5  2 -1</clus>
</clustering>
</event>
<event>
10    4  0.2857708E-005  0.1068583E+03  0.7546771E-02  0.1270735E+00
         -3   -1    0    0    0  501 -0.00000000000E+00  0.00000000000E+00  0.13012592816E+03  0.13012592816E+03  0.00000000000E+00 0.  1.
         21   -1    0    0  503  502  0.00000000000E+00 -0.00000000000E+00 -0.54254475440E+03  0.54254475440E+03  0.00000000000E+00 0.  1.
         24    2    1    2    0    0  0.27096065224E+02 -0.61470282088E+02 -0.10420687043E+03  0.14894202823E+03  0.82534014792E+02 0.  0.
         23    2    1    2    0    0 -0.33854419682E+02 -0.11484217374E+02 -0.35773399231E+03  0.37120355271E+03  0.92414605484E+02 0.  0.
        -11    1    3    3    0    0  0.36176620587E+02 -0.77896363716E+02 -0.73950508638E+02  0.11333697140E+03  0.00000000000E+00 0.  1.
         12    1    3    3    0    0 -0.90805553624E+01  0.16426081627E+02 -0.30256361788E+02  0.35605056831E+02  0.00000000000E+00 0. -1.
        -13    1    4    4    0    0 -0.11446978024E-01  0.33813947366E+02 -0.67307900366E+02  0.75324210047E+02  0.00000000000E+00 0. -1.
         13    1    4    4    0    0 -0.33842972704E+02 -0.45298164741E+02 -0.29042609195E+03  0.29587934266E+03  0.00000000000E+00 0.  1.
         21    1    1    2  503  501 -0.12461008150E+02 -0.33669139614E+02  0.11265203301E+02  0.37627018110E+02  0.00000000000E+00 0. -1.
         -4    1    1    2    0  502  0.19219362608E+02  0.10662363908E+03  0.38256833196E+02  0.11489808351E+03  0.00000000000E+00 0.  1.
<scales pt_clust_5="13000.00000" pt_clust_6="13000.00000" pt_clust_7="13000.00000" pt_clust_8="13000.00000" pt_clust_9="35.90108" pt_clust_10="82.85541"></scales>
<clustering>
<clus scale="   35.901">  1  9  2 -1</clus>
<clus scale="   82.534">  5  6 -1 -1</clus>
<clus scale="   82.855">  2 10  1 -1</clus>
<clus scale="   92.415">  7  8 -1 -1</clus>
<clus scale="   98.438">  1  5  2 -1</clus>
<clus scale="   82.855">  2  5  1 -1</clus>
</clustering>
</event>
<event>
10    4  0.2857708E-005  0.1334668E+03  0.7546771E-02  0.1224930E+00
          2   -1    0    0  503    0 -0.00000000000E+00  0.00000000000E+00  0.13145415586E+04  0.13145415586E+04  0.00000000000E+00 0. -1.
         21   -1    0    0  501  502  0.00000000000E+00 -0.00000000000E+00 -0.53790970366E+02  0.53790970366E+02  0.00000000000E+00 0.  1.
         23    2    1    2    0    0 -0.65811557003E+02 -0.83768204646E+02  0.52257417710E+03  0.54101410287E+03  0.90907732284E+02 0.  0.
         24    2    1    2    0    0  0.11113450829E+03  0.99062241567E+02  0.17204902299E+03  0.24133854243E+03  0.80493596705E+02 0.  0.
        -13    1    4    4    0    0  0.10066018702E+03  0.40561650359E+02  0.12500642063E+03  0.16554252001E+03  0.00000000000E+00 0.  1.
         14    1    4    4    0    0  0.10474321268E+02  0.58500591208E+02  0.47042602366E+02  0.75796022422E+02  0.00000000000E+00 0. -1.
        -11    1    3    3    0    0 -0.24604467059E+02 -0.40915486297E+00  0.25961741559E+02  0.35770927186E+02  0.00000000000E+00 0.  1.
         11    1    3    3    0    0 -0.41207089944E+02 -0.83359049783E+02  0.49661243554E+03  0.50524317569E+03  0.00000000000E+00 0. -1.
         21    1    1    2  503  502  0.43658361859E+01  0.51106850569E+02  0.36250659202E+03  0.36611746743E+03  0.00000000000E+00 0. -1.
          1    1    1    2  501    0 -0.49688787475E+02 -0.66400887490E+02  0.20362079611E+03  0.21986241623E+03  0.00000000000E+00 0. -1.
<scales pt_clust_5="13000.00000" pt_clust_6="13000.00000" pt_clust_7="13000.00000" pt_clust_8="13000.00000" pt_clust_9="51.29299" pt_clust_10="73.48224"></scales>
<clustering>
<clus scale="   51.293">  1  9  2 -1</clus>
<clus scale="   73.482">  2 10  1 -1</clus>
<clus scale="   80.494">  5  6 -1 -1</clus>
<clus scale="   90.908">  7  8 -1 -1</clus>
<clus scale="  126.603">  2  5  1 -1</clus>
<clus scale="   73.482">  2  5  1 -1</clus>
</clustering>
</event>
<event>
10    4  0.2857708E-005  0.2331825E+03  0.7546771E-02  0.1125191E+00
         -3   -1    0    0    0  501 -0.00000000000E+00  0.00000000000E+00  0.60810473344E+03  0.60810473344E+03  0.00000000000E+00 0.  1.
         21   -1    0    0  503  502  0.00000000000E+00 -0.00000000000E+00 -0.18575196039E+03  0.18575196039E+03  0.00000000000E+00 0.  1.
         24    2    1    2    0    0 -0.10092794765E+03 -0.20886950840E+03  0.29425575403E+03  0.38293459106E+03  0.78990696266E+02 0.  0.
         23    2    1    2    0    0  0.17212281564E+03  0.12493932874E+03  0.19984987097E+02  0.23219954040E+03  0.91000699565E+02 0.  0.
        -13    1    3    3    0    0 -0.11308362066E+03 -0.19566645485E+03  0.26182519075E+03  0.34586948019E+03  0.00000000000E+00 0.  1.
         14    1    3    3    0    0  0.12155673011E+02 -0.13203053549E+02  0.32430563280E+02  0.37065110873E+02  0.00000000000E+00 0. -1.
        -13    1    4    4    0    0  0.12145085800E+03  0.53917287530E+02 -0.23134858028E+02  0.13487997057E+03  0.00000000000E+00 0.  1.
         13    1    4    4    0    0  0.50671957639E+02  0.71022041207E+02  0.43119845125E+02  0.97319569829E+02  0.00000000000E+00 0. -1.
         21    1    1    2  503  501  0.19612973234E+02  0.90085100396E+01  0.31780338907E+02  0.38416297495E+02  0.00000000000E+00 0.  1.
         -4    1    1    2    0  502 -0.90807841225E+02  0.74921669623E+02  0.76331693015E+02  0.14030626488E+03  0.00000000000E+00 0.  1.
<scales pt_clust_5="13000.00000" pt_clust_6="13000.00000" pt_clust_7="13000.00000" pt_clust_8="13000.00000" pt_clust_9="21.58291" pt_clust_10="116.00777"></scales>
<clustering>
<clus scale="   21.583">  1  9  2 -1</clus>
<clus scale="   78.991">  5  6 -1 -1</clus>
<clus scale="   91.001">  7  8 -1 -1</clus>
<clus scale="  116.008">  2 10  1 -1</clus>
<clus scale="  228.763">  1  5  2 -1</clus>
<clus scale="  116.008">  2  5  1 -1</clus>
</clustering>
</event>
<event>
10    4  0.2857708E-005  0.9494581E+02  0.7546771E-02  0.1295170E+00
         -3   -1    0    0    0  501 -0.00000000000E+00  0.00000000000E+00  0.30602788445E+03  0.30602788445E+03  0.00000000000E+00 0.  1.
         21   -1    0    0  503  502  0.00000000000E+00 -0.00000000000E+00 -0.31733785374E+03  0.31733785374E+03  0.00000000000E+00 0. -1.
         23    2    1    2    0    0 -0.42349264449E+02 -0.77383116262E+01  0.15239111142E+03  0.18158899594E+03  0.88871654302E+02 0.  0.
         24    2    1    2    0    0  0.17321836547E+02 -0.55404384953E+02 -0.18528290275E+03  0.21068060043E+03  0.81773280800E+02 0.  0.
        -13    1    4    4    0    0 -0.18377722909E+02  0.11070716245E+02 -0.67262297325E+02  0.70601119672E+02  0.00000000000E+00 0.  1.
         14    1    4    4    0    0  0.35699559455E+02 -0.66475101199E+02 -0.11802060542E+03  0.14007948076E+03  0.00000000000E+00 0. -1.
        -11    1    3    3    0    0 -0.21926046415E+02 -0.26480406229E+02  0.14986127151E+03  0.15375423287E+03  0.00000000000E+00 0.  1.
         11    1    3    3    0    0 -0.20423218035E+02  0.18742094603E+02  0.25298399071E+01  0.27834763066E+02  0.00000000000E+00 0. -1.
         21    1    1    2  503  501  0.13051845081E+02  0.22251352773E+02  0.12058489061E+03  0.12331337804E+03  0.00000000000E+00 0.  1.
         -4    1    1    2    0  502  0.11975582822E+02  0.40891343807E+02 -0.99003068575E+02  0.10778276379E+03  0.00000000000E+00 0.  1.
<scales pt_clust_5="13000.00000" pt_clust_6="13000.00000" pt_clust_7="13000.00000" pt_clust_8="13000.00000" pt_clust_9="25.79677" pt_clust_10="43.20587"></scales>
<clustering>
<clus scale="   25.797">  1  9  2 -1</clus>
<clus scale="   43.206">  2 10  1 -1</clus>
<clus scale="   81.773">  5  6 -1 -1</clus>
<clus scale="   88.337">  2  5  1 -1</clus>
<clus scale="   88.872">  7  8 -1 -1</clus>
<clus scale="   43.206">  2  5  1 -1</clus>
</clustering>
</event>
<event>
10    4  0.2857708E-005  0.2035684E+03  0.7546771E-02  0.1148203E+00
         21   -1    0    0  501  502  0.00000000000E+00  0.00000000000E+00  0.25542613574E+03  0.25542613574E+03  0.00000000000E+00 0.  1.
          2   -1    0    0  503    0 -0.00000000000E+00 -0.00000000000E+00 -0.34985630014E+03  0.34985630014E+03  0.00000000000E+00 0. -1.
         23    2    1    2    0    0 -0.16429771153E+03 -0.46997061347E+02 -0.21880307920E+03  0.29271996148E+03  0.92777834595E+02 0.  0.
         24    2    1    2    0    0  0.16434412275E+03  0.55389901147E+02  0.13453178910E+03  0.23245887024E+03  0.76559076803E+02 0.  0.
        -13    1    4    4    0    0  0.13401814238E+03  0.70035259045E+02  0.87797961445E+02  0.17485503147E+03  0.00000000000E+00 0.  1.
         14    1    4    4    0    0  0.30325980377E+02 -0.14645357899E+02  0.46733827653E+02  0.57603838769E+02  0.00000000000E+00 0. -1.
        -11    1    3    3    0    0 -0.13948894843E+03 -0.36610379492E+01 -0.18772324323E+03  0.23390294137E+03  0.00000000000E+00 0. -1.
         11    1    3    3    0    0 -0.24808763099E+02 -0.43336023398E+02 -0.31079835966E+02  0.58817020106E+02  0.00000000000E+00 0.  1.
         21    1    1    2  503  502 -0.68827799796E+01 -0.28007827876E+02 -0.36524245552E+02  0.46538495847E+02  0.00000000000E+00 0. -1.
          1    1    1    2  501    0  0.68363687503E+01  0.19614988077E+02  0.26365371260E+02  0.33565108322E+02  0.00000000000E+00 0. -1.
<scales pt_clust_5="13000.00000" pt_clust_6="13000.00000" pt_clust_7="13000.00000" pt_clust_8="13000.00000" pt_clust_9="28.38191" pt_clust_10="20.77219"></scales>
<clustering>
<clus scale="   20.772">  1 10  2 -1</clus>
<clus scale="   28.382">  2  9  1 -1</clus>
<clus scale="   76.559">  5  6 -1 -1</clus>
<clus scale="   92.778">  7  8 -1 -1</clus>
<clus scale="  196.707">  1  5  2 -1</clus>
<clus scale="   20.772">  1  5  2 -1</clus>
</clustering>
</event>
<event>
10    4  0.2857708E-005  0.2721511E+03  0.7546771E-02  0.1100636E+00
         21   -1    0    0  501  502  0.00000000000E+00  0.00000000000E+00  0.32294743813E+03  0.32294743813E+03  0.00000000000E+00 0. -1.
          2   -1    0    0  503    0 -0.00000000000E+00 -0.00000000000E+00 -0.68225225403E+03  0.68225225403E+03  0.00000000000E+00 0. -1.
         23    2    1    2    0    0 -0.56953959850E+02  0.23671579627E+03 -0.21535585278E+03  0.33742449869E+03  0.90548480074E+02 0.  0.
         24    2    1    2    0    0  0.13541405959E+03 -0.24034733543E+03  0.17201337704E+03  0.33420346001E+03  0.77456707985E+02 0.  0.
        -13    1    4    4    0    0  0.27889015388E+02 -0.11612755348E+03  0.95747347893E+02  0.15307174946E+03  0.00000000000E+00 0.  1.
         14    1    4    4    0    0  0.10752504421E+03 -0.12421978196E+03  0.76266029151E+02  0.18113171054E+03  0.00000000000E+00 0. -1.
        -13    1    3    3    0    0 -0.23805567831E+02  0.33449863616E+01 -0.19040748108E+02  0.30666660758E+02  0.00000000000E+00 0. -1.
         13    1    3    3    0    0 -0.33148392018E+02  0.23337080991E+03 -0.19631510467E+03  0.30675783793E+03  0.00000000000E+00 0.  1.
         21    1    1    2  503  502 -0.11061076372E+02  0.23431647726E+02 -0.32660049960E+02  0.41690147385E+02  0.00000000000E+00 0.  1.
          1    1    1    2  501    0 -0.67399023372E+02 -0.19800108560E+02 -0.28330229021E+03  0.29188158607E+03  0.00000000000E+00 0. -1.
<scales pt_clust_5="13000.00000" pt_clust_6="13000.00000" pt_clust_7="13000.00000" pt_clust_8="13000.00000" pt_clust_9="25.91119" pt_clust_10="72.93267"></scales>
<clustering>
<clus scale="   25.911">  2  9  1 -1</clus>
<clus scale="   72.933">  1 10  2 -1</clus>
<clus scale="   77.457">  5  6 -1 -1</clus>
<clus scale="   90.548">  7  8 -1 -1</clus>
<clus scale="  268.080">  1  5  2 -1</clus>
<clus scale="   72.933">  1  5  2 -1</clus>
</clustering>
</event>
<event>
10    4  0.2857708E-005  0.1624567E+03  0.7546771E-02  0.1216317E+00
         21   -1    0    0  501  502  0.00000000000E+00  0.00000000000E+00  0.16925280329E+03  0.16925280329E+03  0.00000000000E+00 0. -1.
          2   -1    0    0  503    0 -0.00000000000E+00 -0.00000000000E+00 -0.27001124460E+03  0.27001124460E+03  0.00000000000E+00 0. -1.
         24    2    1    2    0    0 -0.13236692665E+02  0.26983821625E+02 -0.60909976866E+02  0.10460756276E+03  0.79557402191E+02 0.  0.
         23    2    1    2    0    0  0.10448765833E+03 -0.10019729109E+03  0.16091514519E+02  0.17382423240E+03  0.94861789175E+02 0.  0.
        -11    1    3    3    0    0 -0.16971077496E+02 -0.19252451718E+02  0.27810471336E+01  0.25814890891E+02  0.00000000000E+00 0.  1.
         12    1    3    3    0    0  0.37343848315E+01  0.46236273343E+02 -0.63691023999E+02  0.78792671873E+02  0.00000000000E+00 0. -1.
        -11    1    4    4    0    0  0.39852778825E+02 -0.97493837574E+02 -0.59191402896E+01  0.10549089329E+03  0.00000000000E+00 0.  1.
         11    1    4    4    0    0  0.64634879500E+02 -0.27034535163E+01  0.22010654808E+02  0.68333339111E+02  0.00000000000E+00 0. -1.
         21    1    1    2  503  502 -0.11533107215E+02 -0.16729124332E+02 -0.32580533610E+02  0.38397491237E+02  0.00000000000E+00 0.  1.
          1    1    1    2  501    0 -0.79717858446E+02  0.89942593797E+02 -0.23359445361E+02  0.12243476149E+03  0.00000000000E+00 0. -1.
<scales pt_clust_5="13000.00000" pt_clust_6="13000.00000" pt_clust_7="13000.00000" pt_clust_8="13000.00000" pt_clust_9="20.31935" pt_clust_10="131.88415"></scales>
<clustering>
<clus scale="   20.319">  2  9  1 -1</clus>
<clus scale="   79.557">  5  6 -1 -1</clus>
<clus scale="   84.103">  2  5  1 -1</clus>
<clus scale="   94.862">  7  8 -1 -1</clus>
<clus scale="  131.884">  1 10  2 -1</clus>
<clus scale="  131.884">  1  5  2 -1</clus>
</clustering>
</event>
<event>
10    4  0.2857708E-005  0.1503962E+03  0.7546771E-02  0.1201917E+00
         21   -1    0    0  501  502  0.00000000000E+00  0.00000000000E+00  0.48648997506E+03  0.48648997506E+03  0.00000000000E+00 0. -1.
          4   -1    0    0  503    0 -0.00000000000E+00 -0.00000000000E+00 -0.18296880214E+03  0.18296880214E+03  0.00000000000E+00 0. -1.
         24    2    1    2    0    0  0.11422256875E+03 -0.27972643924E+02 -0.35426061584E+02  0.14714046515E+03  0.81031146026E+02 0.  0.
         23    2    1    2    0    0 -0.36455439376E+02  0.14555189375E+03  0.23145381627E+03  0.29063277498E+03  0.91554289880E+02 0.  0.
        -11    1    3    3    0    0  0.10840627810E+03 -0.50425510414E+02 -0.31206852693E+02  0.12356585648E+03  0.00000000000E+00 0.  1.
         12    1    3    3    0    0  0.58162906489E+01  0.22452866490E+02 -0.42192088905E+01  0.23574608675E+02  0.00000000000E+00 0. -1.
        -13    1    4    4    0    0 -0.21455088007E+02  0.33162531887E+02  0.83517712678E+01  0.40371108553E+02  0.00000000000E+00 0.  1.
         13    1    4    4    0    0 -0.15000351369E+02  0.11238936186E+03  0.22310204500E+03  0.25026166643E+03  0.00000000000E+00 0. -1.
         21    1    1    2  503  502  0.85084935789E+01 -0.20981469711E+02 -0.33372367058E+02  0.40327799559E+02  0.00000000000E+00 0. -1.
          3    1    1    2  501    0 -0.86275622950E+02 -0.96597780115E+02  0.14086578530E+03  0.19135773751E+03  0.00000000000E+00 0. -1.
<scales pt_clust_5="13000.00000" pt_clust_6="13000.00000" pt_clust_7="13000.00000" pt_clust_8="13000.00000" pt_clust_9="22.64104" pt_clust_10="131.28827"></scales>
<clustering>
<clus scale="   22.641">  2  9  1 -1</clus>
<clus scale="   81.031">  5  6 -1 -1</clus>
<clus scale="   91.554">  7  8 -1 -1</clus>
<clus scale="  131.288">  1 10  2 -1</clus>
<clus scale="  144.232">  2  5  1 -1</clus>
<clus scale="  131.288">  1  5  2 -1</clus>
</clustering>
</event>
<event>
10    4  0.2857708E-005  0.1938826E+03  0.7546771E-02  0.1156721E+00
         21   -1    0    0  501  502  0.00000000000E+00  0.00000000000E+00  0.21518815451E+03  0.21518815451E+03  0.00000000000E+00 0. -1.
          2   -1    0    0  503    0 -0.00000000000E+00 -0.00000000000E+00 -0.11069159484E+04  0.11069159484E+04  0.00000000000E+00 0. -1.
         24    2    1    2    0    0 -0.97722784969E+02 -0.18917410317E+03 -0.62543587928E+03  0.66559489173E+03  0.80684179304E+02 0.  0.
         23    2    1    2    0    0  0.89221790836E+02  0.74904760748E+02 -0.46913207882E+02  0.15870606863E+03  0.97033581829E+02 0.  0.
        -13    1    3    3    0    0 -0.84048541436E+02 -0.18588879044E+03 -0.50974857250E+03  0.54905592328E+03  0.00000000000E+00 0.  1.
         14    1    3    3    0    0 -0.13674243533E+02 -0.32853127387E+01 -0.11568730679E+03  0.11653896845E+03  0.00000000000E+00 0. -1.
        -13    1    4    4    0    0  0.45264747808E+02 -0.11571776594E+02  0.77480197316E+01  0.47358581244E+02  0.00000000000E+00 0. -1.
         13    1    4    4    0    0  0.43957043028E+02  0.86476537341E+02 -0.54661227614E+02  0.11134748738E+03  0.00000000000E+00 0.  1.
         21    1    1    2  503  502  0.55301561799E+02  0.10450863595E+02 -0.33253481231E+03  0.33726382060E+03  0.00000000000E+00 0. -1.
          1    1    1    2  501    0 -0.46800567665E+02  0.10381847883E+03  0.11315610555E+03  0.16053932199E+03  0.00000000000E+00 0. -1.
<scales pt_clust_5="13000.00000" pt_clust_6="13000.00000" pt_clust_7="13000.00000" pt_clust_8="13000.00000" pt_clust_9="56.28040" pt_clust_10="113.48698"></scales>
<clustering>
<clus scale="   56.280">  2  9  1 -1</clus>
<clus scale="   80.684">  5  6 -1 -1</clus>
<clus scale="   97.034">  7  8 -1 -1</clus>
<clus scale="  113.487">  1 10  2 -1</clus>
<clus scale="  186.239">  2  5  1 -1</clus>
<clus scale="  113.487">  1  5  2 -1</clus>
</clustering>
</event>
<event>
10    4  0.2857708E-005  0.1553910E+03  0.7546771E-02  0.1195812E+00
         21   -1    0    0  503  502  0.00000000000E+00  0.00000000000E+00  0.11973830280E+03  0.11973830280E+03  0.00000000000E+00 0. -1.
         -1   -1    0    0    0  501 -0.00000000000E+00 -0.00000000000E+00 -0.35248531988E+03  0.35248531988E+03  0.00000000000E+00 0.  1.
         23    2    1    2    0    0 -0.15156016626E+03  0.41159380396E+02 -0.11496117168E+03  0.21493660379E+03  0.91198103401E+02 0.  0.
         24    2    1    2    0    0  0.10404360183E+03 -0.14509094157E+02 -0.26235947417E+02  0.13490331587E+03  0.80467352391E+02 0.  0.
        -11    1    4    4    0    0  0.13061477097E+02 -0.29113863851E+02 -0.28419751070E+02  0.42730568720E+02  0.00000000000E+00 0.  1.
         12    1    4    4    0    0  0.90982124735E+02  0.14604769694E+02  0.21838036529E+01  0.92172747151E+02  0.00000000000E+00 0. -1.
        -13    1    3    3    0    0 -0.72526887777E+02  0.22223399315E+02 -0.21319050378E+01  0.75885268313E+02  0.00000000000E+00 0. -1.
         13    1    3    3    0    0 -0.79033278485E+02  0.18935981081E+02 -0.11282926665E+03  0.13905133548E+03  0.00000000000E+00 0.  1.
         21    1    1    2  503  501  0.45891610033E+02  0.69021535140E+01 -0.63317857479E+02  0.78503698450E+02  0.00000000000E+00 0.  1.
         -2    1    1    2    0  502  0.16249543975E+01 -0.33552439753E+02 -0.28232040496E+02  0.43880004566E+02  0.00000000000E+00 0.  1.
<scales pt_clust_5="13000.00000" pt_clust_6="13000.00000" pt_clust_7="13000.00000" pt_clust_8="13000.00000" pt_clust_9="46.23385" pt_clust_10="33.59178"></scales>
<clustering>
<clus scale="   33.592">  1 10  2 -1</clus>
<clus scale="   46.234">  2  9  1 -1</clus>
<clus scale="   80.467">  5  6 -1 -1</clus>
<clus scale="   91.198">  7  8 -1 -1</clus>
<clus scale="  149.346">  1  5  2 -1</clus>
<clus scale="   33.592">  1  5  2 -1</clus>
</clustering>
</event>
<event>
10    4  0.2857708E-005  0.1116374E+03  0.7546771E-02  0.1261895E+00
         21   -1    0    0  501  502  0.00000000000E+00  0.00000000000E+00  0.65827989491E+02  0.65827989491E+02  0.00000000000E+00 0.  1.
          2   -1    0    0  503    0 -0.00000000000E+00 -0.00000000000E+00 -0.52456019778E+03  0.52456019778E+03  0.00000000000E+00 0. -1.
         23    2    1    2    0    0 -0.64138082753E+02  0.33023228067E+02 -0.14303277417E+03  0.18431325738E+03  0.91152482724E+02 0.  0.
         24    2    1    2    0    0  0.74629227962E+02  0.10538873927E+02 -0.78491865171E+02  0.13490729821E+03  0.79739680729E+02 0.  0.
        -11    1    4    4    0    0  0.74280871588E+02  0.18836082079E+02 -0.91576493024E+02  0.11940979837E+03  0.00000000000E+00 0.  1.
         12    1    4    4    0    0  0.34835637350E+00 -0.82972081527E+01  0.13084627853E+02  0.15497499842E+02  0.00000000000E+00 0. -1.
        -11    1    3    3    0    0  0.12456823166E+02  0.36696039509E+02 -0.58608291921E+02  0.70261679748E+02  0.00000000000E+00 0. -1.
         11    1    3    3    0    0 -0.76594905919E+02 -0.36728114424E+01 -0.84424482248E+02  0.11405157763E+03  0.00000000000E+00 0.  1.
         21    1    1    2  503  502  0.25498990315E+02 -0.10252662988E+02 -0.21599674564E+03  0.21773816784E+03  0.00000000000E+00 0.  1.
          1    1    1    2  501    0 -0.35990135523E+02 -0.33309439005E+02 -0.21210823310E+02  0.53429463850E+02  0.00000000000E+00 0. -1.
<scales pt_clust_5="13000.00000" pt_clust_6="13000.00000" pt_clust_7="13000.00000" pt_clust_8="13000.00000" pt_clust_9="27.48301" pt_clust_10="47.70896"></scales>
<clustering>
<clus scale="   27.483">  2  9  1 -1</clus>
<clus scale="   47.709">  1 10  2 -1</clus>
<clus scale="   79.740">  5  6 -1 -1</clus>
<clus scale="   91.152">  7  8 -1 -1</clus>
<clus scale="  102.531">  1  5  2 -1</clus>
<clus scale="   47.709">  1  5  2 -1</clus>
</clustering>
</event>
<event>
10    4  0.2857708E-005  0.1571858E+03  0.7546771E-02  0.1196236E+00
         -1   -1    0    0    0  501 -0.00000000000E+00  0.00000000000E+00  0.22765550675E+03  0.22765550675E+03  0.00000000000E+00 0.  1.
         21   -1    0    0  503  502  0.00000000000E+00 -0.00000000000E+00 -0.50411703170E+03  0.50411703170E+03  0.00000000000E+00 0. -1.
         23    2    1    2    0    0  0.10593638765E+03  0.15832624076E+02  0.13544946037E+03  0.20145494755E+03  0.10375138247E+03 0.  0.
         24    2    1    2    0    0 -0.14921897130E+03  0.53143801399E+02 -0.20370576025E+03  0.27033331815E+03  0.80582263069E+02 0.  0.
        -11    1    4    4    0    0 -0.13044274319E+02  0.18766047070E+02 -0.79912936948E+02  0.83116755873E+02  0.00000000000E+00 0.  1.
         12    1    4    4    0    0 -0.13617469698E+03  0.34377754329E+02 -0.12379282330E+03  0.18721656228E+03  0.00000000000E+00 0. -1.
        -13    1    3    3    0    0  0.25858768237E+02  0.51778430078E+02  0.33295522377E+02  0.66770304226E+02  0.00000000000E+00 0. -1.
         13    1    3    3    0    0  0.80077619409E+02 -0.35945806002E+02  0.10215393799E+03  0.13468464332E+03  0.00000000000E+00 0.  1.
         21    1    1    2  503  501  0.73996608671E+01 -0.25080681965E+02  0.14688799652E+02  0.29992606155E+02  0.00000000000E+00 0.  1.
         -2    1    1    2    0  502  0.35882922789E+02 -0.43895743509E+02 -0.22289402472E+03  0.22999166660E+03  0.00000000000E+00 0.  1.
<scales pt_clust_5="13000.00000" pt_clust_6="13000.00000" pt_clust_7="13000.00000" pt_clust_8="13000.00000" pt_clust_9="26.14949" pt_clust_10="57.11272"></scales>
<clustering>
<clus scale="   26.149">  1  9  2 -1</clus>
<clus scale="   57.113">  2 10  1 -1</clus>
<clus scale="   80.582">  5  6 -1 -1</clus>
<clus scale="  103.751">  7  8 -1 -1</clus>
<clus scale="  142.956">  2  5  1 -1</clus>
<clus scale="   57.113">  2  5  1 -1</clus>
</clustering>
</event>
<event>
10    4  0.2857708E-005  0.9460722E+02  0.7546771E-02  0.1297274E+00
         21   -1    0    0  501  502  0.00000000000E+00  0.00000000000E+00  0.28337091958E+03  0.28337091958E+03  0.00000000000E+00 0.  1.
          2   -1    0    0  503    0 -0.00000000000E+00 -0.00000000000E+00 -0.16966817971E+03  0.16966817971E+03  0.00000000000E+00 0. -1.
         23    2    1    2    0    0  0.16362212179E+02 -0.19950333510E+02 -0.12019614112E+03  0.15240629472E+03  0.90082343087E+02 0.  0.
         24    2    1    2    0    0 -0.40971244299E+02  0.32975775164E+02  0.98589657301E+02  0.13792887461E+03  0.80860431104E+02 0.  0.
        -13    1    4    4    0    0  0.10223586189E+02  0.39110424462E+02  0.64488288850E+02  0.76111013756E+02  0.00000000000E+00 0.  1.
         14    1    4    4    0    0 -0.51194830489E+02 -0.61346492976E+01  0.34101368451E+02  0.61817860857E+02  0.00000000000E+00 0. -1.
        -11    1    3    3    0    0  0.39872711069E+01  0.33098763029E+02 -0.21482850316E+02  0.39660298822E+02  0.00000000000E+00 0.  1.
         11    1    3    3    0    0  0.12374941072E+02 -0.53049096539E+02 -0.98713290802E+02  0.11274599590E+03  0.00000000000E+00 0. -1.
         21    1    1    2  503  502 -0.22241504934E+02  0.10364133852E+02  0.92886508106E+01  0.26236974789E+02  0.00000000000E+00 0.  1.
          1    1    1    2  501    0  0.46850537054E+02 -0.23389575505E+02  0.12602057288E+03  0.13646695517E+03  0.00000000000E+00 0. -1.
<scales pt_clust_5="13000.00000" pt_clust_6="13000.00000" pt_clust_7="13000.00000" pt_clust_8="13000.00000" pt_clust_9="24.53772" pt_clust_10="40.24556"></scales>
<clustering>
<clus scale="   24.538">  1  9  2 -1</clus>
<clus scale="   40.246">  1 10  2 -1</clus>
<clus scale="   80.860">  5  6 -1 -1</clus>
<clus scale="   85.873">  1  5  2 -1</clus>
<clus scale="   90.082">  7  8 -1 -1</clus>
<clus scale="   24.538">  1  5  2 -1</clus>
</clustering>
</event>
<event>
10    4  0.2857708E-005  0.1614007E+03  0.7546771E-02  0.1217164E+00
         21   -1    0    0  501  502  0.00000000000E+00  0.00000000000E+00  0.29174544477E+03  0.29174544477E+03  0.00000000000E+00 0. -1.
         -1   -1    0    0    0  501 -0.00000000000E+00 -0.00000000000E+00 -0.22529070511E+03  0.22529070511E+03  0.00000000000E+00 0.  1.
         24    2    1    2    0    0  0.42347015055E+01 -0.28702455109E+02  0.22044839273E+02  0.87081840283E+02  0.79091771647E+02 0.  0.
         23    2    1    2    0    0  0.13045543192E+03  0.24944730759E+02  0.17448504116E+03  0.23775242788E+03  0.91871258096E+02 0.  0.
        -13    1    3    3    0    0 -0.98677382288E+01 -0.53665168000E+02  0.79742973823E+01  0.55144464210E+02  0.00000000000E+00 0.  1.
         14    1    3    3    0    0  0.14102439734E+02  0.24962712891E+02  0.14070541891E+02  0.31937376073E+02  0.00000000000E+00 0. -1.
        -11    1    4    4    0    0  0.66004151640E+02 -0.31216346471E+02  0.57906065585E+02  0.93188629952E+02  0.00000000000E+00 0.  1.
         11    1    4    4    0    0  0.64451280282E+02  0.56161077230E+02  0.11657897557E+03  0.14456379793E+03  0.00000000000E+00 0. -1.
         21    1    1    2  503  502 -0.28760707117E+02 -0.10593945111E+02 -0.11970900114E+02  0.32904595369E+02  0.00000000000E+00 0. -1.
         -2    1    1    2    0  503 -0.10592942631E+03  0.14351669461E+02 -0.11810424066E+03  0.15929728634E+03  0.00000000000E+00 0.  1.
<scales pt_clust_5="13000.00000" pt_clust_6="13000.00000" pt_clust_7="13000.00000" pt_clust_8="13000.00000" pt_clust_9="23.13348" pt_clust_10="139.55767"></scales>
<clustering>
<clus scale="   23.133">  9 10 -1 -1</clus>
<clus scale="   79.092">  5  6 -1 -1</clus>
<clus scale="   84.245">  2  5  1 -1</clus>
<clus scale="   91.871">  7  8 -1 -1</clus>
<clus scale="  139.558">  1  9  2 -1</clus>
<clus scale="  139.558">  1  5  2 -1</clus>
</clustering>
</event>
<event>
10    4  0.2857708E-005  0.1644532E+03  0.7546771E-02  0.1194141E+00
         -1   -1    0    0    0  501 -0.00000000000E+00  0.00000000000E+00  0.84997502489E+03  0.84997502489E+03  0.00000000000E+00 0.  1.
         21   -1    0    0  503  502  0.00000000000E+00 -0.00000000000E+00 -0.92355848493E+02  0.92355848493E+02  0.00000000000E+00 0.  1.
         23    2    1    2    0    0 -0.53069680493E+02 -0.76073366918E+02  0.39597970623E+03  0.41579123842E+03  0.86480506845E+02 0.  0.
         24    2    1    2    0    0 -0.10299733547E+03 -0.43414923088E+02  0.13640075047E+03  0.19408534443E+03  0.81059543117E+02 0.  0.
        -13    1    4    4    0    0 -0.66609273400E+02 -0.49246053819E+02  0.42271476878E+02  0.92999176755E+02  0.00000000000E+00 0.  1.
         14    1    4    4    0    0 -0.36388062075E+02  0.58311307312E+01  0.94129273596E+02  0.10108616767E+03  0.00000000000E+00 0. -1.
        -13    1    3    3    0    0 -0.14817602993E+02 -0.84473628451E+02  0.30291185571E+03  0.31481891238E+03  0.00000000000E+00 0.  1.
         13    1    3    3    0    0 -0.38252077500E+02  0.84002615329E+01  0.93067850519E+02  0.10097232605E+03  0.00000000000E+00 0. -1.
         21    1    1    2  503  501  0.38873300029E+02 -0.30963684756E+02  0.73591032042E+02  0.88800468613E+02  0.00000000000E+00 0. -1.
         -2    1    1    2    0  502  0.11719371594E+03  0.15045197476E+03  0.15164768766E+03  0.24365382192E+03  0.00000000000E+00 0.  1.
<scales pt_clust_5="13000.00000" pt_clust_6="13000.00000" pt_clust_7="13000.00000" pt_clust_8="13000.00000" pt_clust_9="49.69792" pt_clust_10="143.08822"></scales>
<clustering>
<clus scale="   49.698">  1  9  2 -1</clus>
<clus scale="   81.060">  5  6 -1 -1</clus>
<clus scale="   86.481">  7  8 -1 -1</clus>
<clus scale="  130.690">  1  7  2 -1</clus>
<clus scale="  143.088">  2 10  1 -1</clus>
<clus scale="  143.088">  2  5  1 -1</clus>
</clustering>
</event>
<event>
10    4  0.2857708E-005  0.1899378E+03  0.7546771E-02  0.1179539E+00
         21   -1    0    0  501  502  0.00000000000E+00  0.00000000000E+00  0.11388994998E+03  0.11388994998E+03  0.00000000000E+00 0. -1.
          4   -1    0    0  503    0 -0.00000000000E+00 -0.00000000000E+00 -0.95743120452E+03  0.95743120452E+03  0.00000000000E+00 0. -1.
         23    2    1    2    0    0 -0.15766827062E+02 -0.72810186449E+02 -0.16790053811E+03  0.20670807808E+03  0.94803600967E+02 0.  0.
         24    2    1    2    0    0 -0.12366258197E+03  0.18044878980E+03 -0.41714072943E+03  0.47805320438E+03  0.81696255412E+02 0.  0.
        -11    1    4    4    0    0 -0.37943160220E+02  0.88612702792E+02 -0.25723133029E+03  0.27469956641E+03  0.00000000000E+00 0.  1.
         12    1    4    4    0    0 -0.85719421749E+02  0.91836087004E+02 -0.15990939914E+03  0.20335363797E+03  0.00000000000E+00 0. -1.
        -13    1    3    3    0    0 -0.27560057048E+02 -0.41481538877E+02 -0.16585490987E+03  0.17317079990E+03  0.00000000000E+00 0. -1.
         13    1    3    3    0    0  0.11793229986E+02 -0.31328647572E+02 -0.20456282460E+01  0.33537278171E+02  0.00000000000E+00 0.  1.
         21    1    1    2  503  502  0.36472630894E+02  0.15728371625E+02 -0.21699675734E+03  0.22060196548E+03  0.00000000000E+00 0. -1.
          3    1    1    2  501    0  0.10295677814E+03 -0.12336697497E+03 -0.41503229649E+02  0.16595790656E+03  0.00000000000E+00 0. -1.
<scales pt_clust_5="13000.00000" pt_clust_6="13000.00000" pt_clust_7="13000.00000" pt_clust_8="13000.00000" pt_clust_9="39.71945" pt_clust_10="171.47034"></scales>
<clustering>
<clus scale="   39.719">  2  9  1 -1</clus>
<clus scale="   81.696">  5  6 -1 -1</clus>
<clus scale="   94.804">  7  8 -1 -1</clus>
<clus scale="  117.331">  2  7  1 -1</clus>
<clus scale="  171.470">  1 10  2 -1</clus>
<clus scale="  171.470">  1  5  2 -1</clus>
</clustering>
</event>
<event>
10    4  0.2857708E-005  0.1009781E+03  0.7546771E-02  0.1283313E+00
          2   -1    0    0  503    0 -0.00000000000E+00  0.00000000000E+00  0.29761665415E+03  0.29761665415E+03  0.00000000000E+00 0. -1.
         21   -1    0    0  501  502  0.00000000000E+00 -0.00000000000E+00 -0.39865173627E+03  0.39865173627E+03  0.00000000000E+00 0.  1.
         23    2    1    2    0    0  0.31915029385E+02  0.47756588999E+02  0.24029730366E+03  0.26326405948E+03  0.90917049941E+02 0.  0.
         24    2    1    2    0    0 -0.18790756313E+02 -0.75830233117E+02 -0.87468714918E+02  0.14225213586E+03  0.80508243619E+02 0.  0.
        -11    1    4    4    0    0 -0.48119002081E+00 -0.64002729071E+02 -0.13865606664E+02  0.65489204610E+02  0.00000000000E+00 0.  1.
         12    1    4    4    0    0 -0.18309566292E+02 -0.11827504047E+02 -0.73603108254E+02  0.76762931252E+02  0.00000000000E+00 0. -1.
        -13    1    3    3    0    0  0.32930818984E+02 -0.10078664346E+02  0.16367713193E+03  0.16726093935E+03  0.00000000000E+00 0.  1.
         13    1    3    3    0    0 -0.10157895996E+01  0.57835253345E+02  0.76620171729E+02  0.96003120125E+02  0.00000000000E+00 0. -1.
         21    1    1    2  503  502 -0.24207228514E+02 -0.12803258865E+02  0.55184782486E+01  0.27935048811E+02  0.00000000000E+00 0.  1.
          1    1    1    2  501    0  0.11082955443E+02  0.40876902984E+02 -0.25938214911E+03  0.26281714628E+03  0.00000000000E+00 0. -1.
<scales pt_clust_5="13000.00000" pt_clust_6="13000.00000" pt_clust_7="13000.00000" pt_clust_8="13000.00000" pt_clust_9="27.38455" pt_clust_10="42.23861"></scales>
<clustering>
<clus scale="   27.385">  1  9  2 -1</clus>
<clus scale="   42.239">  2 10  1 -1</clus>
<clus scale="   80.508">  5  6 -1 -1</clus>
<clus scale="   90.917">  7  8 -1 -1</clus>
<clus scale="   91.718">  2  5  1 -1</clus>
<clus scale="   42.239">  2  5  1 -1</clus>
</clustering>
</event>
<event>
10    4  0.2857708E-005  0.1401674E+03  0.7546771E-02  0.1235094E+00
          2   -1    0    0  503    0 -0.00000000000E+00  0.00000000000E+00  0.86544210798E+03  0.86544210798E+03  0.00000000000E+00 0. -1.
         21   -1    0    0  501  502  0.00000000000E+00 -0.00000000000E+00 -0.10327385312E+03  0.10327385312E+03  0.00000000000E+00 0. -1.
         24    2    1    2    0    0  0.34393257449E+02 -0.17840086249E+02  0.32744164010E+03  0.33923041085E+03  0.79737564158E+02 0.  0.
         23    2    1    2    0    0  0.10027512911E+03  0.59561008717E+02  0.17576924824E+03  0.22902096630E+03  0.89180486093E+02 0.  0.
        -11    1    3    3    0    0  0.32442358419E+01 -0.41154631168E+02  0.95393691561E+02  0.10394318218E+03  0.00000000000E+00 0.  1.
         12    1    3    3    0    0  0.31149021607E+02  0.23314544918E+02  0.23204794854E+03  0.23528722866E+03  0.00000000000E+00 0. -1.
        -13    1    4    4    0    0  0.22073697991E+02  0.29296912330E+02  0.27887521822E+01  0.36787692967E+02  0.00000000000E+00 0.  1.
         13    1    4    4    0    0  0.78201431119E+02  0.30264096386E+02  0.17298049606E+03  0.19223327333E+03  0.00000000000E+00 0. -1.
         21    1    1    2  503  502 -0.27551965583E+02 -0.27894454089E+02  0.28636474792E+03  0.28903629569E+03  0.00000000000E+00 0.  1.
          1    1    1    2  501    0 -0.10711642098E+03 -0.13826468379E+02 -0.27407381404E+02  0.11142828827E+03  0.00000000000E+00 0. -1.
<scales pt_clust_5="13000.00000" pt_clust_6="13000.00000" pt_clust_7="13000.00000" pt_clust_8="13000.00000" pt_clust_9="39.20729" pt_clust_10="108.13761"></scales>
<clustering>
<clus scale="   39.207">  1  9  2 -1</clus>
<clus scale="   79.738">  5  6 -1 -1</clus>
<clus scale="   88.610">  1  5  2 -1</clus>
<clus scale="   89.180">  7  8 -1 -1</clus>
<clus scale="  108.138">  2 10  1 -1</clus>
<clus scale="  108.138">  2  5  1 -1</clus>
</clustering>
</event>
<event>
10    4  0.2857708E-005  0.1274908E+03  0.7546771E-02  0.1243655E+00
         21   -1    0    0  501  502  0.00000000000E+00  0.00000000000E+00  0.50330829181E+03  0.50330829181E+03  0.00000000000E+00 0. -1.
          2   -1    0    0  503    0 -0.00000000000E+00 -0.00000000000E+00 -0.21485882667E+03  0.21485882667E+03  0.00000000000E+00 0. -1.
         23    2    1    2    0    0  0.12582726574E+02  0.31014850909E+02  0.24748382327E+03  0.26649667973E+03  0.93016082167E+02 0.  0.
         24    2    1    2    0    0  0.32845135611E+02  0.29539962195E+02 -0.15102820276E+03  0.17663326885E+03  0.80239524762E+02 0.  0.
        -13    1    4    4    0    0  0.27080415489E+02  0.27878285902E+00 -0.49359948554E+01  0.27527997896E+02  0.00000000000E+00 0.  1.
         14    1    4    4    0    0  0.57647201226E+01  0.29261179336E+02 -0.14609220791E+03  0.14910527095E+03  0.00000000000E+00 0. -1.
        -13    1    3    3    0    0  0.24758664942E+02 -0.27407206654E+02  0.68453073004E+02  0.77781550961E+02  0.00000000000E+00 0.  1.
         13    1    3    3    0    0 -0.12175938368E+02  0.58422057563E+02  0.17903075027E+03  0.18871512877E+03  0.00000000000E+00 0. -1.
         21    1    1    2  503  502  0.47866158941E+02 -0.15863694900E+02 -0.68548048635E+01  0.50890218484E+02  0.00000000000E+00 0. -1.
          1    1    1    2  501    0 -0.93294021126E+02 -0.44691118204E+02  0.19884864949E+03  0.22414695141E+03  0.00000000000E+00 0. -1.
<scales pt_clust_5="13000.00000" pt_clust_6="13000.00000" pt_clust_7="13000.00000" pt_clust_8="13000.00000" pt_clust_9="50.42644" pt_clust_10="99.07338"></scales>
<clustering>
<clus scale="   50.426">  2  9  1 -1</clus>
<clus scale="   80.240">  5  6 -1 -1</clus>
<clus scale="   93.016">  7  8 -1 -1</clus>
<clus scale="   98.945">  2  7  1 -1</clus>
<clus scale="   99.073">  1 10  2 -1</clus>
<clus scale="   99.073">  1  5  2 -1</clus>
</clustering>
</event>
<event>
10    4  0.2857708E-005  0.1498997E+03  0.7546771E-02  0.1202893E+00
          2   -1    0    0  503    0 -0.00000000000E+00  0.00000000000E+00  0.30459340561E+03  0.30459340561E+03  0.00000000000E+00 0. -1.
         21   -1    0    0  501  502  0.00000000000E+00 -0.00000000000E+00 -0.55624469573E+03  0.55624469573E+03  0.00000000000E+00 0. -1.
         24    2    1    2    0    0 -0.49491077160E+02  0.85981832769E+02  0.13619795300E+03  0.18633116802E+03  0.79543569748E+02 0.  0.
         23    2    1    2    0    0  0.10151304006E+03 -0.73135352369E+01 -0.24301326711E+03  0.27904985020E+03  0.91950996746E+02 0.  0.
        -13    1    3    3    0    0 -0.23169555058E+02  0.95930369112E+02  0.10019004867E+03  0.14063253483E+03  0.00000000000E+00 0.  1.
         14    1    3    3    0    0 -0.26321522102E+02 -0.99485363429E+01  0.36007904328E+02  0.45698633188E+02  0.00000000000E+00 0. -1.
        -11    1    4    4    0    0  0.59479137832E+02 -0.25165090632E+01 -0.40112165673E+02  0.71785001846E+02  0.00000000000E+00 0. -1.
         11    1    4    4    0    0  0.42033902230E+02 -0.47970261737E+01 -0.20290110144E+03  0.20726484835E+03  0.00000000000E+00 0.  1.
         21    1    1    2  503  502 -0.36132496462E+02  0.12125508059E+02  0.11426268895E+03  0.12045143143E+03  0.00000000000E+00 0. -1.
          1    1    1    2  501    0 -0.15889466440E+02 -0.90793805592E+02 -0.25909866496E+03  0.27500565169E+03  0.00000000000E+00 0. -1.
<scales pt_clust_5="13000.00000" pt_clust_6="13000.00000" pt_clust_7="13000.00000" pt_clust_8="13000.00000" pt_clust_9="38.11280" pt_clust_10="91.94486"></scales>
<clustering>
<clus scale="   38.113">  1  9  2 -1</clus>
<clus scale="   79.544">  5  6 -1 -1</clus>
<clus scale="   91.945">  2 10  1 -1</clus>
<clus scale="   91.951">  7  8 -1 -1</clus>
<clus scale="  142.626">  1  5  2 -1</clus>
<clus scale="   91.945">  2  5  1 -1</clus>
</clustering>
</event>
<event>
10    4  0.2857708E-005  0.1817562E+03  0.7546771E-02  0.1167766E+00
         21   -1    0    0  501  502  0.00000000000E+00  0.00000000000E+00  0.54359255997E+03  0.54359255997E+03  0.00000000000E+00 0. -1.
          2   -1    0    0  503    0 -0.00000000000E+00 -0.00000000000E+00 -0.82559539818E+03  0.82559539818E+03  0.00000000000E+00 0. -1.
         24    2    1    2    0    0  0.85214263519E+01 -0.15311656147E+03 -0.68874379889E+03  0.71001994887E+03  0.79012727966E+02 0.  0.
         23    2    1    2    0    0  0.61350618998E+02  0.22915429110E+03  0.28016363295E+03  0.37871714106E+03  0.93056026830E+02 0.  0.
        -13    1    3    3    0    0  0.33152854477E+02 -0.50731701960E+02 -0.16460200748E+03  0.17540421378E+03  0.00000000000E+00 0.  1.
         14    1    3    3    0    0 -0.24631428125E+02 -0.10238485951E+03 -0.52414179141E+03  0.53461573510E+03  0.00000000000E+00 0. -1.
        -13    1    4    4    0    0 -0.34792207132E+01  0.13562990315E+03  0.11339268866E+03  0.17682046671E+03  0.00000000000E+00 0. -1.
         13    1    4    4    0    0  0.64829839711E+02  0.93524387951E+02  0.16677094429E+03  0.20189667436E+03  0.00000000000E+00 0.  1.
         21    1    1    2  503  502 -0.35998107109E+02  0.30015445463E+01 -0.62809155870E+02  0.72455938654E+02  0.00000000000E+00 0. -1.
          1    1    1    2  501    0 -0.33873938241E+02 -0.79039274176E+02  0.18938648360E+03  0.20799492956E+03  0.00000000000E+00 0. -1.
<scales pt_clust_5="13000.00000" pt_clust_6="13000.00000" pt_clust_7="13000.00000" pt_clust_8="13000.00000" pt_clust_9="36.12303" pt_clust_10="86.13338"></scales>
<clustering>
<clus scale="   36.123">  2  9  1 -1</clus>
<clus scale="   79.013">  5  6 -1 -1</clus>
<clus scale="   86.133">  1 10  2 -1</clus>
<clus scale="   93.056">  7  8 -1 -1</clus>
<clus scale="  174.983">  2  5  1 -1</clus>
<clus scale="   86.133">  1  5  2 -1</clus>
</clustering>
</event>
<event>
10    4  0.2857708E-005  0.1629489E+03  0.7546771E-02  0.1195158E+00
          4   -1    0    0  503    0 -0.00000000000E+00  0.00000000000E+00  0.11629758899E+04  0.11629758899E+04  0.00000000000E+00 0. -1.
         21   -1    0    0  501  502  0.00000000000E+00 -0.00000000000E+00 -0.63374945360E+02  0.63374945360E+02  0.00000000000E+00 0. -1.
         23    2    1    2    0    0  0.37891010829E+02  0.81530207363E+02  0.19874852412E+03  0.23690057682E+03  0.92401320553E+02 0.  0.
         24    2    1    2    0    0 -0.15129915101E+03  0.38628910440E+02  0.67463917287E+03  0.69716164559E+03  0.80701429314E+02 0.  0.
        -11    1    4    4    0    0 -0.59110575613E+02  0.25105076058E+02  0.13450764367E+03  0.14905244446E+03  0.00000000000E+00 0.  1.
         12    1    4    4    0    0 -0.92188575395E+02  0.13523834383E+02  0.54013152920E+03  0.54810920113E+03  0.00000000000E+00 0. -1.
        -11    1    3    3    0    0 -0.52081937781E+01  0.82507168347E+02  0.10439423028E+03  0.13316423479E+03  0.00000000000E+00 0. -1.
         11    1    3    3    0    0  0.43099204607E+02 -0.97696098387E+00  0.94354293840E+02  0.10373634202E+03  0.00000000000E+00 0.  1.
         21    1    1    2  503  502  0.33548396311E+02  0.25882685068E+01  0.72818810414E+02  0.80217037959E+02  0.00000000000E+00 0. -1.
          3    1    1    2  501    0  0.79859743869E+02 -0.12274738631E+03  0.15339443715E+03  0.21207157491E+03  0.00000000000E+00 0. -1.
<scales pt_clust_5="13000.00000" pt_clust_6="13000.00000" pt_clust_7="13000.00000" pt_clust_8="13000.00000" pt_clust_9="33.64809" pt_clust_10="141.56136"></scales>
<clustering>
<clus scale="   33.648">  1  9  2 -1</clus>
<clus scale="   80.701">  5  6 -1 -1</clus>
<clus scale="   92.401">  7  8 -1 -1</clus>
<clus scale="  131.380">  1  7  2 -1</clus>
<clus scale="  141.561">  2 10  1 -1</clus>
<clus scale="  141.561">  2  5  1 -1</clus>
</clustering>
</event>
<event>
10    4  0.2857708E-005  0.2071817E+03  0.7546771E-02  0.1164218E+00
         -1   -1    0    0    0  501 -0.00000000000E+00  0.00000000000E+00  0.16442069246E+03  0.16442069246E+03  0.00000000000E+00 0.  1.
         21   -1    0    0  503  502  0.00000000000E+00 -0.00000000000E+00 -0.55952348114E+03  0.55952348114E+03  0.00000000000E+00 0.  1.
         24    2    1    2    0    0 -0.56790393075E+02  0.79869392378E+02 -0.21701406314E+03  0.25182352924E+03  0.81949482565E+02 0.  0.
         23    2    1    2    0    0  0.16435306158E+03  0.57369512791E+02 -0.94259368225E+02  0.22199916033E+03  0.10047690701E+03 0.  0.
        -11    1    3    3    0    0 -0.71778349378E+02  0.78855212164E+02 -0.15581929326E+03  0.18881188543E+03  0.00000000000E+00 0.  1.
         12    1    3    3    0    0  0.14987956303E+02  0.10141802140E+01 -0.61194769878E+02  0.63011643814E+02  0.00000000000E+00 0. -1.
        -11    1    4    4    0    0  0.13441390360E+03  0.85958870825E+02 -0.76793459691E+02  0.17706851896E+03  0.00000000000E+00 0.  1.
         11    1    4    4    0    0  0.29939157982E+02 -0.28589358035E+02 -0.17465908535E+02  0.44930641376E+02  0.00000000000E+00 0. -1.
         21    1    1    2  503  501  0.20755207928E+02  0.20320072228E+02  0.28914566038E+01  0.29189801520E+02  0.00000000000E+00 0.  1.
         -2    1    1    2    0  502 -0.12831787643E+03 -0.15755897740E+03 -0.86720813919E+02  0.22093168251E+03  0.00000000000E+00 0.  1.
<scales pt_clust_5="13000.00000" pt_clust_6="13000.00000" pt_clust_7="13000.00000" pt_clust_8="13000.00000" pt_clust_9="29.04624" pt_clust_10="181.18688"></scales>
<clustering>
<clus scale="   29.046">  1  9  2 -1</clus>
<clus scale="   81.949">  5  6 -1 -1</clus>
<clus scale="  100.477">  7  8 -1 -1</clus>
<clus scale="  128.202">  1  5  2 -1</clus>
<clus scale="  181.187">  2 10  1 -1</clus>
<clus scale="  181.187">  2  5  1 -1</clus>
</clustering>
</event>
<event>
10    4  0.2857708E-005  0.1876700E+03  0.7546771E-02  0.1162273E+00
          2   -1    0    0  502    0 -0.00000000000E+00  0.00000000000E+00  0.37818680373E+03  0.37818680373E+03  0.00000000000E+00 0. -1.
         21   -1    0    0  503  502  0.00000000000E+00 -0.00000000000E+00 -0.23130353208E+03  0.23130353208E+03  0.00000000000E+00 0.  1.
         24    2    1    2    0    0  0.15153890486E+03  0.65538426144E+02  0.22364276390E+03  0.28927090795E+03  0.80014044710E+02 0.  0.
         23    2    1    2    0    0 -0.16023031101E+03  0.13144186893E+02 -0.11105872906E+03  0.21736237644E+03  0.95214700417E+02 0.  0.
        -11    1    3    3    0    0  0.70685204223E+01  0.19574545812E+02  0.22341128839E+01  0.20931270508E+02  0.00000000000E+00 0.  1.
         12    1    3    3    0    0  0.14447038444E+03  0.45963880332E+02  0.22140865102E+03  0.26833963744E+03  0.00000000000E+00 0. -1.
        -11    1    4    4    0    0 -0.14260253923E+03  0.45716593476E+02 -0.91223587603E+02  0.17534889235E+03  0.00000000000E+00 0.  1.
         11    1    4    4    0    0 -0.17627771780E+02 -0.32572406583E+02 -0.19835141460E+02  0.42013484089E+02  0.00000000000E+00 0. -1.
         21    1    1    2  503  501 -0.21423840841E+02 -0.36394886583E+02  0.32311072345E+01  0.42355740812E+02  0.00000000000E+00 0. -1.
          1    1    1    2  501    0  0.30115246989E+02 -0.42287726454E+02  0.31068129574E+02  0.60501310607E+02  0.00000000000E+00 0. -1.
<scales pt_clust_5="13000.00000" pt_clust_6="13000.00000" pt_clust_7="13000.00000" pt_clust_8="13000.00000" pt_clust_9="42.23232" pt_clust_10="53.17943"></scales>
<clustering>
<clus scale="   42.232">  2  9  1 -1</clus>
<clus scale="   53.179">  2 10  1 -1</clus>
<clus scale="   80.014">  5  6 -1 -1</clus>
<clus scale="   95.215">  7  8 -1 -1</clus>
<clus scale="  180.434">  1  5  2 -1</clus>
<clus scale="   42.232">  2  5  1 -1</clus>
</clustering>
</event>
<event>
10    4  0.2857708E-005  0.1243427E+03  0.7546771E-02  0.1240268E+00
         21   -1    0    0  503  502  0.00000000000E+00  0.00000000000E+00  0.32624482860E+03  0.32624482860E+03  0.00000000000E+00 0. -1.
         -1   -1    0    0    0  501 -0.00000000000E+00 -0.00000000000E+00 -0.89053510348E+02  0.89053510348E+02  0.00000000000E+00 0.  1.
         23    2    1    2    0    0  0.82381486686E+02 -0.19546889334E+02  0.99628191096E+02  0.16144760490E+03  0.94714108956E+02 0.  0.
         24    2    1    2    0    0 -0.75911003681E+02 -0.28884975027E+02  0.14939805977E+03  0.18834269229E+03  0.80971397497E+02 0.  0.
        -11    1    4    4    0    0  0.14410318444E+02 -0.16152599737E+02  0.43418257772E+02  0.48515037503E+02  0.00000000000E+00 0.  1.
         12    1    4    4    0    0 -0.90321322125E+02 -0.12732375290E+02  0.10597980200E+03  0.13982765479E+03  0.00000000000E+00 0. -1.
        -11    1    3    3    0    0  0.57134725814E+02 -0.49337756206E+02  0.96149789709E+02  0.12224309037E+03  0.00000000000E+00 0. -1.
         11    1    3    3    0    0  0.25246760872E+02  0.29790866872E+02  0.34784013867E+01  0.39204514532E+02  0.00000000000E+00 0.  1.
         21    1    1    2  503  501  0.10676029361E+02  0.22105148327E+02  0.10766056741E+02  0.26805282375E+02  0.00000000000E+00 0. -1.
         -2    1    1    2    0  502 -0.17146512366E+02  0.26326716033E+02 -0.22600989364E+02  0.38702759380E+02  0.00000000000E+00 0.  1.
<scales pt_clust_5="13000.00000" pt_clust_6="13000.00000" pt_clust_7="13000.00000" pt_clust_8="13000.00000" pt_clust_9="24.54822" pt_clust_10="37.08231"></scales>
<clustering>
<clus scale="   24.548">  2  9  1 -1</clus>
<clus scale="   37.082">  1 10  2 -1</clus>
<clus scale="   80.971">  5  6 -1 -1</clus>
<clus scale="   94.714">  7  8 -1 -1</clus>
<clus scale="  114.222">  1  5  2 -1</clus>
<clus scale="   37.082">  1  5  2 -1</clus>
</clustering>
</event>
<event>
10    4  0.2857708E-005  0.2410571E+03  0.7546771E-02  0.1120598E+00
         21   -1    0    0  501  502  0.00000000000E+00  0.00000000000E+00  0.20541766068E+03  0.20541766068E+03  0.00000000000E+00 0.  1.
          2   -1    0    0  503    0 -0.00000000000E+00 -0.00000000000E+00 -0.74592069372E+03  0.74592069372E+03  0.00000000000E+00 0. -1.
         23    2    1    2    0    0  0.20193219697E+03  0.13405690923E+03 -0.39645327666E+03  0.47481576878E+03  0.97606078822E+02 0.  0.
         24    2    1    2    0    0 -0.18443508201E+03 -0.83362224551E+02 -0.20614433641E+03  0.29793787824E+03  0.72841827958E+02 0.  0.
        -13    1    4    4    0    0 -0.45308390305E+02  0.10825649618E+02 -0.53520329256E+02  0.70954003166E+02  0.00000000000E+00 0.  1.
         14    1    4    4    0    0 -0.13912669170E+03 -0.94187874169E+02 -0.15262400715E+03  0.22698387507E+03  0.00000000000E+00 0. -1.
        -11    1    3    3    0    0  0.16147089598E+03  0.14505478495E+03 -0.30654333528E+03  0.37560958093E+03  0.00000000000E+00 0.  1.
         11    1    3    3    0    0  0.40461300981E+02 -0.10997875717E+02 -0.89909941387E+02  0.99206187849E+02  0.00000000000E+00 0. -1.
         21    1    1    2  503  502 -0.94616540075E+01 -0.24324712087E+02 -0.53618323299E+02  0.59633372436E+02  0.00000000000E+00 0. -1.
          1    1    1    2  501    0 -0.80354609510E+01 -0.26369972592E+02  0.11571290333E+03  0.11895133494E+03  0.00000000000E+00 0. -1.
<scales pt_clust_5="13000.00000" pt_clust_6="13000.00000" pt_clust_7="13000.00000" pt_clust_8="13000.00000" pt_clust_9="26.10009" pt_clust_10="27.62822"></scales>
<clustering>
<clus scale="   26.100">  2  9  1 -1</clus>
<clus scale="   27.628">  1 10  2 -1</clus>
<clus scale="   72.842">  5  6 -1 -1</clus>
<clus scale="   97.606">  7  8 -1 -1</clus>
<clus scale="  232.137">  1  5  2 -1</clus>
<clus scale="   27.628">  1  5  2 -1</clus>
</clustering>
</event>
<event>
10    4  0.2857708E-005  0.1715998E+03  0.7546771E-02  0.1177346E+00
         21   -1    0    0  501  502  0.00000000000E+00  0.00000000000E+00  0.28425858008E+02  0.28425858008E+02  0.00000000000E+00 0. -1.
          2   -1    0    0  503    0 -0.00000000000E+00 -0.00000000000E+00 -0.21372228629E+04  0.21372228629E+04  0.00000000000E+00 0. -1.
         24    2    1    2    0    0 -0.15393050079E+03  0.86267315793E+02 -0.12525089155E+04  0.12674123970E+04  0.80118361521E+02 0.  0.
         23    2    1    2    0    0  0.12282452593E+03 -0.20192419923E+02 -0.32324987366E+03  0.35763567201E+03  0.88989859433E+02 0.  0.
        -11    1    3    3    0    0 -0.31510174385E+02  0.33875300657E+02 -0.15223072668E+03  0.15910569201E+03  0.00000000000E+00 0.  1.
         12    1    3    3    0    0 -0.12242032640E+03  0.52392015136E+02 -0.11002781888E+04  0.11083067050E+04  0.00000000000E+00 0. -1.
        -13    1    4    4    0    0  0.30908437870E+02  0.25030564646E+02 -0.39900121075E+02  0.56337202272E+02  0.00000000000E+00 0. -1.
         13    1    4    4    0    0  0.91916088063E+02 -0.45222984569E+02 -0.28334975259E+03  0.30129846974E+03  0.00000000000E+00 0.  1.
         21    1    1    2  503  502  0.31156376179E+02 -0.11628458172E+02 -0.14521920271E+03  0.14897837981E+03  0.00000000000E+00 0. -1.
          1    1    1    2  501    0 -0.50401322738E-01 -0.54446437698E+02 -0.38781901310E+03  0.39162227214E+03  0.00000000000E+00 0. -1.
<scales pt_clust_5="13000.00000" pt_clust_6="13000.00000" pt_clust_7="13000.00000" pt_clust_8="13000.00000" pt_clust_9="33.25569" pt_clust_10="57.04545"></scales>
<clustering>
<clus scale="   33.256">  2  9  1 -1</clus>
<clus scale="   57.045">  1 10  2 -1</clus>
<clus scale="   80.118">  5  6 -1 -1</clus>
<clus scale="   88.990">  7  8 -1 -1</clus>
<clus scale="  167.171">  2  5  1 -1</clus>
<clus scale="   57.045">  1  5  2 -1</clus>
</clustering>
</event>
<event>
10    4  0.2857708E-005  0.4735164E+03  0.7546771E-02  0.1021078E+00
         21   -1    0    0  501  502  0.00000000000E+00  0.00000000000E+00  0.33530899023E+03  0.33530899023E+03  0.00000000000E+00 0.  1.
          2   -1    0    0  503    0 -0.00000000000E+00 -0.00000000000E+00 -0.22606368295E+04  0.22606368295E+04  0.00000000000E+00 0. -1.
         24    2    1    2    0    0  0.28294374079E+03  0.39490793373E+03 -0.19796771897E+04  0.20399170384E+04  0.78296304915E+02 0.  0.
         23    2    1    2    0    0 -0.27658054499E+03 -0.34551181245E+03  0.92008825380E+02  0.46090709844E+03  0.89969545032E+02 0.  0.
        -13    1    3    3    0    0  0.16542148909E+02  0.17768723684E+02 -0.47627371267E+02  0.53457803225E+02  0.00000000000E+00 0.  1.
         14    1    3    3    0    0  0.26640159188E+03  0.37713921005E+03 -0.19320498184E+04  0.19864592351E+04  0.00000000000E+00 0. -1.
        -11    1    4    4    0    0 -0.67395283190E+02 -0.11499198014E+03  0.65458241205E+02  0.14849262956E+03  0.00000000000E+00 0.  1.
         11    1    4    4    0    0 -0.20918526180E+03 -0.23051983231E+03  0.26550584175E+02  0.31241446888E+03  0.00000000000E+00 0. -1.
         21    1    1    2  503  502 -0.23172077921E+02 -0.86740956112E+01 -0.44131351606E+02  0.50594083888E+02  0.00000000000E+00 0. -1.
          1    1    1    2  501    0  0.16808882127E+02 -0.40722025674E+02  0.64718766196E+01  0.44527599085E+02  0.00000000000E+00 0. -1.
<scales pt_clust_5="13000.00000" pt_clust_6="13000.00000" pt_clust_7="13000.00000" pt_clust_8="13000.00000" pt_clust_9="24.74238" pt_clust_10="44.04820"></scales>
<clustering>
<clus scale="   24.742">  2  9  1 -1</clus>
<clus scale="   44.048">  1 10  2 -1</clus>
<clus scale="   78.296">  5  6 -1 -1</clus>
<clus scale="   89.970">  7  8 -1 -1</clus>
<clus scale="  471.438">  2  5  1 -1</clus>
<clus scale="   44.048">  1  5  2 -1</clus>
</clustering>
</event>
<event>
10    4  0.2857708E-005  0.1654993E+03  0.7546771E-02  0.1203714E+00
          4   -1    0    0  503    0 -0.00000000000E+00  0.00000000000E+00  0.93529003997E+02  0.93529003997E+02  0.00000000000E+00 0. -1.
         21   -1    0    0  501  502  0.00000000000E+00 -0.00000000000E+00 -0.10627665994E+04  0.10627665994E+04  0.00000000000E+00 0.  1.
         23    2    1    2    0    0 -0.53607519983E+02  0.85732912654E+00 -0.24701591333E+01  0.10568900131E+03  0.91047032349E+02 0.  0.
         24    2    1    2    0    0  0.12856665926E+03 -0.16043157322E+02 -0.56349027576E+03  0.58387358922E+03  0.81242282969E+02 0.  0.
        -13    1    4    4    0    0  0.13981791395E+03 -0.19149347147E+02 -0.52651140912E+03  0.54509633138E+03  0.00000000000E+00 0.  1.
         14    1    4    4    0    0 -0.11251254684E+02  0.31061898256E+01 -0.36978866643E+02  0.38777257838E+02  0.00000000000E+00 0. -1.
        -11    1    3    3    0    0  0.74474816561E+01  0.31263832819E+02  0.14719010994E+02  0.35348854439E+02  0.00000000000E+00 0.  1.
         11    1    3    3    0    0 -0.61055001639E+02 -0.30406503692E+02 -0.17189170127E+02  0.70340146869E+02  0.00000000000E+00 0. -1.
         21    1    1    2  503  502 -0.12393820415E+03 -0.44011025618E+02 -0.13834501490E+03  0.19088476098E+03  0.00000000000E+00 0. -1.
          3    1    1    2  501    0  0.48979064869E+02  0.59196853814E+02 -0.26493214565E+03  0.27584825193E+03  0.00000000000E+00 0. -1.
<scales pt_clust_5="13000.00000" pt_clust_6="13000.00000" pt_clust_7="13000.00000" pt_clust_8="13000.00000" pt_clust_9="144.18636" pt_clust_10="76.83239"></scales>
<clustering>
<clus scale="   76.832">  2 10  1 -1</clus>
<clus scale="   81.242">  5  6 -1 -1</clus>
<clus scale="   91.047">  7  8 -1 -1</clus>
<clus scale="  104.116">  1  7  2 -1</clus>
<clus scale="  144.186">  1  9  2 -1</clus>
<clus scale="   76.832">  2  5  1 -1</clus>
</clustering>
</event>
<event>
10    4  0.2857708E-005  0.2348155E+03  0.7546771E-02  0.1153337E+00
          2   -1    0    0  503    0 -0.00000000000E+00  0.00000000000E+00  0.48653171496E+02  0.48653171496E+02  0.00000000000E+00 0. -1.
         21   -1    0    0  501  502  0.00000000000E+00 -0.00000000000E+00 -0.19874249519E+04  0.19874249519E+04  0.00000000000E+00 0.  1.
         24    2    1    2    0    0  0.75451166129E+02 -0.21765363067E+02 -0.29346382086E+03  0.31423345262E+03  0.80343257932E+02 0.  0.
         23    2    1    2    0    0  0.89113206319E+01  0.21307575912E+03 -0.10170111262E+04  0.10431218948E+04  0.91164498774E+02 0.  0.
        -13    1    3    3    0    0  0.37718242091E+02  0.18451766465E+02 -0.53477559993E+02  0.67992520874E+02  0.00000000000E+00 0.  1.
         14    1    3    3    0    0  0.37732924038E+02 -0.40217129532E+02 -0.23998626087E+03  0.24624093175E+03  0.00000000000E+00 0. -1.
        -11    1    4    4    0    0  0.66655394381E+01  0.61162956296E+02 -0.13822587258E+03  0.15130012720E+03  0.00000000000E+00 0. -1.
         11    1    4    4    0    0  0.22457811938E+01  0.15191280282E+03 -0.87878525357E+03  0.89182176755E+03  0.00000000000E+00 0.  1.
         21    1    1    2  503  502  0.12754414859E+02  0.20208408945E+02 -0.63575042302E+02  0.67917898187E+02  0.00000000000E+00 0. -1.
          1    1    1    2  501    0 -0.97116901620E+02 -0.21151880500E+03 -0.56472179105E+03  0.61080487779E+03  0.00000000000E+00 0. -1.
<scales pt_clust_5="13000.00000" pt_clust_6="13000.00000" pt_clust_7="13000.00000" pt_clust_8="13000.00000" pt_clust_9="23.89675" pt_clust_10="216.39636"></scales>
<clustering>
<clus scale="   23.897">  1  9  2 -1</clus>
<clus scale="   80.343">  5  6 -1 -1</clus>
<clus scale="   91.164">  7  8 -1 -1</clus>
<clus scale="  113.506">  1  5  2 -1</clus>
<clus scale="  216.396">  2 10  1 -1</clus>
<clus scale="  216.396">  2  5  1 -1</clus>
</clustering>
</event>
<event>
10    4  0.2857708E-005  0.9425058E+02  0.7546771E-02  0.1300812E+00
         21   -1    0    0  501  502  0.00000000000E+00  0.00000000000E+00  0.68419390983E+03  0.68419390983E+03  0.00000000000E+00 0. -1.
          4   -1    0    0  503    0 -0.00000000000E+00 -0.00000000000E+00 -0.50354110207E+02  0.50354110207E+02  0.00000000000E+00 0. -1.
         23    2    1    2    0    0  0.27873725959E+02 -0.17291530804E+02  0.83344542697E+02  0.12965321126E+03  0.93742737083E+02 0.  0.
         24    2    1    2    0    0  0.27195841957E+02  0.14244923283E+01  0.45025931164E+03  0.45825618834E+03  0.80769074762E+02 0.  0.
        -13    1    4    4    0    0  0.43469476911E+01 -0.37361530735E+02  0.15015185427E+03  0.15479134108E+03  0.00000000000E+00 0.  1.
         14    1    4    4    0    0  0.22848894265E+02  0.38786023064E+02  0.30010745736E+03  0.30346484726E+03  0.00000000000E+00 0. -1.
        -11    1    3    3    0    0  0.30686865454E+02 -0.37892642243E+02  0.94293268676E+02  0.10615439965E+03  0.00000000000E+00 0.  1.
         11    1    3    3    0    0 -0.28131394950E+01  0.20601111440E+02 -0.10948725979E+02  0.23498811607E+02  0.00000000000E+00 0. -1.
         21    1    1    2  503  502 -0.39980915395E+02  0.30097263394E+02  0.62975686745E+01  0.50437865051E+02  0.00000000000E+00 0. -1.
          3    1    1    2  501    0 -0.15088652521E+02 -0.14230224919E+02  0.93938376619E+02  0.96200755391E+02  0.00000000000E+00 0. -1.
<scales pt_clust_5="13000.00000" pt_clust_6="13000.00000" pt_clust_7="13000.00000" pt_clust_8="13000.00000" pt_clust_9="50.22118" pt_clust_10="20.74046"></scales>
<clustering>
<clus scale="   20.740">  1 10  2 -1</clus>
<clus scale="   50.221">  2  9  1 -1</clus>
<clus scale="   80.769">  5  6 -1 -1</clus>
<clus scale="   81.358">  1  5  2 -1</clus>
<clus scale="   93.743">  7  8 -1 -1</clus>
<clus scale="   20.740">  1  5  2 -1</clus>
</clustering>
</event>
<event>
10    4  0.2857708E-005  0.1390970E+03  0.7546771E-02  0.1225300E+00
         21   -1    0    0  501  502  0.00000000000E+00  0.00000000000E+00  0.12106607762E+03  0.12106607762E+03  0.00000000000E+00 0.  1.
          2   -1    0    0  503    0 -0.00000000000E+00 -0.00000000000E+00 -0.40431258417E+03  0.40431258417E+03  0.00000000000E+00 0. -1.
         23    2    1    2    0    0  0.46480409027E+02  0.23182468077E+02 -0.71152413977E+02  0.12862947582E+03  0.93728441706E+02 0.  0.
         24    2    1    2    0    0  0.31762886137E+02 -0.11510435352E+03 -0.65625652960E+01  0.14625354769E+03  0.84197029730E+02 0.  0.
        -11    1    4    4    0    0  0.53660784517E+02 -0.10321267685E+03  0.93240602303E+01  0.11670164762E+03  0.00000000000E+00 0.  1.
         12    1    4    4    0    0 -0.21897898380E+02 -0.11891676665E+02 -0.15886625526E+02  0.29551900074E+02  0.00000000000E+00 0. -1.
        -11    1    3    3    0    0  0.60270844494E+02 -0.18526440102E+02 -0.45526269072E+02  0.77771748434E+02  0.00000000000E+00 0. -1.
         11    1    3    3    0    0 -0.13790435467E+02  0.41708908179E+02 -0.25626144905E+02  0.50857727383E+02  0.00000000000E+00 0.  1.
         21    1    1    2  503  502  0.13110969543E+02  0.30213820066E+02 -0.48888816033E+02  0.58948187236E+02  0.00000000000E+00 0. -1.
          1    1    1    2  501    0 -0.91354264707E+02  0.61708065375E+02 -0.15664271125E+03  0.19154745104E+03  0.00000000000E+00 0. -1.
<scales pt_clust_5="13000.00000" pt_clust_6="13000.00000" pt_clust_7="13000.00000" pt_clust_8="13000.00000" pt_clust_9="32.93588" pt_clust_10="110.71969"></scales>
<clustering>
<clus scale="   32.936">  2  9  1 -1</clus>
<clus scale="   84.197">  5  6 -1 -1</clus>
<clus scale="   93.728">  7  8 -1 -1</clus>
<clus scale="  110.986">  2  7  1 -1</clus>
<clus scale="  110.720">  1 10  2 -1</clus>
<clus scale="  110.720">  1  5  2 -1</clus>
</clustering>
</event>
<event>
10    4  0.2857708E-005  0.4596405E+03  0.7546771E-02  0.1065791E+00
          2   -1    0    0  503    0 -0.00000000000E+00  0.00000000000E+00  0.23164777390E+03  0.23164777390E+03  0.00000000000E+00 0. -1.
         21   -1    0    0  501  502  0.00000000000E+00 -0.00000000000E+00 -0.20906498102E+04  0.20906498102E+04  0.00000000000E+00 0. -1.
         23    2    1    2    0    0 -0.91528143864E+02 -0.56387318986E+02 -0.43254228145E+03  0.45509637514E+03  0.91994318081E+02 0.  0.
         24    2    1    2    0    0 -0.32889613802E+03 -0.92215059840E+02 -0.19979017578E+03  0.40400647995E+03  0.81417655571E+02 0.  0.
        -13    1    4    4    0    0 -0.17552681229E+03 -0.18091850267E+02 -0.13330402551E+03  0.22114913542E+03  0.00000000000E+00 0.  1.
         14    1    4    4    0    0 -0.15336932573E+03 -0.74123209572E+02 -0.66486150273E+02  0.18285734454E+03  0.00000000000E+00 0. -1.
        -11    1    3    3    0    0 -0.51678513186E+02  0.78965199789E+01 -0.27993792575E+03  0.28477757290E+03  0.00000000000E+00 0.  1.
         11    1    3    3    0    0 -0.39849630677E+02 -0.64283838965E+02 -0.15260435570E+03  0.17031880224E+03  0.00000000000E+00 0. -1.
         21    1    1    2  503  502  0.54396402699E+03  0.26224715660E+03 -0.10925517042E+04  0.12483347548E+04  0.00000000000E+00 0. -1.
          1    1    1    2  501    0 -0.12353974511E+03 -0.11364477778E+03 -0.13411787488E+03  0.21485997417E+03  0.00000000000E+00 0. -1.
<scales pt_clust_5="13000.00000" pt_clust_6="13000.00000" pt_clust_7="13000.00000" pt_clust_8="13000.00000" pt_clust_9="452.37213" pt_clust_10="187.23225"></scales>
<clustering>
<clus scale="   81.418">  5  6 -1 -1</clus>
<clus scale="   91.994">  7  8 -1 -1</clus>
<clus scale="  141.492">  1  7  2 -1</clus>
<clus scale="  187.232">  2 10  1 -1</clus>
<clus scale="  452.372">  2  9  1 -1</clus>
<clus scale="  187.232">  2  5  1 -1</clus>
</clustering>
</event>
<event>
10    4  0.2857708E-005  0.1803181E+03  0.7546771E-02  0.1167700E+00
         21   -1    0    0  501  502  0.00000000000E+00  0.00000000000E+00  0.12192359444E+03  0.12192359444E+03  0.00000000000E+00 0.  1.
          2   -1    0    0  503    0 -0.00000000000E+00 -0.00000000000E+00 -0.11120365676E+04  0.11120365676E+04  0.00000000000E+00 0. -1.
         23    2    1    2    0    0 -0.11651021068E+03 -0.13062035464E+03 -0.34783822751E+03  0.40060114500E+03  0.94093244289E+02 0.  0.
         24    2    1    2    0    0 -0.32640719492E+01  0.96946617646E+02  0.32855553205E+02  0.13797962337E+03  0.92463983536E+02 0.  0.
        -13    1    4    4    0    0 -0.33509894372E+01  0.10259247617E+03  0.54076490994E+02  0.11602030932E+03  0.00000000000E+00 0.  1.
         14    1    4    4    0    0  0.86917487980E-01 -0.56458585217E+01 -0.21220937789E+02  0.21959314054E+02  0.00000000000E+00 0. -1.
        -13    1    3    3    0    0 -0.10446143982E+03 -0.82060543020E+02 -0.31186846610E+03  0.33898092170E+03  0.00000000000E+00 0. -1.
         13    1    3    3    0    0 -0.12048770855E+02 -0.48559811619E+02 -0.35969761413E+02  0.61620223301E+02  0.00000000000E+00 0.  1.
         21    1    1    2  503  502 -0.19751209946E+02 -0.50153890664E+01 -0.57488126711E+02  0.60993025295E+02  0.00000000000E+00 0. -1.
          1    1    1    2  501    0  0.13952549257E+03  0.38689126059E+02 -0.61764217217E+03  0.63438636839E+03  0.00000000000E+00 0. -1.
<scales pt_clust_5="13000.00000" pt_clust_6="13000.00000" pt_clust_7="13000.00000" pt_clust_8="13000.00000" pt_clust_9="20.37804" pt_clust_10="132.67625"></scales>
<clustering>
<clus scale="   20.378">  2  9  1 -1</clus>
<clus scale="   92.464">  5  6 -1 -1</clus>
<clus scale="   94.093">  7  8 -1 -1</clus>
<clus scale="  132.676">  1 10  2 -1</clus>
<clus scale="  179.473">  1  5  2 -1</clus>
<clus scale="  132.676">  1  5  2 -1</clus>
</clustering>
</event>
<event>
10    4  0.2857708E-005  0.9590083E+02  0.7546771E-02  0.1297772E+00
          2   -1    0    0  503    0 -0.00000000000E+00  0.00000000000E+00  0.74753464219E+03  0.74753464219E+03  0.00000000000E+00 0. -1.
         21   -1    0    0  501  502  0.00000000000E+00 -0.00000000000E+00 -0.68014443038E+02  0.68014443038E+02  0.00000000000E+00 0. -1.
         23    2    1    2    0    0 -0.19696641036E+02  0.20376355897E+02  0.45356081713E+03  0.46444029377E+03  0.95834326284E+02 0.  0.
         24    2    1    2    0    0 -0.24236462557E+02 -0.17390380591E+02  0.39134430566E+02  0.95296101739E+02  0.81608895941E+02 0.  0.
        -11    1    4    4    0    0 -0.21992396258E+02  0.24423134987E+02  0.41992819542E+02  0.53324965156E+02  0.00000000000E+00 0.  1.
         12    1    4    4    0    0 -0.22440662994E+01 -0.41813515578E+02 -0.28583889767E+01  0.41971136583E+02  0.00000000000E+00 0. -1.
        -13    1    3    3    0    0 -0.33187579225E+02  0.53982091534E+02  0.30704038802E+03  0.31351121431E+03  0.00000000000E+00 0.  1.
         13    1    3    3    0    0  0.13490938190E+02 -0.33605735637E+02  0.14652042911E+03  0.15092907946E+03  0.00000000000E+00 0. -1.
         21    1    1    2  503  502  0.22030469577E+02 -0.29660358066E+02  0.21065518975E+03  0.21387072590E+03  0.00000000000E+00 0.  1.
          1    1    1    2  501    0  0.21902634016E+02  0.26674382761E+02 -0.23830238284E+02  0.41941963821E+02  0.00000000000E+00 0. -1.
<scales pt_clust_5="13000.00000" pt_clust_6="13000.00000" pt_clust_7="13000.00000" pt_clust_8="13000.00000" pt_clust_9="36.59674" pt_clust_10="34.51446"></scales>
<clustering>
<clus scale="   34.514">  2 10  1 -1</clus>
<clus scale="   36.597">  1  9  2 -1</clus>
<clus scale="   81.609">  5  6 -1 -1</clus>
<clus scale="   81.687">  2  5  1 -1</clus>
<clus scale="   95.834">  7  8 -1 -1</clus>
<clus scale="   34.514">  2  5  1 -1</clus>
</clustering>
</event>
<event>
10    4  0.2857708E-005  0.1228373E+03  0.7546771E-02  0.1241535E+00
         -1   -1    0    0    0  501 -0.00000000000E+00  0.00000000000E+00  0.20705115696E+03  0.20705115696E+03  0.00000000000E+00 0.  1.
         21   -1    0    0  503  502  0.00000000000E+00 -0.00000000000E+00 -0.17526472587E+03  0.17526472587E+03  0.00000000000E+00 0. -1.
         24    2    1    2    0    0  0.66117109876E+02 -0.62416444441E+01  0.81332610705E+02  0.13285171308E+03  0.81388904409E+02 0.  0.
         23    2    1    2    0    0 -0.62529155786E+02  0.47058724422E+02 -0.75380391446E+02  0.14208114048E+03  0.91544678696E+02 0.  0.
        -13    1    3    3    0    0  0.52367513867E+02 -0.31320627065E+02  0.84333823447E+02  0.10409386133E+03  0.00000000000E+00 0.  1.
         14    1    3    3    0    0  0.13749596009E+02  0.25078982621E+02 -0.30012127422E+01  0.28757851756E+02  0.00000000000E+00 0. -1.
        -13    1    4    4    0    0 -0.71329144277E+02  0.69891518147E+01 -0.22431425023E+02  0.75099027256E+02  0.00000000000E+00 0.  1.
         13    1    4    4    0    0  0.87999884909E+01  0.40069572607E+02 -0.52948966423E+02  0.66982113221E+02  0.00000000000E+00 0. -1.
         21    1    1    2  503  501  0.17157906681E+02 -0.41051683204E+02  0.55530795027E+02  0.71156894619E+02  0.00000000000E+00 0.  1.
         -2    1    1    2    0  502 -0.20745860771E+02  0.23460322624E+00 -0.29696583197E+02  0.36226134646E+02  0.00000000000E+00 0.  1.
<scales pt_clust_5="13000.00000" pt_clust_6="13000.00000" pt_clust_7="13000.00000" pt_clust_8="13000.00000" pt_clust_9="44.05437" pt_clust_10="20.74719"></scales>
<clustering>
<clus scale="   20.747">  2 10  1 -1</clus>
<clus scale="   44.054">  1  9  2 -1</clus>
<clus scale="   81.389">  5  6 -1 -1</clus>
<clus scale="   91.545">  7  8 -1 -1</clus>
<clus scale="  115.467">  1  5  2 -1</clus>
<clus scale="   20.747">  2  5  1 -1</clus>
</clustering>
</event>
<event>
10    4  0.2857708E-005  0.4750682E+03  0.7546771E-02  0.1020588E+00
          2   -1    0    0  503    0 -0.00000000000E+00  0.00000000000E+00  0.25921598536E+04  0.25921598536E+04  0.00000000000E+00 0. -1.
         21   -1    0    0  501  502  0.00000000000E+00 -0.00000000000E+00 -0.18929519517E+03  0.18929519517E+03  0.00000000000E+00 0. -1.
         23    2    1    2    0    0 -0.30532220433E+03  0.41694145743E+03  0.12568075063E+04  0.13620171983E+04  0.91999529224E+02 0.  0.
         24    2    1    2    0    0  0.27258607549E+03 -0.24670620948E+03  0.27087814728E+03  0.46454863845E+03  0.85225257177E+02 0.  0.
        -13    1    4    4    0    0  0.43192184302E+02 -0.10235368491E+02  0.13250808208E+02  0.46323983756E+02  0.00000000000E+00 0.  1.
         14    1    4    4    0    0  0.22939389119E+03 -0.23647084099E+03  0.25762733907E+03  0.41822465469E+03  0.00000000000E+00 0. -1.
        -11    1    3    3    0    0 -0.30807587237E+03  0.38942000968E+03  0.11731944026E+04  0.12739481125E+04  0.00000000000E+00 0. -1.
         11    1    3    3    0    0  0.27536680381E+01  0.27521447754E+02  0.83613103633E+02  0.88069085798E+02  0.00000000000E+00 0.  1.
         21    1    1    2  503  502  0.61456149286E+02  0.78326393409E+02  0.45573281585E+03  0.46648074090E+03  0.00000000000E+00 0. -1.
          1    1    1    2  501    0 -0.28720020441E+02 -0.24856164136E+03  0.41944618907E+03  0.48840847111E+03  0.00000000000E+00 0. -1.
<scales pt_clust_5="13000.00000" pt_clust_6="13000.00000" pt_clust_7="13000.00000" pt_clust_8="13000.00000" pt_clust_9="99.55844" pt_clust_10="232.40391"></scales>
<clustering>
<clus scale="   85.225">  5  6 -1 -1</clus>
<clus scale="   92.000">  7  8 -1 -1</clus>
<clus scale="   99.558">  1  9  2 -1</clus>
<clus scale="  232.404">  2 10  1 -1</clus>
<clus scale="  473.803">  2  5  1 -1</clus>
<clus scale="  232.404">  2  5  1 -1</clus>
</clustering>
</event>
<event>
10    4  0.2857708E-005  0.1200591E+03  0.7546771E-02  0.1245519E+00
         21   -1    0    0  501  502  0.00000000000E+00  0.00000000000E+00  0.21086422595E+03  0.21086422595E+03  0.00000000000E+00 0. -1.
          2   -1    0    0  503    0 -0.00000000000E+00 -0.00000000000E+00 -0.10582543674E+03  0.10582543674E+03  0.00000000000E+00 0. -1.
         23    2    1    2    0    0  0.55449735049E+02 -0.33668414669E+02  0.46158317196E+02  0.12053336224E+03  0.90495667876E+02 0.  0.
         24    2    1    2    0    0 -0.96890544106E+02  0.15014814955E+02  0.55644101517E+02  0.13966371144E+03  0.82440669904E+02 0.  0.
        -11    1    4    4    0    0 -0.46319063319E+02 -0.33503038436E+02  0.17031696869E+02  0.59648871820E+02  0.00000000000E+00 0.  1.
         12    1    4    4    0    0 -0.50571480788E+02  0.48517853391E+02  0.38612404648E+02  0.80014839620E+02  0.00000000000E+00 0. -1.
        -13    1    3    3    0    0  0.17314853707E+02  0.21442254447E+02 -0.13607755415E+02  0.30736711635E+02  0.00000000000E+00 0.  1.
         13    1    3    3    0    0  0.38134881343E+02 -0.55110669116E+02  0.59766072611E+02  0.89796650610E+02  0.00000000000E+00 0. -1.
         21    1    1    2  503  502  0.80539052880E+01  0.21355544327E+02  0.27889799293E+01  0.22993544158E+02  0.00000000000E+00 0.  1.
          1    1    1    2  501    0  0.33386903769E+02 -0.27019446136E+01  0.44739056874E+00  0.33499044856E+02  0.00000000000E+00 0. -1.
<scales pt_clust_5="13000.00000" pt_clust_6="13000.00000" pt_clust_7="13000.00000" pt_clust_8="13000.00000" pt_clust_9="22.82377" pt_clust_10="34.79131"></scales>
<clustering>
<clus scale="   22.824">  2  9  1 -1</clus>
<clus scale="   34.791">  1 10  2 -1</clus>
<clus scale="   82.441">  5  6 -1 -1</clus>
<clus scale="   90.496">  7  8 -1 -1</clus>
<clus scale="  114.110">  1  5  2 -1</clus>
<clus scale="   34.791">  1  5  2 -1</clus>
</clustering>
</event>
<event>
10    4  0.2857708E-005  0.1400651E+03  0.7546771E-02  0.1229302E+00
          2   -1    0    0  503    0 -0.00000000000E+00  0.00000000000E+00  0.80490424184E+03  0.80490424184E+03  0.00000000000E+00 0. -1.
         21   -1    0    0  501  502  0.00000000000E+00 -0.00000000000E+00 -0.55497797965E+02  0.55497797965E+02  0.00000000000E+00 0.  1.
         24    2    1    2    0    0  0.52337239743E+02 -0.38558855976E+02  0.12345036003E+03  0.15827844493E+03  0.74740234803E+02 0.  0.
         23    2    1    2    0    0  0.68341418000E+02  0.71638864988E+02  0.35623253984E+03  0.38101841697E+03  0.92036597273E+02 0.  0.
        -13    1    3    3    0    0  0.68080217515E+02 -0.43997249428E+02  0.91456276140E+02  0.12220852842E+03  0.00000000000E+00 0.  1.
         14    1    3    3    0    0 -0.15742977772E+02  0.54383934520E+01  0.31994083890E+02  0.36069916502E+02  0.00000000000E+00 0. -1.
        -11    1    4    4    0    0 -0.14292642913E+02  0.31020562810E+02  0.45264584873E+02  0.56704828738E+02  0.00000000000E+00 0.  1.
         11    1    4    4    0    0  0.82634060913E+02  0.40618302178E+02  0.31096795497E+03  0.32431358823E+03  0.00000000000E+00 0. -1.
         21    1    1    2  503  502 -0.71745469612E+01 -0.20012604513E+02  0.16421899657E+03  0.16558942387E+03  0.00000000000E+00 0.  1.
          1    1    1    2  501    0 -0.11350411078E+03 -0.13067404499E+02  0.10550454743E+03  0.15551575404E+03  0.00000000000E+00 0. -1.
<scales pt_clust_5="13000.00000" pt_clust_6="13000.00000" pt_clust_7="13000.00000" pt_clust_8="13000.00000" pt_clust_9="21.25979" pt_clust_10="105.58166"></scales>
<clustering>
<clus scale="   21.260">  1  9  2 -1</clus>
<clus scale="   74.740">  5  6 -1 -1</clus>
<clus scale="   92.037">  7  8 -1 -1</clus>
<clus scale="  100.042">  1  5  2 -1</clus>
<clus scale="  105.582">  2 10  1 -1</clus>
<clus scale="  105.582">  2  5  1 -1</clus>
</clustering>
</event>
<event>
10    4  0.2857708E-005  0.2060577E+03  0.7546771E-02  0.1185617E+00
          2   -1    0    0  503    0 -0.00000000000E+00  0.00000000000E+00  0.41314602450E+03  0.41314602450E+03  0.00000000000E+00 0. -1.
         21   -1    0    0  501  502  0.00000000000E+00 -0.00000000000E+00 -0.57577206961E+03  0.57577206961E+03  0.00000000000E+00 0. -1.
         24    2    1    2    0    0 -0.41183567899E+02 -0.17951016455E+02  0.14118800799E+03  0.16237996309E+03  0.66444514871E+02 0.  0.
         23    2    1    2    0    0 -0.51360906246E+02 -0.34919451646E+02 -0.17639002372E+03  0.20966976725E+03  0.94819091092E+02 0.  0.
        -11    1    3    3    0    0  0.28801547444E+00 -0.32267184335E+02  0.35645188615E+02  0.48081530853E+02  0.00000000000E+00 0.  1.
         12    1    3    3    0    0 -0.41471583373E+02  0.14316167880E+02  0.10554281937E+03  0.11429843224E+03  0.00000000000E+00 0. -1.
        -11    1    4    4    0    0 -0.14964436823E+02 -0.64187345841E+02 -0.91287751719E+02  0.11259397564E+03  0.00000000000E+00 0. -1.
         11    1    4    4    0    0 -0.36396469423E+02  0.29267894195E+02 -0.85102272002E+02  0.97075791611E+02  0.00000000000E+00 0.  1.
         21    1    1    2  503  502 -0.57818698071E+02 -0.10806875779E+03  0.19265151228E+03  0.22833410486E+03  0.00000000000E+00 0. -1.
          1    1    1    2  501    0  0.15036317222E+03  0.16093922589E+03 -0.32007554165E+03  0.38853425892E+03  0.00000000000E+00 0. -1.
<scales pt_clust_5="13000.00000" pt_clust_6="13000.00000" pt_clust_7="13000.00000" pt_clust_8="13000.00000" pt_clust_9="206.05775" pt_clust_10="13000.00000"></scales>
<clustering>
<clus scale="   66.445">  5  6 -1 -1</clus>
<clus scale="   80.207">  1  5  2 -1</clus>
<clus scale="   94.819">  7  8 -1 -1</clus>
<clus scale="  114.914">  1  7  2 -1</clus>
<clus scale="  206.058">  1  9  2 -1</clus>
<clus scale="  206.058">  2  5  1 -1</clus>
</clustering>
</event>
<event>
10    4  0.2857708E-005  0.1920248E+03  0.7546771E-02  0.1197197E+00
         -1   -1    0    0    0  501 -0.00000000000E+00  0.00000000000E+00  0.77423724489E+02  0.77423724489E+02  0.00000000000E+00 0.  1.
         21   -1    0    0  501  502  0.00000000000E+00 -0.00000000000E+00 -0.65417775275E+03  0.65417775275E+03  0.00000000000E+00 0. -1.
         24    2    1    2    0    0 -0.23445721529E+02  0.95594709271E+01 -0.11234916769E+03  0.13608001768E+03  0.72486898050E+02 0.  0.
         23    2    1    2    0    0  0.16497761878E+03  0.36291695057E+02 -0.31721866221E+03  0.37479310880E+03  0.10633669600E+03 0.  0.
        -11    1    3    3    0    0 -0.37729517086E+02  0.18258543557E+02 -0.11174201331E+03  0.11934474605E+03  0.00000000000E+00 0.  1.
         12    1    3    3    0    0  0.14283795556E+02 -0.86990726298E+01 -0.60715438589E+00  0.16735271631E+02  0.00000000000E+00 0. -1.
        -11    1    4    4    0    0  0.14811956423E+03  0.15375275626E+02 -0.17376227946E+03  0.22884303392E+03  0.00000000000E+00 0. -1.
         11    1    4    4    0    0  0.16858054550E+02  0.20916419431E+02 -0.14345638275E+03  0.14595007488E+03  0.00000000000E+00 0.  1.
         21    1    1    2  503  502 -0.44111169531E+02 -0.34163819127E+02 -0.18247911582E+02  0.58702198356E+02  0.00000000000E+00 0.  1.
         -2    1    1    2    0  503 -0.97420727723E+02 -0.11687346858E+02 -0.12893828677E+03  0.16202615240E+03  0.00000000000E+00 0.  1.
<scales pt_clust_5="13000.00000" pt_clust_6="13000.00000" pt_clust_7="13000.00000" pt_clust_8="13000.00000" pt_clust_9="52.91253" pt_clust_10="174.61295"></scales>
<clustering>
<clus scale="   52.913">  9 10 -1 -1</clus>
<clus scale="   72.487">  5  6 -1 -1</clus>
<clus scale="   76.782">  1  5  2 -1</clus>
<clus scale="  106.337">  7  8 -1 -1</clus>
<clus scale="  174.613">  2  9  1 -1</clus>
<clus scale="  174.613">  2  5  1 -1</clus>
</clustering>
</event>
<event>
10    4  0.2857708E-005  0.1559158E+03  0.7546771E-02  0.1194531E+00
         -1   -1    0    0    0  501 -0.00000000000E+00  0.00000000000E+00  0.58154219280E+02  0.58154219280E+02  0.00000000000E+00 0.  1.
         21   -1    0    0  503  502  0.00000000000E+00 -0.00000000000E+00 -0.11007344919E+04  0.11007344919E+04  0.00000000000E+00 0.  1.
         24    2    1    2    0    0 -0.11176713543E+03 -0.19524897383E+02 -0.37782063337E+03  0.40479639445E+03  0.90766600598E+02 0.  0.
         23    2    1    2    0    0  0.13552051525E+03 -0.86594221390E+02 -0.49320982347E+03  0.52551706698E+03  0.83951703294E+02 0.  0.
        -11    1    3    3    0    0  0.10127283856E+02 -0.20965547760E+02 -0.66631899716E+02  0.70582760863E+02  0.00000000000E+00 0.  1.
         12    1    3    3    0    0 -0.12189441929E+03  0.14406503777E+01 -0.31118873365E+03  0.33421363359E+03  0.00000000000E+00 0. -1.
        -11    1    4    4    0    0  0.19379895649E+02  0.11405709429E+02 -0.12788385380E+03  0.12984587258E+03  0.00000000000E+00 0.  1.
         11    1    4    4    0    0  0.11614061960E+03 -0.97999930819E+02 -0.36532596967E+03  0.39567119439E+03  0.00000000000E+00 0. -1.
         21    1    1    2  503  501 -0.31225133242E+02  0.76264229037E+01 -0.18182241166E+01  0.32194366141E+02  0.00000000000E+00 0.  1.
         -2    1    1    2    0  502  0.74717534234E+01  0.98492695869E+02 -0.16973159170E+03  0.19638088364E+03  0.00000000000E+00 0.  1.
<scales pt_clust_5="13000.00000" pt_clust_6="13000.00000" pt_clust_7="13000.00000" pt_clust_8="13000.00000" pt_clust_9="32.14298" pt_clust_10="100.88210"></scales>
<clustering>
<clus scale="   32.143">  1  9  2 -1</clus>
<clus scale="   83.952">  7  8 -1 -1</clus>
<clus scale="   90.767">  5  6 -1 -1</clus>
<clus scale="  100.882">  2 10  1 -1</clus>
<clus scale="  152.049">  2  7  1 -1</clus>
<clus scale="  100.882">  2  5  1 -1</clus>
</clustering>
</event>
<event>
10    4  0.2857708E-005  0.1103377E+03  0.7546771E-02  0.1263311E+00
         21   -1    0    0  503  502  0.00000000000E+00  0.00000000000E+00  0.33235703171E+03  0.33235703171E+03  0.00000000000E+00 0.  1.
         -3   -1    0    0    0  501 -0.00000000000E+00 -0.00000000000E+00 -0.25476468015E+03  0.25476468015E+03  0.00000000000E+00 0.  1.
         23    2    1    2    0    0  0.41492689890E+02 -0.50680292297E+02 -0.18347140125E+03  0.21489472350E+03  0.90707506685E+02 0.  0.
         24    2    1    2    0    0 -0.65519883229E+02  0.28809823236E+01  0.66141108814E+02  0.12409223041E+03  0.81994391366E+02 0.  0.
        -13    1    4    4    0    0 -0.33350642145E+02 -0.75459367902E+01 -0.14122717481E+02  0.36995373259E+02  0.00000000000E+00 0.  1.
         14    1    4    4    0    0 -0.32169241084E+02  0.10426919114E+02  0.80263826294E+02  0.87096857151E+02  0.00000000000E+00 0. -1.
        -13    1    3    3    0    0 -0.92558287191E+01 -0.32134978412E+02 -0.14438783283E+03  0.14820989667E+03  0.00000000000E+00 0.  1.
         13    1    3    3    0    0  0.50748518609E+02 -0.18545313886E+02 -0.39083568420E+02  0.66684826824E+02  0.00000000000E+00 0. -1.
         21    1    1    2  503  501  0.15675497219E+02  0.21458326531E+02 -0.18851773420E+02  0.32581748751E+02  0.00000000000E+00 0. -1.
         -4    1    1    2    0  502  0.83516961198E+01  0.26340983443E+02  0.21377441742E+03  0.21555300921E+03  0.00000000000E+00 0.  1.
<scales pt_clust_5="13000.00000" pt_clust_6="13000.00000" pt_clust_7="13000.00000" pt_clust_8="13000.00000" pt_clust_9="26.57407" pt_clust_10="27.73111"></scales>
<clustering>
<clus scale="   26.574">  2  9  1 -1</clus>
<clus scale="   27.731">  1 10  2 -1</clus>
<clus scale="   81.994">  5  6 -1 -1</clus>
<clus scale="   90.708">  7  8 -1 -1</clus>
<clus scale="  103.294">  1  5  2 -1</clus>
<clus scale="   27.731">  1  5  2 -1</clus>
</clustering>
</event>
<event>
10    4  0.2857708E-005  0.3184660E+03  0.7546771E-02  0.1110813E+00
          2   -1    0    0  503    0 -0.00000000000E+00  0.00000000000E+00  0.80598690137E+03  0.80598690137E+03  0.00000000000E+00 0. -1.
         21   -1    0    0  501  502  0.00000000000E+00 -0.00000000000E+00 -0.37223885644E+03  0.37223885644E+03  0.00000000000E+00 0. -1.
         24    2    1    2    0    0  0.89197071029E+02  0.63330609442E+02 -0.28107941936E+02  0.13652373935E+03  0.76692838210E+02 0.  0.
         23    2    1    2    0    0  0.25688099972E+03 -0.14178093218E+03 -0.11873121019E+03  0.32924135322E+03  0.90626087017E+02 0.  0.
        -13    1    3    3    0    0  0.64121020886E+02 -0.94424632648E+00 -0.77802153615E+01  0.64598209508E+02  0.00000000000E+00 0.  1.
         14    1    3    3    0    0  0.25076050143E+02  0.64274855768E+02 -0.20327726575E+02  0.71925529838E+02  0.00000000000E+00 0. -1.
        -13    1    4    4    0    0  0.23116208877E+03 -0.14487412960E+03 -0.12849905577E+03  0.30155668132E+03  0.00000000000E+00 0. -1.
         13    1    4    4    0    0  0.25718910950E+02  0.30931974278E+01  0.97678455821E+01  0.27684671898E+02  0.00000000000E+00 0.  1.
         21    1    1    2  503  502 -0.97084006524E+01 -0.30930997428E+02 -0.22860167732E+00  0.32419622204E+02  0.00000000000E+00 0.  1.
          1    1    1    2  501    0 -0.33636967010E+03  0.10938132016E+03  0.58081579873E+03  0.68004104304E+03  0.00000000000E+00 0. -1.
<scales pt_clust_5="13000.00000" pt_clust_6="13000.00000" pt_clust_7="13000.00000" pt_clust_8="13000.00000" pt_clust_9="32.41882" pt_clust_10="305.29919"></scales>
<clustering>
<clus scale="   32.419">  2  9  1 -1</clus>
<clus scale="   76.693">  5  6 -1 -1</clus>
<clus scale="   90.626">  7  8 -1 -1</clus>
<clus scale="  128.834">  1  5  2 -1</clus>
<clus scale="  305.299">  2 10  1 -1</clus>
<clus scale="   32.419">  2  5  1 -1</clus>
</clustering>
</event>
<event>
10    4  0.2857708E-005  0.1304768E+03  0.7546771E-02  0.1242228E+00
         21   -1    0    0  501  502  0.00000000000E+00  0.00000000000E+00  0.26119921229E+03  0.26119921229E+03  0.00000000000E+00 0.  1.
          2   -1    0    0  503    0 -0.00000000000E+00 -0.00000000000E+00 -0.19668613955E+03  0.19668613955E+03  0.00000000000E+00 0. -1.
         24    2    1    2    0    0 -0.18329716435E+02  0.44188640213E+02  0.20571050467E+02  0.95974176137E+02  0.80617987692E+02 0.  0.
         23    2    1    2    0    0 -0.72754301610E+02  0.38346020591E+02  0.12450461254E+03  0.17472827220E+03  0.90911852167E+02 0.  0.
        -13    1    3    3    0    0 -0.10802716910E+01  0.23350101828E+02  0.50490310035E+02  0.55638706399E+02  0.00000000000E+00 0.  1.
         14    1    3    3    0    0 -0.17249444744E+02  0.20838538385E+02 -0.29919259568E+02  0.40335469739E+02  0.00000000000E+00 0. -1.
        -11    1    4    4    0    0 -0.28474930382E+02  0.64442132274E+02  0.81344973452E+02  0.10761326488E+03  0.00000000000E+00 0.  1.
         11    1    4    4    0    0 -0.44279371229E+02 -0.26096111683E+02  0.43159639085E+02  0.67115007318E+02  0.00000000000E+00 0. -1.
         21    1    1    2  503  502 -0.24701769380E+02  0.28122218178E+00 -0.22595790295E+02  0.33478743039E+02  0.00000000000E+00 0.  1.
          1    1    1    2  501    0  0.11578578742E+03 -0.82815882985E+02 -0.57966799972E+02  0.15370416046E+03  0.00000000000E+00 0. -1.
<scales pt_clust_5="13000.00000" pt_clust_6="13000.00000" pt_clust_7="13000.00000" pt_clust_8="13000.00000" pt_clust_9="24.70337" pt_clust_10="93.59077"></scales>
<clustering>
<clus scale="   24.703">  2  9  1 -1</clus>
<clus scale="   80.618">  5  6 -1 -1</clus>
<clus scale="   90.912">  7  8 -1 -1</clus>
<clus scale="   95.007">  2  5  1 -1</clus>
<clus scale="   93.591">  1 10  2 -1</clus>
<clus scale="   93.591">  1  5  2 -1</clus>
</clustering>
</event>
<event>
10    4  0.2857708E-005  0.9725789E+02  0.7546771E-02  0.1292277E+00
         21   -1    0    0  501  502  0.00000000000E+00  0.00000000000E+00  0.10443581405E+03  0.10443581405E+03  0.00000000000E+00 0.  1.
          4   -1    0    0  503    0 -0.00000000000E+00 -0.00000000000E+00 -0.56556807980E+03  0.56556807980E+03  0.00000000000E+00 0. -1.
         24    2    1    2    0    0  0.89252665119E+01 -0.69507590925E+01 -0.45464188696E+03  0.46174354929E+03  0.79874191650E+02 0.  0.
         23    2    1    2    0    0 -0.64925840393E+02  0.36357344021E+02 -0.62838805050E+01  0.11786849490E+03  0.91193605701E+02 0.  0.
        -11    1    3    3    0    0  0.27118546654E+02 -0.22336554910E+02 -0.94586712744E+02  0.10090085969E+03  0.00000000000E+00 0.  1.
         12    1    3    3    0    0 -0.18193280142E+02  0.15385795817E+02 -0.36005517422E+03  0.36084268960E+03  0.00000000000E+00 0. -1.
        -11    1    4    4    0    0  0.32010523169E+01  0.47945229375E+02  0.29834378938E+01  0.48144497685E+02  0.00000000000E+00 0. -1.
         11    1    4    4    0    0 -0.68126892710E+02 -0.11587885353E+02 -0.92673183988E+01  0.69723997215E+02  0.00000000000E+00 0.  1.
         21    1    1    2  503  502  0.17257276011E+02 -0.11249703392E+02 -0.31320703407E+02  0.37488076286E+02  0.00000000000E+00 0. -1.
          3    1    1    2  501    0  0.38743297870E+02 -0.18156881537E+02  0.31114205130E+02  0.52903773380E+02  0.00000000000E+00 0. -1.
<scales pt_clust_5="13000.00000" pt_clust_6="13000.00000" pt_clust_7="13000.00000" pt_clust_8="13000.00000" pt_clust_9="20.60023" pt_clust_10="43.20533"></scales>
<clustering>
<clus scale="   20.600">  2  9  1 -1</clus>
<clus scale="   43.205">  1 10  2 -1</clus>
<clus scale="   79.874">  5  6 -1 -1</clus>
<clus scale="   86.734">  2  5  1 -1</clus>
<clus scale="   91.194">  7  8 -1 -1</clus>
<clus scale="   43.205">  1  5  2 -1</clus>
</clustering>
</event>
<event>
10    4  0.2857708E-005  0.2777813E+03  0.7546771E-02  0.1114722E+00
          4   -1    0    0  503    0 -0.00000000000E+00  0.00000000000E+00  0.17311249628E+03  0.17311249628E+03  0.00000000000E+00 0. -1.
         21   -1    0    0  501  502  0.00000000000E+00 -0.00000000000E+00 -0.18074012256E+04  0.18074012256E+04  0.00000000000E+00 0.  1.
         24    2    1    2    0    0  0.15294887206E+03  0.47032024329E+02 -0.36454441292E+03  0.40609354865E+03  0.80087280455E+02 0.  0.
         23    2    1    2    0    0  0.13014566756E+03 -0.19607996112E+03 -0.85430609536E+03  0.89085557548E+03  0.91648818094E+02 0.  0.
        -13    1    3    3    0    0  0.15104259265E+03  0.49980898150E+02 -0.36815249550E+03  0.40105886714E+03  0.00000000000E+00 0.  1.
         14    1    3    3    0    0  0.19062794082E+01 -0.29488738211E+01  0.36080825786E+01  0.50346815082E+01  0.00000000000E+00 0. -1.
        -11    1    4    4    0    0  0.13457698838E+03 -0.17474959159E+03 -0.82708775222E+03  0.85599213515E+03  0.00000000000E+00 0.  1.
         11    1    4    4    0    0 -0.44313208240E+01 -0.21330369531E+02 -0.27218343142E+02  0.34863440335E+02  0.00000000000E+00 0. -1.
         21    1    1    2  503  502  0.33060949390E+01 -0.85144029394E+02  0.42202476267E+02  0.95086723617E+02  0.00000000000E+00 0. -1.
          3    1    1    2  501    0 -0.28640063456E+03  0.23419196619E+03 -0.45764069732E+03  0.58847787413E+03  0.00000000000E+00 0. -1.
<scales pt_clust_5="13000.00000" pt_clust_6="13000.00000" pt_clust_7="13000.00000" pt_clust_8="13000.00000" pt_clust_9="85.20819" pt_clust_10="262.22703"></scales>
<clustering>
<clus scale="   80.087">  5  6 -1 -1</clus>
<clus scale="   85.208">  1  9  2 -1</clus>
<clus scale="   91.649">  7  8 -1 -1</clus>
<clus scale="  175.826">  1  5  2 -1</clus>
<clus scale="  262.227">  2 10  1 -1</clus>
<clus scale="  262.227">  2  5  1 -1</clus>
</clustering>
</event>
<event>
10    4  0.2857708E-005  0.1249966E+03  0.7546771E-02  0.1239272E+00
         21   -1    0    0  501  502  0.00000000000E+00  0.00000000000E+00  0.26574948592E+03  0.26574948592E+03  0.00000000000E+00 0. -1.
          4   -1    0    0  503    0 -0.00000000000E+00 -0.00000000000E+00 -0.10271125660E+03  0.10271125660E+03  0.00000000000E+00 0. -1.
         24    2    1    2    0    0  0.79456437265E+02 -0.36353986693E+02  0.25974600842E+02  0.11936781782E+03  0.77065285765E+02 0.  0.
         23    2    1    2    0    0 -0.61630320993E+02  0.40673414886E+02  0.14008068287E+03  0.18295899503E+03  0.91644819851E+02 0.  0.
        -13    1    3    3    0    0 -0.10233448438E+02 -0.23062467531E+02  0.69610848870E+00  0.25240551550E+02  0.00000000000E+00 0.  1.
         14    1    3    3    0    0  0.89689885703E+02 -0.13291519162E+02  0.25278492353E+02  0.94127266266E+02  0.00000000000E+00 0. -1.
        -13    1    4    4    0    0 -0.68647605479E+02  0.62913112697E+02  0.12186415033E+03  0.15336696067E+03  0.00000000000E+00 0. -1.
         13    1    4    4    0    0  0.70172844863E+01 -0.22239697811E+02  0.18216532537E+02  0.29592034367E+02  0.00000000000E+00 0.  1.
         21    1    1    2  503  502  0.18274590554E+02  0.16162425489E+02  0.11195040142E+01  0.24422079085E+02  0.00000000000E+00 0. -1.
          3    1    1    2  501    0 -0.36100706826E+02 -0.20481853682E+02 -0.41365584051E+01  0.41711850583E+02  0.00000000000E+00 0. -1.
<scales pt_clust_5="13000.00000" pt_clust_6="13000.00000" pt_clust_7="13000.00000" pt_clust_8="13000.00000" pt_clust_9="24.39641" pt_clust_10="35.51963"></scales>
<clustering>
<clus scale="   24.396">  2  9  1 -1</clus>
<clus scale="   35.520">  1 10  2 -1</clus>
<clus scale="   77.065">  5  6 -1 -1</clus>
<clus scale="   91.645">  7  8 -1 -1</clus>
<clus scale="  114.736">  2  5  1 -1</clus>
<clus scale="   35.520">  1  5  2 -1</clus>
</clustering>
</event>
<event>
10    4  0.2857708E-005  0.2165559E+03  0.7546771E-02  0.1151383E+00
         21   -1    0    0  501  502  0.00000000000E+00  0.00000000000E+00  0.45706326103E+03  0.45706326103E+03  0.00000000000E+00 0.  1.
          2   -1    0    0  503    0 -0.00000000000E+00 -0.00000000000E+00 -0.30524905122E+03  0.30524905122E+03  0.00000000000E+00 0. -1.
         24    2    1    2    0    0 -0.38859589785E+01  0.13413837739E+03  0.19656866486E+02  0.15706439719E+03  0.79212546339E+02 0.  0.
         23    2    1    2    0    0 -0.72701843861E+01  0.14489873502E+03  0.15766496028E+03  0.24590129600E+03  0.12066776157E+03 0.  0.
        -13    1    3    3    0    0  0.29541418850E+02  0.59916976202E+02  0.33109842342E+02  0.74558709248E+02  0.00000000000E+00 0.  1.
         14    1    3    3    0    0 -0.33427377828E+02  0.74221401189E+02 -0.13452975856E+02  0.82505687939E+02  0.00000000000E+00 0. -1.
        -11    1    4    4    0    0 -0.49111315803E+02  0.13643973623E+03  0.13200823731E+03  0.19609665393E+03  0.00000000000E+00 0.  1.
         11    1    4    4    0    0  0.41841131417E+02  0.84589987937E+01  0.25656722970E+02  0.49804642077E+02  0.00000000000E+00 0. -1.
         21    1    1    2  503  502  0.22757547086E+02 -0.15874409386E+02 -0.84897106868E+02  0.89316412698E+02  0.00000000000E+00 0. -1.
          1    1    1    2  501    0 -0.11601403722E+02 -0.26316270303E+03  0.59389489911E+02  0.27003020636E+03  0.00000000000E+00 0. -1.
<scales pt_clust_5="13000.00000" pt_clust_6="13000.00000" pt_clust_7="13000.00000" pt_clust_8="13000.00000" pt_clust_9="27.74712" pt_clust_10="179.82147"></scales>
<clustering>
<clus scale="   27.747">  2  9  1 -1</clus>
<clus scale="   79.213">  5  6 -1 -1</clus>
<clus scale="  120.668">  7  8 -1 -1</clus>
<clus scale="  151.533">  2  5  1 -1</clus>
<clus scale="  179.821">  1 10  2 -1</clus>
<clus scale="  179.821">  1  5  2 -1</clus>
</clustering>
</event>
<event>
10    4  0.2857708E-005  0.2518414E+03  0.7546771E-02  0.1156419E+00
          2   -1    0    0  503    0 -0.00000000000E+00  0.00000000000E+00  0.11057116225E+04  0.11057116225E+04  0.00000000000E+00 0. -1.
         21   -1    0    0  501  502  0.00000000000E+00 -0.00000000000E+00 -0.19503347599E+03  0.19503347599E+03  0.00000000000E+00 0. -1.
         24    2    1    2    0    0  0.21323642255E+02 -0.24212717437E+02  0.28379409366E+03  0.29435896757E+03  0.71183992492E+02 0.  0.
         23    2    1    2    0    0  0.14082486329E+03 -0.11010191858E+03  0.34365041402E+03  0.39875735352E+03  0.94645366153E+02 0.  0.
        -13    1    3    3    0    0  0.20289694065E+02 -0.35043737139E+02  0.74596094178E+02  0.84878221380E+02  0.00000000000E+00 0.  1.
         14    1    3    3    0    0  0.10339481900E+01  0.10831019702E+02  0.20919799948E+03  0.20948074619E+03  0.00000000000E+00 0. -1.
        -13    1    4    4    0    0  0.14629911190E+03 -0.72874010430E+02  0.26113636285E+03  0.30806858253E+03  0.00000000000E+00 0. -1.
         13    1    4    4    0    0 -0.54742486124E+01 -0.37227908152E+02  0.82514051168E+02  0.90688770989E+02  0.00000000000E+00 0.  1.
         21    1    1    2  503  502  0.64457365788E+02  0.31433475599E+02  0.34404520836E+03  0.35143978259E+03  0.00000000000E+00 0. -1.
          1    1    1    2  501    0 -0.22660587133E+03  0.10288116042E+03 -0.60811569494E+02  0.25618899484E+03  0.00000000000E+00 0. -1.
<scales pt_clust_5="13000.00000" pt_clust_6="13000.00000" pt_clust_7="13000.00000" pt_clust_8="13000.00000" pt_clust_9="71.71343" pt_clust_10="233.38028"></scales>
<clustering>
<clus scale="   71.184">  5  6 -1 -1</clus>
<clus scale="   71.713">  1  9  2 -1</clus>
<clus scale="   85.580">  1  5  2 -1</clus>
<clus scale="   94.645">  7  8 -1 -1</clus>
<clus scale="  233.380">  2 10  1 -1</clus>
<clus scale="  233.380">  2  5  1 -1</clus>
</clustering>
</event>
<event>
10    4  0.2857708E-005  0.1116299E+03  0.7546771E-02  0.1262674E+00
         21   -1    0    0  501  502  0.00000000000E+00  0.00000000000E+00  0.15794603690E+03  0.15794603690E+03  0.00000000000E+00 0. -1.
          2   -1    0    0  503    0 -0.00000000000E+00 -0.00000000000E+00 -0.36904716136E+03  0.36904716136E+03  0.00000000000E+00 0. -1.
         24    2    1    2    0    0 -0.28973696642E+02 -0.59463023587E+02 -0.18836873132E+03  0.21453011099E+03  0.78517917122E+02 0.  0.
         23    2    1    2    0    0  0.13518952002E+02  0.31747813541E+02 -0.33469448844E+02  0.10361704026E+03  0.91791074179E+02 0.  0.
        -11    1    3    3    0    0 -0.52057588447E+02 -0.18840745142E+02 -0.90706984444E+02  0.10626722552E+03  0.00000000000E+00 0.  1.
         12    1    3    3    0    0  0.23083891804E+02 -0.40622278445E+02 -0.97661746881E+02  0.10826288547E+03  0.00000000000E+00 0. -1.
        -13    1    4    4    0    0  0.36268072400E+02 -0.12340880844E+02  0.77855884664E+01  0.39093296144E+02  0.00000000000E+00 0. -1.
         13    1    4    4    0    0 -0.22749120398E+02  0.44088694386E+02 -0.41255037311E+02  0.64523744118E+02  0.00000000000E+00 0.  1.
         21    1    1    2  503  502 -0.20940298850E+02 -0.10030076084E+02 -0.91256487715E+02  0.94163926704E+02  0.00000000000E+00 0.  1.
          1    1    1    2  501    0  0.36395043490E+02  0.37745286129E+02  0.10199354342E+03  0.11468212030E+03  0.00000000000E+00 0. -1.
<scales pt_clust_5="13000.00000" pt_clust_6="13000.00000" pt_clust_7="13000.00000" pt_clust_8="13000.00000" pt_clust_9="23.21850" pt_clust_10="51.93469"></scales>
<clustering>
<clus scale="   23.218">  2  9  1 -1</clus>
<clus scale="   51.935">  1 10  2 -1</clus>
<clus scale="   78.518">  5  6 -1 -1</clus>
<clus scale="   91.791">  7  8 -1 -1</clus>
<clus scale="  100.999">  2  5  1 -1</clus>
<clus scale="   51.935">  1  5  2 -1</clus>
</clustering>
</event>
<event>
10    4  0.2857708E-005  0.9359195E+02  0.7546771E-02  0.1294795E+00
          2   -1    0    0  503    0 -0.00000000000E+00  0.00000000000E+00  0.52974832985E+03  0.52974832985E+03  0.00000000000E+00 0. -1.
         21   -1    0    0  501  502  0.00000000000E+00 -0.00000000000E+00 -0.89316392413E+02  0.89316392413E+02  0.00000000000E+00 0.  1.
         24    2    1    2    0    0  0.13043734668E+02 -0.13454666152E+02  0.38237288574E+02  0.91570056439E+02  0.81066749925E+02 0.  0.
         23    2    1    2    0    0 -0.29959643630E+02  0.89105245391E+02  0.18418579024E+02  0.12602703639E+03  0.81891665298E+02 0.  0.
        -11    1    3    3    0    0  0.24783011523E+02 -0.61303367942E+00 -0.19326791647E+02  0.31434031651E+02  0.00000000000E+00 0.  1.
         12    1    3    3    0    0 -0.11739276854E+02 -0.12841632472E+02  0.57564080221E+02  0.60136024788E+02  0.00000000000E+00 0. -1.
        -11    1    4    4    0    0 -0.13709339367E+02  0.16794163062E+02  0.42823021313E+02  0.47997927593E+02  0.00000000000E+00 0. -1.
         11    1    4    4    0    0 -0.16250304263E+02  0.72311082329E+02 -0.24404442289E+02  0.78029108797E+02  0.00000000000E+00 0.  1.
         21    1    1    2  503  502  0.33355576716E+02 -0.12705190548E+02  0.50134646108E+02  0.61542660856E+02  0.00000000000E+00 0. -1.
          1    1    1    2  501    0 -0.16439667754E+02 -0.62945388691E+02  0.33364142373E+03  0.33992496858E+03  0.00000000000E+00 0. -1.
<scales pt_clust_5="13000.00000" pt_clust_6="13000.00000" pt_clust_7="13000.00000" pt_clust_8="13000.00000" pt_clust_9="35.69337" pt_clust_10="72.34002"></scales>
<clustering>
<clus scale="   35.693">  1  9  2 -1</clus>
<clus scale="   72.340">  2 10  1 -1</clus>
<clus scale="   81.067">  5  6 -1 -1</clus>
<clus scale="   81.892">  7  8 -1 -1</clus>
<clus scale="   92.871">  1  5  2 -1</clus>
<clus scale="   72.340">  2  5  1 -1</clus>
</clustering>
</event>
<event>
10    4  0.2857708E-005  0.3169038E+03  0.7546771E-02  0.1077407E+00
         -1   -1    0    0    0  501 -0.00000000000E+00  0.00000000000E+00  0.48060162192E+03  0.48060162192E+03  0.00000000000E+00 0.  1.
         21   -1    0    0  503  502  0.00000000000E+00 -0.00000000000E+00 -0.63738828892E+03  0.63738828892E+03  0.00000000000E+00 0. -1.
         23    2    1    2    0    0 -0.17989445935E+03 -0.24399475854E+03  0.18458939306E+03  0.36641522469E+03  0.91057202640E+02 0.  0.
         24    2    1    2    0    0  0.15469798011E+03  0.28946599882E+03 -0.31822436549E+03  0.46425517678E+03  0.80895567573E+02 0.  0.
        -11    1    4    4    0    0  0.74065058791E+02  0.63996491346E+02 -0.10612494159E+03  0.14437342923E+03  0.00000000000E+00 0.  1.
         12    1    4    4    0    0  0.80632921318E+02  0.22546950747E+03 -0.21209942389E+03  0.31988174755E+03  0.00000000000E+00 0. -1.
        -11    1    3    3    0    0 -0.15201599451E+03 -0.22384504882E+03  0.12601681066E+03  0.29848903671E+03  0.00000000000E+00 0.  1.
         11    1    3    3    0    0 -0.27878464834E+02 -0.20149709724E+02  0.58572582407E+02  0.67926187978E+02  0.00000000000E+00 0. -1.
         21    1    1    2  503  501  0.24095158926E+02 -0.84349322120E+01  0.12860017793E+03  0.13110961265E+03  0.00000000000E+00 0. -1.
         -2    1    1    2    0  502  0.11013203130E+01 -0.37036308067E+02 -0.15175187251E+03  0.15620989672E+03  0.00000000000E+00 0.  1.
<scales pt_clust_5="13000.00000" pt_clust_6="13000.00000" pt_clust_7="13000.00000" pt_clust_8="13000.00000" pt_clust_9="25.52890" pt_clust_10="37.11112"></scales>
<clustering>
<clus scale="   25.529">  1  9  2 -1</clus>
<clus scale="   37.111">  2 10  1 -1</clus>
<clus scale="   80.896">  5  6 -1 -1</clus>
<clus scale="   91.057">  7  8 -1 -1</clus>
<clus scale="  314.135">  2  5  1 -1</clus>
<clus scale="   37.111">  2  5  1 -1</clus>
</clustering>
</event>
<event>
10    4  0.2857708E-005  0.2484206E+03  0.7546771E-02  0.1159137E+00
         21   -1    0    0  503  502  0.00000000000E+00  0.00000000000E+00  0.34548134882E+03  0.34548134882E+03  0.00000000000E+00 0. -1.
          2   -1    0    0  502    0 -0.00000000000E+00 -0.00000000000E+00 -0.94473460905E+03  0.94473460905E+03  0.00000000000E+00 0. -1.
         24    2    1    2    0    0 -0.20847079702E+02  0.17596612242E+02 -0.11223244863E+03  0.13999275299E+03  0.79105036950E+02 0.  0.
         23    2    1    2    0    0  0.21151665074E+02  0.22820210038E+03  0.25966853317E+03  0.35875497553E+03  0.93561711158E+02 0.  0.
        -11    1    3    3    0    0 -0.43082206218E+02 -0.46637969834E+01 -0.32169466059E+02  0.53969454707E+02  0.00000000000E+00 0.  1.
         12    1    3    3    0    0  0.22235126516E+02  0.22260409225E+02 -0.80062982566E+02  0.86023298283E+02  0.00000000000E+00 0. -1.
        -13    1    4    4    0    0 -0.33298971344E+02  0.51723980366E+02  0.81746810452E+02  0.10230705086E+03  0.00000000000E+00 0.  1.
         13    1    4    4    0    0  0.54450636418E+02  0.17647812002E+03  0.17792172272E+03  0.25644792467E+03  0.00000000000E+00 0. -1.
         21    1    1    2  503  501  0.22844608859E+02 -0.33108944722E+02 -0.20789676493E+03  0.21175255192E+03  0.00000000000E+00 0.  1.
          1    1    1    2  501    0 -0.23149194232E+02 -0.21268976790E+03 -0.53879257984E+03  0.57971567743E+03  0.00000000000E+00 0. -1.
<scales pt_clust_5="13000.00000" pt_clust_6="13000.00000" pt_clust_7="13000.00000" pt_clust_8="13000.00000" pt_clust_9="39.88229" pt_clust_10="247.82844"></scales>
<clustering>
<clus scale="   39.882">  9 10 -1 -1</clus>
<clus scale="   79.105">  5  6 -1 -1</clus>
<clus scale="   83.677">  2  5  1 -1</clus>
<clus scale="   93.562">  7  8 -1 -1</clus>
<clus scale="  247.828">  1  9  2 -1</clus>
<clus scale="  247.828">  1  5  2 -1</clus>
</clustering>
</event>
<event>
10    4  0.2857708E-005  0.1168916E+03  0.7546771E-02  0.1250975E+00
         21   -1    0    0  501  502  0.00000000000E+00  0.00000000000E+00  0.12207043130E+03  0.12207043130E+03  0.00000000000E+00 0. -1.
          2   -1    0    0  503    0 -0.00000000000E+00 -0.00000000000E+00 -0.42237223283E+03  0.42237223283E+03  0.00000000000E+00 0. -1.
         23    2    1    2    0    0  0.32848416663E+02 -0.42761331797E+02 -0.31872401638E+03  0.33598536730E+03  0.91616693051E+02 0.  0.
         24    2    1    2    0    0 -0.76644581136E+02  0.35053653259E+02  0.26192160934E+02  0.12167353468E+03  0.83757204602E+02 0.  0.
        -11    1    4    4    0    0  0.17934077250E+02  0.11436279458E+02  0.62793786316E+01  0.22177696243E+02  0.00000000000E+00 0.  1.
         12    1    4    4    0    0 -0.94578658385E+02  0.23617373801E+02  0.19912782303E+02  0.99495838437E+02  0.00000000000E+00 0. -1.
        -13    1    3    3    0    0 -0.30297302736E+02 -0.40223297175E+01 -0.12214223360E+03  0.12590802563E+03  0.00000000000E+00 0. -1.
         13    1    3    3    0    0  0.63145719398E+02 -0.38739002080E+02 -0.19658178278E+03  0.21007734167E+03  0.00000000000E+00 0.  1.
         21    1    1    2  503  502  0.22735572454E+02 -0.68815773837E+01 -0.39444381759E+02  0.46044778363E+02  0.00000000000E+00 0. -1.
          1    1    1    2  501    0  0.21060592019E+02  0.14589255922E+02  0.31674435680E+02  0.40738983789E+02  0.00000000000E+00 0. -1.
<scales pt_clust_5="13000.00000" pt_clust_6="13000.00000" pt_clust_7="13000.00000" pt_clust_8="13000.00000" pt_clust_9="23.75421" pt_clust_10="25.79750"></scales>
<clustering>
<clus scale="   23.754">  2  9  1 -1</clus>
<clus scale="   25.798">  1 10  2 -1</clus>
<clus scale="   83.757">  5  6 -1 -1</clus>
<clus scale="   91.617">  7  8 -1 -1</clus>
<clus scale="  110.839">  1  5  2 -1</clus>
<clus scale="   25.798">  1  5  2 -1</clus>
</clustering>
</event>
<event>
10    4  0.2857708E-005  0.1780975E+03  0.7546771E-02  0.1172009E+00
          2   -1    0    0  503    0 -0.00000000000E+00  0.00000000000E+00  0.11344542878E+03  0.11344542878E+03  0.00000000000E+00 0. -1.
         21   -1    0    0  501  502  0.00000000000E+00 -0.00000000000E+00 -0.69456495338E+03  0.69456495338E+03  0.00000000000E+00 0. -1.
         24    2    1    2    0    0  0.67393876576E+01 -0.12958553432E+03 -0.83222462248E+02  0.17386929569E+03  0.80415941889E+02 0.  0.
         23    2    1    2    0    0  0.67164037451E+02  0.16494047633E+03 -0.13084960023E+03  0.24194275230E+03  0.98479992142E+02 0.  0.
        -11    1    3    3    0    0 -0.22515645702E+02 -0.15031989976E+02 -0.39346212019E+02  0.47760228477E+02  0.00000000000E+00 0.  1.
         12    1    3    3    0    0  0.29255033359E+02 -0.11455354435E+03 -0.43876250230E+02  0.12610906722E+03  0.00000000000E+00 0. -1.
        -13    1    4    4    0    0  0.59697881254E+02  0.49955235511E+02 -0.91614115326E+02  0.12021858720E+03  0.00000000000E+00 0.  1.
         13    1    4    4    0    0  0.74661561966E+01  0.11498524082E+03 -0.39235484907E+02  0.12172416510E+03  0.00000000000E+00 0. -1.
         21    1    1    2  503  502 -0.11244148828E+02 -0.27440044373E+02 -0.12688264770E+02  0.32254906307E+02  0.00000000000E+00 0. -1.
          1    1    1    2  501    0 -0.62659276281E+02 -0.79148976305E+01 -0.35435919735E+03  0.35994342785E+03  0.00000000000E+00 0. -1.
<scales pt_clust_5="13000.00000" pt_clust_6="13000.00000" pt_clust_7="13000.00000" pt_clust_8="13000.00000" pt_clust_9="29.65446" pt_clust_10="63.55409"></scales>
<clustering>
<clus scale="   29.654">  1  9  2 -1</clus>
<clus scale="   63.554">  2 10  1 -1</clus>
<clus scale="   80.416">  5  6 -1 -1</clus>
<clus scale="   98.480">  7  8 -1 -1</clus>
<clus scale="  168.781">  1  5  2 -1</clus>
<clus scale="   63.554">  2  5  1 -1</clus>
</clustering>
</event>
<event>
10    4  0.2857708E-005  0.1963688E+03  0.7546771E-02  0.1180472E+00
         21   -1    0    0  501  502  0.00000000000E+00  0.00000000000E+00  0.55350746493E+02  0.55350746493E+02  0.00000000000E+00 0. -1.
          2   -1    0    0  503    0 -0.00000000000E+00 -0.00000000000E+00 -0.15744753348E+04  0.15744753348E+04  0.00000000000E+00 0. -1.
         23    2    1    2    0    0  0.31284146699E+02  0.18448032967E+01 -0.27367400789E+03  0.29066110611E+03  0.92759446300E+02 0.  0.
         24    2    1    2    0    0  0.43131528673E+02 -0.14537325719E+03 -0.74686606284E+03  0.76755047076E+03  0.91274841389E+02 0.  0.
        -13    1    4    4    0    0  0.53645887438E+02 -0.57584785876E+02 -0.22789503787E+03  0.24110171523E+03  0.00000000000E+00 0.  1.
         14    1    4    4    0    0 -0.10514358765E+02 -0.87788471317E+02 -0.51897102497E+03  0.52644875553E+03  0.00000000000E+00 0. -1.
        -13    1    3    3    0    0 -0.19118066253E+02 -0.94951293645E+01 -0.13166096841E+02  0.25079953049E+02  0.00000000000E+00 0. -1.
         13    1    3    3    0    0  0.50402212952E+02  0.11339932661E+02 -0.26050791105E+03  0.26558115306E+03  0.00000000000E+00 0.  1.
         21    1    1    2  503  502  0.72101012664E+02  0.22033333339E+02 -0.23281226625E+03  0.24471529401E+03  0.00000000000E+00 0. -1.
          1    1    1    2  501    0 -0.14651668804E+03  0.12149512056E+03 -0.26577225133E+03  0.32689921041E+03  0.00000000000E+00 0. -1.
<scales pt_clust_5="13000.00000" pt_clust_6="13000.00000" pt_clust_7="13000.00000" pt_clust_8="13000.00000" pt_clust_9="75.39247" pt_clust_10="173.86669"></scales>
<clustering>
<clus scale="   75.392">  2  9  1 -1</clus>
<clus scale="   91.275">  5  6 -1 -1</clus>
<clus scale="   92.759">  7  8 -1 -1</clus>
<clus scale="  103.972">  2  7  1 -1</clus>
<clus scale="  173.867">  1 10  2 -1</clus>
<clus scale="  173.867">  1  5  2 -1</clus>
</clustering>
</event>
<event>
10    4  0.2857708E-005  0.1998196E+03  0.7546771E-02  0.1176251E+00
          2   -1    0    0  503    0 -0.00000000000E+00  0.00000000000E+00  0.25911757892E+03  0.25911757892E+03  0.00000000000E+00 0. -1.
         21   -1    0    0  501  502  0.00000000000E+00 -0.00000000000E+00 -0.47435670987E+03  0.47435670987E+03  0.00000000000E+00 0. -1.
         24    2    1    2    0    0 -0.12002235778E+02  0.39846218862E+02  0.62302345507E+02  0.10965260098E+03  0.80064572845E+02 0.  0.
         23    2    1    2    0    0 -0.16621284168E+03  0.15741624072E+02 -0.23708769735E+03  0.30293312029E+03  0.87654958015E+02 0.  0.
        -11    1    3    3    0    0  0.29138893913E+02  0.31934473674E+02  0.13403176036E+02  0.45260699013E+02  0.00000000000E+00 0.  1.
         12    1    3    3    0    0 -0.41141129691E+02  0.79117451884E+01  0.48899169470E+02  0.64391901968E+02  0.00000000000E+00 0. -1.
        -11    1    4    4    0    0 -0.13168073178E+03  0.49117331552E+02 -0.17666437715E+03  0.22574904105E+03  0.00000000000E+00 0. -1.
         11    1    4    4    0    0 -0.34532109904E+02 -0.33375707480E+02 -0.60423320200E+02  0.77184079241E+02  0.00000000000E+00 0.  1.
         21    1    1    2  503  502 -0.15883947800E+02  0.76453976334E+02  0.15378393166E+02  0.79586464121E+02  0.00000000000E+00 0. -1.
          1    1    1    2  501    0  0.19409902526E+03 -0.13204181927E+03 -0.55832172276E+02  0.24130210340E+03  0.00000000000E+00 0. -1.
<scales pt_clust_5="13000.00000" pt_clust_6="13000.00000" pt_clust_7="13000.00000" pt_clust_8="13000.00000" pt_clust_9="78.08656" pt_clust_10="179.56760"></scales>
<clustering>
<clus scale="   78.087">  1  9  2 -1</clus>
<clus scale="   80.065">  5  6 -1 -1</clus>
<clus scale="   87.655">  7  8 -1 -1</clus>
<clus scale="  108.529">  1  5  2 -1</clus>
<clus scale="  179.568">  2 10  1 -1</clus>
<clus scale="  179.568">  2  5  1 -1</clus>
</clustering>
</event>
<event>
10    4  0.2857708E-005  0.2441565E+03  0.7546771E-02  0.1117914E+00
         -1   -1    0    0    0  501 -0.00000000000E+00  0.00000000000E+00  0.49056201679E+03  0.49056201679E+03  0.00000000000E+00 0.  1.
         21   -1    0    0  503  502  0.00000000000E+00 -0.00000000000E+00 -0.23483659688E+03  0.23483659688E+03  0.00000000000E+00 0.  1.
         24    2    1    2    0    0  0.23065468309E+03  0.56165352109E+02 -0.10893098133E+02  0.25233470108E+03  0.84841099543E+02 0.  0.
         23    2    1    2    0    0 -0.20458737846E+03 -0.18805894539E+02  0.58329901684E+02  0.23522126899E+03  0.98574899747E+02 0.  0.
        -11    1    3    3    0    0  0.17516574876E+03  0.43441702989E+02  0.29043757744E+02  0.18279431326E+03  0.00000000000E+00 0.  1.
         12    1    3    3    0    0  0.55488934332E+02  0.12723649120E+02 -0.39936855878E+02  0.69540387816E+02  0.00000000000E+00 0. -1.
        -13    1    4    4    0    0 -0.93994022422E+02  0.30224346265E+02 -0.46327825692E+01  0.98842551731E+02  0.00000000000E+00 0.  1.
         13    1    4    4    0    0 -0.11059335603E+03 -0.49030240803E+02  0.62962684253E+02  0.13637871726E+03  0.00000000000E+00 0. -1.
         21    1    1    2  503  501 -0.55722634763E+02 -0.47545579036E+02  0.18442311328E+03  0.19843759428E+03  0.00000000000E+00 0.  1.
         -2    1    1    2    0  502  0.29655330132E+02  0.10186121466E+02  0.23865503079E+02  0.39405049334E+02  0.00000000000E+00 0.  1.
<scales pt_clust_5="13000.00000" pt_clust_6="13000.00000" pt_clust_7="13000.00000" pt_clust_8="13000.00000" pt_clust_9="72.35088" pt_clust_10="31.35597"></scales>
<clustering>
<clus scale="   31.356">  2 10  1 -1</clus>
<clus scale="   72.351">  1  9  2 -1</clus>
<clus scale="   84.841">  5  6 -1 -1</clus>
<clus scale="   98.575">  7  8 -1 -1</clus>
<clus scale="  238.942">  1  5  2 -1</clus>
<clus scale="   31.356">  2  5  1 -1</clus>
</clustering>
</event>
<event>
10    4  0.2857708E-005  0.1442109E+03  0.7546771E-02  0.1230408E+00
          2   -1    0    0  503    0 -0.00000000000E+00  0.00000000000E+00  0.82079199198E+03  0.82079199198E+03  0.00000000000E+00 0. -1.
         21   -1    0    0  501  502  0.00000000000E+00 -0.00000000000E+00 -0.69810506709E+02  0.69810506709E+02  0.00000000000E+00 0. -1.
         24    2    1    2    0    0  0.18788740872E+02 -0.57626105258E+01  0.33759741261E+03  0.34869960790E+03  0.85048098662E+02 0.  0.
         23    2    1    2    0    0 -0.51679928460E+02 -0.83181206202E+02  0.78048523422E+02  0.15478026823E+03  0.90969397908E+02 0.  0.
        -11    1    3    3    0    0  0.36509145052E+02  0.84830184827E+01  0.64066050987E+02  0.74224916059E+02  0.00000000000E+00 0.  1.
         12    1    3    3    0    0 -0.17720404180E+02 -0.14245629009E+02  0.27353136163E+03  0.27447469185E+03  0.00000000000E+00 0. -1.
        -13    1    4    4    0    0 -0.22023281049E+02 -0.84964227876E+02  0.20680677405E+02  0.90175580644E+02  0.00000000000E+00 0. -1.
         13    1    4    4    0    0 -0.29656647411E+02  0.17830216739E+01  0.57367846018E+02  0.64604687591E+02  0.00000000000E+00 0.  1.
         21    1    1    2  503  502 -0.17405773968E+02 -0.40336316218E+02  0.14561067182E+03  0.15209354727E+03  0.00000000000E+00 0. -1.
          1    1    1    2  501    0  0.50296961556E+02  0.12928013295E+03  0.18972487741E+03  0.23502907528E+03  0.00000000000E+00 0. -1.
<scales pt_clust_5="13000.00000" pt_clust_6="13000.00000" pt_clust_7="13000.00000" pt_clust_8="13000.00000" pt_clust_9="43.93153" pt_clust_10="111.89893"></scales>
<clustering>
<clus scale="   43.932">  1  9  2 -1</clus>
<clus scale="   85.048">  5  6 -1 -1</clus>
<clus scale="   89.589">  1  5  2 -1</clus>
<clus scale="   90.969">  7  8 -1 -1</clus>
<clus scale="  111.899">  2 10  1 -1</clus>
<clus scale="  111.899">  2  5  1 -1</clus>
</clustering>
</event>
<event>
10    4  0.2857708E-005  0.2519058E+03  0.7546771E-02  0.1146084E+00
         21   -1    0    0  503  502  0.00000000000E+00  0.00000000000E+00  0.12872899017E+03  0.12872899017E+03  0.00000000000E+00 0.  1.
          2   -1    0    0  502    0 -0.00000000000E+00 -0.00000000000E+00 -0.82426928952E+03  0.82426928952E+03  0.00000000000E+00 0. -1.
         24    2    1    2    0    0  0.73180017939E+02 -0.10658864740E+02 -0.14804695601E+03  0.18395285688E+03  0.80323259070E+02 0.  0.
         23    2    1    2    0    0  0.11132970414E+03 -0.19024473323E+03 -0.14015182598E+03  0.27590201989E+03  0.88837090851E+02 0.  0.
        -13    1    3    3    0    0  0.58707546596E+02  0.24511941538E+02 -0.57542021610E+02  0.85781673778E+02  0.00000000000E+00 0.  1.
         14    1    3    3    0    0  0.14472471343E+02 -0.35170806277E+02 -0.90504934401E+02  0.98171183103E+02  0.00000000000E+00 0. -1.
        -11    1    4    4    0    0  0.92746215017E+02 -0.17594142776E+03 -0.15133724820E+03  0.24992040552E+03  0.00000000000E+00 0.  1.
         11    1    4    4    0    0  0.18583489127E+02 -0.14303305466E+02  0.11185422218E+02  0.25981614375E+02  0.00000000000E+00 0. -1.
         21    1    1    2  503  501 -0.27129323685E+02  0.24740110857E+02 -0.27638639001E+02  0.45956149258E+02  0.00000000000E+00 0. -1.
          1    1    1    2  501    0 -0.15738039840E+03  0.17616348711E+03 -0.37970287836E+03  0.44718725365E+03  0.00000000000E+00 0. -1.
<scales pt_clust_5="13000.00000" pt_clust_6="13000.00000" pt_clust_7="13000.00000" pt_clust_8="13000.00000" pt_clust_9="21.07350" pt_clust_10="241.70596"></scales>
<clustering>
<clus scale="   21.074">  9 10 -1 -1</clus>
<clus scale="   80.323">  5  6 -1 -1</clus>
<clus scale="   88.837">  7  8 -1 -1</clus>
<clus scale="  109.182">  2  5  1 -1</clus>
<clus scale="  241.706">  1  9  2 -1</clus>
<clus scale="  241.706">  1  5  2 -1</clus>
</clustering>
</event>
<event>
10    4  0.2857708E-005  0.1375056E+03  0.7546771E-02  0.1229928E+00
         21   -1    0    0  501  502  0.00000000000E+00  0.00000000000E+00  0.26241689463E+03  0.26241689463E+03  0.00000000000E+00 0. -1.
          2   -1    0    0  503    0 -0.00000000000E+00 -0.00000000000E+00 -0.26129385905E+03  0.26129385905E+03  0.00000000000E+00 0. -1.
         24    2    1    2    0    0  0.23831108177E+02  0.69793563109E+02 -0.36709306159E+02  0.10215967242E+03  0.60414918211E+02 0.  0.
         23    2    1    2    0    0  0.62865091703E+02 -0.66507137891E+01  0.37709210315E+02  0.12142165764E+03  0.96565949756E+02 0.  0.
        -13    1    3    3    0    0 -0.14467718155E+02  0.50264728591E+02 -0.21629629399E+02  0.56601225048E+02  0.00000000000E+00 0.  1.
         14    1    3    3    0    0  0.38298826333E+02  0.19528834518E+02 -0.15079676760E+02  0.45558447376E+02  0.00000000000E+00 0. -1.
        -11    1    4    4    0    0  0.19426882978E+02  0.97781216079E+01 -0.31376559149E+02  0.38177269526E+02  0.00000000000E+00 0. -1.
         11    1    4    4    0    0  0.43438208725E+02 -0.16428835397E+02  0.69085769464E+02  0.83244388112E+02  0.00000000000E+00 0.  1.
         21    1    1    2  503  502  0.16691434876E+02  0.18269984227E+02 -0.11965428000E+03  0.12218650925E+03  0.00000000000E+00 0.  1.
          1    1    1    2  501    0 -0.10338763476E+03 -0.81412833548E+02  0.11977741142E+03  0.17794291437E+03  0.00000000000E+00 0. -1.
<scales pt_clust_5="13000.00000" pt_clust_6="13000.00000" pt_clust_7="13000.00000" pt_clust_8="13000.00000" pt_clust_9="24.74664" pt_clust_10="97.89176"></scales>
<clustering>
<clus scale="   24.747">  2  9  1 -1</clus>
<clus scale="   60.415">  5  6 -1 -1</clus>
<clus scale="   96.566">  7  8 -1 -1</clus>
<clus scale="  104.374">  2  5  1 -1</clus>
<clus scale="   97.892">  1 10  2 -1</clus>
<clus scale="   97.892">  1  5  2 -1</clus>
</clustering>
</event>
<event>
10    4  0.2857708E-005  0.1013816E+03  0.7546771E-02  0.1281028E+00
         21   -1    0    0  501  502  0.00000000000E+00  0.00000000000E+00  0.77916626266E+02  0.77916626266E+02  0.00000000000E+00 0.  1.
          2   -1    0    0  503    0 -0.00000000000E+00 -0.00000000000E+00 -0.66350987856E+03  0.66350987856E+03  0.00000000000E+00 0. -1.
         23    2    1    2    0    0 -0.26325374562E+02 -0.22481295659E+02 -0.48453381256E+03  0.49438347611E+03  0.91888910843E+02 0.  0.
         24    2    1    2    0    0  0.31497271707E+02  0.44676454728E+02  0.28777373481E+02  0.10458671939E+03  0.84393014617E+02 0.  0.
        -13    1    4    4    0    0  0.42406330279E+02  0.40080301418E+02  0.52232759614E+02  0.78313399789E+02  0.00000000000E+00 0.  1.
         14    1    4    4    0    0 -0.10909058572E+02  0.45961533102E+01 -0.23455386134E+02  0.26273319601E+02  0.00000000000E+00 0. -1.
        -11    1    3    3    0    0 -0.21176796566E+01  0.34757661679E+02 -0.13831632849E+03  0.14263234675E+03  0.00000000000E+00 0.  1.
         11    1    3    3    0    0 -0.24207694905E+02 -0.57238957338E+02 -0.34621748407E+03  0.35175112936E+03  0.00000000000E+00 0. -1.
         21    1    1    2  503  502  0.17950780751E+02 -0.22011409593E+02 -0.36233358441E+02  0.46038993753E+02  0.00000000000E+00 0.  1.
          1    1    1    2  501    0 -0.23122677896E+02 -0.18374947647E+00 -0.93603454774E+02  0.96417315574E+02  0.00000000000E+00 0. -1.
<scales pt_clust_5="13000.00000" pt_clust_6="13000.00000" pt_clust_7="13000.00000" pt_clust_8="13000.00000" pt_clust_9="27.50001" pt_clust_10="23.12342"></scales>
<clustering>
<clus scale="   23.123">  1 10  2 -1</clus>
<clus scale="   27.500">  2  9  1 -1</clus>
<clus scale="   84.393">  5  6 -1 -1</clus>
<clus scale="   91.889">  7  8 -1 -1</clus>
<clus scale="   94.641">  1  5  2 -1</clus>
<clus scale="   23.123">  1  5  2 -1</clus>
</clustering>
</event>
<event>
10    4  0.2857708E-005  0.1014018E+03  0.7546771E-02  0.1282509E+00
          2   -1    0    0  503    0 -0.00000000000E+00  0.00000000000E+00  0.42710218983E+03  0.42710218983E+03  0.00000000000E+00 0. -1.
         21   -1    0    0  501  502  0.00000000000E+00 -0.00000000000E+00 -0.29486045908E+03  0.29486045908E+03  0.00000000000E+00 0. -1.
         24    2    1    2    0    0  0.33710415053E+02 -0.29415926798E+02  0.35341880248E+03  0.36503610942E+03  0.79654393487E+02 0.  0.
         23    2    1    2    0    0 -0.46161150939E+02  0.51929667384E+02 -0.79940103710E+02  0.13924080817E+03  0.90388275051E+02 0.  0.
        -13    1    3    3    0    0  0.16385624767E+02 -0.48548069678E+02  0.12399050436E+03  0.13416053421E+03  0.00000000000E+00 0.  1.
         14    1    3    3    0    0  0.17324790286E+02  0.19132142881E+02  0.22942829812E+03  0.23087557521E+03  0.00000000000E+00 0. -1.
        -13    1    4    4    0    0  0.18864327070E+02  0.15385615715E+02  0.63726951872E+01  0.25163291730E+02  0.00000000000E+00 0. -1.
         13    1    4    4    0    0 -0.65025478009E+02  0.36544051669E+02 -0.86312798897E+02  0.11407751644E+03  0.00000000000E+00 0.  1.
         21    1    1    2  503  502  0.36120915302E+02 -0.28301525393E+02  0.23223504269E+02  0.51429835819E+02  0.00000000000E+00 0.  1.
          1    1    1    2  501    0 -0.23670179416E+02  0.57877848063E+01 -0.16446047229E+03  0.16625589551E+03  0.00000000000E+00 0. -1.
<scales pt_clust_5="13000.00000" pt_clust_6="13000.00000" pt_clust_7="13000.00000" pt_clust_8="13000.00000" pt_clust_9="43.48379" pt_clust_10="24.36752"></scales>
<clustering>
<clus scale="   24.368">  2 10  1 -1</clus>
<clus scale="   43.484">  2  9  1 -1</clus>
<clus scale="   79.654">  5  6 -1 -1</clus>
<clus scale="   90.388">  7  8 -1 -1</clus>
<clus scale="   91.963">  1  5  2 -1</clus>
<clus scale="   24.368">  2  5  1 -1</clus>
</clustering>
</event>
<event>
10    4  0.2857708E-005  0.3497904E+03  0.7546771E-02  0.1090657E+00
         21   -1    0    0  501  502  0.00000000000E+00  0.00000000000E+00  0.17652997282E+03  0.17652997282E+03  0.00000000000E+00 0. -1.
          2   -1    0    0  503    0 -0.00000000000E+00 -0.00000000000E+00 -0.18272754557E+04  0.18272754557E+04  0.00000000000E+00 0. -1.
         23    2    1    2    0    0 -0.96604194812E+02 -0.94153996251E+02  0.75851067828E+01  0.16187270540E+03  0.89150958736E+02 0.  0.
         24    2    1    2    0    0  0.22022791928E+03 -0.21397633814E+03 -0.71240269000E+03  0.78176836406E+03  0.96736614662E+02 0.  0.
        -13    1    4    4    0    0  0.10585513396E+02 -0.24517540930E+02 -0.18356798698E+02  0.32405785989E+02  0.00000000000E+00 0.  1.
         14    1    4    4    0    0  0.20964240589E+03 -0.18945879721E+03 -0.69404589130E+03  0.74936257807E+03  0.00000000000E+00 0. -1.
        -11    1    3    3    0    0 -0.36897523465E+02 -0.12370688403E+01 -0.27447236720E+02  0.46003351842E+02  0.00000000000E+00 0.  1.
         11    1    3    3    0    0 -0.59706671347E+02 -0.92916927411E+02  0.35032343502E+02  0.11586935356E+03  0.00000000000E+00 0. -1.
         21    1    1    2  503  502 -0.14188512452E+02 -0.59307980844E+02 -0.32302568770E+03  0.32873141832E+03  0.00000000000E+00 0. -1.
          1    1    1    2  501    0 -0.10943521202E+03  0.36743831523E+03 -0.62290221194E+03  0.73143294072E+03  0.00000000000E+00 0. -1.
<scales pt_clust_5="13000.00000" pt_clust_6="13000.00000" pt_clust_7="13000.00000" pt_clust_8="13000.00000" pt_clust_9="60.98156" pt_clust_10="336.14780"></scales>
<clustering>
<clus scale="   60.982">  2  9  1 -1</clus>
<clus scale="   89.151">  7  8 -1 -1</clus>
<clus scale="   96.737">  5  6 -1 -1</clus>
<clus scale="  163.920">  2  7  1 -1</clus>
<clus scale="  336.148">  1 10  2 -1</clus>
<clus scale="  336.148">  1  5  2 -1</clus>
</clustering>
</event>
<event>
10    4  0.2857708E-005  0.2534159E+03  0.7546771E-02  0.1111165E+00
         21   -1    0    0  501  502  0.00000000000E+00  0.00000000000E+00  0.35626090233E+03  0.35626090233E+03  0.00000000000E+00 0. -1.
          2   -1    0    0  503    0 -0.00000000000E+00 -0.00000000000E+00 -0.30632158086E+03  0.30632158086E+03  0.00000000000E+00 0. -1.
         24    2    1    2    0    0 -0.65183412966E+02 -0.12521817490E+03  0.41136826442E+02  0.16763153334E+03  0.80496110647E+02 0.  0.
         23    2    1    2    0    0 -0.45508916756E+02 -0.10143834340E+03  0.89306303428E+02  0.16935097395E+03  0.91341871719E+02 0.  0.
        -11    1    3    3    0    0 -0.69678937653E+02 -0.49268738792E+02  0.12076830822E+02  0.86188240598E+02  0.00000000000E+00 0.  1.
         12    1    3    3    0    0  0.44955246873E+01 -0.75949436111E+02  0.29059995621E+02  0.81443292746E+02  0.00000000000E+00 0. -1.
        -11    1    4    4    0    0 -0.64122735843E+02 -0.45242306202E+02  0.74770804455E+02  0.10839402530E+03  0.00000000000E+00 0. -1.
         11    1    4    4    0    0  0.18613819087E+02 -0.56196037197E+02  0.14535498972E+02  0.60956948644E+02  0.00000000000E+00 0.  1.
         21    1    1    2  503  502  0.92345716724E+02  0.11329545050E+03  0.47449202865E+02  0.15367178451E+03  0.00000000000E+00 0. -1.
          1    1    1    2  501    0  0.18346612998E+02  0.11336106780E+03 -0.12795301126E+03  0.17192819139E+03  0.00000000000E+00 0. -1.
<scales pt_clust_5="13000.00000" pt_clust_6="13000.00000" pt_clust_7="13000.00000" pt_clust_8="13000.00000" pt_clust_9="176.92877" pt_clust_10="114.83616"></scales>
<clustering>
<clus scale="   80.496">  5  6 -1 -1</clus>
<clus scale="   91.342">  7  8 -1 -1</clus>
<clus scale="  104.205">  5  7 -1 -1</clus>
<clus scale="  114.836">  1 10  2 -1</clus>
<clus scale="  176.929">  2  9  1 -1</clus>
<clus scale="  114.836">  1  5  2 -1</clus>
</clustering>
</event>
<event>
10    4  0.2857708E-005  0.2746662E+03  0.7546771E-02  0.1116597E+00
          2   -1    0    0  503    0 -0.00000000000E+00  0.00000000000E+00  0.21778824288E+04  0.21778824288E+04  0.00000000000E+00 0. -1.
         21   -1    0    0  501  502  0.00000000000E+00 -0.00000000000E+00 -0.14965620918E+03  0.14965620918E+03  0.00000000000E+00 0. -1.
         24    2    1    2    0    0 -0.15148863480E+02  0.23769678356E+03  0.82415264900E+03  0.86154373973E+03  0.79377437842E+02 0.  0.
         23    2    1    2    0    0  0.21007768185E+03  0.13714351387E+03  0.14218405646E+03  0.30238876950E+03  0.91003770223E+02 0.  0.
        -11    1    3    3    0    0  0.12494161292E+02  0.11274370644E+03  0.50721096961E+03  0.51974052671E+03  0.00000000000E+00 0.  1.
         12    1    3    3    0    0 -0.27643024773E+02  0.12495307712E+03  0.31694167938E+03  0.34180321302E+03  0.00000000000E+00 0. -1.
        -13    1    4    4    0    0  0.14904348151E+03  0.62546342530E+02  0.12535139847E+03  0.20454578325E+03  0.00000000000E+00 0. -1.
         13    1    4    4    0    0  0.61034200340E+02  0.74597171339E+02  0.16832657995E+02  0.97842986249E+02  0.00000000000E+00 0.  1.
         21    1    1    2  503  502 -0.96180502892E+01 -0.15756917968E+03  0.60128193813E+03  0.62165949072E+03  0.00000000000E+00 0. -1.
          1    1    1    2  501    0 -0.18531076808E+03 -0.21727111775E+03  0.46060757600E+03  0.54194663800E+03  0.00000000000E+00 0. -1.
<scales pt_clust_5="13000.00000" pt_clust_6="13000.00000" pt_clust_7="13000.00000" pt_clust_8="13000.00000" pt_clust_9="157.86245" pt_clust_10="259.15233"></scales>
<clustering>
<clus scale="   79.377">  5  6 -1 -1</clus>
<clus scale="   91.004">  7  8 -1 -1</clus>
<clus scale="  157.862">  1  9  2 -1</clus>
<clus scale="  173.482">  1  5  2 -1</clus>
<clus scale="  259.152">  2 10  1 -1</clus>
<clus scale="  259.152">  2  5  1 -1</clus>
</clustering>
</event>
<event>
10    4  0.2857708E-005  0.1209510E+03  0.7546771E-02  0.1243675E+00
          2   -1    0    0  503    0 -0.00000000000E+00  0.00000000000E+00  0.82716958664E+03  0.82716958664E+03  0.00000000000E+00 0. -1.
         21   -1    0    0  501  502  0.00000000000E+00 -0.00000000000E+00 -0.55001099096E+02  0.55001099096E+02  0.00000000000E+00 0. -1.
         24    2    1    2    0    0 -0.60800750263E+02 -0.66877428536E+02  0.37996228489E+03  0.39891730841E+03  0.81205660695E+02 0.  0.
         23    2    1    2    0    0  0.17074642806E+02  0.23288951390E+02  0.18941806914E+02  0.94863424350E+02  0.88353599511E+02 0.  0.
        -13    1    3    3    0    0 -0.79524421337E+02 -0.41927153068E+02  0.26710118523E+03  0.28182452503E+03  0.00000000000E+00 0.  1.
         14    1    3    3    0    0  0.18723671074E+02 -0.24950275469E+02  0.11286109966E+03  0.11709278338E+03  0.00000000000E+00 0. -1.
        -13    1    4    4    0    0  0.15042422521E+02 -0.30524264091E+02  0.22659829366E+02  0.40883652485E+02  0.00000000000E+00 0.  1.
         13    1    4    4    0    0  0.20322202856E+01  0.53813215481E+02 -0.37180224519E+01  0.53979771866E+02  0.00000000000E+00 0. -1.
         21    1    1    2  503  502  0.46758027692E+01 -0.26360138393E+02  0.78844003738E+02  0.83265220550E+02  0.00000000000E+00 0.  1.
          1    1    1    2  501    0  0.39050304688E+02  0.69948615539E+02  0.29442039200E+03  0.30512473243E+03  0.00000000000E+00 0. -1.
<scales pt_clust_5="13000.00000" pt_clust_6="13000.00000" pt_clust_7="13000.00000" pt_clust_8="13000.00000" pt_clust_9="26.77163" pt_clust_10="72.10076"></scales>
<clustering>
<clus scale="   26.772">  1  9  2 -1</clus>
<clus scale="   72.101">  2 10  1 -1</clus>
<clus scale="   81.206">  5  6 -1 -1</clus>
<clus scale="   88.354">  7  8 -1 -1</clus>
<clus scale="  115.832">  1  5  2 -1</clus>
<clus scale="   72.101">  2  5  1 -1</clus>
</clustering>
</event>
<event>
10    4  0.2857708E-005  0.1018426E+03  0.7546771E-02  0.1281356E+00
         21   -1    0    0  501  502  0.00000000000E+00  0.00000000000E+00  0.20310423160E+03  0.20310423160E+03  0.00000000000E+00 0. -1.
          4   -1    0    0  503    0 -0.00000000000E+00 -0.00000000000E+00 -0.27592845083E+03  0.27592845083E+03  0.00000000000E+00 0. -1.
         24    2    1    2    0    0  0.19729970892E+02 -0.32556194938E+02 -0.82099665232E+02  0.12182990123E+03  0.81565876576E+02 0.  0.
         23    2    1    2    0    0 -0.56689185015E+02  0.33208027531E+01  0.31711536674E+02  0.11245858746E+03  0.91742143570E+02 0.  0.
        -11    1    3    3    0    0 -0.10488916760E+02  0.22915136462E+02 -0.13549580275E+02  0.28613143475E+02  0.00000000000E+00 0.  1.
         12    1    3    3    0    0  0.30218887652E+02 -0.55471331401E+02 -0.68550084958E+02  0.93216757753E+02  0.00000000000E+00 0. -1.
        -13    1    4    4    0    0 -0.58822543060E+02  0.38625339960E+02  0.31475137039E+02  0.77088862430E+02  0.00000000000E+00 0.  1.
         13    1    4    4    0    0  0.21333580455E+01 -0.35304537207E+02  0.23639963486E+00  0.35369725030E+02  0.00000000000E+00 0. -1.
         21    1    1    2  503  502 -0.90090480641E+01 -0.25798770562E+02 -0.12033194735E+03  0.12339577409E+03  0.00000000000E+00 0. -1.
          3    1    1    2  501    0  0.45968262187E+02  0.55034162747E+02  0.97895856675E+02  0.12134841965E+03  0.00000000000E+00 0. -1.
<scales pt_clust_5="13000.00000" pt_clust_6="13000.00000" pt_clust_7="13000.00000" pt_clust_8="13000.00000" pt_clust_9="27.32653" pt_clust_10="69.76384"></scales>
<clustering>
<clus scale="   27.327">  2  9  1 -1</clus>
<clus scale="   69.764">  1 10  2 -1</clus>
<clus scale="   81.566">  5  6 -1 -1</clus>
<clus scale="   91.742">  7  8 -1 -1</clus>
<clus scale="   92.781">  2  5  1 -1</clus>
<clus scale="   69.764">  1  5  2 -1</clus>
</clustering>
</event>
<event>
10    4  0.2857708E-005  0.1329903E+03  0.7546771E-02  0.1225236E+00
          4   -1    0    0  503    0 -0.00000000000E+00  0.00000000000E+00  0.34192771918E+03  0.34192771918E+03  0.00000000000E+00 0. -1.
         21   -1    0    0  501  502  0.00000000000E+00 -0.00000000000E+00 -0.18454735157E+03  0.18454735157E+03  0.00000000000E+00 0.  1.
         23    2    1    2    0    0  0.50733129585E+01  0.67596100505E+02  0.19431849332E+02  0.11477075845E+03  0.90552520219E+02 0.  0.
         24    2    1    2    0    0 -0.12843518560E+03 -0.81796207736E+02  0.78439923723E+02  0.18979272007E+03  0.81744959845E+02 0.  0.
        -13    1    4    4    0    0 -0.11738285854E+03 -0.56680347807E+02  0.29442434482E+02  0.13363477936E+03  0.00000000000E+00 0.  1.
         14    1    4    4    0    0 -0.11052327058E+02 -0.25115859929E+02  0.48997489241E+02  0.56157940715E+02  0.00000000000E+00 0. -1.
        -13    1    3    3    0    0  0.29312988357E+02  0.33473155437E+02 -0.27168384285E+02  0.52132758664E+02  0.00000000000E+00 0.  1.
         13    1    3    3    0    0 -0.24239675398E+02  0.34122945068E+02  0.46600233617E+02  0.62637999782E+02  0.00000000000E+00 0. -1.
         21    1    1    2  503  502  0.71809547069E+02 -0.77946288236E+02  0.45737894189E+02  0.11543045467E+03  0.00000000000E+00 0.  1.
          3    1    1    2  501    0  0.51552325567E+02  0.92146395467E+02  0.13770700363E+02  0.10648113757E+03  0.00000000000E+00 0. -1.
<scales pt_clust_5="13000.00000" pt_clust_6="13000.00000" pt_clust_7="13000.00000" pt_clust_8="13000.00000" pt_clust_9="100.92483" pt_clust_10="105.58693"></scales>
<clustering>
<clus scale="   81.745">  5  6 -1 -1</clus>
<clus scale="   90.553">  7  8 -1 -1</clus>
<clus scale="  105.587">  2 10  1 -1</clus>
<clus scale="  100.925">  1  9  2 -1</clus>
<clus scale="  127.157">  2  5  1 -1</clus>
<clus scale="  105.587">  2  5  1 -1</clus>
</clustering>
</event>
<event>
10    4  0.2857708E-005  0.1057395E+03  0.7546771E-02  0.1274494E+00
         21   -1    0    0  503  502  0.00000000000E+00  0.00000000000E+00  0.98835667584E+03  0.98835667584E+03  0.00000000000E+00 0.  1.
         -3   -1    0    0    0  501 -0.00000000000E+00 -0.00000000000E+00 -0.68163377150E+02  0.68163377150E+02  0.00000000000E+00 0.  1.
         23    2    1    2    0    0  0.35519209711E+02 -0.25219486731E+02  0.13566138466E+02  0.10363480133E+03  0.93051035271E+02 0.  0.
         24    2    1    2    0    0 -0.62775498158E+02 -0.46393612061E+02  0.44273776448E+03  0.45663805172E+03  0.80052806118E+02 0.  0.
        -13    1    4    4    0    0 -0.40994749656E+02 -0.63167594468E+02  0.22720718344E+03  0.23936127234E+03  0.00000000000E+00 0.  1.
         14    1    4    4    0    0 -0.21780748503E+02  0.16773982406E+02  0.21553058104E+03  0.21727677938E+03  0.00000000000E+00 0. -1.
        -13    1    3    3    0    0  0.31569741755E+02 -0.50439737647E+02  0.36087545010E+02  0.69592575992E+02  0.00000000000E+00 0.  1.
         13    1    3    3    0    0  0.39494679562E+01  0.25220250916E+02 -0.22521406545E+02  0.34042225341E+02  0.00000000000E+00 0. -1.
         21    1    1    2  503  501  0.15228135726E+02  0.15360156013E+02 -0.63186927150E+01  0.22533450425E+02  0.00000000000E+00 0.  1.
         -4    1    1    2    0  502  0.12028152722E+02  0.56252942779E+02  0.47020808845E+03  0.47371374951E+03  0.00000000000E+00 0.  1.
<scales pt_clust_5="13000.00000" pt_clust_6="13000.00000" pt_clust_7="13000.00000" pt_clust_8="13000.00000" pt_clust_9="21.62939" pt_clust_10="58.11958"></scales>
<clustering>
<clus scale="   21.629">  2  9  1 -1</clus>
<clus scale="   58.120">  1 10  2 -1</clus>
<clus scale="   80.053">  5  6 -1 -1</clus>
<clus scale="   93.051">  7  8 -1 -1</clus>
<clus scale="   94.503">  1  5  2 -1</clus>
<clus scale="   58.120">  1  5  2 -1</clus>
</clustering>
</event>
<event>
10    4  0.2857708E-005  0.1249617E+03  0.7546771E-02  0.1249645E+00
          2   -1    0    0  503    0 -0.00000000000E+00  0.00000000000E+00  0.28988070921E+03  0.28988070921E+03  0.00000000000E+00 0. -1.
         21   -1    0    0  501  502  0.00000000000E+00 -0.00000000000E+00 -0.18632560308E+03  0.18632560308E+03  0.00000000000E+00 0. -1.
         23    2    1    2    0    0 -0.12056393640E+02 -0.15215237181E+02  0.15718135203E+03  0.18296652582E+03  0.91618295529E+02 0.  0.
         24    2    1    2    0    0  0.43727426985E+02 -0.85122480296E+02  0.35423332591E+02  0.12967401548E+03  0.80016331311E+02 0.  0.
        -11    1    4    4    0    0 -0.15358660047E+02 -0.41608120229E+02 -0.70180895880E+01  0.44904094344E+02  0.00000000000E+00 0.  1.
         12    1    4    4    0    0  0.59086087032E+02 -0.43514360067E+02  0.42441422179E+02  0.84769921136E+02  0.00000000000E+00 0. -1.
        -13    1    3    3    0    0  0.36968110746E+02  0.99358588557E+01  0.71378993818E+02  0.80995822496E+02  0.00000000000E+00 0. -1.
         13    1    3    3    0    0 -0.49024504387E+02 -0.25151096036E+02  0.85802358212E+02  0.10197070333E+03  0.00000000000E+00 0.  1.
         21    1    1    2  503  502  0.18634199148E+02  0.28220222487E+02  0.57088641455E+01  0.34295852008E+02  0.00000000000E+00 0. -1.
          1    1    1    2  501    0 -0.50305232493E+02  0.72117494990E+02 -0.94758442638E+02  0.12926991897E+03  0.00000000000E+00 0. -1.
<scales pt_clust_5="13000.00000" pt_clust_6="13000.00000" pt_clust_7="13000.00000" pt_clust_8="13000.00000" pt_clust_9="33.81737" pt_clust_10="95.98339"></scales>
<clustering>
<clus scale="   33.817">  2  9  1 -1</clus>
<clus scale="   80.016">  5  6 -1 -1</clus>
<clus scale="   91.618">  7  8 -1 -1</clus>
<clus scale="   93.162">  1  7  2 -1</clus>
<clus scale="   95.983">  2 10  1 -1</clus>
<clus scale="   33.817">  2  5  1 -1</clus>
</clustering>
</event>
<event>
10    4  0.2857708E-005  0.9540726E+02  0.7546771E-02  0.1294948E+00
          2   -1    0    0  503    0 -0.00000000000E+00  0.00000000000E+00  0.31579211323E+03  0.31579211323E+03  0.00000000000E+00 0. -1.
         21   -1    0    0  501  502  0.00000000000E+00 -0.00000000000E+00 -0.62273769434E+02  0.62273769434E+02  0.00000000000E+00 0. -1.
         24    2    1    2    0    0  0.21718011017E+02 -0.36487911901E+02  0.16913791474E+03  0.19284992565E+03  0.82343305141E+02 0.  0.
         23    2    1    2    0    0 -0.19503523486E+02  0.12007997949E+02  0.15802885718E+02  0.94946166835E+02  0.90777001253E+02 0.  0.
        -11    1    3    3    0    0 -0.73466819022E+01  0.22695192430E+02  0.26171813186E+02  0.35411993728E+02  0.00000000000E+00 0.  1.
         12    1    3    3    0    0  0.29064692919E+02 -0.59183104331E+02  0.14296610155E+03  0.15743793192E+03  0.00000000000E+00 0. -1.
        -13    1    4    4    0    0  0.22060093776E+02 -0.14550721387E+02  0.33387907032E+02  0.42580788699E+02  0.00000000000E+00 0.  1.
         13    1    4    4    0    0 -0.41563617262E+02  0.26558719337E+02 -0.17585021313E+02  0.52365378135E+02  0.00000000000E+00 0. -1.
         21    1    1    2  503  502 -0.26975290357E+02  0.55989325751E+01  0.31277819547E+02  0.41681126802E+02  0.00000000000E+00 0.  1.
          1    1    1    2  501    0  0.24760802826E+02  0.18880981377E+02  0.37299723788E+02  0.48588663380E+02  0.00000000000E+00 0. -1.
<scales pt_clust_5="13000.00000" pt_clust_6="13000.00000" pt_clust_7="13000.00000" pt_clust_8="13000.00000" pt_clust_9="27.55021" pt_clust_10="28.54209"></scales>
<clustering>
<clus scale="   27.550">  1  9  2 -1</clus>
<clus scale="   28.542">  2 10  1 -1</clus>
<clus scale="   82.343">  5  6 -1 -1</clus>
<clus scale="   87.421">  1  5  2 -1</clus>
<clus scale="   90.777">  7  8 -1 -1</clus>
<clus scale="   28.542">  2  5  1 -1</clus>
</clustering>
</event>
<event>
10    4  0.2857708E-005  0.2256983E+03  0.7546771E-02  0.1146141E+00
         21   -1    0    0  501  502  0.00000000000E+00  0.00000000000E+00  0.17470999924E+03  0.17470999924E+03  0.00000000000E+00 0. -1.
          2   -1    0    0  503    0 -0.00000000000E+00 -0.00000000000E+00 -0.82409291462E+03  0.82409291462E+03  0.00000000000E+00 0. -1.
         23    2    1    2    0    0  0.99634386115E+02 -0.73064165626E+02 -0.78187167831E+02  0.17232069041E+03  0.91191029912E+02 0.  0.
         24    2    1    2    0    0  0.63061744346E+02  0.17244299415E+03 -0.41515602398E+03  0.46083664695E+03  0.79388419129E+02 0.  0.
        -13    1    4    4    0    0  0.40082131642E+02  0.29128668245E+02 -0.15751174784E+03  0.16512118973E+03  0.00000000000E+00 0.  1.
         14    1    4    4    0    0  0.22979612704E+02  0.14331432590E+03 -0.25764427615E+03  0.29571545722E+03  0.00000000000E+00 0. -1.
        -13    1    3    3    0    0  0.34474959989E+02 -0.80848710068E+02 -0.42658937267E+02  0.97697603423E+02  0.00000000000E+00 0.  1.
         13    1    3    3    0    0  0.65159426126E+02  0.77845444414E+01 -0.35528230564E+02  0.74623086992E+02  0.00000000000E+00 0. -1.
         21    1    1    2  503  502  0.12630650633E+02  0.42197115117E+02 -0.13183441732E+03  0.13899799800E+03  0.00000000000E+00 0. -1.
          1    1    1    2  501    0 -0.17532678109E+03 -0.14157594364E+03 -0.24205306253E+02  0.22664757849E+03  0.00000000000E+00 0. -1.
<scales pt_clust_5="13000.00000" pt_clust_6="13000.00000" pt_clust_7="13000.00000" pt_clust_8="13000.00000" pt_clust_9="44.04691" pt_clust_10="211.27521"></scales>
<clustering>
<clus scale="   44.047">  2  9  1 -1</clus>
<clus scale="   79.388">  5  6 -1 -1</clus>
<clus scale="   91.191">  7  8 -1 -1</clus>
<clus scale="  151.597">  2  7  1 -1</clus>
<clus scale="  211.275">  1 10  2 -1</clus>
<clus scale="  211.275">  1  5  2 -1</clus>
</clustering>
</event>
<event>
10    4  0.2857708E-005  0.9444841E+02  0.7546771E-02  0.1298399E+00
         -3   -1    0    0    0  501 -0.00000000000E+00  0.00000000000E+00  0.27655957306E+03  0.27655957306E+03  0.00000000000E+00 0.  1.
         21   -1    0    0  503  502  0.00000000000E+00 -0.00000000000E+00 -0.93463418568E+02  0.93463418568E+02  0.00000000000E+00 0. -1.
         24    2    1    2    0    0  0.70696462127E+01 -0.13891035699E+02  0.17807154509E+03  0.19644643615E+03  0.81478747765E+02 0.  0.
         23    2    1    2    0    0  0.12278742436E+02 -0.71901361809E+01 -0.12658099458E+02  0.93685857550E+02  0.91729748985E+02 0.  0.
        -11    1    3    3    0    0 -0.16895645308E+02 -0.34199545880E+02  0.14844088935E+03  0.15326372500E+03  0.00000000000E+00 0.  1.
         12    1    3    3    0    0  0.23965291520E+02  0.20308510181E+02  0.29630655735E+02  0.43182711155E+02  0.00000000000E+00 0. -1.
        -13    1    4    4    0    0  0.35991946174E+02  0.30613121359E+02 -0.13193062428E+02  0.49057520167E+02  0.00000000000E+00 0. -1.
         13    1    4    4    0    0 -0.23713203738E+02 -0.37803257540E+02  0.53496296996E+00  0.44628337382E+02  0.00000000000E+00 0.  1.
         21    1    1    2  503  501 -0.22593445696E+02 -0.20967078679E+02  0.21445546003E+02  0.37549881759E+02  0.00000000000E+00 0. -1.
         -4    1    1    2    0  502  0.32450570470E+01  0.42048250559E+02 -0.37628371390E+01  0.42340816166E+02  0.00000000000E+00 0.  1.
<scales pt_clust_5="13000.00000" pt_clust_6="13000.00000" pt_clust_7="13000.00000" pt_clust_8="13000.00000" pt_clust_9="30.82340" pt_clust_10="40.43841"></scales>
<clustering>
<clus scale="   30.823">  1  9  2 -1</clus>
<clus scale="   40.438">  2 10  1 -1</clus>
<clus scale="   81.479">  5  6 -1 -1</clus>
<clus scale="   84.528">  1  5  2 -1</clus>
<clus scale="   91.730">  7  8 -1 -1</clus>
<clus scale="   40.438">  2  5  1 -1</clus>
</clustering>
</event>
<event>
10    4  0.2857708E-005  0.1029291E+03  0.7546771E-02  0.1281988E+00
         21   -1    0    0  503  502  0.00000000000E+00  0.00000000000E+00  0.12852317121E+02  0.12852317121E+02  0.00000000000E+00 0.  1.
          2   -1    0    0  502    0 -0.00000000000E+00 -0.00000000000E+00 -0.17373680915E+04  0.17373680915E+04  0.00000000000E+00 0. -1.
         24    2    1    2    0    0  0.41130005524E+02  0.50465356589E+02 -0.83959917200E+03  0.84551741577E+03  0.75726489276E+02 0.  0.
         23    2    1    2    0    0 -0.15877476970E+02 -0.69550933019E+01 -0.44555095924E+03  0.45525730749E+03  0.91886294647E+02 0.  0.
        -11    1    3    3    0    0  0.53080027299E+02  0.39178438954E+02 -0.38430590799E+03  0.38992751929E+03  0.00000000000E+00 0.  1.
         12    1    3    3    0    0 -0.11950021775E+02  0.11286917635E+02 -0.45529326401E+03  0.45558989649E+03  0.00000000000E+00 0. -1.
        -11    1    4    4    0    0 -0.32736561440E+02  0.35146411333E+02 -0.24089587246E+03  0.24563748503E+03  0.00000000000E+00 0.  1.
         11    1    4    4    0    0  0.16859084470E+02 -0.42101504635E+02 -0.20465508678E+03  0.20961982246E+03  0.00000000000E+00 0. -1.
         21    1    1    2  503  501  0.27158692655E+02 -0.11801533786E+01 -0.11722685895E+03  0.12033754114E+03  0.00000000000E+00 0. -1.
          1    1    1    2  501    0 -0.52411221208E+02 -0.42330109908E+02 -0.32213878418E+03  0.32910814421E+03  0.00000000000E+00 0. -1.
<scales pt_clust_5="13000.00000" pt_clust_6="13000.00000" pt_clust_7="13000.00000" pt_clust_8="13000.00000" pt_clust_9="27.18432" pt_clust_10="61.33324"></scales>
<clustering>
<clus scale="   27.184">  1  9  2 -1</clus>
<clus scale="   61.333">  1 10  2 -1</clus>
<clus scale="   75.726">  5  6 -1 -1</clus>
<clus scale="   88.802">  2  5  1 -1</clus>
<clus scale="   91.886">  7  8 -1 -1</clus>
<clus scale="   27.184">  1  5  2 -1</clus>
</clustering>
</event>
<event>
10    4  0.2857708E-005  0.2832007E+03  0.7546771E-02  0.1107192E+00
         21   -1    0    0  503  502  0.00000000000E+00  0.00000000000E+00  0.12792149220E+04  0.12792149220E+04  0.00000000000E+00 0.  1.
         -3   -1    0    0    0  501 -0.00000000000E+00 -0.00000000000E+00 -0.15889543466E+03  0.15889543466E+03  0.00000000000E+00 0.  1.
         24    2    1    2    0    0  0.17379167546E+03  0.17185948072E+02  0.21533862831E+03  0.28879090516E+03  0.80811872840E+02 0.  0.
         23    2    1    2    0    0  0.74796153671E+02  0.20299375666E+03  0.33593742744E+03  0.40926408107E+03  0.88556214099E+02 0.  0.
        -11    1    3    3    0    0  0.14755443546E+03  0.11989691218E+02  0.12242464056E+03  0.19210376555E+03  0.00000000000E+00 0.  1.
         12    1    3    3    0    0  0.26237239994E+02  0.51962568541E+01  0.92913987744E+02  0.96687139611E+02  0.00000000000E+00 0. -1.
        -13    1    4    4    0    0  0.81842704481E+02  0.97572903489E+02  0.19981666238E+03  0.23695020223E+03  0.00000000000E+00 0.  1.
         13    1    4    4    0    0 -0.70465508105E+01  0.10542085318E+03  0.13612076506E+03  0.17231387885E+03  0.00000000000E+00 0. -1.
         21    1    1    2  503  501  0.30259861654E+02  0.15437036453E+02 -0.25432766028E+02  0.42435679677E+02  0.00000000000E+00 0.  1.
         -4    1    1    2    0  502 -0.27884769078E+03 -0.23561674119E+03  0.59447619763E+03  0.69761969075E+03  0.00000000000E+00 0.  1.
<scales pt_clust_5="13000.00000" pt_clust_6="13000.00000" pt_clust_7="13000.00000" pt_clust_8="13000.00000" pt_clust_9="33.97001" pt_clust_10="268.99906"></scales>
<clustering>
<clus scale="   33.970">  2  9  1 -1</clus>
<clus scale="   80.812">  5  6 -1 -1</clus>
<clus scale="   88.556">  7  8 -1 -1</clus>
<clus scale="  200.938">  2  5  1 -1</clus>
<clus scale="  268.999">  1 10  2 -1</clus>
<clus scale="  268.999">  1  5  2 -1</clus>
</clustering>
</event>
<event>
10    4  0.2857708E-005  0.1498383E+03  0.7546771E-02  0.1222964E+00
         21   -1    0    0  501  502  0.00000000000E+00  0.00000000000E+00  0.35642364152E+03  0.35642364152E+03  0.00000000000E+00 0.  1.
          2   -1    0    0  503    0 -0.00000000000E+00 -0.00000000000E+00 -0.29758883477E+03  0.29758883477E+03  0.00000000000E+00 0. -1.
         24    2    1    2    0    0 -0.42475199404E+02 -0.14230912032E+02 -0.90170484062E+02  0.12976447019E+03  0.81862324090E+02 0.  0.
         23    2    1    2    0    0  0.11598662823E+03  0.97589017268E+02  0.25522306383E+03  0.31019400750E+03  0.90027749930E+02 0.  0.
        -13    1    3    3    0    0 -0.63858995619E+02  0.31670438853E+01 -0.74034950287E+02  0.97822161867E+02  0.00000000000E+00 0.  1.
         14    1    3    3    0    0  0.21383796214E+02 -0.17397955917E+02 -0.16135533776E+02  0.31942308321E+02  0.00000000000E+00 0. -1.
        -11    1    4    4    0    0  0.45083551033E+02  0.85243948108E+02  0.18998297070E+03  0.21305535999E+03  0.00000000000E+00 0.  1.
         11    1    4    4    0    0  0.70903077198E+02  0.12345069161E+02  0.65240093123E+02  0.97138647506E+02  0.00000000000E+00 0. -1.
         21    1    1    2  503  502 -0.98194171122E+02 -0.28261163801E+02 -0.13014671413E+02  0.10300568088E+03  0.00000000000E+00 0. -1.
          1    1    1    2  501    0  0.24682742296E+02 -0.55096941435E+02 -0.93203101600E+02  0.11104831773E+03  0.00000000000E+00 0. -1.
<scales pt_clust_5="13000.00000" pt_clust_6="13000.00000" pt_clust_7="13000.00000" pt_clust_8="13000.00000" pt_clust_9="119.77699" pt_clust_10="60.37313"></scales>
<clustering>
<clus scale="   60.373">  1 10  2 -1</clus>
<clus scale="   81.862">  5  6 -1 -1</clus>
<clus scale="   90.028">  7  8 -1 -1</clus>
<clus scale="   93.219">  2  5  1 -1</clus>
<clus scale="  119.777">  2  9  1 -1</clus>
<clus scale="   60.373">  1  5  2 -1</clus>
</clustering>
</event>
<event>
10    4  0.2857708E-005  0.2581603E+03  0.7546771E-02  0.1136025E+00
         21   -1    0    0  501  502  0.00000000000E+00  0.00000000000E+00  0.28900725047E+03  0.28900725047E+03  0.00000000000E+00 0. -1.
          2   -1    0    0  503    0 -0.00000000000E+00 -0.00000000000E+00 -0.12478162480E+04  0.12478162480E+04  0.00000000000E+00 0. -1.
         24    2    1    2    0    0  0.87912127435E+02  0.63677930267E+02 -0.34356547212E+03  0.36914643184E+03  0.80302139175E+02 0.  0.
         23    2    1    2    0    0  0.13377562036E+01  0.18535925337E+03 -0.68617819600E+03  0.71694346981E+03  0.93848707146E+02 0.  0.
        -13    1    3    3    0    0  0.62093200920E+02  0.11578390970E+02 -0.96520912173E+02  0.11535125151E+03  0.00000000000E+00 0.  1.
         14    1    3    3    0    0  0.25818926515E+02  0.52099539297E+02 -0.24704455995E+03  0.25379518034E+03  0.00000000000E+00 0. -1.
        -11    1    4    4    0    0  0.32587850030E+02  0.18984615132E+02 -0.10278064777E+03  0.10948171143E+03  0.00000000000E+00 0.  1.
         11    1    4    4    0    0 -0.31250093826E+02  0.16637463824E+03 -0.58339754823E+03  0.60746175838E+03  0.00000000000E+00 0. -1.
         21    1    1    2  503  502 -0.18137566598E+02 -0.13906003267E+02 -0.13085134314E+03  0.13283230876E+03  0.00000000000E+00 0. -1.
          1    1    1    2  501    0 -0.71112317041E+02 -0.23513118037E+03  0.20178601372E+03  0.31790128806E+03  0.00000000000E+00 0. -1.
<scales pt_clust_5="13000.00000" pt_clust_6="13000.00000" pt_clust_7="13000.00000" pt_clust_8="13000.00000" pt_clust_9="22.85494" pt_clust_10="240.49775"></scales>
<clustering>
<clus scale="   22.855">  2  9  1 -1</clus>
<clus scale="   80.302">  5  6 -1 -1</clus>
<clus scale="   93.849">  7  8 -1 -1</clus>
<clus scale="  129.233">  2  5  1 -1</clus>
<clus scale="  240.498">  1 10  2 -1</clus>
<clus scale="  240.498">  1  5  2 -1</clus>
</clustering>
</event>
<event>
10    4  0.2857708E-005  0.3421021E+03  0.7546771E-02  0.1066123E+00
          2   -1    0    0  503    0 -0.00000000000E+00  0.00000000000E+00  0.11767988414E+04  0.11767988414E+04  0.00000000000E+00 0. -1.
         21   -1    0    0  501  502  0.00000000000E+00 -0.00000000000E+00 -0.20239279123E+03  0.20239279123E+03  0.00000000000E+00 0. -1.
         23    2    1    2    0    0 -0.20583245536E+03  0.27442537839E+03  0.72408441888E+03  0.80610513956E+03  0.88492724990E+02 0.  0.
         24    2    1    2    0    0  0.17349257763E+03 -0.22183487819E+03  0.74779134047E+02  0.30220051981E+03  0.80142670352E+02 0.  0.
        -13    1    4    4    0    0  0.67288599612E+02 -0.56266268553E+02  0.57193186882E+02  0.10471250756E+03  0.00000000000E+00 0.  1.
         14    1    4    4    0    0  0.10620397802E+03 -0.16556860963E+03  0.17585947165E+02  0.19748801225E+03  0.00000000000E+00 0. -1.
        -13    1    3    3    0    0 -0.89008290525E+02  0.18450333718E+03  0.37825087782E+03  0.43016006763E+03  0.00000000000E+00 0.  1.
         13    1    3    3    0    0 -0.11682416484E+03  0.89922041203E+02  0.34583354106E+03  0.37594507192E+03  0.00000000000E+00 0. -1.
         21    1    1    2  503  502 -0.38169606533E+02 -0.18502164032E+02  0.18698617266E+03  0.19173700139E+03  0.00000000000E+00 0. -1.
          1    1    1    2  501    0  0.70509484261E+02 -0.34088336167E+02 -0.11443675461E+02  0.79148971828E+02  0.00000000000E+00 0. -1.
<scales pt_clust_5="13000.00000" pt_clust_6="13000.00000" pt_clust_7="13000.00000" pt_clust_8="13000.00000" pt_clust_9="42.41755" pt_clust_10="77.42369"></scales>
<clustering>
<clus scale="   42.418">  1  9  2 -1</clus>
<clus scale="   77.424">  2 10  1 -1</clus>
<clus scale="   80.143">  5  6 -1 -1</clus>
<clus scale="   88.493">  7  8 -1 -1</clus>
<clus scale="  340.038">  2  5  1 -1</clus>
<clus scale="   77.424">  2  5  1 -1</clus>
</clustering>
</event>
<event>
10    4  0.2857708E-005  0.9119302E+02  0.7546771E-02  0.1304957E+00
         21   -1    0    0  503  502  0.00000000000E+00  0.00000000000E+00  0.29858982991E+03  0.29858982991E+03  0.00000000000E+00 0.  1.
         -1   -1    0    0    0  501 -0.00000000000E+00 -0.00000000000E+00 -0.84073917241E+02  0.84073917241E+02  0.00000000000E+00 0.  1.
         23    2    1    2    0    0 -0.65049467867E+01 -0.21165834231E+01  0.41577506212E+02  0.98409159016E+02  0.88931880096E+02 0.  0.
         24    2    1    2    0    0  0.18115230412E+01  0.41990841971E+02  0.19639207104E+03  0.21646680471E+03  0.80755925784E+02 0.  0.
        -11    1    4    4    0    0  0.72982907030E+01  0.52196718826E+02  0.19788534667E+03  0.20478372233E+03  0.00000000000E+00 0.  1.
         12    1    4    4    0    0 -0.54867676618E+01 -0.10205876854E+02 -0.14932756358E+01  0.11683082379E+02  0.00000000000E+00 0. -1.
        -11    1    3    3    0    0  0.13788623392E+02  0.36109232817E+02  0.39221251954E+02  0.55066409312E+02  0.00000000000E+00 0.  1.
         11    1    3    3    0    0 -0.20293570179E+02 -0.38225816240E+02  0.23562542587E+01  0.43342749705E+02  0.00000000000E+00 0. -1.
         21    1    1    2  503  501 -0.11811315299E+02 -0.22312362640E+02  0.94893403553E+01  0.26970285057E+02  0.00000000000E+00 0.  1.
         -2    1    1    2    0  502  0.16504739044E+02 -0.17561895908E+02 -0.32943004937E+02  0.40817498368E+02  0.00000000000E+00 0.  1.
<scales pt_clust_5="13000.00000" pt_clust_6="13000.00000" pt_clust_7="13000.00000" pt_clust_8="13000.00000" pt_clust_9="25.76697" pt_clust_10="24.10036"></scales>
<clustering>
<clus scale="   24.100">  1 10  2 -1</clus>
<clus scale="   25.767">  2  9  1 -1</clus>
<clus scale="   80.756">  5  6 -1 -1</clus>
<clus scale="   83.239">  1  5  2 -1</clus>
<clus scale="   88.932">  7  8 -1 -1</clus>
<clus scale="   24.100">  1  5  2 -1</clus>
</clustering>
</event>
<event>
10    4  0.2857708E-005  0.9602696E+02  0.7546771E-02  0.1296060E+00
         21   -1    0    0  503  502  0.00000000000E+00  0.00000000000E+00  0.42711733832E+03  0.42711733832E+03  0.00000000000E+00 0. -1.
         -3   -1    0    0    0  501 -0.00000000000E+00 -0.00000000000E+00 -0.16013943726E+03  0.16013943726E+03  0.00000000000E+00 0.  1.
         23    2    1    2    0    0  0.65619091631E+02 -0.64053034616E+02  0.56758546471E+01  0.13047818061E+03  0.92648172450E+02 0.  0.
         24    2    1    2    0    0 -0.21477854502E+02 -0.39144145148E+02  0.13264746755E+03  0.16126210468E+03  0.80103392089E+02 0.  0.
        -13    1    4    4    0    0 -0.38917811777E+02 -0.22627674543E+01  0.25428549758E+02  0.46543821640E+02  0.00000000000E+00 0.  1.
         14    1    4    4    0    0  0.17439957275E+02 -0.36881377694E+02  0.10721891780E+03  0.11471828304E+03  0.00000000000E+00 0. -1.
        -11    1    3    3    0    0  0.83208581733E+02 -0.50589889569E+02  0.25595464052E+02  0.10068829515E+03  0.00000000000E+00 0.  1.
         11    1    3    3    0    0 -0.17589490101E+02 -0.13463145047E+02 -0.19919609405E+02  0.29789885455E+02  0.00000000000E+00 0. -1.
         21    1    1    2  503  501 -0.68915762240E+02  0.36561846102E+02 -0.57063864849E+02  0.96656275259E+02  0.00000000000E+00 0.  1.
         -4    1    1    2    0  502  0.24774525111E+02  0.66635333663E+02  0.18571844371E+03  0.19886021503E+03  0.00000000000E+00 0.  1.
<scales pt_clust_5="13000.00000" pt_clust_6="13000.00000" pt_clust_7="13000.00000" pt_clust_8="13000.00000" pt_clust_9="79.02513" pt_clust_10="71.09181"></scales>
<clustering>
<clus scale="   71.092">  1 10  2 -1</clus>
<clus scale="   79.025">  2  9  1 -1</clus>
<clus scale="   80.103">  5  6 -1 -1</clus>
<clus scale="   83.988">  1  5  2 -1</clus>
<clus scale="   92.648">  7  8 -1 -1</clus>
<clus scale="   71.092">  1  5  2 -1</clus>
</clustering>
</event>
<event>
10    4  0.2857708E-005  0.1019365E+03  0.7546771E-02  0.1280395E+00
         -1   -1    0    0    0  501 -0.00000000000E+00  0.00000000000E+00  0.53934865002E+03  0.53934865002E+03  0.00000000000E+00 0.  1.
         21   -1    0    0  503  502  0.00000000000E+00 -0.00000000000E+00 -0.87518797747E+02  0.87518797747E+02  0.00000000000E+00 0.  1.
         24    2    1    2    0    0 -0.46605295388E+02  0.25580862989E+02  0.13995811599E+03  0.17644627015E+03  0.93373325470E+02 0.  0.
         23    2    1    2    0    0 -0.79897237872E+01 -0.16200295134E+02  0.13910120416E+02  0.94093448078E+02  0.91289650413E+02 0.  0.
        -13    1    3    3    0    0  0.13996272061E+01 -0.32200667924E+02  0.38659566549E+02  0.50332932130E+02  0.00000000000E+00 0.  1.
         14    1    3    3    0    0 -0.48004922594E+02  0.57781530913E+02  0.10129854944E+03  0.12611333802E+03  0.00000000000E+00 0. -1.
        -13    1    4    4    0    0  0.26284655613E+02 -0.42305941056E+02  0.46289005471E+01  0.50021020478E+02  0.00000000000E+00 0.  1.
         13    1    4    4    0    0 -0.34274379401E+02  0.26105645922E+02  0.92812198686E+01  0.44072427600E+02  0.00000000000E+00 0. -1.
         21    1    1    2  503  501  0.11073399043E+03  0.97013919226E+00  0.27187865823E+03  0.29356594252E+03  0.00000000000E+00 0.  1.
         -2    1    1    2    0  502 -0.56138971258E+02 -0.10350707047E+02  0.26082957635E+02  0.62761787014E+02  0.00000000000E+00 0.  1.
<scales pt_clust_5="13000.00000" pt_clust_6="13000.00000" pt_clust_7="13000.00000" pt_clust_8="13000.00000" pt_clust_9="101.93648" pt_clust_10="57.08521"></scales>
<clustering>
<clus scale="   57.085">  2 10  1 -1</clus>
<clus scale="   91.290">  7  8 -1 -1</clus>
<clus scale="   93.373">  5  6 -1 -1</clus>
<clus scale="  101.936">  1  9  2 -1</clus>
<clus scale="   94.231">  2  7  1 -1</clus>
<clus scale="   57.085">  2  5  1 -1</clus>
</clustering>
</event>
<event>
10    4  0.2857708E-005  0.1935576E+03  0.7546771E-02  0.1171946E+00
          2   -1    0    0  503    0 -0.00000000000E+00  0.00000000000E+00  0.65727606318E+03  0.65727606318E+03  0.00000000000E+00 0. -1.
         21   -1    0    0  501  502  0.00000000000E+00 -0.00000000000E+00 -0.33371552729E+03  0.33371552729E+03  0.00000000000E+00 0. -1.
         23    2    1    2    0    0 -0.80351294818E+02  0.50334582923E+02  0.17660819519E+03  0.21978354947E+03  0.90135748699E+02 0.  0.
         24    2    1    2    0    0 -0.10281012673E+03 -0.11640025098E+03  0.37043472051E+03  0.40958522405E+03  0.80120116195E+02 0.  0.
        -11    1    4    4    0    0 -0.53149721935E+02 -0.37846213025E+02  0.72712318218E+02  0.97694984532E+02  0.00000000000E+00 0.  1.
         12    1    4    4    0    0 -0.49660404792E+02 -0.78554037951E+02  0.29772240229E+03  0.31189023952E+03  0.00000000000E+00 0. -1.
        -13    1    3    3    0    0 -0.54630688436E+02  0.31401389172E+02  0.30095913315E+02  0.69830676348E+02  0.00000000000E+00 0. -1.
         13    1    3    3    0    0 -0.25720606382E+02  0.18933193751E+02  0.14651228187E+03  0.14995287312E+03  0.00000000000E+00 0.  1.
         21    1    1    2  503  502  0.95700619190E+01  0.20531863556E+02  0.38142043732E+02  0.44361683989E+02  0.00000000000E+00 0. -1.
          1    1    1    2  501    0  0.17359135963E+03  0.45533804498E+02 -0.26162442354E+03  0.31726113295E+03  0.00000000000E+00 0. -1.
<scales pt_clust_5="13000.00000" pt_clust_6="13000.00000" pt_clust_7="13000.00000" pt_clust_8="13000.00000" pt_clust_9="22.65267" pt_clust_10="176.19685"></scales>
<clustering>
<clus scale="   22.653">  1  9  2 -1</clus>
<clus scale="   80.120">  5  6 -1 -1</clus>
<clus scale="   90.136">  7  8 -1 -1</clus>
<clus scale="  131.673">  1  7  2 -1</clus>
<clus scale="  176.197">  2 10  1 -1</clus>
<clus scale="  176.197">  2  5  1 -1</clus>
</clustering>
</event>
<event>
10    4  0.2857708E-005  0.9837443E+02  0.7546771E-02  0.1285641E+00
          2   -1    0    0  503    0 -0.00000000000E+00  0.00000000000E+00  0.92608969496E+03  0.92608969496E+03  0.00000000000E+00 0. -1.
         21   -1    0    0  501  502  0.00000000000E+00 -0.00000000000E+00 -0.65060814211E+02  0.65060814211E+02  0.00000000000E+00 0. -1.
         24    2    1    2    0    0 -0.53586548755E+02  0.75481482755E+02  0.51579325981E+03  0.53193012351E+03  0.91312633252E+02 0.  0.
         23    2    1    2    0    0  0.82832729701E+01 -0.20932807503E+02  0.26035126044E+00  0.97526893197E+02  0.94892739832E+02 0.  0.
        -13    1    3    3    0    0 -0.26333395875E+02 -0.18493617156E+02  0.12860274615E+03  0.13256744673E+03  0.00000000000E+00 0.  1.
         14    1    3    3    0    0 -0.27253152880E+02  0.93975099911E+02  0.38719051366E+03  0.39936267679E+03  0.00000000000E+00 0. -1.
        -11    1    4    4    0    0  0.41368258758E+02  0.18199837039E+02 -0.71255671434E+01  0.45753039331E+02  0.00000000000E+00 0.  1.
         11    1    4    4    0    0 -0.33084985788E+02 -0.39132644542E+02  0.73859184038E+01  0.51773853866E+02  0.00000000000E+00 0. -1.
         21    1    1    2  503  502  0.35336751824E+02 -0.74651380947E+02  0.30350625602E+03  0.31454341855E+03  0.00000000000E+00 0. -1.
          1    1    1    2  501    0  0.99665239609E+01  0.20102705696E+02  0.41469013658E+02  0.47150073912E+02  0.00000000000E+00 0. -1.
<scales pt_clust_5="13000.00000" pt_clust_6="13000.00000" pt_clust_7="13000.00000" pt_clust_8="13000.00000" pt_clust_9="81.37409" pt_clust_10="22.43771"></scales>
<clustering>
<clus scale="   22.438">  2 10  1 -1</clus>
<clus scale="   81.374">  1  9  2 -1</clus>
<clus scale="   91.313">  5  6 -1 -1</clus>
<clus scale="   94.893">  7  8 -1 -1</clus>
<clus scale="   94.926">  1  5  2 -1</clus>
<clus scale="   22.438">  2  5  1 -1</clus>
</clustering>
</event>
<event>
10    4  0.2857708E-005  0.9679012E+02  0.7546771E-02  0.1293100E+00
         21   -1    0    0  501  502  0.00000000000E+00  0.00000000000E+00  0.15688463610E+03  0.15688463610E+03  0.00000000000E+00 0.  1.
          2   -1    0    0  503    0 -0.00000000000E+00 -0.00000000000E+00 -0.13227756853E+03  0.13227756853E+03  0.00000000000E+00 0. -1.
         24    2    1    2    0    0 -0.31065229455E+02 -0.53978950257E+02 -0.11439156521E+02  0.10155982496E+03  0.79402570438E+02 0.  0.
         23    2    1    2    0    0  0.10066395902E+01  0.59037428721E+01  0.47788950607E+01  0.90677664845E+02  0.90353381567E+02 0.  0.
        -13    1    3    3    0    0 -0.56033374122E+02 -0.24907917532E+02 -0.14832597957E+02  0.63088424718E+02  0.00000000000E+00 0.  1.
         14    1    3    3    0    0  0.24968144668E+02 -0.29071032724E+02  0.33934414361E+01  0.38471400242E+02  0.00000000000E+00 0. -1.
        -13    1    4    4    0    0  0.19472821391E+02  0.29128989713E+02  0.34149940712E+02  0.48927571627E+02  0.00000000000E+00 0.  1.
         13    1    4    4    0    0 -0.18466181801E+02 -0.23225246841E+02 -0.29371045651E+02  0.41750093219E+02  0.00000000000E+00 0. -1.
         21    1    1    2  503  502 -0.12648791019E+02  0.23106047712E+02 -0.14033024567E+02  0.29846392304E+02  0.00000000000E+00 0. -1.
          1    1    1    2  501    0  0.42707380883E+02  0.24969159673E+02  0.45300353599E+02  0.67078322526E+02  0.00000000000E+00 0. -1.
<scales pt_clust_5="13000.00000" pt_clust_6="13000.00000" pt_clust_7="13000.00000" pt_clust_8="13000.00000" pt_clust_9="26.34163" pt_clust_10="49.61239"></scales>
<clustering>
<clus scale="   26.342">  2  9  1 -1</clus>
<clus scale="   49.612">  1 10  2 -1</clus>
<clus scale="   79.403">  5  6 -1 -1</clus>
<clus scale="   86.657">  2  5  1 -1</clus>
<clus scale="   90.353">  7  8 -1 -1</clus>
<clus scale="   49.612">  1  5  2 -1</clus>
</clustering>
</event>
<event>
10    4  0.2857708E-005  0.1023652E+03  0.7546771E-02  0.1280689E+00
          2   -1    0    0  503    0 -0.00000000000E+00  0.00000000000E+00  0.25869662152E+03  0.25869662152E+03  0.00000000000E+00 0. -1.
         21   -1    0    0  501  502  0.00000000000E+00 -0.00000000000E+00 -0.63860692364E+02  0.63860692364E+02  0.00000000000E+00 0. -1.
         24    2    1    2    0    0 -0.39410711251E+02 -0.22607405963E+02  0.77810349086E+02  0.11980018764E+03  0.78951476041E+02 0.  0.
         23    2    1    2    0    0  0.44122459381E+02  0.26419938524E+02  0.91273605130E+02  0.13829428500E+03  0.90275321638E+02 0.  0.
        -13    1    3    3    0    0 -0.47041606701E+02  0.17282970281E+02  0.37644279927E+02  0.62679387632E+02  0.00000000000E+00 0.  1.
         14    1    3    3    0    0  0.76308954498E+01 -0.39890376244E+02  0.40166069159E+02  0.57120800012E+02  0.00000000000E+00 0. -1.
        -11    1    4    4    0    0 -0.18436440017E+02 -0.18026121619E+02  0.33308586021E+02  0.42122503295E+02  0.00000000000E+00 0.  1.
         11    1    4    4    0    0  0.62558899398E+02  0.44446060142E+02  0.57965019109E+02  0.96171781705E+02  0.00000000000E+00 0. -1.
         21    1    1    2  503  502  0.12254007657E+02  0.17848172863E+02 -0.59828814072E+01  0.22461363452E+02  0.00000000000E+00 0.  1.
          1    1    1    2  501    0 -0.16965755787E+02 -0.21660705423E+02  0.31734856344E+02  0.42001477784E+02  0.00000000000E+00 0. -1.
<scales pt_clust_5="13000.00000" pt_clust_6="13000.00000" pt_clust_7="13000.00000" pt_clust_8="13000.00000" pt_clust_9="21.64990" pt_clust_10="25.27997"></scales>
<clustering>
<clus scale="   21.650">  2  9  1 -1</clus>
<clus scale="   25.280">  2 10  1 -1</clus>
<clus scale="   78.951">  5  6 -1 -1</clus>
<clus scale="   90.275">  7  8 -1 -1</clus>
<clus scale="   92.533">  1  5  2 -1</clus>
<clus scale="   21.650">  2  5  1 -1</clus>
</clustering>
</event>
<event>
10    4  0.2857708E-005  0.1021974E+03  0.7546771E-02  0.1280325E+00
          2   -1    0    0  503    0 -0.00000000000E+00  0.00000000000E+00  0.12303963266E+03  0.12303963266E+03  0.00000000000E+00 0. -1.
         21   -1    0    0  501  502  0.00000000000E+00 -0.00000000000E+00 -0.38864552569E+03  0.38864552569E+03  0.00000000000E+00 0.  1.
         24    2    1    2    0    0  0.10549050753E+02 -0.30713294232E+02  0.62519973965E+02  0.10746910293E+03  0.81155850225E+02 0.  0.
         23    2    1    2    0    0 -0.62767299627E+02  0.32394419147E+02 -0.14486469207E+03  0.18503522582E+03  0.90901724344E+02 0.  0.
        -13    1    3    3    0    0 -0.13659887185E+02  0.23792377051E+02  0.15404347262E+02  0.31463687613E+02  0.00000000000E+00 0.  1.
         14    1    3    3    0    0  0.24208937938E+02 -0.54505671282E+02  0.47115626704E+02  0.76005415318E+02  0.00000000000E+00 0. -1.
        -11    1    4    4    0    0 -0.32093737525E+02 -0.30518233432E+02 -0.67245977899E+02  0.80519513807E+02  0.00000000000E+00 0. -1.
         11    1    4    4    0    0 -0.30673562102E+02  0.62912652579E+02 -0.77618714176E+02  0.10451571201E+03  0.00000000000E+00 0.  1.
         21    1    1    2  503  502  0.22495351905E+02 -0.23199808676E+01  0.92165419094E+01  0.24420643180E+02  0.00000000000E+00 0. -1.
          1    1    1    2  501    0  0.29722896968E+02  0.63885595240E+00 -0.19247771683E+03  0.19476018643E+03  0.00000000000E+00 0. -1.
<scales pt_clust_5="13000.00000" pt_clust_6="13000.00000" pt_clust_7="13000.00000" pt_clust_8="13000.00000" pt_clust_9="22.61467" pt_clust_10="29.97087"></scales>
<clustering>
<clus scale="   22.615">  1  9  2 -1</clus>
<clus scale="   29.971">  2 10  1 -1</clus>
<clus scale="   81.156">  5  6 -1 -1</clus>
<clus scale="   90.902">  7  8 -1 -1</clus>
<clus scale="   93.635">  1  5  2 -1</clus>
<clus scale="   29.971">  2  5  1 -1</clus>
</clustering>
</event>
<event>
10    4  0.2857708E-005  0.1579164E+03  0.7546771E-02  0.1199357E+00
         21   -1    0    0  503  502  0.00000000000E+00  0.00000000000E+00  0.16515778865E+03  0.16515778865E+03  0.00000000000E+00 0.  1.
         -1   -1    0    0    0  501 -0.00000000000E+00 -0.00000000000E+00 -0.69810705801E+03  0.69810705801E+03  0.00000000000E+00 0.  1.
         23    2    1    2    0    0 -0.82895967140E+02  0.66537950465E+02  0.11082348730E+02  0.14068654560E+03  0.91492324487E+02 0.  0.
         24    2    1    2    0    0  0.16168913735E+03  0.39724712534E+02 -0.52922523007E+03  0.56069386530E+03  0.81097697373E+02 0.  0.
        -11    1    4    4    0    0  0.13184346322E+03 -0.43046813450E+01 -0.36901419934E+03  0.39188353932E+03  0.00000000000E+00 0.  1.
         12    1    4    4    0    0  0.29845674125E+02  0.44029393879E+02 -0.16021103073E+03  0.16881032598E+03  0.00000000000E+00 0. -1.
        -13    1    3    3    0    0 -0.90733251298E+02  0.21214606714E+02 -0.78742639995E+00  0.93183702810E+02  0.00000000000E+00 0. -1.
         13    1    3    3    0    0  0.78372841578E+01  0.45323343751E+02  0.11869775130E+02  0.47502842792E+02  0.00000000000E+00 0.  1.
         21    1    1    2  503  501  0.20618278204E+02 -0.12281889895E+02 -0.63265581571E+01  0.24819015968E+02  0.00000000000E+00 0.  1.
         -2    1    1    2    0  502 -0.99411448412E+02 -0.93980773104E+02 -0.84798298649E+01  0.13706541979E+03  0.00000000000E+00 0.  1.
<scales pt_clust_5="13000.00000" pt_clust_6="13000.00000" pt_clust_7="13000.00000" pt_clust_8="13000.00000" pt_clust_9="23.99913" pt_clust_10="135.50186"></scales>
<clustering>
<clus scale="   23.999">  1  9  2 -1</clus>
<clus scale="   81.098">  5  6 -1 -1</clus>
<clus scale="   91.492">  7  8 -1 -1</clus>
<clus scale="  131.708">  2  7  1 -1</clus>
<clus scale="  135.502">  1 10  2 -1</clus>
<clus scale="   23.999">  1  5  2 -1</clus>
</clustering>
</event>
<event>
10    4  0.2857708E-005  0.2308939E+03  0.7546771E-02  0.1126751E+00
         21   -1    0    0  501  502  0.00000000000E+00  0.00000000000E+00  0.78732020300E+02  0.78732020300E+02  0.00000000000E+00 0. -1.
          2   -1    0    0  503    0 -0.00000000000E+00 -0.00000000000E+00 -0.13955235904E+04  0.13955235904E+04  0.00000000000E+00 0. -1.
         24    2    1    2    0    0 -0.20038001050E+03  0.11681407211E+02 -0.77528132444E+03  0.80512798816E+03  0.82953851074E+02 0.  0.
         23    2    1    2    0    0  0.23556384060E+03  0.31399670451E+02 -0.24393661699E+03  0.35323529879E+03  0.93775481337E+02 0.  0.
        -11    1    3    3    0    0 -0.42566385080E+02 -0.30924946490E+02 -0.15587286356E+03  0.16451321846E+03  0.00000000000E+00 0.  1.
         12    1    3    3    0    0 -0.15781362542E+03  0.42606353701E+02 -0.61940846088E+03  0.64061476969E+03  0.00000000000E+00 0. -1.
        -11    1    4    4    0    0  0.13690776537E+03  0.45301383618E+02 -0.90381608869E+02  0.17019044274E+03  0.00000000000E+00 0. -1.
         11    1    4    4    0    0  0.98656075227E+02 -0.13901713167E+02 -0.15355500813E+03  0.18304485606E+03  0.00000000000E+00 0.  1.
         21    1    1    2  503  502 -0.48951906098E+01  0.26332965476E+02 -0.11799970430E+03  0.12100131477E+03  0.00000000000E+00 0. -1.
          1    1    1    2  501    0 -0.30288639494E+02 -0.69414043138E+02 -0.17957392436E+03  0.19489100897E+03  0.00000000000E+00 0. -1.
<scales pt_clust_5="13000.00000" pt_clust_6="13000.00000" pt_clust_7="13000.00000" pt_clust_8="13000.00000" pt_clust_9="26.78410" pt_clust_10="72.51386"></scales>
<clustering>
<clus scale="   26.784">  2  9  1 -1</clus>
<clus scale="   72.514">  1 10  2 -1</clus>
<clus scale="   82.954">  5  6 -1 -1</clus>
<clus scale="   93.775">  7  8 -1 -1</clus>
<clus scale="  226.715">  2  5  1 -1</clus>
<clus scale="   72.514">  1  5  2 -1</clus>
</clustering>
</event>
<event>
10    4  0.2857708E-005  0.9493891E+02  0.7546771E-02  0.1295124E+00
         21   -1    0    0  501  502  0.00000000000E+00  0.00000000000E+00  0.53698542554E+02  0.53698542554E+02  0.00000000000E+00 0.  1.
          2   -1    0    0  503    0 -0.00000000000E+00 -0.00000000000E+00 -0.38046687502E+03  0.38046687502E+03  0.00000000000E+00 0. -1.
         24    2    1    2    0    0 -0.39487282444E+02  0.13715981193E+02 -0.14780320177E+03  0.17510772866E+03  0.84080655139E+02 0.  0.
         23    2    1    2    0    0  0.22010834307E+01  0.76641159637E+01 -0.52304551222E+02  0.10517642654E+03  0.90899566442E+02 0.  0.
        -13    1    3    3    0    0  0.83713078921E+01  0.27675743376E+02 -0.10653805450E+03  0.11039195000E+03  0.00000000000E+00 0.  1.
         14    1    3    3    0    0 -0.47858590336E+02 -0.13959762183E+02 -0.41265147271E+02  0.64715778667E+02  0.00000000000E+00 0. -1.
        -11    1    4    4    0    0  0.27361941647E+02  0.13638945865E+02  0.14282125475E+02  0.33744270671E+02  0.00000000000E+00 0.  1.
         11    1    4    4    0    0 -0.25160858216E+02 -0.59748299015E+01 -0.66586676697E+02  0.71432155869E+02  0.00000000000E+00 0. -1.
         21    1    1    2  503  502 -0.33147710611E+01 -0.20343009339E+02 -0.10661590105E+03  0.10858994471E+03  0.00000000000E+00 0. -1.
          1    1    1    2  501    0  0.40600970074E+02 -0.10370878174E+01 -0.20044678422E+02  0.45291317657E+02  0.00000000000E+00 0. -1.
<scales pt_clust_5="13000.00000" pt_clust_6="13000.00000" pt_clust_7="13000.00000" pt_clust_8="13000.00000" pt_clust_9="20.61130" pt_clust_10="40.35381"></scales>
<clustering>
<clus scale="   20.611">  2  9  1 -1</clus>
<clus scale="   40.354">  1 10  2 -1</clus>
<clus scale="   84.081">  5  6 -1 -1</clus>
<clus scale="   88.432">  2  5  1 -1</clus>
<clus scale="   90.900">  7  8 -1 -1</clus>
<clus scale="   40.354">  1  5  2 -1</clus>
</clustering>
</event>
<event>
10    4  0.2857708E-005  0.8772225E+02  0.7546771E-02  0.1312072E+00
         21   -1    0    0  501  502  0.00000000000E+00  0.00000000000E+00  0.37104645009E+03  0.37104645009E+03  0.00000000000E+00 0.  1.
          2   -1    0    0  503    0 -0.00000000000E+00 -0.00000000000E+00 -0.93059127034E+02  0.93059127034E+02  0.00000000000E+00 0. -1.
         23    2    1    2    0    0  0.11311958167E+02  0.48952813043E+02  0.19964725540E+02  0.10254390164E+03  0.87133938249E+02 0.  0.
         24    2    1    2    0    0 -0.25111177433E+02 -0.61366080150E+01  0.22972838115E+03  0.24513525453E+03  0.81534868105E+02 0.  0.
        -11    1    4    4    0    0 -0.36014417039E+02 -0.36039056360E+02  0.16980049324E+03  0.17727960774E+03  0.00000000000E+00 0.  1.
         12    1    4    4    0    0  0.10903239606E+02  0.29902448345E+02  0.59927887910E+02  0.67855646782E+02  0.00000000000E+00 0. -1.
        -13    1    3    3    0    0 -0.32759902982E+02  0.13656184580E+01  0.18541706082E+02  0.37667904396E+02  0.00000000000E+00 0. -1.
         13    1    3    3    0    0  0.44071861149E+02  0.47587194585E+02  0.14230194580E+01  0.64875997241E+02  0.00000000000E+00 0.  1.
         21    1    1    2  503  502 -0.10076095877E+02 -0.64786815221E+02 -0.99025195110E+01  0.66309268035E+02  0.00000000000E+00 0. -1.
          1    1    1    2  501    0  0.23875315143E+02  0.21970610193E+02  0.38196735877E+02  0.50117152923E+02  0.00000000000E+00 0. -1.
<scales pt_clust_5="13000.00000" pt_clust_6="13000.00000" pt_clust_7="13000.00000" pt_clust_8="13000.00000" pt_clust_9="63.40005" pt_clust_10="32.44593"></scales>
<clustering>
<clus scale="   32.446">  1 10  2 -1</clus>
<clus scale="   63.400">  2  9  1 -1</clus>
<clus scale="   81.535">  5  6 -1 -1</clus>
<clus scale="   82.163">  1  5  2 -1</clus>
<clus scale="   87.134">  7  8 -1 -1</clus>
<clus scale="   32.446">  1  5  2 -1</clus>
</clustering>
</event>
<event>
10    4  0.2857708E-005  0.9539204E+02  0.7546771E-02  0.1297871E+00
         21   -1    0    0  501  502  0.00000000000E+00  0.00000000000E+00  0.37497559173E+03  0.37497559173E+03  0.00000000000E+00 0. -1.
          2   -1    0    0  503    0 -0.00000000000E+00 -0.00000000000E+00 -0.34895553175E+03  0.34895553175E+03  0.00000000000E+00 0. -1.
         24    2    1    2    0    0  0.16214950171E+02 -0.39553275424E+02 -0.29342789064E+03  0.30698661005E+03  0.79457318985E+02 0.  0.
         23    2    1    2    0    0 -0.32522682379E+02 -0.86101151022E+01  0.20660636926E+03  0.22883861902E+03  0.92461142034E+02 0.  0.
        -13    1    3    3    0    0 -0.16265329643E+02 -0.37844170058E+02 -0.70130250981E+02  0.81332614973E+02  0.00000000000E+00 0.  1.
         14    1    3    3    0    0  0.32480279814E+02 -0.17091053664E+01 -0.22329763965E+03  0.22565399507E+03  0.00000000000E+00 0. -1.
        -11    1    4    4    0    0 -0.50380164184E+02  0.22725412757E+01  0.20094051352E+03  0.20717242906E+03  0.00000000000E+00 0.  1.
         11    1    4    4    0    0  0.17857481805E+02 -0.10882656378E+02  0.56658557338E+01  0.21666189962E+02  0.00000000000E+00 0. -1.
         21    1    1    2  503  502  0.15625138227E+01  0.24902350104E+02 -0.32051523567E+02  0.40618575222E+02  0.00000000000E+00 0. -1.
          1    1    1    2  501    0  0.14745218385E+02  0.23261040423E+02  0.14489310493E+03  0.14748731920E+03  0.00000000000E+00 0. -1.
<scales pt_clust_5="13000.00000" pt_clust_6="13000.00000" pt_clust_7="13000.00000" pt_clust_8="13000.00000" pt_clust_9="24.95132" pt_clust_10="27.63162"></scales>
<clustering>
<clus scale="   24.951">  2  9  1 -1</clus>
<clus scale="   27.632">  1 10  2 -1</clus>
<clus scale="   79.457">  5  6 -1 -1</clus>
<clus scale="   82.850">  2  5  1 -1</clus>
<clus scale="   92.461">  7  8 -1 -1</clus>
<clus scale="   27.632">  1  5  2 -1</clus>
</clustering>
</event>
<event>
10    4  0.2857708E-005  0.2712056E+03  0.7546771E-02  0.1140477E+00
          2   -1    0    0  503    0 -0.00000000000E+00  0.00000000000E+00  0.21149294581E+04  0.21149294581E+04  0.00000000000E+00 0. -1.
         21   -1    0    0  501  502  0.00000000000E+00 -0.00000000000E+00 -0.20121676469E+03  0.20121676469E+03  0.00000000000E+00 0. -1.
         24    2    1    2    0    0  0.42529552123E+02 -0.31903244233E+03  0.21172569468E+03  0.39346232922E+03  0.79964821423E+02 0.  0.
         23    2    1    2    0    0  0.89148152435E+01  0.53623796926E+01 -0.34351102002E+02  0.98187844880E+02  0.91392700073E+02 0.  0.
        -13    1    3    3    0    0  0.29519705922E+02 -0.63340941933E+02  0.17322476039E+02  0.71996917565E+02  0.00000000000E+00 0.  1.
         14    1    3    3    0    0  0.13009846201E+02 -0.25569150040E+03  0.19440321864E+03  0.32146541166E+03  0.00000000000E+00 0. -1.
        -11    1    4    4    0    0  0.35247464023E+02 -0.19963660259E+02  0.89983123780E+01  0.41495795892E+02  0.00000000000E+00 0. -1.
         11    1    4    4    0    0 -0.26332648780E+02  0.25326039952E+02 -0.43349414380E+02  0.56692048988E+02  0.00000000000E+00 0.  1.
         21    1    1    2  503  502 -0.82273376363E+02  0.23960138135E+03  0.17249616481E+04  0.17434650607E+04  0.00000000000E+00 0. -1.
          1    1    1    2  501    0  0.30829008996E+02  0.74068681285E+02  0.11376452643E+02  0.81030988010E+02  0.00000000000E+00 0. -1.
<scales pt_clust_5="13000.00000" pt_clust_6="13000.00000" pt_clust_7="13000.00000" pt_clust_8="13000.00000" pt_clust_9="259.14878" pt_clust_10="80.22841"></scales>
<clustering>
<clus scale="   79.965">  5  6 -1 -1</clus>
<clus scale="   80.228">  2 10  1 -1</clus>
<clus scale="   91.393">  7  8 -1 -1</clus>
<clus scale="  100.086">  2  7  1 -1</clus>
<clus scale="  259.149">  1  9  2 -1</clus>
<clus scale="   80.228">  2  5  1 -1</clus>
</clustering>
</event>
<event>
10    4  0.2857708E-005  0.1251113E+03  0.7546771E-02  0.1240356E+00
          2   -1    0    0  503    0 -0.00000000000E+00  0.00000000000E+00  0.54125533497E+03  0.54125533497E+03  0.00000000000E+00 0. -1.
         21   -1    0    0  501  502  0.00000000000E+00 -0.00000000000E+00 -0.21828340969E+03  0.21828340969E+03  0.00000000000E+00 0.  1.
         23    2    1    2    0    0  0.41306670304E+02  0.11399433091E+02 -0.49786345306E+02  0.11754356415E+03  0.97476259718E+02 0.  0.
         24    2    1    2    0    0 -0.12624046196E+03 -0.41373982697E+02 -0.66881742342E+02  0.16881565329E+03  0.79856725816E+02 0.  0.
        -11    1    4    4    0    0 -0.69903712418E+02 -0.26145826602E+02 -0.79569541487E+02  0.10909374497E+03  0.00000000000E+00 0.  1.
         12    1    4    4    0    0 -0.56336749539E+02 -0.15228156095E+02  0.12687799145E+02  0.59721908324E+02  0.00000000000E+00 0. -1.
        -13    1    3    3    0    0  0.62436657016E+02  0.30628609037E+02 -0.54795237330E+02  0.88537934609E+02  0.00000000000E+00 0. -1.
         13    1    3    3    0    0 -0.21129986711E+02 -0.19229175947E+02  0.50088920230E+01  0.29005629545E+02  0.00000000000E+00 0.  1.
         21    1    1    2  503  502 -0.35050757043E+02 -0.18920839713E+02  0.16154883345E+03  0.16638683642E+03  0.00000000000E+00 0.  1.
          1    1    1    2  501    0  0.11998454870E+03  0.48895389319E+02  0.27809117948E+03  0.30679269080E+03  0.00000000000E+00 0. -1.
<scales pt_clust_5="13000.00000" pt_clust_6="13000.00000" pt_clust_7="13000.00000" pt_clust_8="13000.00000" pt_clust_9="39.83157" pt_clust_10="98.92675"></scales>
<clustering>
<clus scale="   39.832">  1  9  2 -1</clus>
<clus scale="   79.857">  5  6 -1 -1</clus>
<clus scale="   97.476">  7  8 -1 -1</clus>
<clus scale="   98.927">  2 10  1 -1</clus>
<clus scale="  111.930">  2  5  1 -1</clus>
<clus scale="   98.927">  2  5  1 -1</clus>
</clustering>
</event>
<event>
10    4  0.2857708E-005  0.1075723E+03  0.7546771E-02  0.1266639E+00
          2   -1    0    0  503    0 -0.00000000000E+00  0.00000000000E+00  0.47398845508E+03  0.47398845508E+03  0.00000000000E+00 0. -1.
         21   -1    0    0  501  502  0.00000000000E+00 -0.00000000000E+00 -0.15851437329E+03  0.15851437329E+03  0.00000000000E+00 0. -1.
         24    2    1    2    0    0 -0.73505617891E+02 -0.56105194791E+02  0.38835314648E+02  0.12845027703E+03  0.80252247704E+02 0.  0.
         23    2    1    2    0    0  0.51069356018E+02 -0.28187207257E+02 -0.74690398081E+02  0.12680967955E+03  0.84258183497E+02 0.  0.
        -11    1    3    3    0    0 -0.85319521168E+01 -0.53653137328E+02  0.32051683457E+02  0.63077442597E+02  0.00000000000E+00 0.  1.
         12    1    3    3    0    0 -0.64973665774E+02 -0.24520574629E+01  0.67836311912E+01  0.65372834435E+02  0.00000000000E+00 0. -1.
        -13    1    4    4    0    0  0.73108834355E+02 -0.15293310106E+02 -0.66469194271E+02  0.99984702739E+02  0.00000000000E+00 0. -1.
         13    1    4    4    0    0 -0.22039478337E+02 -0.12893897151E+02 -0.82212038099E+01  0.26824976816E+02  0.00000000000E+00 0.  1.
         21    1    1    2  503  502  0.49718525927E+02  0.34938834096E+01  0.16419376122E+03  0.17159175465E+03  0.00000000000E+00 0. -1.
          1    1    1    2  501    0 -0.27282264054E+02  0.80798518639E+02  0.18713540400E+03  0.20565111713E+03  0.00000000000E+00 0. -1.
<scales pt_clust_5="13000.00000" pt_clust_6="13000.00000" pt_clust_7="13000.00000" pt_clust_8="13000.00000" pt_clust_9="49.84114" pt_clust_10="83.16854"></scales>
<clustering>
<clus scale="   49.841">  1  9  2 -1</clus>
<clus scale="   80.252">  5  6 -1 -1</clus>
<clus scale="   83.169">  2 10  1 -1</clus>
<clus scale="   84.258">  7  8 -1 -1</clus>
<clus scale="  104.464">  1  5  2 -1</clus>
<clus scale="   83.169">  2  5  1 -1</clus>
</clustering>
</event>
<event>
10    4  0.2857708E-005  0.1606353E+03  0.7546771E-02  0.1195742E+00
         21   -1    0    0  501  502  0.00000000000E+00  0.00000000000E+00  0.18892103771E+03  0.18892103771E+03  0.00000000000E+00 0. -1.
          2   -1    0    0  503    0 -0.00000000000E+00 -0.00000000000E+00 -0.14884696052E+04  0.14884696052E+04  0.00000000000E+00 0. -1.
         23    2    1    2    0    0  0.58133161254E+02  0.88875488922E+02 -0.32106189882E+03  0.34857185757E+03  0.84517927361E+02 0.  0.
         24    2    1    2    0    0 -0.16219350932E+03  0.51135843171E+02 -0.77712736085E+02  0.20383448369E+03  0.81164145225E+02 0.  0.
        -11    1    4    4    0    0 -0.14949123630E+03  0.67123927058E+02 -0.53991759484E+02  0.17253510195E+03  0.00000000000E+00 0.  1.
         12    1    4    4    0    0 -0.12702273020E+02 -0.15988083888E+02 -0.23720976601E+02  0.31299381739E+02  0.00000000000E+00 0. -1.
        -11    1    3    3    0    0  0.37959491300E+02  0.10352783511E+03 -0.24915697195E+03  0.27246675447E+03  0.00000000000E+00 0. -1.
         11    1    3    3    0    0  0.20173669955E+02 -0.14652346192E+02 -0.71904926873E+02  0.76105103094E+02  0.00000000000E+00 0.  1.
         21    1    1    2  503  502  0.73712656661E+02 -0.11575358854E+03 -0.10047024804E+04  0.10140313226E+04  0.00000000000E+00 0. -1.
          1    1    1    2  501    0  0.30347691406E+02 -0.24257743554E+02  0.10392854786E+03  0.11095297903E+03  0.00000000000E+00 0. -1.
<scales pt_clust_5="13000.00000" pt_clust_6="13000.00000" pt_clust_7="13000.00000" pt_clust_8="13000.00000" pt_clust_9="138.62205" pt_clust_10="38.85126"></scales>
<clustering>
<clus scale="   38.851">  1 10  2 -1</clus>
<clus scale="   81.164">  5  6 -1 -1</clus>
<clus scale="   84.518">  7  8 -1 -1</clus>
<clus scale="  135.397">  2  7  1 -1</clus>
<clus scale="  138.622">  2  9  1 -1</clus>
<clus scale="   38.851">  1  5  2 -1</clus>
</clustering>
</event>
<event>
10    4  0.2857708E-005  0.1462564E+03  0.7546771E-02  0.1210610E+00
         21   -1    0    0  501  502  0.00000000000E+00  0.00000000000E+00  0.48402670307E+03  0.48402670307E+03  0.00000000000E+00 0. -1.
          2   -1    0    0  503    0 -0.00000000000E+00 -0.00000000000E+00 -0.33807619854E+03  0.33807619854E+03  0.00000000000E+00 0. -1.
         24    2    1    2    0    0 -0.32108765434E+02 -0.84287902271E+02 -0.22469643706E+03  0.25432618162E+03  0.77832477438E+02 0.  0.
         23    2    1    2    0    0  0.26402439221E+02  0.51650904454E+02  0.13838480241E+03  0.18175865748E+03  0.10257168859E+03 0.  0.
        -13    1    3    3    0    0 -0.23664293226E+02  0.81376036236E+01 -0.33710784527E+02  0.41983763052E+02  0.00000000000E+00 0.  1.
         14    1    3    3    0    0 -0.84444722089E+01 -0.92425505894E+02 -0.19098565253E+03  0.21234241857E+03  0.00000000000E+00 0. -1.
        -13    1    4    4    0    0 -0.96715831759E+01 -0.21046685806E+02  0.75840193078E+02  0.79298407239E+02  0.00000000000E+00 0. -1.
         13    1    4    4    0    0  0.36074022397E+02  0.72697590260E+02  0.62544609335E+02  0.10246025024E+03  0.00000000000E+00 0.  1.
         21    1    1    2  503  502 -0.38287720717E+02 -0.61445248887E+01 -0.68973378609E+02  0.79126681344E+02  0.00000000000E+00 0. -1.
          1    1    1    2  501    0  0.43994046931E+02  0.38781522705E+02  0.30123551778E+03  0.30689138117E+03  0.00000000000E+00 0. -1.
<scales pt_clust_5="13000.00000" pt_clust_6="13000.00000" pt_clust_7="13000.00000" pt_clust_8="13000.00000" pt_clust_9="38.77763" pt_clust_10="58.29637"></scales>
<clustering>
<clus scale="   38.778">  2  9  1 -1</clus>
<clus scale="   58.296">  1 10  2 -1</clus>
<clus scale="   77.832">  5  6 -1 -1</clus>
<clus scale="  102.572">  7  8 -1 -1</clus>
<clus scale="  130.107">  2  5  1 -1</clus>
<clus scale="   58.296">  1  5  2 -1</clus>
</clustering>
</event>
<event>
10    4  0.2857708E-005  0.2139926E+03  0.7546771E-02  0.1164190E+00
          2   -1    0    0  503    0 -0.00000000000E+00  0.00000000000E+00  0.10917022686E+04  0.10917022686E+04  0.00000000000E+00 0. -1.
         21   -1    0    0  501  502  0.00000000000E+00 -0.00000000000E+00 -0.18682745405E+03  0.18682745405E+03  0.00000000000E+00 0. -1.
         23    2    1    2    0    0 -0.37057834701E+02  0.38622272642E+02 -0.18527819978E+02  0.11788746556E+03  0.10338864234E+03 0.  0.
         24    2    1    2    0    0  0.12279955917E+03 -0.80306643652E+02  0.44785158243E+03  0.47829771897E+03  0.81662594525E+02 0.  0.
        -11    1    4    4    0    0  0.57131272424E+02  0.62185873499E+01  0.18999082889E+03  0.19849223708E+03  0.00000000000E+00 0.  1.
         12    1    4    4    0    0  0.65668286744E+02 -0.86525231002E+02  0.25786075354E+03  0.27980548190E+03  0.00000000000E+00 0. -1.
        -11    1    3    3    0    0  0.32259536161E+02  0.17034936192E+02 -0.26153081055E+02  0.44887084702E+02  0.00000000000E+00 0. -1.
         11    1    3    3    0    0 -0.69317370862E+02  0.21587336449E+02  0.76252610776E+01  0.73000380853E+02  0.00000000000E+00 0.  1.
         21    1    1    2  503  502  0.12921252155E+03  0.25200230323E+02  0.44565917551E+03  0.46469670544E+03  0.00000000000E+00 0. -1.
          1    1    1    2  501    0 -0.21495424602E+03  0.16484140688E+02  0.29891876561E+02  0.21764783265E+03  0.00000000000E+00 0. -1.
<scales pt_clust_5="13000.00000" pt_clust_6="13000.00000" pt_clust_7="13000.00000" pt_clust_8="13000.00000" pt_clust_9="120.60104" pt_clust_10="197.79796"></scales>
<clustering>
<clus scale="   81.663">  5  6 -1 -1</clus>
<clus scale="  103.389">  7  8 -1 -1</clus>
<clus scale="  116.422">  1  7  2 -1</clus>
<clus scale="  120.601">  1  9  2 -1</clus>
<clus scale="  197.798">  2 10  1 -1</clus>
<clus scale="  197.798">  2  5  1 -1</clus>
</clustering>
</event>
<event>
10    4  0.2857708E-005  0.1020558E+03  0.7546771E-02  0.1277765E+00
          2   -1    0    0  503    0 -0.00000000000E+00  0.00000000000E+00  0.11757082975E+04  0.11757082975E+04  0.00000000000E+00 0. -1.
         21   -1    0    0  501  502  0.00000000000E+00 -0.00000000000E+00 -0.79020065636E+02  0.79020065636E+02  0.00000000000E+00 0. -1.
         24    2    1    2    0    0 -0.33401598835E+02  0.25595221000E+02  0.98066262834E+03  0.98560063737E+03  0.89099066303E+02 0.  0.
         23    2    1    2    0    0  0.29631175091E+02 -0.39494692963E+02  0.67377280221E+02  0.12483772968E+03  0.92773506740E+02 0.  0.
        -13    1    3    3    0    0 -0.32827603118E+02 -0.16759100527E+01  0.11760946527E+03  0.12211652845E+03  0.00000000000E+00 0.  1.
         14    1    3    3    0    0 -0.57399571758E+00  0.27271131053E+02  0.86305316308E+03  0.86348410892E+03  0.00000000000E+00 0. -1.
        -13    1    4    4    0    0 -0.77499554347E+01 -0.57170813808E+02  0.18006365745E+02  0.60438340216E+02  0.00000000000E+00 0.  1.
         13    1    4    4    0    0  0.37381130526E+02  0.17676120845E+02  0.49370914477E+02  0.64399389468E+02  0.00000000000E+00 0. -1.
         21    1    1    2  503  502 -0.16156345068E+01  0.54493147593E+02  0.77099493857E+02  0.94426931341E+02  0.00000000000E+00 0. -1.
          1    1    1    2  501    0  0.53860582509E+01 -0.40593675630E+02 -0.28451170523E+02  0.49863064775E+02  0.00000000000E+00 0. -1.
<scales pt_clust_5="13000.00000" pt_clust_6="13000.00000" pt_clust_7="13000.00000" pt_clust_8="13000.00000" pt_clust_9="45.67278" pt_clust_10="40.94943"></scales>
<clustering>
<clus scale="   40.949">  2 10  1 -1</clus>
<clus scale="   45.673">  2  9  1 -1</clus>
<clus scale="   89.099">  5  6 -1 -1</clus>
<clus scale="   92.774">  7  8 -1 -1</clus>
<clus scale="   98.727">  1  5  2 -1</clus>
<clus scale="   40.949">  2  5  1 -1</clus>
</clustering>
</event>
<event>
10    4  0.2857708E-005  0.1432276E+03  0.7546771E-02  0.1211871E+00
          2   -1    0    0  503    0 -0.00000000000E+00  0.00000000000E+00  0.40936572699E+02  0.40936572699E+02  0.00000000000E+00 0. -1.
         21   -1    0    0  501  502  0.00000000000E+00 -0.00000000000E+00 -0.92556264234E+03  0.92556264234E+03  0.00000000000E+00 0.  1.
         23    2    1    2    0    0  0.10661412332E+03 -0.24470552999E+02 -0.26665284872E+03  0.30229961809E+03  0.91191765594E+02 0.  0.
         24    2    1    2    0    0 -0.10808222464E+03  0.28078508811E+02 -0.30811420755E+03  0.33674084295E+03  0.77394188922E+02 0.  0.
        -11    1    4    4    0    0 -0.52759649715E+02  0.49670403493E+02 -0.20890373011E+03  0.22111421952E+03  0.00000000000E+00 0.  1.
         12    1    4    4    0    0 -0.55322574923E+02 -0.21591894682E+02 -0.99210477438E+02  0.11562662343E+03  0.00000000000E+00 0. -1.
        -11    1    3    3    0    0  0.45321458756E+02 -0.52192319925E+02 -0.91514871629E+02  0.11468672378E+03  0.00000000000E+00 0.  1.
         11    1    3    3    0    0  0.61292664559E+02  0.27721766926E+02 -0.17513797709E+03  0.18761289431E+03  0.00000000000E+00 0. -1.
         21    1    1    2  503  502 -0.34750399895E+02 -0.36867245097E+02 -0.21162334074E+03  0.21760336027E+03  0.00000000000E+00 0. -1.
          1    1    1    2  501    0  0.36218501218E+02  0.33259289285E+02 -0.98235672628E+02  0.10985539373E+03  0.00000000000E+00 0. -1.
<scales pt_clust_5="13000.00000" pt_clust_6="13000.00000" pt_clust_7="13000.00000" pt_clust_8="13000.00000" pt_clust_9="37.86224" pt_clust_10="49.17278"></scales>
<clustering>
<clus scale="   49.173">  2 10  1 -1</clus>
<clus scale="   37.862">  2  9  1 -1</clus>
<clus scale="   77.394">  5  6 -1 -1</clus>
<clus scale="   91.192">  7  8 -1 -1</clus>
<clus scale="  134.863">  2  5  1 -1</clus>
<clus scale="   49.173">  2  5  1 -1</clus>
</clustering>
</event>
<event>
10    4  0.2857708E-005  0.9256142E+02  0.7546771E-02  0.1310392E+00
         21   -1    0    0  501  502  0.00000000000E+00  0.00000000000E+00  0.17107127420E+03  0.17107127420E+03  0.00000000000E+00 0.  1.
          2   -1    0    0  503    0 -0.00000000000E+00 -0.00000000000E+00 -0.37649017600E+03  0.37649017600E+03  0.00000000000E+00 0. -1.
         24    2    1    2    0    0 -0.10926674037E+02 -0.21112575384E+02 -0.58988657452E+02  0.94732064089E+02  0.70209466695E+02 0.  0.
         23    2    1    2    0    0 -0.13344986773E+02 -0.67780167829E+02  0.53764175476E+02  0.12633869117E+03  0.91096863279E+02 0.  0.
        -11    1    3    3    0    0 -0.16335730785E+02  0.22318207283E+02 -0.10951959764E+02  0.29747334322E+02  0.00000000000E+00 0.  1.
         12    1    3    3    0    0  0.54090567474E+01 -0.43430782668E+02 -0.48036697689E+02  0.64984729767E+02  0.00000000000E+00 0. -1.
        -13    1    4    4    0    0  0.28466881690E+02 -0.45602495228E+02 -0.12426652962E+01  0.53772624458E+02  0.00000000000E+00 0. -1.
         13    1    4    4    0    0 -0.41811868463E+02 -0.22177672601E+02  0.55006840772E+02  0.72566066713E+02  0.00000000000E+00 0.  1.
         21    1    1    2  503  502  0.34434146314E+02  0.38091711967E+02 -0.24964489596E+03  0.25487107139E+03  0.00000000000E+00 0. -1.
          1    1    1    2  501    0 -0.10162485503E+02  0.50801031246E+02  0.49450476131E+02  0.71619623546E+02  0.00000000000E+00 0. -1.
<scales pt_clust_5="13000.00000" pt_clust_6="13000.00000" pt_clust_7="13000.00000" pt_clust_8="13000.00000" pt_clust_9="51.34870" pt_clust_10="54.66153"></scales>
<clustering>
<clus scale="   51.349">  2  9  1 -1</clus>
<clus scale="   54.662">  1 10  2 -1</clus>
<clus scale="   70.209">  5  6 -1 -1</clus>
<clus scale="   72.100">  2  5  1 -1</clus>
<clus scale="   91.097">  7  8 -1 -1</clus>
<clus scale="   54.662">  1  5  2 -1</clus>
</clustering>
</event>
<event>
10    4  0.2857708E-005  0.1524295E+03  0.7546771E-02  0.1218855E+00
          2   -1    0    0  503    0 -0.00000000000E+00  0.00000000000E+00  0.12062244452E+04  0.12062244452E+04  0.00000000000E+00 0. -1.
         21   -1    0    0  501  502  0.00000000000E+00 -0.00000000000E+00 -0.26019317316E+03  0.26019317316E+03  0.00000000000E+00 0. -1.
         23    2    1    2    0    0 -0.25637295270E+02 -0.52112178729E+01  0.60728208043E+02  0.11402918114E+03  0.92899468243E+02 0.  0.
         24    2    1    2    0    0  0.17229512871E+03 -0.16500686981E+03  0.36929693190E+03  0.44794994233E+03  0.85825686470E+02 0.  0.
        -11    1    4    4    0    0 -0.93957290488E+00 -0.39428846427E+02  0.62810361106E+02  0.74166422255E+02  0.00000000000E+00 0.  1.
         12    1    4    4    0    0  0.17323470161E+03 -0.12557802338E+03  0.30648657080E+03  0.37378352007E+03  0.00000000000E+00 0. -1.
        -13    1    3    3    0    0  0.16325820726E+02  0.21820889317E+02  0.57947005136E+02  0.64035451410E+02  0.00000000000E+00 0.  1.
         13    1    3    3    0    0 -0.41963115996E+02 -0.27032107190E+02  0.27812029065E+01  0.49993729735E+02  0.00000000000E+00 0. -1.
         21    1    1    2  503  502 -0.46626989152E+02  0.10246877271E+03  0.68639397082E+03  0.69556495648E+03  0.00000000000E+00 0.  1.
          1    1    1    2  501    0 -0.10003084429E+03  0.67749314974E+02 -0.17038783870E+03  0.20887353845E+03  0.00000000000E+00 0. -1.
<scales pt_clust_5="13000.00000" pt_clust_6="13000.00000" pt_clust_7="13000.00000" pt_clust_8="13000.00000" pt_clust_9="117.26855" pt_clust_10="125.97109"></scales>
<clustering>
<clus scale="   85.826">  5  6 -1 -1</clus>
<clus scale="   92.899">  7  8 -1 -1</clus>
<clus scale="   96.513">  1  7  2 -1</clus>
<clus scale="  117.269">  1  9  2 -1</clus>
<clus scale="  125.971">  2 10  1 -1</clus>
<clus scale="  125.971">  2  5  1 -1</clus>
</clustering>
</event>
<event>
10    4  0.2857708E-005  0.1377787E+03  0.7546771E-02  0.1218303E+00
          2   -1    0    0  503    0 -0.00000000000E+00  0.00000000000E+00  0.43800917712E+03  0.43800917712E+03  0.00000000000E+00 0. -1.
         21   -1    0    0  501  502  0.00000000000E+00 -0.00000000000E+00 -0.87767936335E+02  0.87767936335E+02  0.00000000000E+00 0. -1.
         23    2    1    2    0    0 -0.60122703262E+02  0.97981110550E+02  0.22186443866E+03  0.26510179279E+03  0.88544304870E+02 0.  0.
         24    2    1    2    0    0  0.40180596214E+02 -0.74864786257E+02  0.50297911090E+01  0.11654593618E+03  0.79614319740E+02 0.  0.
        -13    1    4    4    0    0 -0.22676890103E+02 -0.32114989156E+02 -0.58741724785E+01  0.39750720441E+02  0.00000000000E+00 0.  1.
         14    1    4    4    0    0  0.62857486317E+02 -0.42749797100E+02  0.10903963587E+02  0.76795215737E+02  0.00000000000E+00 0. -1.
        -13    1    3    3    0    0 -0.61768584697E+02  0.32319201152E+02  0.16145877461E+03  0.17586592824E+03  0.00000000000E+00 0. -1.
         13    1    3    3    0    0  0.16458814349E+01  0.65661909397E+02  0.60405664049E+02  0.89235864542E+02  0.00000000000E+00 0.  1.
         21    1    1    2  503  502  0.23225741233E+02  0.10292260365E+02  0.10015746686E+03  0.10332900777E+03  0.00000000000E+00 0. -1.
          1    1    1    2  501    0 -0.32836341843E+01 -0.33408584658E+02  0.23189544159E+02  0.40800376721E+02  0.00000000000E+00 0. -1.
<scales pt_clust_5="13000.00000" pt_clust_6="13000.00000" pt_clust_7="13000.00000" pt_clust_8="13000.00000" pt_clust_9="25.40405" pt_clust_10="32.44707"></scales>
<clustering>
<clus scale="   25.404">  1  9  2 -1</clus>
<clus scale="   32.447">  2 10  1 -1</clus>
<clus scale="   79.614">  5  6 -1 -1</clus>
<clus scale="   88.544">  7  8 -1 -1</clus>
<clus scale="  132.217">  2  5  1 -1</clus>
<clus scale="   32.447">  2  5  1 -1</clus>
</clustering>
</event>
<event>
10    4  0.2857708E-005  0.9353217E+02  0.7546771E-02  0.1298447E+00
         -3   -1    0    0    0  501 -0.00000000000E+00  0.00000000000E+00  0.47845642498E+03  0.47845642498E+03  0.00000000000E+00 0.  1.
         21   -1    0    0  503  502  0.00000000000E+00 -0.00000000000E+00 -0.42124237697E+02  0.42124237697E+02  0.00000000000E+00 0.  1.
         23    2    1    2    0    0 -0.76133132794E+01 -0.17310173968E+02  0.14081581398E+03  0.16825985209E+03  0.90137005143E+02 0.  0.
         24    2    1    2    0    0  0.19418784305E+02  0.99872653193E+01  0.55104704184E+02  0.10223429079E+03  0.83297581830E+02 0.  0.
        -11    1    4    4    0    0  0.14261772481E+02 -0.29366035710E+02  0.53300376430E+02  0.62503538581E+02  0.00000000000E+00 0.  1.
         12    1    4    4    0    0  0.51570118243E+01  0.39353301029E+02  0.18043277540E+01  0.39730752214E+02  0.00000000000E+00 0. -1.
        -11    1    3    3    0    0 -0.22497697026E+02 -0.33413149760E+02  0.19092258520E+02  0.44576891813E+02  0.00000000000E+00 0.  1.
         11    1    3    3    0    0  0.14884383746E+02  0.16102975791E+02  0.12172355546E+03  0.12368296027E+03  0.00000000000E+00 0. -1.
         21    1    1    2  503  501 -0.35708889577E+02 -0.63627330730E+01  0.18102739838E+03  0.18462537239E+03  0.00000000000E+00 0. -1.
         -4    1    1    2    0  502  0.23903418551E+02  0.13685641722E+02  0.59384270746E+02  0.65461147407E+02  0.00000000000E+00 0.  1.
<scales pt_clust_5="13000.00000" pt_clust_6="13000.00000" pt_clust_7="13000.00000" pt_clust_8="13000.00000" pt_clust_9="35.08030" pt_clust_10="27.54398"></scales>
<clustering>
<clus scale="   27.544">  2 10  1 -1</clus>
<clus scale="   35.080">  1  9  2 -1</clus>
<clus scale="   83.298">  5  6 -1 -1</clus>
<clus scale="   86.960">  2  5  1 -1</clus>
<clus scale="   90.137">  7  8 -1 -1</clus>
<clus scale="   27.544">  2  5  1 -1</clus>
</clustering>
</event>
<event>
10    4  0.2857708E-005  0.3351137E+03  0.7546771E-02  0.1118359E+00
          2   -1    0    0  503    0 -0.00000000000E+00  0.00000000000E+00  0.17675461781E+04  0.17675461781E+04  0.00000000000E+00 0. -1.
         21   -1    0    0  501  502  0.00000000000E+00 -0.00000000000E+00 -0.10882934309E+03  0.10882934309E+03  0.00000000000E+00 0. -1.
         23    2    1    2    0    0  0.15471636039E+02 -0.64504679420E+01  0.23962391408E+03  0.25655567806E+03  0.90112239376E+02 0.  0.
         24    2    1    2    0    0 -0.29540721020E+03 -0.14603879884E+03  0.31335321932E+03  0.46215090919E+03  0.82464975563E+02 0.  0.
        -11    1    4    4    0    0 -0.74615941459E+02 -0.10756463921E+02  0.38924782571E+02  0.84843260982E+02  0.00000000000E+00 0.  1.
         12    1    4    4    0    0 -0.22079126875E+03 -0.13528233492E+03  0.27442843675E+03  0.37730764820E+03  0.00000000000E+00 0. -1.
        -11    1    3    3    0    0 -0.34591273791E+02 -0.95085885135E+01  0.14600434203E+03  0.15034705641E+03  0.00000000000E+00 0. -1.
         11    1    3    3    0    0  0.50062909831E+02  0.30581205715E+01  0.93619572048E+02  0.10620862165E+03  0.00000000000E+00 0.  1.
         21    1    1    2  503  502 -0.40827612744E+01  0.20797358888E+02  0.16147315619E+03  0.16285815683E+03  0.00000000000E+00 0. -1.
          1    1    1    2  501    0  0.28401833544E+03  0.13169190789E+03  0.94426654546E+03  0.99481077716E+03  0.00000000000E+00 0. -1.
<scales pt_clust_5="13000.00000" pt_clust_6="13000.00000" pt_clust_7="13000.00000" pt_clust_8="13000.00000" pt_clust_9="21.19432" pt_clust_10="324.80896"></scales>
<clustering>
<clus scale="   21.194">  1  9  2 -1</clus>
<clus scale="   82.465">  5  6 -1 -1</clus>
<clus scale="   90.112">  7  8 -1 -1</clus>
<clus scale="   91.383">  1  7  2 -1</clus>
<clus scale="  324.809">  2 10  1 -1</clus>
<clus scale="  324.809">  2  5  1 -1</clus>
</clustering>
</event>
<event>
10    4  0.2857708E-005  0.2040936E+03  0.7546771E-02  0.1172697E+00
         -1   -1    0    0    0  501 -0.00000000000E+00  0.00000000000E+00  0.52394410074E+03  0.52394410074E+03  0.00000000000E+00 0.  1.
         21   -1    0    0  503  502  0.00000000000E+00 -0.00000000000E+00 -0.44368009392E+03  0.44368009392E+03  0.00000000000E+00 0.  1.
         23    2    1    2    0    0 -0.29367325709E+02 -0.54119230150E+02 -0.99343516838E+02  0.14866989442E+03  0.91881838667E+02 0.  0.
         24    2    1    2    0    0 -0.16384667274E+03 -0.33040616641E+02  0.33760018120E+03  0.38537128780E+03  0.81238738271E+02 0.  0.
        -11    1    4    4    0    0 -0.14971495066E+03 -0.44922356825E+02  0.33048321312E+03  0.36558410625E+03  0.00000000000E+00 0.  1.
         12    1    4    4    0    0 -0.14131722077E+02  0.11881740184E+02  0.71169680844E+01  0.19787181542E+02  0.00000000000E+00 0. -1.
        -11    1    3    3    0    0 -0.27542117062E+02 -0.78525280452E+02 -0.89723886017E+02  0.12237305097E+03  0.00000000000E+00 0.  1.
         11    1    3    3    0    0 -0.18252086469E+01  0.24406050303E+02 -0.96196308206E+01  0.26296843444E+02  0.00000000000E+00 0. -1.
         21    1    1    2  503  501  0.29613990577E+02 -0.87643081067E+01  0.10494089116E+03  0.10939100590E+03  0.00000000000E+00 0.  1.
         -2    1    1    2    0  502  0.16360000787E+03  0.95924154898E+02 -0.26293354871E+03  0.32419200654E+03  0.00000000000E+00 0.  1.
<scales pt_clust_5="13000.00000" pt_clust_6="13000.00000" pt_clust_7="13000.00000" pt_clust_8="13000.00000" pt_clust_9="30.88368" pt_clust_10="187.22841"></scales>
<clustering>
<clus scale="   30.884">  1  9  2 -1</clus>
<clus scale="   81.239">  5  6 -1 -1</clus>
<clus scale="   91.882">  7  8 -1 -1</clus>
<clus scale="  110.409">  1  7  2 -1</clus>
<clus scale="  187.228">  2 10  1 -1</clus>
<clus scale="  187.228">  2  5  1 -1</clus>
</clustering>
</event>
<event>
10    4  0.2857708E-005  0.8593757E+02  0.7546771E-02  0.1313724E+00
         21   -1    0    0  501  502  0.00000000000E+00  0.00000000000E+00  0.36358800905E+02  0.36358800905E+02  0.00000000000E+00 0.  1.
          2   -1    0    0  503    0 -0.00000000000E+00 -0.00000000000E+00 -0.11643638397E+04  0.11643638397E+04  0.00000000000E+00 0. -1.
         24    2    1    2    0    0  0.20319618110E+02  0.35140020806E+01 -0.88293759429E+03  0.88684560805E+03  0.80567375652E+02 0.  0.
         23    2    1    2    0    0 -0.96298807365E+01  0.57919197566E+01 -0.40400785407E+02  0.91871479787E+02  0.81742671838E+02 0.  0.
        -13    1    3    3    0    0 -0.10737479172E+02  0.19033423559E+02 -0.73901143697E+02  0.77064542502E+02  0.00000000000E+00 0.  1.
         14    1    3    3    0    0  0.31057097282E+02 -0.15519421479E+02 -0.80903645059E+03  0.80978106555E+03  0.00000000000E+00 0. -1.
        -11    1    4    4    0    0 -0.44313825764E+02  0.54678933878E+01 -0.10016073402E+02  0.45759531667E+02  0.00000000000E+00 0.  1.
         11    1    4    4    0    0  0.34683945028E+02  0.32402636884E+00 -0.30384712004E+02  0.46111948120E+02  0.00000000000E+00 0. -1.
         21    1    1    2  503  502 -0.10431940109E+02 -0.33890524918E+02 -0.19020414678E+03  0.19348129239E+03  0.00000000000E+00 0.  1.
          1    1    1    2  501    0 -0.25779726465E+00  0.24584603080E+02 -0.14462512345E+02  0.28524260400E+02  0.00000000000E+00 0. -1.
<scales pt_clust_5="13000.00000" pt_clust_6="13000.00000" pt_clust_7="13000.00000" pt_clust_8="13000.00000" pt_clust_9="34.15376" pt_clust_10="24.58595"></scales>
<clustering>
<clus scale="   24.586">  1 10  2 -1</clus>
<clus scale="   34.154">  2  9  1 -1</clus>
<clus scale="   80.567">  5  6 -1 -1</clus>
<clus scale="   81.743">  7  8 -1 -1</clus>
<clus scale="   84.820">  2  5  1 -1</clus>
<clus scale="   24.586">  1  5  2 -1</clus>
</clustering>
</event>
<event>
10    4  0.2857708E-005  0.1280816E+03  0.7546771E-02  0.1244712E+00
         21   -1    0    0  501  502  0.00000000000E+00  0.00000000000E+00  0.61116244658E+02  0.61116244658E+02  0.00000000000E+00 0. -1.
          2   -1    0    0  503    0 -0.00000000000E+00 -0.00000000000E+00 -0.65777390033E+03  0.65777390033E+03  0.00000000000E+00 0. -1.
         24    2    1    2    0    0  0.74538891557E+01  0.54208461654E+02 -0.33808387319E+03  0.35170387730E+03  0.80004963696E+02 0.  0.
         23    2    1    2    0    0 -0.39562903471E+02  0.50737550581E+02 -0.11327127553E+03  0.15783112465E+03  0.89110940286E+02 0.  0.
        -13    1    3    3    0    0  0.13008176551E+02 -0.18284031868E+02 -0.54282677685E+02  0.58737786604E+02  0.00000000000E+00 0.  1.
         14    1    3    3    0    0 -0.55542873957E+01  0.72492493521E+02 -0.28380119551E+03  0.29296609070E+03  0.00000000000E+00 0. -1.
        -11    1    4    4    0    0  0.41880878065E+01  0.42403271319E+02 -0.10392833953E+03  0.11232398344E+03  0.00000000000E+00 0.  1.
         11    1    4    4    0    0 -0.43750991278E+02  0.83342792625E+01 -0.93429360059E+01  0.45507141218E+02  0.00000000000E+00 0. -1.
         21    1    1    2  503  502 -0.22855501610E+02 -0.40264732231E+01 -0.65384782211E+02  0.69381237992E+02  0.00000000000E+00 0. -1.
          1    1    1    2  501    0  0.54964515926E+02 -0.10091953901E+03 -0.79917724729E+02  0.13997390504E+03  0.00000000000E+00 0. -1.
<scales pt_clust_5="13000.00000" pt_clust_6="13000.00000" pt_clust_7="13000.00000" pt_clust_8="13000.00000" pt_clust_9="23.20747" pt_clust_10="92.00075"></scales>
<clustering>
<clus scale="   23.207">  2  9  1 -1</clus>
<clus scale="   80.005">  5  6 -1 -1</clus>
<clus scale="   89.111">  7  8 -1 -1</clus>
<clus scale="   95.523">  2  5  1 -1</clus>
<clus scale="   92.001">  1 10  2 -1</clus>
<clus scale="   92.001">  1  5  2 -1</clus>
</clustering>
</event>
<event>
10    4  0.2857708E-005  0.1088487E+03  0.7546771E-02  0.1263431E+00
         21   -1    0    0  501  502  0.00000000000E+00  0.00000000000E+00  0.19549891398E+03  0.19549891398E+03  0.00000000000E+00 0.  1.
          4   -1    0    0  503    0 -0.00000000000E+00 -0.00000000000E+00 -0.51847961246E+03  0.51847961246E+03  0.00000000000E+00 0. -1.
         23    2    1    2    0    0  0.88086921972E+02  0.36068813006E+02 -0.23985410338E+03  0.27380690570E+03  0.91542152062E+02 0.  0.
         24    2    1    2    0    0 -0.23905513825E+02 -0.11308713832E+03  0.78811219013E+02  0.16815928556E+03  0.93306819862E+02 0.  0.
        -13    1    4    4    0    0 -0.15141413793E+02 -0.51138614601E+02  0.89986213103E+02  0.10460372299E+03  0.00000000000E+00 0.  1.
         14    1    4    4    0    0 -0.87641000316E+01 -0.61948523720E+02 -0.11174994090E+02  0.63555562568E+02  0.00000000000E+00 0. -1.
        -13    1    3    3    0    0  0.53020068069E+02  0.62526761692E+02 -0.19242225616E+03  0.20915795039E+03  0.00000000000E+00 0. -1.
         13    1    3    3    0    0  0.35066853904E+02 -0.26457948686E+02 -0.47431847220E+02  0.64648955306E+02  0.00000000000E+00 0.  1.
         21    1    1    2  503  502 -0.53991977668E+02 -0.21045620253E+02 -0.16343998359E+03  0.17340899636E+03  0.00000000000E+00 0. -1.
          3    1    1    2  501    0 -0.10189430480E+02  0.98063945568E+02  0.15021694749E+01  0.98603338822E+02  0.00000000000E+00 0. -1.
<scales pt_clust_5="13000.00000" pt_clust_6="13000.00000" pt_clust_7="13000.00000" pt_clust_8="13000.00000" pt_clust_9="57.94870" pt_clust_10="96.77336"></scales>
<clustering>
<clus scale="   57.949">  2  9  1 -1</clus>
<clus scale="   91.542">  7  8 -1 -1</clus>
<clus scale="   93.307">  5  6 -1 -1</clus>
<clus scale="   96.773">  1 10  2 -1</clus>
<clus scale="  107.340">  2  7  1 -1</clus>
<clus scale="   96.773">  1  5  2 -1</clus>
</clustering>
</event>
<event>
10    4  0.2857708E-005  0.2622191E+03  0.7546771E-02  0.1134168E+00
          2   -1    0    0  503    0 -0.00000000000E+00  0.00000000000E+00  0.95153417156E+03  0.95153417156E+03  0.00000000000E+00 0. -1.
         21   -1    0    0  501  502  0.00000000000E+00 -0.00000000000E+00 -0.38756804998E+03  0.38756804998E+03  0.00000000000E+00 0. -1.
         23    2    1    2    0    0 -0.17543702176E+02  0.82079079146E+02  0.33316360292E+03  0.35820873062E+03  0.10134471700E+03 0.  0.
         24    2    1    2    0    0 -0.54679568734E+01 -0.24390415572E+03  0.69336999948E+02  0.26923663853E+03  0.90341641740E+02 0.  0.
        -11    1    4    4    0    0  0.34103194082E+02 -0.10029634410E+03  0.24898268630E+01  0.10596501179E+03  0.00000000000E+00 0.  1.
         12    1    4    4    0    0 -0.39571150956E+02 -0.14360781163E+03  0.66847173085E+02  0.16327162674E+03  0.00000000000E+00 0. -1.
        -13    1    3    3    0    0 -0.49018252305E+02  0.77357179608E+02  0.18213294392E+03  0.20386105944E+03  0.00000000000E+00 0. -1.
         13    1    3    3    0    0  0.31474550129E+02  0.47218995383E+01  0.15103065900E+03  0.15434767118E+03  0.00000000000E+00 0.  1.
         21    1    1    2  503  502 -0.64285045697E+01  0.20096417174E+03  0.41090157876E+03  0.45745822916E+03  0.00000000000E+00 0. -1.
          1    1    1    2  501    0  0.29440163619E+02 -0.39139095160E+02 -0.24943606005E+03  0.25419862324E+03  0.00000000000E+00 0. -1.
<scales pt_clust_5="13000.00000" pt_clust_6="13000.00000" pt_clust_7="13000.00000" pt_clust_8="13000.00000" pt_clust_9="246.16508" pt_clust_10="48.97542"></scales>
<clustering>
<clus scale="   48.975">  2 10  1 -1</clus>
<clus scale="   90.342">  5  6 -1 -1</clus>
<clus scale="  101.345">  7  8 -1 -1</clus>
<clus scale="  129.027">  1  7  2 -1</clus>
<clus scale="  246.165">  1  9  2 -1</clus>
<clus scale="   48.975">  2  5  1 -1</clus>
</clustering>
</event>
<event>
10    4  0.2857708E-005  0.1007494E+03  0.7546771E-02  0.1282963E+00
          2   -1    0    0  503    0 -0.00000000000E+00  0.00000000000E+00  0.43899407219E+03  0.43899407219E+03  0.00000000000E+00 0. -1.
         21   -1    0    0  501  502  0.00000000000E+00 -0.00000000000E+00 -0.11833484519E+03  0.11833484519E+03  0.00000000000E+00 0. -1.
         24    2    1    2    0    0 -0.47227567914E+02 -0.35503238488E+02  0.34596632859E+03  0.36028319093E+03  0.81365558040E+02 0.  0.
         23    2    1    2    0    0  0.50311229316E+02  0.45830927474E+02 -0.59228917232E+02  0.12755081528E+03  0.90163474504E+02 0.  0.
        -11    1    3    3    0    0 -0.29595892547E+02  0.23377197396E+02  0.16155012664E+03  0.16589410366E+03  0.00000000000E+00 0.  1.
         12    1    3    3    0    0 -0.17631675368E+02 -0.58880435884E+02  0.18441620196E+03  0.19438908727E+03  0.00000000000E+00 0. -1.
        -11    1    4    4    0    0  0.49207118025E+02  0.71539414360E+02 -0.41039390754E+02  0.96038845603E+02  0.00000000000E+00 0. -1.
         11    1    4    4    0    0  0.11041112911E+01 -0.25708486885E+02 -0.18189526478E+02  0.31511969681E+02  0.00000000000E+00 0.  1.
         21    1    1    2  503  502  0.24025240443E+02  0.23743757019E+01  0.31177726297E+02  0.39432226102E+02  0.00000000000E+00 0. -1.
          1    1    1    2  501    0 -0.27108901844E+02 -0.12702064688E+02  0.27440893349E+01  0.30062685057E+02  0.00000000000E+00 0. -1.
<scales pt_clust_5="13000.00000" pt_clust_6="13000.00000" pt_clust_7="13000.00000" pt_clust_8="13000.00000" pt_clust_9="24.14228" pt_clust_10="29.01408"></scales>
<clustering>
<clus scale="   24.142">  1  9  2 -1</clus>
<clus scale="   29.014">  2 10  1 -1</clus>
<clus scale="   81.366">  5  6 -1 -1</clus>
<clus scale="   90.163">  7  8 -1 -1</clus>
<clus scale="   92.959">  1  5  2 -1</clus>
<clus scale="   29.014">  2  5  1 -1</clus>
</clustering>
</event>
<event>
10    4  0.2857708E-005  0.1139232E+03  0.7546771E-02  0.1257891E+00
         21   -1    0    0  503  502  0.00000000000E+00  0.00000000000E+00  0.10999957396E+03  0.10999957396E+03  0.00000000000E+00 0. -1.
         -1   -1    0    0    0  501 -0.00000000000E+00 -0.00000000000E+00 -0.53186424850E+03  0.53186424850E+03  0.00000000000E+00 0.  1.
         23    2    1    2    0    0 -0.60197603076E+02  0.21368681873E+02 -0.31628921178E+03  0.33564443528E+03  0.92401025222E+02 0.  0.
         24    2    1    2    0    0  0.11544460705E+03 -0.56796697741E+02 -0.54111764566E+02  0.16104878478E+03  0.80344917967E+02 0.  0.
        -13    1    4    4    0    0  0.67024256206E+02 -0.72076765660E+02 -0.49204305240E+02  0.11003806033E+03  0.00000000000E+00 0.  1.
         14    1    4    4    0    0  0.48420350841E+02  0.15280067918E+02 -0.49074593251E+01  0.51010724443E+02  0.00000000000E+00 0. -1.
        -13    1    3    3    0    0 -0.76575190992E+02 -0.31506447976E+01 -0.27078824581E+03  0.28142487543E+03  0.00000000000E+00 0.  1.
         13    1    3    3    0    0  0.16377587916E+02  0.24519326670E+02 -0.45500965966E+02  0.54219559848E+02  0.00000000000E+00 0. -1.
         21    1    1    2  503  501  0.21265586560E+02  0.11600074542E+02 -0.59878717892E+02  0.64592938914E+02  0.00000000000E+00 0.  1.
         -2    1    1    2    0  502 -0.76512590532E+02  0.23827941327E+02  0.84150196924E+01  0.80577663494E+02  0.00000000000E+00 0.  1.
<scales pt_clust_5="13000.00000" pt_clust_6="13000.00000" pt_clust_7="13000.00000" pt_clust_8="13000.00000" pt_clust_9="24.22368" pt_clust_10="78.85345"></scales>
<clustering>
<clus scale="   24.224">  2  9  1 -1</clus>
<clus scale="   78.853">  1 10  2 -1</clus>
<clus scale="   80.345">  5  6 -1 -1</clus>
<clus scale="   92.401">  7  8 -1 -1</clus>
<clus scale="  104.383">  1  5  2 -1</clus>
<clus scale="   78.853">  1  5  2 -1</clus>
</clustering>
</event>
<event>
10    4  0.2857708E-005  0.1682598E+03  0.7546771E-02  0.1194468E+00
         21   -1    0    0  501  502  0.00000000000E+00  0.00000000000E+00  0.82850534991E+02  0.82850534991E+02  0.00000000000E+00 0.  1.
          2   -1    0    0  503    0 -0.00000000000E+00 -0.00000000000E+00 -0.82102838574E+03  0.82102838574E+03  0.00000000000E+00 0. -1.
         24    2    1    2    0    0 -0.87150611270E+02  0.27609109660E+01 -0.62279128862E+02  0.13414080048E+03  0.80698282427E+02 0.  0.
         23    2    1    2    0    0 -0.62928181028E+02 -0.23885501375E+02 -0.42522562913E+03  0.44022997979E+03  0.91951760669E+02 0.  0.
        -13    1    3    3    0    0 -0.31610593307E+02 -0.11372141145E+02  0.15931571787E+02  0.37180239148E+02  0.00000000000E+00 0.  1.
         14    1    3    3    0    0 -0.55540017963E+02  0.14133052111E+02 -0.78210700650E+02  0.96960561330E+02  0.00000000000E+00 0. -1.
        -13    1    4    4    0    0 -0.46241200566E+02 -0.54953689540E+02 -0.34798856349E+03  0.35532266596E+03  0.00000000000E+00 0.  1.
         13    1    4    4    0    0 -0.16686980462E+02  0.31068188166E+02 -0.77237065642E+02  0.84907313830E+02  0.00000000000E+00 0. -1.
         21    1    1    2  503  502 -0.24238698768E+02 -0.12874215053E+02 -0.74305846892E+02  0.79212491525E+02  0.00000000000E+00 0. -1.
          1    1    1    2  501    0  0.17431749107E+03  0.33998805462E+02 -0.17636724586E+03  0.25029564894E+03  0.00000000000E+00 0. -1.
<scales pt_clust_5="13000.00000" pt_clust_6="13000.00000" pt_clust_7="13000.00000" pt_clust_8="13000.00000" pt_clust_9="27.44558" pt_clust_10="140.91211"></scales>
<clustering>
<clus scale="   27.446">  2  9  1 -1</clus>
<clus scale="   80.698">  5  6 -1 -1</clus>
<clus scale="   91.952">  7  8 -1 -1</clus>
<clus scale="  121.146">  2  5  1 -1</clus>
<clus scale="  140.912">  1 10  2 -1</clus>
<clus scale="  140.912">  1  5  2 -1</clus>
</clustering>
</event>
<event>
10    4  0.2857708E-005  0.2359992E+03  0.7546771E-02  0.1161439E+00
          4   -1    0    0  503    0 -0.00000000000E+00  0.00000000000E+00  0.40320479740E+03  0.40320479740E+03  0.00000000000E+00 0. -1.
         21   -1    0    0  501  502  0.00000000000E+00 -0.00000000000E+00 -0.34076517953E+03  0.34076517953E+03  0.00000000000E+00 0. -1.
         24    2    1    2    0    0 -0.45553828842E+02  0.46942190324E+01  0.27772103379E+02  0.96886090335E+02  0.80736842642E+02 0.  0.
         23    2    1    2    0    0  0.14635834181E+03 -0.18277371349E+03 -0.16017035089E+03  0.29785697910E+03  0.90759264709E+02 0.  0.
        -11    1    3    3    0    0  0.17570416309E+02  0.12117795396E+02 -0.93258928281E+01  0.23292332892E+02  0.00000000000E+00 0.  1.
         12    1    3    3    0    0 -0.63124245151E+02 -0.74235763636E+01  0.37097996207E+02  0.73593757442E+02  0.00000000000E+00 0. -1.
        -11    1    4    4    0    0  0.14135794669E+03 -0.11610914216E+03 -0.10325973632E+03  0.21006183645E+03  0.00000000000E+00 0. -1.
         11    1    4    4    0    0  0.50003951182E+01 -0.66664571330E+02 -0.56910614565E+02  0.87795142646E+02  0.00000000000E+00 0.  1.
         21    1    1    2  503  502  0.59411127357E+01  0.20619289638E+02  0.15293650021E+03  0.15443453313E+03  0.00000000000E+00 0. -1.
          3    1    1    2  501    0 -0.10674562571E+03  0.15746020482E+03  0.41901365168E+02  0.19479237437E+03  0.00000000000E+00 0. -1.
<scales pt_clust_5="13000.00000" pt_clust_6="13000.00000" pt_clust_7="13000.00000" pt_clust_8="13000.00000" pt_clust_9="21.45814" pt_clust_10="217.84954"></scales>
<clustering>
<clus scale="   21.458">  1  9  2 -1</clus>
<clus scale="   80.737">  5  6 -1 -1</clus>
<clus scale="   90.759">  7  8 -1 -1</clus>
<clus scale="   92.507">  1  5  2 -1</clus>
<clus scale="  217.850">  2 10  1 -1</clus>
<clus scale="  217.850">  2  5  1 -1</clus>
</clustering>
</event>
<event>
10    4  0.2857708E-005  0.9603569E+02  0.7546771E-02  0.1296607E+00
          2   -1    0    0  502    0 -0.00000000000E+00  0.00000000000E+00  0.43527928634E+02  0.43527928634E+02  0.00000000000E+00 0. -1.
         21   -1    0    0  503  502  0.00000000000E+00 -0.00000000000E+00 -0.50033282832E+03  0.50033282832E+03  0.00000000000E+00 0. -1.
         23    2    1    2    0    0  0.17755046999E+02 -0.43955831787E+02 -0.95138105035E+02  0.14134744170E+03  0.93169111852E+02 0.  0.
         24    2    1    2    0    0  0.95055370436E+01 -0.28193493761E+02 -0.25271962099E+03  0.26668072281E+03  0.79788299645E+02 0.  0.
        -13    1    4    4    0    0 -0.86239077934E+01  0.25377560075E+02 -0.10867114167E+03  0.11192769708E+03  0.00000000000E+00 0.  1.
         14    1    4    4    0    0  0.18129444837E+02 -0.53571053836E+02 -0.14404847932E+03  0.15475302573E+03  0.00000000000E+00 0. -1.
        -13    1    3    3    0    0 -0.32470009683E+02 -0.43497321500E+02 -0.47744852787E+02  0.72290313834E+02  0.00000000000E+00 0.  1.
         13    1    3    3    0    0  0.50225056682E+02 -0.45851028654E+00 -0.47393252249E+02  0.69057127866E+02  0.00000000000E+00 0. -1.
         21    1    1    2  503  501 -0.12467924029E+00  0.33875952028E+02 -0.51794214898E+02  0.61888903429E+02  0.00000000000E+00 0.  1.
          1    1    1    2  501    0 -0.27135904802E+02  0.38273373520E+02 -0.57152958764E+02  0.73943689017E+02  0.00000000000E+00 0. -1.
<scales pt_clust_5="13000.00000" pt_clust_6="13000.00000" pt_clust_7="13000.00000" pt_clust_8="13000.00000" pt_clust_9="21.36771" pt_clust_10="81.12344"></scales>
<clustering>
<clus scale="   21.368">  9 10 -1 -1</clus>
<clus scale="   79.788">  5  6 -1 -1</clus>
<clus scale="   81.123">  2  9  1 -1</clus>
<clus scale="   83.118">  2  5  1 -1</clus>
<clus scale="   93.169">  7  8 -1 -1</clus>
<clus scale="   81.123">  2  5  1 -1</clus>
</clustering>
</event>
<event>
10    4  0.2857708E-005  0.2402752E+03  0.7546771E-02  0.1119973E+00
         21   -1    0    0  501  502  0.00000000000E+00  0.00000000000E+00  0.21695449893E+03  0.21695449893E+03  0.00000000000E+00 0. -1.
          2   -1    0    0  503    0 -0.00000000000E+00 -0.00000000000E+00 -0.55583893922E+03  0.55583893922E+03  0.00000000000E+00 0. -1.
         23    2    1    2    0    0  0.22873212024E+03 -0.28034698181E+02 -0.28237782918E+03  0.37449222145E+03  0.86039865085E+02 0.  0.
         24    2    1    2    0    0 -0.26235371564E+03  0.20249393312E+01  0.16742213108E+02  0.27473226213E+03  0.79774317087E+02 0.  0.
        -11    1    4    4    0    0 -0.18136456034E+03  0.37290713854E+02  0.19544484414E+01  0.18516889846E+03  0.00000000000E+00 0.  1.
         12    1    4    4    0    0 -0.80989155303E+02 -0.35265774522E+02  0.14787764666E+02  0.89563363677E+02  0.00000000000E+00 0. -1.
        -13    1    3    3    0    0  0.14344477051E+03 -0.68923392035E+01 -0.10960060572E+03  0.18065491773E+03  0.00000000000E+00 0.  1.
         13    1    3    3    0    0  0.85287349734E+02 -0.21142358977E+02 -0.17277722346E+03  0.19383730372E+03  0.00000000000E+00 0. -1.
         21    1    1    2  503  502 -0.27296145714E+02  0.15617752482E+02 -0.46718386103E+02  0.56316972251E+02  0.00000000000E+00 0.  1.
          1    1    1    2  501    0  0.60917741113E+02  0.10392006368E+02 -0.26530438119E+02  0.67251982316E+02  0.00000000000E+00 0. -1.
<scales pt_clust_5="13000.00000" pt_clust_6="13000.00000" pt_clust_7="13000.00000" pt_clust_8="13000.00000" pt_clust_9="31.44827" pt_clust_10="59.56916"></scales>
<clustering>
<clus scale="   31.448">  2  9  1 -1</clus>
<clus scale="   59.569">  1 10  2 -1</clus>
<clus scale="   79.774">  5  6 -1 -1</clus>
<clus scale="   86.040">  7  8 -1 -1</clus>
<clus scale="  238.103">  1  5  2 -1</clus>
<clus scale="   59.569">  1  5  2 -1</clus>
</clustering>
</event>
<event>
10    4  0.2857708E-005  0.2381260E+03  0.7546771E-02  0.1160084E+00
          2   -1    0    0  503    0 -0.00000000000E+00  0.00000000000E+00  0.10796612754E+04  0.10796612754E+04  0.00000000000E+00 0. -1.
         21   -1    0    0  501  502  0.00000000000E+00 -0.00000000000E+00 -0.12721936656E+03  0.12721936656E+03  0.00000000000E+00 0. -1.
         23    2    1    2    0    0 -0.13673156173E+02 -0.16555013738E+02  0.83375689020E+02  0.12485171933E+03  0.90418043671E+02 0.  0.
         24    2    1    2    0    0 -0.92670090259E+02 -0.19249035721E+03  0.45042922015E+03  0.50500907896E+03  0.80668483409E+02 0.  0.
        -13    1    4    4    0    0 -0.40620618751E+01 -0.93456772101E+02  0.15450202358E+03  0.18061435128E+03  0.00000000000E+00 0.  1.
         14    1    4    4    0    0 -0.88608028383E+02 -0.99033585110E+02  0.29592719658E+03  0.32439472768E+03  0.00000000000E+00 0. -1.
        -11    1    3    3    0    0 -0.85131252448E+01 -0.48506064115E+02  0.18976448007E+02  0.52777051228E+02  0.00000000000E+00 0. -1.
         11    1    3    3    0    0 -0.51600309282E+01  0.31951050377E+02  0.64399241013E+02  0.72074668105E+02  0.00000000000E+00 0.  1.
         21    1    1    2  503  502  0.21404854462E+03  0.13326440030E+03  0.34116640009E+03  0.42422952796E+03  0.00000000000E+00 0. -1.
          1    1    1    2  501    0 -0.10770529819E+03  0.75780970649E+02  0.77470599541E+02  0.15279031567E+03  0.00000000000E+00 0. -1.
<scales pt_clust_5="13000.00000" pt_clust_6="13000.00000" pt_clust_7="13000.00000" pt_clust_8="13000.00000" pt_clust_9="224.04597" pt_clust_10="131.91319"></scales>
<clustering>
<clus scale="   80.668">  5  6 -1 -1</clus>
<clus scale="   90.418">  7  8 -1 -1</clus>
<clus scale="   92.933">  1  7  2 -1</clus>
<clus scale="  131.913">  2 10  1 -1</clus>
<clus scale="  224.046">  2  9  1 -1</clus>
<clus scale="  131.913">  2  5  1 -1</clus>
</clustering>
</event>
<event>
10    4  0.2857708E-005  0.1010882E+03  0.7546771E-02  0.1283680E+00
         21   -1    0    0  503  502  0.00000000000E+00  0.00000000000E+00  0.23520527722E+03  0.23520527722E+03  0.00000000000E+00 0.  1.
         -1   -1    0    0    0  501 -0.00000000000E+00 -0.00000000000E+00 -0.17088549923E+03  0.17088549923E+03  0.00000000000E+00 0.  1.
         24    2    1    2    0    0  0.60860805913E+02 -0.44871510700E+02 -0.43264072213E+02  0.11853279783E+03  0.80378815914E+02 0.  0.
         23    2    1    2    0    0  0.24759112323E+02  0.22185799161E+02 -0.61924097198E+00  0.97689411111E+02  0.91856487286E+02 0.  0.
        -13    1    3    3    0    0  0.48204454153E+02  0.12363155960E+02 -0.88064529581E+01  0.50537813953E+02  0.00000000000E+00 0.  1.
         14    1    3    3    0    0  0.12656351760E+02 -0.57234666660E+02 -0.34457619255E+02  0.67994983876E+02  0.00000000000E+00 0. -1.
        -11    1    4    4    0    0 -0.23535359425E+02 -0.21624126887E+02  0.45346296145E+01  0.32281246454E+02  0.00000000000E+00 0.  1.
         11    1    4    4    0    0  0.48294471748E+02  0.43809926049E+02 -0.51538705865E+01  0.65408164657E+02  0.00000000000E+00 0. -1.
         21    1    1    2  503  501 -0.18037430956E+02 -0.18989578657E+02 -0.24085317509E+02  0.35581674112E+02  0.00000000000E+00 0. -1.
         -2    1    1    2    0  502 -0.67582487279E+02  0.41675290196E+02  0.13228840869E+03  0.15428689339E+03  0.00000000000E+00 0.  1.
<scales pt_clust_5="13000.00000" pt_clust_6="13000.00000" pt_clust_7="13000.00000" pt_clust_8="13000.00000" pt_clust_9="26.19070" pt_clust_10="79.84413"></scales>
<clustering>
<clus scale="   26.191">  2  9  1 -1</clus>
<clus scale="   79.844">  1 10  2 -1</clus>
<clus scale="   80.379">  5  6 -1 -1</clus>
<clus scale="   90.785">  2  5  1 -1</clus>
<clus scale="   91.856">  7  8 -1 -1</clus>
<clus scale="   79.844">  1  5  2 -1</clus>
</clustering>
</event>
<event>
10    4  0.2857708E-005  0.9635563E+02  0.7546771E-02  0.1294185E+00
         21   -1    0    0  503  502  0.00000000000E+00  0.00000000000E+00  0.25042215485E+03  0.25042215485E+03  0.00000000000E+00 0. -1.
         -3   -1    0    0    0  501 -0.00000000000E+00 -0.00000000000E+00 -0.13619688934E+03  0.13619688934E+03  0.00000000000E+00 0.  1.
         23    2    1    2    0    0  0.41950935276E+01  0.42120199708E+02 -0.58662775706E+02  0.11762930944E+03  0.92755717622E+02 0.  0.
         24    2    1    2    0    0 -0.25268242354E+02 -0.62083073178E+01  0.12630422477E+03  0.15283449205E+03  0.82028029453E+02 0.  0.
        -13    1    4    4    0    0  0.29985479646E+02  0.26090179311E+01  0.43447983428E+02  0.52855115440E+02  0.00000000000E+00 0.  1.
         14    1    4    4    0    0 -0.55253721999E+02 -0.88173252489E+01  0.82856241337E+02  0.99979376613E+02  0.00000000000E+00 0. -1.
        -11    1    3    3    0    0 -0.20314684712E+02  0.50593795371E+01  0.18923921188E+02  0.28220533825E+02  0.00000000000E+00 0. -1.
         11    1    3    3    0    0  0.24509778240E+02  0.37060820171E+02 -0.77586696894E+02  0.89408775610E+02  0.00000000000E+00 0.  1.
         21    1    1    2  503  501  0.85013885551E+01 -0.19850256917E+02 -0.29965254660E+02  0.36935386743E+02  0.00000000000E+00 0.  1.
         -4    1    1    2    0  502  0.12571760271E+02 -0.16061635474E+02  0.76549071108E+02  0.79219855957E+02  0.00000000000E+00 0.  1.
<scales pt_clust_5="13000.00000" pt_clust_6="13000.00000" pt_clust_7="13000.00000" pt_clust_8="13000.00000" pt_clust_9="21.99258" pt_clust_10="20.39670"></scales>
<clustering>
<clus scale="   20.397">  1 10  2 -1</clus>
<clus scale="   21.993">  2  9  1 -1</clus>
<clus scale="   82.028">  5  6 -1 -1</clus>
<clus scale="   86.078">  1  5  2 -1</clus>
<clus scale="   92.756">  7  8 -1 -1</clus>
<clus scale="   20.397">  1  5  2 -1</clus>
</clustering>
</event>
<event>
10    4  0.2857708E-005  0.1547060E+03  0.7546771E-02  0.1210112E+00
          2   -1    0    0  503    0 -0.00000000000E+00  0.00000000000E+00  0.38627839635E+03  0.38627839635E+03  0.00000000000E+00 0. -1.
         21   -1    0    0  501  502  0.00000000000E+00 -0.00000000000E+00 -0.40870265370E+03  0.40870265370E+03  0.00000000000E+00 0. -1.
         24    2    1    2    0    0 -0.44802301657E+02 -0.64550677911E+02 -0.20151147208E+02  0.11419445048E+03  0.80375789475E+02 0.  0.
         23    2    1    2    0    0  0.86983241660E+01 -0.45851261378E+02  0.22769511568E+03  0.24948596092E+03  0.90665208218E+02 0.  0.
        -11    1    3    3    0    0  0.21023553941E+02 -0.19803649018E+02 -0.19037303510E+02  0.34591809141E+02  0.00000000000E+00 0.  1.
         12    1    3    3    0    0 -0.65825855599E+02 -0.44747028894E+02 -0.11138436981E+01  0.79602641338E+02  0.00000000000E+00 0. -1.
        -13    1    4    4    0    0 -0.35561755925E+02  0.29392302166E+01  0.90999882127E+02  0.97745875135E+02  0.00000000000E+00 0.  1.
         13    1    4    4    0    0  0.44260080091E+02 -0.48790491595E+02  0.13669523355E+03  0.15174008579E+03  0.00000000000E+00 0. -1.
         21    1    1    2  503  502  0.52230935595E+02 -0.18257111420E+02  0.78872316629E+02  0.96344356768E+02  0.00000000000E+00 0. -1.
          1    1    1    2  501    0 -0.16126958104E+02  0.12865905071E+03 -0.30884054245E+03  0.33495628187E+03  0.00000000000E+00 0. -1.
<scales pt_clust_5="13000.00000" pt_clust_6="13000.00000" pt_clust_7="13000.00000" pt_clust_8="13000.00000" pt_clust_9="55.32985" pt_clust_10="125.35451"></scales>
<clustering>
<clus scale="   55.330">  1  9  2 -1</clus>
<clus scale="   80.376">  5  6 -1 -1</clus>
<clus scale="   90.665">  7  8 -1 -1</clus>
<clus scale="  111.106">  1  5  2 -1</clus>
<clus scale="  125.355">  2 10  1 -1</clus>
<clus scale="  125.355">  2  5  1 -1</clus>
</clustering>
</event>
<event>
10    4  0.2857708E-005  0.1542257E+03  0.7546771E-02  0.1216109E+00
          2   -1    0    0  503    0 -0.00000000000E+00  0.00000000000E+00  0.36749318647E+03  0.36749318647E+03  0.00000000000E+00 0. -1.
         21   -1    0    0  501  502  0.00000000000E+00 -0.00000000000E+00 -0.68389467110E+03  0.68389467110E+03  0.00000000000E+00 0. -1.
         23    2    1    2    0    0 -0.38780086260E+02  0.12807328580E+02  0.19598176543E+03  0.22051094180E+03  0.92457018766E+02 0.  0.
         24    2    1    2    0    0  0.11277561676E+03 -0.94253714570E+02  0.66868836266E+02  0.18036914051E+03  0.80370909789E+02 0.  0.
        -11    1    4    4    0    0  0.69954521534E+02 -0.94508455341E+02  0.24455572910E+02  0.12009811930E+03  0.00000000000E+00 0.  1.
         12    1    4    4    0    0  0.42821095224E+02  0.25474077035E+00  0.42413263357E+02  0.60271021209E+02  0.00000000000E+00 0. -1.
        -13    1    3    3    0    0 -0.19010336728E+02  0.50391233605E+02  0.14170882602E+03  0.15159835322E+03  0.00000000000E+00 0. -1.
         13    1    3    3    0    0 -0.19769749532E+02 -0.37583905025E+02  0.54272939410E+02  0.68912588586E+02  0.00000000000E+00 0.  1.
         21    1    1    2  503  502  0.67394076664E+01 -0.21628495999E+02  0.24121693836E+02  0.33091805155E+02  0.00000000000E+00 0.  1.
          1    1    1    2  501    0 -0.80734938165E+02  0.10307488199E+03 -0.60337378016E+03  0.61741597009E+03  0.00000000000E+00 0. -1.
<scales pt_clust_5="13000.00000" pt_clust_6="13000.00000" pt_clust_7="13000.00000" pt_clust_8="13000.00000" pt_clust_9="22.65417" pt_clust_10="131.62853"></scales>
<clustering>
<clus scale="   22.654">  1  9  2 -1</clus>
<clus scale="   80.371">  5  6 -1 -1</clus>
<clus scale="   92.457">  7  8 -1 -1</clus>
<clus scale="   98.734">  1  7  2 -1</clus>
<clus scale="  131.629">  2 10  1 -1</clus>
<clus scale="  131.629">  2  5  1 -1</clus>
</clustering>
</event>
<event>
10    4  0.2857708E-005  0.9149231E+02  0.7546771E-02  0.1306354E+00
         21   -1    0    0  501  502  0.00000000000E+00  0.00000000000E+00  0.77232574546E+02  0.77232574546E+02  0.00000000000E+00 0. -1.
          2   -1    0    0  503    0 -0.00000000000E+00 -0.00000000000E+00 -0.12266952103E+04  0.12266952103E+04  0.00000000000E+00 0. -1.
         24    2    1    2    0    0  0.33380989891E+01  0.10242071424E+02 -0.80290109222E+03  0.80691943908E+03  0.79704293136E+02 0.  0.
         23    2    1    2    0    0  0.62558502686E-01 -0.80506585827E+01 -0.18913163309E+03  0.21000792336E+03  0.90927092879E+02 0.  0.
        -11    1    3    3    0    0 -0.14212688334E+02 -0.21511518858E+02 -0.10659512533E+03  0.10966889576E+03  0.00000000000E+00 0.  1.
         12    1    3    3    0    0  0.17550787323E+02  0.31753590283E+02 -0.69630596689E+03  0.69725054332E+03  0.00000000000E+00 0. -1.
        -11    1    4    4    0    0 -0.26577013710E+02  0.26617338633E+02 -0.13648891274E+03  0.14157698850E+03  0.00000000000E+00 0.  1.
         11    1    4    4    0    0  0.26639572212E+02 -0.34667997215E+02 -0.52642720359E+02  0.68430934856E+02  0.00000000000E+00 0. -1.
         21    1    1    2  503  502  0.86187217986E+01 -0.28322767644E+02 -0.21797190881E+03  0.21997321329E+03  0.00000000000E+00 0. -1.
          1    1    1    2  501    0 -0.12019379290E+02  0.26131354803E+02  0.60541998425E+02  0.67027209069E+02  0.00000000000E+00 0. -1.
<scales pt_clust_5="13000.00000" pt_clust_6="13000.00000" pt_clust_7="13000.00000" pt_clust_8="13000.00000" pt_clust_9="27.48606" pt_clust_10="28.76305"></scales>
<clustering>
<clus scale="   28.763">  1 10  2 -1</clus>
<clus scale="   27.486">  2  9  1 -1</clus>
<clus scale="   79.704">  5  6 -1 -1</clus>
<clus scale="   80.348">  2  5  1 -1</clus>
<clus scale="   90.927">  7  8 -1 -1</clus>
<clus scale="   28.763">  1  5  2 -1</clus>
</clustering>
</event>
<event>
10    4  0.2857708E-005  0.1603635E+03  0.7546771E-02  0.1189860E+00
          2   -1    0    0  503    0 -0.00000000000E+00  0.00000000000E+00  0.87766054083E+03  0.87766054083E+03  0.00000000000E+00 0. -1.
         21   -1    0    0  501  502  0.00000000000E+00 -0.00000000000E+00 -0.13714280726E+03  0.13714280726E+03  0.00000000000E+00 0. -1.
         24    2    1    2    0    0 -0.37795232325E+02  0.13784776046E+03  0.47979718445E+03  0.50714067243E+03  0.80968134329E+02 0.  0.
         23    2    1    2    0    0  0.95256281989E+01 -0.97890927861E+02  0.45708009480E+02  0.14159097916E+03  0.91024237979E+02 0.  0.
        -13    1    3    3    0    0  0.25045583857E+02  0.52361649628E+02  0.17955536687E+03  0.18870387753E+03  0.00000000000E+00 0.  1.
         14    1    3    3    0    0 -0.62840816182E+02  0.85486110828E+02  0.30024181758E+03  0.31843679490E+03  0.00000000000E+00 0. -1.
        -11    1    4    4    0    0  0.29094667540E+02 -0.10329737709E+03  0.53415289639E+02  0.11987510567E+03  0.00000000000E+00 0.  1.
         11    1    4    4    0    0 -0.19569039341E+02  0.54064492292E+01 -0.77072801582E+01  0.21715873490E+02  0.00000000000E+00 0. -1.
         21    1    1    2  503  502  0.72592576917E+02  0.93034405671E+01  0.27013698686E+03  0.27987537923E+03  0.00000000000E+00 0. -1.
          1    1    1    2  501    0 -0.44322972790E+02 -0.49260273162E+02 -0.55124447226E+02  0.86196317270E+02  0.00000000000E+00 0. -1.
<scales pt_clust_5="13000.00000" pt_clust_6="13000.00000" pt_clust_7="13000.00000" pt_clust_8="13000.00000" pt_clust_9="69.57985" pt_clust_10="66.26538"></scales>
<clustering>
<clus scale="   66.265">  2 10  1 -1</clus>
<clus scale="   69.580">  1  9  2 -1</clus>
<clus scale="   80.968">  5  6 -1 -1</clus>
<clus scale="   91.024">  7  8 -1 -1</clus>
<clus scale="  154.877">  1  5  2 -1</clus>
<clus scale="   66.265">  2  5  1 -1</clus>
</clustering>
</event>
<event>
10    4  0.2857708E-005  0.3872992E+03  0.7546771E-02  0.1062670E+00
          2   -1    0    0  503    0 -0.00000000000E+00  0.00000000000E+00  0.34563366561E+03  0.34563366561E+03  0.00000000000E+00 0. -1.
         21   -1    0    0  501  502  0.00000000000E+00 -0.00000000000E+00 -0.10362831944E+04  0.10362831944E+04  0.00000000000E+00 0. -1.
         23    2    1    2    0    0 -0.56015742025E+02 -0.24245653473E+03 -0.39413607145E+02  0.26783689317E+03  0.90885831285E+02 0.  0.
         24    2    1    2    0    0  0.23981656690E+03 -0.17210072779E+03 -0.79757890326E+02  0.31632763109E+03  0.81062956144E+02 0.  0.
        -11    1    4    4    0    0  0.20518653527E+03 -0.15616830325E+03 -0.95653852527E+02  0.27502674906E+03  0.00000000000E+00 0.  1.
         12    1    4    4    0    0  0.34630031627E+02 -0.15932424543E+02  0.15895962201E+02  0.41300882031E+02  0.00000000000E+00 0. -1.
        -11    1    3    3    0    0 -0.26831345665E+02 -0.99349436762E+02 -0.61858667818E+02  0.12006967344E+03  0.00000000000E+00 0.  1.
         11    1    3    3    0    0 -0.29184396360E+02 -0.14310709796E+03  0.22445060673E+02  0.14776721973E+03  0.00000000000E+00 0. -1.
         21    1    1    2  503  502  0.15876059175E+02  0.16942233270E+02  0.37163703395E+02  0.43820421873E+02  0.00000000000E+00 0.  1.
          1    1    1    2  501    0 -0.19967688405E+03  0.39761502925E+03 -0.60864173467E+03  0.75393191383E+03  0.00000000000E+00 0. -1.
<scales pt_clust_5="13000.00000" pt_clust_6="13000.00000" pt_clust_7="13000.00000" pt_clust_8="13000.00000" pt_clust_9="23.21828" pt_clust_10="378.72081"></scales>
<clustering>
<clus scale="   23.218">  1  9  2 -1</clus>
<clus scale="   81.063">  5  6 -1 -1</clus>
<clus scale="   90.886">  7  8 -1 -1</clus>
<clus scale="  257.911">  1  7  2 -1</clus>
<clus scale="  378.721">  2 10  1 -1</clus>
<clus scale="  378.721">  2  5  1 -1</clus>
</clustering>
</event>
<event>
10    4  0.2857708E-005  0.1264804E+03  0.7546771E-02  0.1235555E+00
         21   -1    0    0  501  502  0.00000000000E+00  0.00000000000E+00  0.64080579011E+02  0.64080579011E+02  0.00000000000E+00 0. -1.
          4   -1    0    0  503    0 -0.00000000000E+00 -0.00000000000E+00 -0.60144088756E+03  0.60144088756E+03  0.00000000000E+00 0. -1.
         23    2    1    2    0    0 -0.64271994333E+02  0.25322318225E+02 -0.18185386343E+03  0.21426456132E+03  0.89812947495E+02 0.  0.
         24    2    1    2    0    0  0.11877567575E+03 -0.27942271496E+02 -0.17595103910E+03  0.22844900896E+03  0.79635104374E+02 0.  0.
        -11    1    4    4    0    0  0.34686442337E+02  0.19808625110E+02 -0.92355855849E+02  0.10062372991E+03  0.00000000000E+00 0.  1.
         12    1    4    4    0    0  0.84089233412E+02 -0.47750896606E+02 -0.83595183254E+02  0.12782527906E+03  0.00000000000E+00 0. -1.
        -11    1    3    3    0    0  0.48455615684E+01  0.41590477201E+02 -0.76635410782E+02  0.87328308391E+02  0.00000000000E+00 0.  1.
         11    1    3    3    0    0 -0.69117555901E+02 -0.16268158976E+02 -0.10521845264E+03  0.12693625293E+03  0.00000000000E+00 0. -1.
         21    1    1    2  503  502  0.11388268844E+01 -0.52183699798E+02 -0.55270827398E+02  0.76021706193E+02  0.00000000000E+00 0. -1.
          3    1    1    2  501    0 -0.55642508301E+02  0.54803653069E+02 -0.12428457862E+03  0.14678619010E+03  0.00000000000E+00 0. -1.
<scales pt_clust_5="13000.00000" pt_clust_6="13000.00000" pt_clust_7="13000.00000" pt_clust_8="13000.00000" pt_clust_9="52.19612" pt_clust_10="70.67048"></scales>
<clustering>
<clus scale="   52.196">  1  9  2 -1</clus>
<clus scale="   70.670">  1 10  2 -1</clus>
<clus scale="   79.635">  5  6 -1 -1</clus>
<clus scale="   89.813">  7  8 -1 -1</clus>
<clus scale="  119.468">  1  5  2 -1</clus>
<clus scale="   52.196">  1  5  2 -1</clus>
</clustering>
</event>
<event>
10    4  0.2857708E-005  0.1768470E+03  0.7546771E-02  0.1178179E+00
         21   -1    0    0  503  502  0.00000000000E+00  0.00000000000E+00  0.20124807683E+03  0.20124807683E+03  0.00000000000E+00 0.  1.
         -3   -1    0    0    0  501 -0.00000000000E+00 -0.00000000000E+00 -0.48351023316E+03  0.48351023316E+03  0.00000000000E+00 0.  1.
         24    2    1    2    0    0 -0.94126873338E+02  0.66866907021E+02 -0.13406320165E+03  0.19515496328E+03  0.82349657673E+02 0.  0.
         23    2    1    2    0    0 -0.22695663782E+02 -0.18813871190E+03 -0.49844870799E+02  0.21661692628E+03  0.92342371309E+02 0.  0.
        -13    1    3    3    0    0 -0.32908815695E+02  0.49624693631E+02 -0.16989367522E+02  0.61921232039E+02  0.00000000000E+00 0.  1.
         14    1    3    3    0    0 -0.61218057644E+02  0.17242213389E+02 -0.11707383412E+03  0.13323373124E+03  0.00000000000E+00 0. -1.
        -13    1    4    4    0    0  0.34379701264E+02 -0.59183287390E+02 -0.27835935950E+02  0.73888190501E+02  0.00000000000E+00 0. -1.
         13    1    4    4    0    0 -0.57075365046E+02 -0.12895542451E+03 -0.22008934849E+02  0.14272873578E+03  0.00000000000E+00 0.  1.
         21    1    1    2  503  501  0.14071347751E+03  0.72630688022E+02 -0.13456851453E+03  0.20780804772E+03  0.00000000000E+00 0.  1.
         -4    1    1    2    0  502 -0.23890940388E+02  0.48641116853E+02  0.36214430643E+02  0.65178372703E+02  0.00000000000E+00 0.  1.
<scales pt_clust_5="13000.00000" pt_clust_6="13000.00000" pt_clust_7="13000.00000" pt_clust_8="13000.00000" pt_clust_9="150.82358" pt_clust_10="54.19165"></scales>
<clustering>
<clus scale="   54.192">  1 10  2 -1</clus>
<clus scale="   82.350">  5  6 -1 -1</clus>
<clus scale="   92.342">  7  8 -1 -1</clus>
<clus scale="  149.886">  2  5  1 -1</clus>
<clus scale="  150.824">  2  9  1 -1</clus>
<clus scale="   54.192">  1  5  2 -1</clus>
</clustering>
</event>
<event>
10    4  0.2857708E-005  0.2143747E+03  0.7546771E-02  0.1138848E+00
          2   -1    0    0  503    0 -0.00000000000E+00  0.00000000000E+00  0.18912056069E+03  0.18912056069E+03  0.00000000000E+00 0. -1.
         21   -1    0    0  501  502  0.00000000000E+00 -0.00000000000E+00 -0.61814232815E+03  0.61814232815E+03  0.00000000000E+00 0.  1.
         23    2    1    2    0    0 -0.13667811860E+03 -0.13783310122E+03 -0.17169503056E+03  0.27396652569E+03  0.88879703996E+02 0.  0.
         24    2    1    2    0    0  0.68865826961E+02  0.20691872402E+03 -0.31953674568E+03  0.39500748421E+03  0.79808021346E+02 0.  0.
        -11    1    4    4    0    0  0.14809516783E+02  0.37092160248E+02 -0.12476371768E+03  0.13100051675E+03  0.00000000000E+00 0.  1.
         12    1    4    4    0    0  0.54056310178E+02  0.16982656377E+03 -0.19477302800E+03  0.26400696746E+03  0.00000000000E+00 0. -1.
        -11    1    3    3    0    0 -0.11207111627E+03 -0.74451436097E+02 -0.70083024198E+02  0.15170557577E+03  0.00000000000E+00 0. -1.
         11    1    3    3    0    0 -0.24607002328E+02 -0.63381665127E+02 -0.10161200636E+03  0.12226094992E+03  0.00000000000E+00 0.  1.
         21    1    1    2  503  502  0.74918845363E+02 -0.25214807166E+02  0.38781557736E+02  0.88049015392E+02  0.00000000000E+00 0.  1.
          1    1    1    2  501    0 -0.71065537228E+01 -0.43870815629E+02  0.23428451046E+02  0.50239863536E+02  0.00000000000E+00 0. -1.
<scales pt_clust_5="13000.00000" pt_clust_6="13000.00000" pt_clust_7="13000.00000" pt_clust_8="13000.00000" pt_clust_9="79.36399" pt_clust_10="44.44270"></scales>
<clustering>
<clus scale="   44.443">  2 10  1 -1</clus>
<clus scale="   79.364">  1  9  2 -1</clus>
<clus scale="   79.808">  5  6 -1 -1</clus>
<clus scale="   88.880">  7  8 -1 -1</clus>
<clus scale="  210.775">  2  5  1 -1</clus>
<clus scale="   44.443">  2  5  1 -1</clus>
</clustering>
</event>
<event>
10    4  0.2857708E-005  0.1111952E+03  0.7546771E-02  0.1261881E+00
          2   -1    0    0  503    0 -0.00000000000E+00  0.00000000000E+00  0.47801390517E+02  0.47801390517E+02  0.00000000000E+00 0. -1.
         21   -1    0    0  501  502  0.00000000000E+00 -0.00000000000E+00 -0.11184383606E+04  0.11184383606E+04  0.00000000000E+00 0. -1.
         23    2    1    2    0    0  0.68459604529E+01  0.28645131190E+02 -0.10356368905E+03  0.13945871570E+03  0.88633430363E+02 0.  0.
         24    2    1    2    0    0 -0.37334597060E+02 -0.36352920793E+02 -0.73127914169E+03  0.73739258763E+03  0.79140623171E+02 0.  0.
        -13    1    4    4    0    0  0.36062029118E+00 -0.48949800568E+02 -0.26976945485E+03  0.27417471034E+03  0.00000000000E+00 0.  1.
         14    1    4    4    0    0 -0.37695217351E+02  0.12596879775E+02 -0.46150968685E+03  0.46321787729E+03  0.00000000000E+00 0. -1.
        -13    1    3    3    0    0  0.39852381562E+02 -0.10397572367E+02 -0.35787574288E+02  0.54562554016E+02  0.00000000000E+00 0. -1.
         13    1    3    3    0    0 -0.33006421109E+02  0.39042703557E+02 -0.67776114766E+02  0.84896161681E+02  0.00000000000E+00 0.  1.
         21    1    1    2  503  502  0.19089476620E+02  0.84633639758E+02 -0.95817484707E+02  0.12926040179E+03  0.00000000000E+00 0. -1.
          1    1    1    2  501    0  0.11399159987E+02 -0.76925850155E+02 -0.13997665460E+03  0.16012804596E+03  0.00000000000E+00 0. -1.
<scales pt_clust_5="13000.00000" pt_clust_6="13000.00000" pt_clust_7="13000.00000" pt_clust_8="13000.00000" pt_clust_9="78.39835" pt_clust_10="77.76589"></scales>
<clustering>
<clus scale="   77.766">  2 10  1 -1</clus>
<clus scale="   78.398">  1  9  2 -1</clus>
<clus scale="   79.141">  5  6 -1 -1</clus>
<clus scale="   88.633">  7  8 -1 -1</clus>
<clus scale="  103.787">  2  5  1 -1</clus>
<clus scale="   77.766">  2  5  1 -1</clus>
</clustering>
</event>
<event>
10    4  0.2857708E-005  0.1808015E+03  0.7546771E-02  0.1167764E+00
         21   -1    0    0  501  502  0.00000000000E+00  0.00000000000E+00  0.54329722825E+02  0.54329722825E+02  0.00000000000E+00 0. -1.
          2   -1    0    0  503    0 -0.00000000000E+00 -0.00000000000E+00 -0.86732459681E+03  0.86732459681E+03  0.00000000000E+00 0. -1.
         24    2    1    2    0    0 -0.10099952638E+02 -0.15573347640E+03 -0.36608162128E+03  0.40730895999E+03  0.86775058274E+02 0.  0.
         23    2    1    2    0    0 -0.16025473790E+02  0.14863819055E+03 -0.22735580576E+03  0.28749907998E+03  0.92816653022E+02 0.  0.
        -13    1    3    3    0    0  0.13269216554E+02 -0.12153347102E+03 -0.33158081494E+03  0.35340103781E+03  0.00000000000E+00 0.  1.
         14    1    3    3    0    0 -0.23369169192E+02 -0.34200005375E+02 -0.34500806338E+02  0.53907922185E+02  0.00000000000E+00 0. -1.
        -11    1    4    4    0    0 -0.28209282285E+02  0.10606203943E+03 -0.86184251663E+02  0.13954441963E+03  0.00000000000E+00 0. -1.
         11    1    4    4    0    0  0.12183808494E+02  0.42576151114E+02 -0.14117155410E+03  0.14795466035E+03  0.00000000000E+00 0.  1.
         21    1    1    2  503  502  0.13490481380E+02 -0.21237106145E+02 -0.79148222800E+02  0.83050881619E+02  0.00000000000E+00 0.  1.
          1    1    1    2  501    0  0.12634945048E+02  0.28332391997E+02 -0.14040922415E+03  0.14379539804E+03  0.00000000000E+00 0. -1.
<scales pt_clust_5="13000.00000" pt_clust_6="13000.00000" pt_clust_7="13000.00000" pt_clust_8="13000.00000" pt_clust_9="25.15965" pt_clust_10="28.76036"></scales>
<clustering>
<clus scale="   25.160">  2  9  1 -1</clus>
<clus scale="   28.760">  1 10  2 -1</clus>
<clus scale="   86.775">  5  6 -1 -1</clus>
<clus scale="   92.817">  7  8 -1 -1</clus>
<clus scale="  177.776">  2  5  1 -1</clus>
<clus scale="   28.760">  1  5  2 -1</clus>
</clustering>
</event>
<event>
10    4  0.2857708E-005  0.1343338E+03  0.7546771E-02  0.1235652E+00
          2   -1    0    0  503    0 -0.00000000000E+00  0.00000000000E+00  0.21093268351E+03  0.21093268351E+03  0.00000000000E+00 0. -1.
         21   -1    0    0  501  502  0.00000000000E+00 -0.00000000000E+00 -0.55140906556E+03  0.55140906556E+03  0.00000000000E+00 0. -1.
         23    2    1    2    0    0 -0.32862286154E+02 -0.37231998063E+01  0.12847597388E+03  0.16040321375E+03  0.90162758656E+02 0.  0.
         24    2    1    2    0    0  0.34526445478E+02 -0.11820678805E+03 -0.27839342808E+03  0.31432071773E+03  0.78292353492E+02 0.  0.
        -11    1    4    4    0    0  0.62140637146E+01 -0.65250432393E+02 -0.22367120261E+03  0.23307732706E+03  0.00000000000E+00 0.  1.
         12    1    4    4    0    0  0.28312381764E+02 -0.52956355659E+02 -0.54722225473E+02  0.81243390664E+02  0.00000000000E+00 0. -1.
        -11    1    3    3    0    0 -0.43301697599E+02  0.29885482713E+02  0.42945172369E+02  0.67915145011E+02  0.00000000000E+00 0. -1.
         11    1    3    3    0    0  0.10439411445E+02 -0.33608682520E+02  0.85530801506E+02  0.92488068735E+02  0.00000000000E+00 0.  1.
         21    1    1    2  503  502 -0.90057713644E+01  0.19023636136E+02  0.34287589575E+02  0.40232343315E+02  0.00000000000E+00 0. -1.
          1    1    1    2  501    0  0.73416120406E+01  0.10290635172E+03 -0.22484651742E+03  0.24738547428E+03  0.00000000000E+00 0. -1.
<scales pt_clust_5="13000.00000" pt_clust_6="13000.00000" pt_clust_7="13000.00000" pt_clust_8="13000.00000" pt_clust_9="21.04763" pt_clust_10="109.15991"></scales>
<clustering>
<clus scale="   21.048">  1  9  2 -1</clus>
<clus scale="   78.292">  5  6 -1 -1</clus>
<clus scale="   90.163">  7  8 -1 -1</clus>
<clus scale="   99.519">  1  7  2 -1</clus>
<clus scale="  109.160">  2 10  1 -1</clus>
<clus scale="  109.160">  2  5  1 -1</clus>
</clustering>
</event>
<event>
10    4  0.2857708E-005  0.1093326E+03  0.7546771E-02  0.1266764E+00
          2   -1    0    0  503    0 -0.00000000000E+00  0.00000000000E+00  0.14563296867E+03  0.14563296867E+03  0.00000000000E+00 0. -1.
         21   -1    0    0  501  502  0.00000000000E+00 -0.00000000000E+00 -0.20907770610E+03  0.20907770610E+03  0.00000000000E+00 0. -1.
         23    2    1    2    0    0 -0.22890338412E+02  0.29938885272E+02  0.28908510375E+02  0.10476276420E+03  0.93376819111E+02 0.  0.
         24    2    1    2    0    0  0.81228290552E+02  0.81854115383E+01 -0.10315992430E+03  0.15467641471E+03  0.81349782641E+02 0.  0.
        -13    1    4    4    0    0  0.42576678345E+02 -0.34589827362E+02 -0.67127851234E+02  0.86691280456E+02  0.00000000000E+00 0.  1.
         14    1    4    4    0    0  0.38651612207E+02  0.42775238900E+02 -0.36032073071E+02  0.67985134250E+02  0.00000000000E+00 0. -1.
        -13    1    3    3    0    0 -0.49807971103E+02 -0.10566106786E+02  0.69019422982E+01  0.51382033878E+02  0.00000000000E+00 0. -1.
         13    1    3    3    0    0  0.26917632691E+02  0.40504992059E+02  0.22006568077E+02  0.53380730324E+02  0.00000000000E+00 0.  1.
         21    1    1    2  503  502 -0.38182581332E+02  0.11742086064E+02 -0.19460792998E+01  0.39994666231E+02  0.00000000000E+00 0.  1.
          1    1    1    2  501    0 -0.20155370809E+02 -0.49866382875E+02  0.12752755798E+02  0.55276829630E+02  0.00000000000E+00 0. -1.
<scales pt_clust_5="13000.00000" pt_clust_6="13000.00000" pt_clust_7="13000.00000" pt_clust_8="13000.00000" pt_clust_9="39.94729" pt_clust_10="55.74023"></scales>
<clustering>
<clus scale="   39.947">  1  9  2 -1</clus>
<clus scale="   55.740">  2 10  1 -1</clus>
<clus scale="   81.350">  5  6 -1 -1</clus>
<clus scale="   93.377">  7  8 -1 -1</clus>
<clus scale="   99.258">  2  5  1 -1</clus>
<clus scale="   55.740">  2  5  1 -1</clus>
</clustering>
</event>
<event>
10    4  0.2857708E-005  0.1642082E+03  0.7546771E-02  0.1203785E+00
          2   -1    0    0  503    0 -0.00000000000E+00  0.00000000000E+00  0.32071144225E+03  0.32071144225E+03  0.00000000000E+00 0. -1.
         21   -1    0    0  501  502  0.00000000000E+00 -0.00000000000E+00 -0.23222838142E+03  0.23222838142E+03  0.00000000000E+00 0. -1.
         24    2    1    2    0    0 -0.82668224408E+02 -0.65040015079E+02  0.43787350971E+02  0.13652998997E+03  0.75225442292E+02 0.  0.
         23    2    1    2    0    0 -0.26364679211E+02 -0.12506020059E+03  0.28360391132E+02  0.15948848722E+03  0.91088504697E+02 0.  0.
        -11    1    3    3    0    0 -0.17217500821E+02  0.16814669031E+02  0.12703098108E+02  0.27212940500E+02  0.00000000000E+00 0.  1.
         12    1    3    3    0    0 -0.65450723587E+02 -0.81854684110E+02  0.31084252863E+02  0.10931704947E+03  0.00000000000E+00 0. -1.
        -11    1    4    4    0    0  0.31340442943E+02 -0.66619027885E+02  0.23222456916E+02  0.77198450408E+02  0.00000000000E+00 0.  1.
         11    1    4    4    0    0 -0.57705122154E+02 -0.58441172704E+02  0.51379342167E+01  0.82290036808E+02  0.00000000000E+00 0. -1.
         21    1    1    2  503  502  0.52271527010E+02  0.59709239424E+02  0.69113083125E+02  0.10523366414E+03  0.00000000000E+00 0.  1.
          1    1    1    2  501    0  0.56761376609E+02  0.13039097624E+03 -0.52777764406E+02  0.15168768235E+03  0.00000000000E+00 0. -1.
<scales pt_clust_5="13000.00000" pt_clust_6="13000.00000" pt_clust_7="13000.00000" pt_clust_8="13000.00000" pt_clust_9="79.35683" pt_clust_10="136.62807"></scales>
<clustering>
<clus scale="   75.225">  5  6 -1 -1</clus>
<clus scale="   79.357">  1  9  2 -1</clus>
<clus scale="   91.089">  7  8 -1 -1</clus>
<clus scale="  106.427">  1  5  2 -1</clus>
<clus scale="  136.628">  2 10  1 -1</clus>
<clus scale="  136.628">  2  5  1 -1</clus>
</clustering>
</event>
<event>
10    4  0.2857708E-005  0.1976324E+03  0.7546771E-02  0.1186754E+00
          2   -1    0    0  502    0 -0.00000000000E+00  0.00000000000E+00  0.46165178244E+03  0.46165178244E+03  0.00000000000E+00 0. -1.
         21   -1    0    0  503  502  0.00000000000E+00 -0.00000000000E+00 -0.23104629664E+03  0.23104629664E+03  0.00000000000E+00 0. -1.
         24    2    1    2    0    0  0.18345002167E+02 -0.16079991893E+02  0.19145651666E+02  0.86466902020E+02  0.80714706984E+02 0.  0.
         23    2    1    2    0    0 -0.10828092409E+02 -0.15758377052E+03 -0.63578433209E+02  0.19368444459E+03  0.92312266733E+02 0.  0.
        -13    1    3    3    0    0  0.31672745074E+01  0.31978646065E+02  0.16187090278E+02  0.35981763764E+02  0.00000000000E+00 0.  1.
         14    1    3    3    0    0  0.15177727659E+02 -0.48058637958E+02  0.29585613889E+01  0.50485138256E+02  0.00000000000E+00 0. -1.
        -11    1    4    4    0    0  0.35191377783E+02 -0.66841594576E+02 -0.51048937831E+02  0.91171409386E+02  0.00000000000E+00 0.  1.
         11    1    4    4    0    0 -0.46019470192E+02 -0.90742175947E+02 -0.12529495378E+02  0.10251303520E+03  0.00000000000E+00 0. -1.
         21    1    1    2  503  501  0.81536610886E+02 -0.69519451588E+01  0.14260146808E+02  0.83065638162E+02  0.00000000000E+00 0. -1.
          1    1    1    2  501    0 -0.89053520644E+02  0.18061570757E+03  0.26077812053E+03  0.32948109431E+03  0.00000000000E+00 0. -1.
<scales pt_clust_5="13000.00000" pt_clust_6="13000.00000" pt_clust_7="13000.00000" pt_clust_8="13000.00000" pt_clust_9="81.83244" pt_clust_10="174.74854"></scales>
<clustering>
<clus scale="   80.715">  5  6 -1 -1</clus>
<clus scale="   81.832">  2  9  1 -1</clus>
<clus scale="   88.637">  1  5  2 -1</clus>
<clus scale="   92.312">  7  8 -1 -1</clus>
<clus scale="  174.749">  2 10  1 -1</clus>
<clus scale="   81.832">  2  5  1 -1</clus>
</clustering>
</event>
<event>
10    4  0.2857708E-005  0.2275038E+03  0.7546771E-02  0.1128409E+00
         21   -1    0    0  501  502  0.00000000000E+00  0.00000000000E+00  0.76602308672E+02  0.76602308672E+02  0.00000000000E+00 0. -1.
          2   -1    0    0  503    0 -0.00000000000E+00 -0.00000000000E+00 -0.48977164860E+03  0.48977164860E+03  0.00000000000E+00 0. -1.
         24    2    1    2    0    0  0.11802612106E+02 -0.92086024215E+02 -0.12218021159E+03  0.17700235710E+03  0.88219571555E+02 0.  0.
         23    2    1    2    0    0 -0.35683718825E+02 -0.39369735029E+02 -0.10458655810E+03  0.14663810498E+03  0.87983418154E+02 0.  0.
        -11    1    3    3    0    0 -0.14446121759E+02 -0.65503369554E+02 -0.22822909289E+02  0.70853842840E+02  0.00000000000E+00 0.  1.
         12    1    3    3    0    0  0.26248733865E+02 -0.26582654661E+02 -0.99357302300E+02  0.10614851426E+03  0.00000000000E+00 0. -1.
        -13    1    4    4    0    0 -0.60876706076E+02 -0.43145149143E+02 -0.91285132484E+02  0.11790018087E+03  0.00000000000E+00 0. -1.
         13    1    4    4    0    0  0.25192987251E+02  0.37754141142E+01 -0.13301425620E+02  0.28737924105E+02  0.00000000000E+00 0.  1.
         21    1    1    2  503  502  0.20968027252E+02  0.65229577276E+01 -0.64586469810E+02  0.68217440782E+02  0.00000000000E+00 0.  1.
          1    1    1    2  501    0  0.29130794674E+01  0.12493280152E+03 -0.12181610043E+03  0.17451605442E+03  0.00000000000E+00 0. -1.
<scales pt_clust_5="13000.00000" pt_clust_6="13000.00000" pt_clust_7="13000.00000" pt_clust_8="13000.00000" pt_clust_9="21.95922" pt_clust_10="127.62799"></scales>
<clustering>
<clus scale="   21.959">  2  9  1 -1</clus>
<clus scale="   87.983">  7  8 -1 -1</clus>
<clus scale="   88.220">  5  6 -1 -1</clus>
<clus scale="   97.257">  5  7 -1 -1</clus>
<clus scale="  127.628">  1 10  2 -1</clus>
<clus scale="  127.628">  1  5  2 -1</clus>
</clustering>
</event>
<event>
10    4  0.2857708E-005  0.1397497E+03  0.7546771E-02  0.1216175E+00
         21   -1    0    0  501  502  0.00000000000E+00  0.00000000000E+00  0.16398962423E+03  0.16398962423E+03  0.00000000000E+00 0. -1.
          2   -1    0    0  503    0 -0.00000000000E+00 -0.00000000000E+00 -0.68039955104E+03  0.68039955104E+03  0.00000000000E+00 0. -1.
         24    2    1    2    0    0  0.64650573156E+02 -0.76097187404E+02 -0.50045207011E+03  0.51653885194E+03  0.79935177195E+02 0.  0.
         23    2    1    2    0    0 -0.43704113558E+02  0.15952674142E+03 -0.74389701110E+02  0.20310364193E+03  0.91424454966E+02 0.  0.
        -11    1    3    3    0    0  0.44509126979E+02  0.38810327662E+01 -0.14998020074E+03  0.15649340374E+03  0.00000000000E+00 0.  1.
         12    1    3    3    0    0  0.20141446177E+02 -0.79978220170E+02 -0.35047186937E+03  0.36004544820E+03  0.00000000000E+00 0. -1.
        -13    1    4    4    0    0  0.89511304879E+01  0.11741092545E+03 -0.27338409695E+02  0.12088356711E+03  0.00000000000E+00 0. -1.
         13    1    4    4    0    0 -0.52655244046E+02  0.42115815965E+02 -0.47051291415E+02  0.82220074822E+02  0.00000000000E+00 0.  1.
         21    1    1    2  503  502 -0.63384782782E+01 -0.34952674475E+02 -0.12448539451E+02  0.37640827492E+02  0.00000000000E+00 0. -1.
          1    1    1    2  501    0 -0.14607981320E+02 -0.48476879541E+02  0.70880383856E+02  0.87105853901E+02  0.00000000000E+00 0. -1.
<scales pt_clust_5="13000.00000" pt_clust_6="13000.00000" pt_clust_7="13000.00000" pt_clust_8="13000.00000" pt_clust_9="35.52275" pt_clust_10="69.07784"></scales>
<clustering>
<clus scale="   35.523">  1  9  2 -1</clus>
<clus scale="   69.078">  1 10  2 -1</clus>
<clus scale="   79.935">  5  6 -1 -1</clus>
<clus scale="   91.424">  7  8 -1 -1</clus>
<clus scale="  132.519">  2  5  1 -1</clus>
<clus scale="   35.523">  1  5  2 -1</clus>
</clustering>
</event>
<event>
10    4  0.2857708E-005  0.1837128E+03  0.7546771E-02  0.1165137E+00
          2   -1    0    0  503    0 -0.00000000000E+00  0.00000000000E+00  0.10405437068E+04  0.10405437068E+04  0.00000000000E+00 0. -1.
         21   -1    0    0  501  502  0.00000000000E+00 -0.00000000000E+00 -0.57422075418E+02  0.57422075418E+02  0.00000000000E+00 0. -1.
         24    2    1    2    0    0  0.22620508588E+02  0.14289914165E+03  0.47347288286E+03  0.50162349241E+03  0.80732306057E+02 0.  0.
         23    2    1    2    0    0 -0.22925916726E+02 -0.16188671390E+03  0.20273464920E+03  0.27512880804E+03  0.88665761332E+02 0.  0.
        -11    1    3    3    0    0 -0.29096254142E+02  0.36638127879E+02  0.15617008687E+03  0.16302772909E+03  0.00000000000E+00 0.  1.
         12    1    3    3    0    0  0.51716762730E+02  0.10626101377E+03  0.31730279599E+03  0.33859576332E+03  0.00000000000E+00 0. -1.
        -13    1    4    4    0    0 -0.39159323257E+02 -0.13557859204E+03  0.11479710497E+03  0.18191586662E+03  0.00000000000E+00 0. -1.
         13    1    4    4    0    0  0.16233406531E+02 -0.26308121855E+02  0.87937544229E+02  0.93212941420E+02  0.00000000000E+00 0.  1.
         21    1    1    2  503  502 -0.30022597722E+02  0.42539447364E+02  0.12721784916E+03  0.13746032919E+03  0.00000000000E+00 0.  1.
          1    1    1    2  501    0  0.30328005860E+02 -0.23551875116E+02  0.17969625019E+03  0.18375315260E+03  0.00000000000E+00 0. -1.
<scales pt_clust_5="13000.00000" pt_clust_6="13000.00000" pt_clust_7="13000.00000" pt_clust_8="13000.00000" pt_clust_9="48.68216" pt_clust_10="38.39896"></scales>
<clustering>
<clus scale="   38.399">  2 10  1 -1</clus>
<clus scale="   48.682">  1  9  2 -1</clus>
<clus scale="   80.732">  5  6 -1 -1</clus>
<clus scale="   88.666">  7  8 -1 -1</clus>
<clus scale="  180.018">  1  5  2 -1</clus>
<clus scale="   38.399">  2  5  1 -1</clus>
</clustering>
</event>
<event>
10    4  0.2857708E-005  0.1144769E+03  0.7546771E-02  0.1257799E+00
          2   -1    0    0  503    0 -0.00000000000E+00  0.00000000000E+00  0.12712076783E+03  0.12712076783E+03  0.00000000000E+00 0. -1.
         21   -1    0    0  501  502  0.00000000000E+00 -0.00000000000E+00 -0.28142382864E+03  0.28142382864E+03  0.00000000000E+00 0. -1.
         23    2    1    2    0    0 -0.67958528967E+02 -0.80867674043E+02 -0.68108717718E+02  0.15772794202E+03  0.95296190382E+02 0.  0.
         24    2    1    2    0    0  0.45142703691E+02 -0.58524654362E+01 -0.42326100557E+02  0.10228328058E+03  0.81229647597E+02 0.  0.
        -11    1    4    4    0    0  0.38267387777E+02  0.40010791522E+01 -0.65622801610E+02  0.76070715081E+02  0.00000000000E+00 0.  1.
         12    1    4    4    0    0  0.68753159136E+01 -0.98535445884E+01  0.23296701053E+02  0.26212565495E+02  0.00000000000E+00 0. -1.
        -11    1    3    3    0    0 -0.45345082705E+02 -0.46640086521E+02 -0.90141990557E+02  0.11116228073E+03  0.00000000000E+00 0. -1.
         11    1    3    3    0    0 -0.22613446262E+02 -0.34227587522E+02  0.22033272839E+02  0.46565661290E+02  0.00000000000E+00 0.  1.
         21    1    1    2  503  502 -0.29050792085E+01  0.77491028689E+02  0.19124369247E+02  0.79868895771E+02  0.00000000000E+00 0. -1.
          1    1    1    2  501    0  0.25720904485E+02  0.92291107902E+01 -0.62992611784E+02  0.68664478101E+02  0.00000000000E+00 0. -1.
<scales pt_clust_5="13000.00000" pt_clust_6="13000.00000" pt_clust_7="13000.00000" pt_clust_8="13000.00000" pt_clust_9="78.79447" pt_clust_10="27.32657"></scales>
<clustering>
<clus scale="   27.327">  2 10  1 -1</clus>
<clus scale="   78.794">  1  9  2 -1</clus>
<clus scale="   81.230">  5  6 -1 -1</clus>
<clus scale="   95.296">  7  8 -1 -1</clus>
<clus scale="  103.062">  2  5  1 -1</clus>
<clus scale="   27.327">  2  5  1 -1</clus>
</clustering>
</event>
<event>
10    4  0.2857708E-005  0.1541672E+03  0.7546771E-02  0.1199037E+00
         -3   -1    0    0    0  501 -0.00000000000E+00  0.00000000000E+00  0.10009895215E+03  0.10009895215E+03  0.00000000000E+00 0.  1.
         21   -1    0    0  503  502  0.00000000000E+00 -0.00000000000E+00 -0.66200530778E+03  0.66200530778E+03  0.00000000000E+00 0.  1.
         23    2    1    2    0    0 -0.10010107213E+03  0.10265394198E+03 -0.21515961486E+03  0.27798348942E+03  0.10209360451E+03 0.  0.
         24    2    1    2    0    0  0.95147846347E+02 -0.18729006079E+02 -0.26648665263E+03  0.29562291643E+03  0.83509786009E+02 0.  0.
        -13    1    4    4    0    0  0.77822681158E+02  0.15937318698E+02 -0.22610392240E+03  0.23965256425E+03  0.00000000000E+00 0.  1.
         14    1    4    4    0    0  0.17325165189E+02 -0.34666324777E+02 -0.40382730232E+02  0.55970352182E+02  0.00000000000E+00 0. -1.
        -13    1    3    3    0    0 -0.11964991130E+03  0.91838125843E+02 -0.20184419169E+03  0.25197503915E+03  0.00000000000E+00 0.  1.
         13    1    3    3    0    0  0.19548839174E+02  0.10815816134E+02 -0.13315423165E+02  0.26008450276E+02  0.00000000000E+00 0. -1.
         21    1    1    2  503  501 -0.19129961560E+02 -0.46955183128E+02  0.37290775946E+02  0.62939229600E+02  0.00000000000E+00 0.  1.
         -4    1    1    2    0  502  0.24083187339E+02 -0.36969752769E+02 -0.11755086409E+03  0.12555862448E+03  0.00000000000E+00 0.  1.
<scales pt_clust_5="13000.00000" pt_clust_6="13000.00000" pt_clust_7="13000.00000" pt_clust_8="13000.00000" pt_clust_9="51.30652" pt_clust_10="44.12213"></scales>
<clustering>
<clus scale="   44.122">  2 10  1 -1</clus>
<clus scale="   51.307">  1  9  2 -1</clus>
<clus scale="   83.510">  5  6 -1 -1</clus>
<clus scale="  102.094">  7  8 -1 -1</clus>
<clus scale="  142.542">  2  5  1 -1</clus>
<clus scale="   44.122">  2  5  1 -1</clus>
</clustering>
</event>
<event>
10    4  0.2857708E-005  0.1878130E+03  0.7546771E-02  0.1174654E+00
         21   -1    0    0  501  502  0.00000000000E+00  0.00000000000E+00  0.91291551959E+03  0.91291551959E+03  0.00000000000E+00 0. -1.
          2   -1    0    0  503    0 -0.00000000000E+00 -0.00000000000E+00 -0.53813909744E+03  0.53813909744E+03  0.00000000000E+00 0. -1.
         24    2    1    2    0    0 -0.75691447941E+02 -0.88037488672E+02  0.19333771982E+03  0.23970466994E+03  0.81234599654E+02 0.  0.
         23    2    1    2    0    0  0.42444654427E+02  0.14538326815E+03 -0.35050462326E+03  0.39213113170E+03  0.89305599888E+02 0.  0.
        -11    1    3    3    0    0 -0.48129633371E+02 -0.86449875807E+02  0.93547574863E+02  0.13616604348E+03  0.00000000000E+00 0.  1.
         12    1    3    3    0    0 -0.27561814571E+02 -0.15876128653E+01  0.99790144957E+02  0.10353862645E+03  0.00000000000E+00 0. -1.
        -11    1    4    4    0    0  0.63276931696E+02  0.86175691439E+02 -0.16798576407E+03  0.19912166333E+03  0.00000000000E+00 0. -1.
         11    1    4    4    0    0 -0.20832277269E+02  0.59207576707E+02 -0.18251885919E+03  0.19300946836E+03  0.00000000000E+00 0.  1.
         21    1    1    2  503  502  0.90457681622E+02  0.98087420829E+02 -0.99480537966E+02  0.16643350541E+03  0.00000000000E+00 0. -1.
          1    1    1    2  501    0 -0.57210888108E+02 -0.15543320030E+03  0.63142386355E+03  0.65278530999E+03  0.00000000000E+00 0. -1.
<scales pt_clust_5="13000.00000" pt_clust_6="13000.00000" pt_clust_7="13000.00000" pt_clust_8="13000.00000" pt_clust_9="133.43063" pt_clust_10="165.22173"></scales>
<clustering>
<clus scale="   81.235">  5  6 -1 -1</clus>
<clus scale="   89.306">  7  8 -1 -1</clus>
<clus scale="  133.431">  2  9  1 -1</clus>
<clus scale="  135.519">  2  5  1 -1</clus>
<clus scale="  165.222">  1 10  2 -1</clus>
<clus scale="  165.222">  1  5  2 -1</clus>
</clustering>
</event>
<event>
10    4  0.2857708E-005  0.1936067E+03  0.7546771E-02  0.1156077E+00
         -3   -1    0    0    0  501 -0.00000000000E+00  0.00000000000E+00  0.19293122706E+03  0.19293122706E+03  0.00000000000E+00 0.  1.
         21   -1    0    0  503  502  0.00000000000E+00 -0.00000000000E+00 -0.60989912368E+03  0.60989912368E+03  0.00000000000E+00 0.  1.
         24    2    1    2    0    0  0.36773632547E+02 -0.16621548606E+03 -0.77020574528E+02  0.20346879307E+03  0.80544974987E+02 0.  0.
         23    2    1    2    0    0 -0.89494534732E+02  0.15892265129E+03 -0.41716637804E+03  0.46081518395E+03  0.71113753606E+02 0.  0.
        -11    1    3    3    0    0  0.40829555245E+02 -0.13360313596E+03 -0.92080295546E+02  0.16731895095E+03  0.00000000000E+00 0.  1.
         12    1    3    3    0    0 -0.40559226980E+01 -0.32612350103E+02  0.15059721018E+02  0.36149842120E+02  0.00000000000E+00 0. -1.
        -13    1    4    4    0    0 -0.81218798335E+02  0.13421803134E+03 -0.39986971267E+03  0.42954250110E+03  0.00000000000E+00 0.  1.
         13    1    4    4    0    0 -0.82757363974E+01  0.24704619950E+02 -0.17296665371E+02  0.31272682852E+02  0.00000000000E+00 0. -1.
         21    1    1    2  503  501 -0.22364799979E+02 -0.22189848252E+02  0.36397943879E+02  0.48139214391E+02  0.00000000000E+00 0.  1.
         -4    1    1    2    0  502  0.75085702165E+02  0.29482683028E+02  0.40821112065E+02  0.90407159331E+02  0.00000000000E+00 0.  1.
<scales pt_clust_5="13000.00000" pt_clust_6="13000.00000" pt_clust_7="13000.00000" pt_clust_8="13000.00000" pt_clust_9="31.50514" pt_clust_10="68.28515"></scales>
<clustering>
<clus scale="   31.505">  1  9  2 -1</clus>
<clus scale="   68.285">  2 10  1 -1</clus>
<clus scale="   71.114">  7  8 -1 -1</clus>
<clus scale="   80.545">  5  6 -1 -1</clus>
<clus scale="  189.877">  2  7  1 -1</clus>
<clus scale="   68.285">  2  5  1 -1</clus>
</clustering>
</event>
<event>
10    4  0.2857708E-005  0.4965873E+03  0.7546771E-02  0.1014765E+00
         21   -1    0    0  503  502  0.00000000000E+00  0.00000000000E+00  0.20842524016E+03  0.20842524016E+03  0.00000000000E+00 0.  1.
         -3   -1    0    0    0  501 -0.00000000000E+00 -0.00000000000E+00 -0.20711729990E+04  0.20711729990E+04  0.00000000000E+00 0.  1.
         24    2    1    2    0    0 -0.53134941604E+03  0.18029958593E+03 -0.10375228253E+04  0.11822663646E+04  0.80374133276E+02 0.  0.
         23    2    1    2    0    0  0.36092372324E+03 -0.12777845968E+03 -0.29494094137E+03  0.49134307539E+03  0.88513219859E+02 0.  0.
        -13    1    3    3    0    0 -0.16430078465E+03  0.95661451292E+02 -0.35397684404E+03  0.40180277154E+03  0.00000000000E+00 0.  1.
         14    1    3    3    0    0 -0.36704863139E+03  0.84638134635E+02 -0.68354598123E+03  0.78046359306E+03  0.00000000000E+00 0. -1.
        -13    1    4    4    0    0  0.31587588013E+03 -0.14115640646E+03 -0.25969303170E+03  0.43260047787E+03  0.00000000000E+00 0.  1.
         13    1    4    4    0    0  0.45047843102E+02  0.13377946786E+02 -0.35247909667E+02  0.58742597528E+02  0.00000000000E+00 0. -1.
         21    1    1    2  503  501 -0.27411423852E+02  0.21610734790E+02 -0.26292052643E+03  0.26522747451E+03  0.00000000000E+00 0. -1.
         -4    1    1    2    0  502  0.19783711665E+03 -0.74131861043E+02 -0.26736346577E+03  0.34076132465E+03  0.00000000000E+00 0.  1.
<scales pt_clust_5="13000.00000" pt_clust_6="13000.00000" pt_clust_7="13000.00000" pt_clust_8="13000.00000" pt_clust_9="34.90573" pt_clust_10="205.68308"></scales>
<clustering>
<clus scale="   34.906">  2  9  1 -1</clus>
<clus scale="   80.374">  5  6 -1 -1</clus>
<clus scale="   88.513">  7  8 -1 -1</clus>
<clus scale="  205.683">  1 10  2 -1</clus>
<clus scale="  495.201">  2  5  1 -1</clus>
<clus scale="  205.683">  1  5  2 -1</clus>
</clustering>
</event>
<event>
10    4  0.2857708E-005  0.9256486E+02  0.7546771E-02  0.1300853E+00
         21   -1    0    0  501  502  0.00000000000E+00  0.00000000000E+00  0.42238163168E+03  0.42238163168E+03  0.00000000000E+00 0. -1.
          4   -1    0    0  503    0 -0.00000000000E+00 -0.00000000000E+00 -0.19137162638E+03  0.19137162638E+03  0.00000000000E+00 0. -1.
         24    2    1    2    0    0 -0.20441156195E+02 -0.36374047078E+01 -0.62599240324E+02  0.10445771146E+03  0.81004179001E+02 0.  0.
         23    2    1    2    0    0  0.30147980910E+02  0.52444932169E+02  0.22302440390E+03  0.24731366593E+03  0.88118062616E+02 0.  0.
        -13    1    3    3    0    0 -0.33156874360E+02  0.31531971315E+02 -0.28915842617E+02  0.54127345090E+02  0.00000000000E+00 0.  1.
         14    1    3    3    0    0  0.12715718165E+02 -0.35169376023E+02 -0.33683397707E+02  0.50330366374E+02  0.00000000000E+00 0. -1.
        -13    1    4    4    0    0  0.47371825573E+02  0.61534864633E+01  0.58450804522E+02  0.75488090472E+02  0.00000000000E+00 0. -1.
         13    1    4    4    0    0 -0.17223844663E+02  0.46291445706E+02  0.16457359938E+03  0.17182557546E+03  0.00000000000E+00 0.  1.
         21    1    1    2  503  502  0.10262462913E+02 -0.21786104839E+02 -0.92442659828E+02  0.95527995191E+02  0.00000000000E+00 0. -1.
          3    1    1    2  501    0 -0.19969287628E+02 -0.27021422623E+02  0.16302750155E+03  0.16645388547E+03  0.00000000000E+00 0. -1.
<scales pt_clust_5="13000.00000" pt_clust_6="13000.00000" pt_clust_7="13000.00000" pt_clust_8="13000.00000" pt_clust_9="24.08220" pt_clust_10="33.80253"></scales>
<clustering>
<clus scale="   24.082">  2  9  1 -1</clus>
<clus scale="   33.803">  1 10  2 -1</clus>
<clus scale="   81.004">  5  6 -1 -1</clus>
<clus scale="   85.820">  2  5  1 -1</clus>
<clus scale="   88.118">  7  8 -1 -1</clus>
<clus scale="   33.803">  1  5  2 -1</clus>
</clustering>
</event>
<event>
10    4  0.2857708E-005  0.1085235E+03  0.7546771E-02  0.1266521E+00
         -1   -1    0    0    0  501 -0.00000000000E+00  0.00000000000E+00  0.49224421220E+03  0.49224421220E+03  0.00000000000E+00 0.  1.
         21   -1    0    0  503  502  0.00000000000E+00 -0.00000000000E+00 -0.12183318167E+03  0.12183318167E+03  0.00000000000E+00 0.  1.
         23    2    1    2    0    0 -0.18615103484E+02 -0.36348318964E+02  0.27433041955E+03  0.29182875686E+03  0.90769608737E+02 0.  0.
         24    2    1    2    0    0 -0.17544161575E+02  0.13909697201E+03 -0.26038358090E+01  0.16285923098E+03  0.82828641949E+02 0.  0.
        -11    1    4    4    0    0  0.32357485731E+02  0.72215355718E+02  0.33188369723E+01  0.79202772446E+02  0.00000000000E+00 0.  1.
         12    1    4    4    0    0 -0.49901647306E+02  0.66881616291E+02 -0.59226727813E+01  0.83656458534E+02  0.00000000000E+00 0. -1.
        -11    1    3    3    0    0 -0.27723038554E+02 -0.63890430888E+02  0.17501711527E+03  0.18836545507E+03  0.00000000000E+00 0. -1.
         11    1    3    3    0    0  0.91079350696E+01  0.27542111923E+02  0.99313304283E+02  0.10346330179E+03  0.00000000000E+00 0.  1.
         21    1    1    2  503  501  0.12423607509E+02 -0.18329737401E+02  0.59223136383E+02  0.63227408454E+02  0.00000000000E+00 0. -1.
         -2    1    1    2    0  502  0.23735657550E+02 -0.84418915644E+02  0.39461310404E+02  0.96161997570E+02  0.00000000000E+00 0.  1.
<scales pt_clust_5="13000.00000" pt_clust_6="13000.00000" pt_clust_7="13000.00000" pt_clust_8="13000.00000" pt_clust_9="22.14329" pt_clust_10="91.00413"></scales>
<clustering>
<clus scale="   22.143">  1  9  2 -1</clus>
<clus scale="   82.829">  5  6 -1 -1</clus>
<clus scale="   90.770">  7  8 -1 -1</clus>
<clus scale="   91.004">  2 10  1 -1</clus>
<clus scale="  101.975">  2  5  1 -1</clus>
<clus scale="   91.004">  2  5  1 -1</clus>
</clustering>
</event>
<event>
10    4  0.2857708E-005  0.1527839E+03  0.7546771E-02  0.1200120E+00
          2   -1    0    0  503    0 -0.00000000000E+00  0.00000000000E+00  0.51225666716E+03  0.51225666716E+03  0.00000000000E+00 0. -1.
         21   -1    0    0  501  502  0.00000000000E+00 -0.00000000000E+00 -0.23691272983E+03  0.23691272983E+03  0.00000000000E+00 0. -1.
         24    2    1    2    0    0 -0.12072889621E+03  0.30864359457E+02  0.23901362490E+03  0.27964546511E+03  0.74471458954E+02 0.  0.
         23    2    1    2    0    0  0.12211204609E+02 -0.13404132605E+03 -0.18559123386E+02  0.16397764381E+03  0.91804335422E+02 0.  0.
        -13    1    3    3    0    0 -0.12185601518E+03  0.94164220693E+01  0.18729713206E+03  0.22364653612E+03  0.00000000000E+00 0.  1.
         14    1    3    3    0    0  0.11271189703E+01  0.21447937387E+02  0.51716492847E+02  0.55998928988E+02  0.00000000000E+00 0. -1.
        -11    1    4    4    0    0  0.18541970294E+02 -0.97521652195E+02 -0.53734472872E+02  0.11287900994E+03  0.00000000000E+00 0.  1.
         11    1    4    4    0    0 -0.63307656854E+01 -0.36519673857E+02  0.35175349486E+02  0.51098633879E+02  0.00000000000E+00 0. -1.
         21    1    1    2  503  502  0.77452184645E+02  0.10497087762E+03  0.15390661875E+03  0.20175473563E+03  0.00000000000E+00 0. -1.
          1    1    1    2  501    0  0.31065506956E+02 -0.17939110274E+01 -0.99017182937E+02  0.10379155243E+03  0.00000000000E+00 0. -1.
<scales pt_clust_5="13000.00000" pt_clust_6="13000.00000" pt_clust_7="13000.00000" pt_clust_8="13000.00000" pt_clust_9="133.53280" pt_clust_10="31.11726"></scales>
<clustering>
<clus scale="   31.117">  2 10  1 -1</clus>
<clus scale="   74.471">  5  6 -1 -1</clus>
<clus scale="   91.804">  7  8 -1 -1</clus>
<clus scale="  133.533">  1  9  2 -1</clus>
<clus scale="  143.042">  1  5  2 -1</clus>
<clus scale="   31.117">  2  5  1 -1</clus>
</clustering>
</event>
<event>
10    4  0.2857708E-005  0.1418578E+03  0.7546771E-02  0.1212878E+00
          2   -1    0    0  503    0 -0.00000000000E+00  0.00000000000E+00  0.97972585950E+03  0.97972585950E+03  0.00000000000E+00 0. -1.
         21   -1    0    0  501  502  0.00000000000E+00 -0.00000000000E+00 -0.73323225738E+02  0.73323225738E+02  0.00000000000E+00 0. -1.
         24    2    1    2    0    0 -0.97738572333E+02  0.41798037629E+02  0.50511182830E+03  0.52228430896E+03  0.79643178196E+02 0.  0.
         23    2    1    2    0    0  0.50177473975E+02 -0.74634189253E+02  0.46899374080E+02  0.13525790286E+03  0.89482444636E+02 0.  0.
        -13    1    3    3    0    0 -0.15297709530E+02  0.47656563748E+02  0.20167269880E+03  0.20779086945E+03  0.00000000000E+00 0.  1.
         14    1    3    3    0    0 -0.82440862803E+02 -0.58585261195E+01  0.30343912950E+03  0.31449343951E+03  0.00000000000E+00 0. -1.
        -11    1    4    4    0    0  0.44747587365E+02 -0.31262962156E+02  0.67605226067E+02  0.86891806112E+02  0.00000000000E+00 0.  1.
         11    1    4    4    0    0  0.54298866102E+01 -0.43371227097E+02 -0.20705851988E+02  0.48366096752E+02  0.00000000000E+00 0. -1.
         21    1    1    2  503  502  0.23386717264E+02  0.55245957216E+02  0.35740572835E+03  0.36240572428E+03  0.00000000000E+00 0. -1.
          1    1    1    2  501    0  0.24174381095E+02 -0.22409805591E+02 -0.30142969596E+01  0.33101149136E+02  0.00000000000E+00 0. -1.
<scales pt_clust_5="13000.00000" pt_clust_6="13000.00000" pt_clust_7="13000.00000" pt_clust_8="13000.00000" pt_clust_9="59.50141" pt_clust_10="32.96362"></scales>
<clustering>
<clus scale="   32.964">  2 10  1 -1</clus>
<clus scale="   59.501">  1  9  2 -1</clus>
<clus scale="   79.643">  5  6 -1 -1</clus>
<clus scale="   89.482">  7  8 -1 -1</clus>
<clus scale="  135.866">  1  5  2 -1</clus>
<clus scale="   32.964">  2  5  1 -1</clus>
</clustering>
</event>
<event>
10    4  0.2857708E-005  0.2475883E+03  0.7546771E-02  0.1115778E+00
          2   -1    0    0  503    0 -0.00000000000E+00  0.00000000000E+00  0.17577916819E+03  0.17577916819E+03  0.00000000000E+00 0. -1.
         21   -1    0    0  501  502  0.00000000000E+00 -0.00000000000E+00 -0.68198707022E+03  0.68198707022E+03  0.00000000000E+00 0. -1.
         23    2    1    2    0    0 -0.20318432334E+03  0.10769190752E+03 -0.16993873721E+03  0.30038030893E+03  0.92020320548E+02 0.  0.
         24    2    1    2    0    0  0.17919102534E+03 -0.16329170620E+03 -0.34113314569E+03  0.42517743509E+03  0.75036146904E+02 0.  0.
        -13    1    4    4    0    0  0.90116337215E+02 -0.75477461583E+02 -0.10343727741E+03  0.15657928279E+03  0.00000000000E+00 0.  1.
         14    1    4    4    0    0  0.89074688130E+02 -0.87814244617E+02 -0.23769586827E+03  0.26859815230E+03  0.00000000000E+00 0. -1.
        -11    1    3    3    0    0 -0.12402065674E+03  0.27570619165E+02 -0.51942226666E+02  0.13725617381E+03  0.00000000000E+00 0. -1.
         11    1    3    3    0    0 -0.79163666598E+02  0.80121288357E+02 -0.11799651055E+03  0.16312413512E+03  0.00000000000E+00 0.  1.
         21    1    1    2  503  502  0.49629213479E+02  0.37428450143E+02 -0.42548738359E+02  0.75328234061E+02  0.00000000000E+00 0. -1.
          1    1    1    2  501    0 -0.25635915489E+02  0.18171348535E+02  0.47412719231E+02  0.56880260332E+02  0.00000000000E+00 0. -1.
<scales pt_clust_5="13000.00000" pt_clust_6="13000.00000" pt_clust_7="13000.00000" pt_clust_8="13000.00000" pt_clust_9="61.38696" pt_clust_10="31.42291"></scales>
<clustering>
<clus scale="   31.423">  2 10  1 -1</clus>
<clus scale="   61.387">  1  9  2 -1</clus>
<clus scale="   75.036">  5  6 -1 -1</clus>
<clus scale="   92.020">  7  8 -1 -1</clus>
<clus scale="  241.791">  2  5  1 -1</clus>
<clus scale="   31.423">  2  5  1 -1</clus>
</clustering>
</event>
<event>
10    4  0.2857708E-005  0.1462322E+03  0.7546771E-02  0.1206976E+00
         21   -1    0    0  501  502  0.00000000000E+00  0.00000000000E+00  0.43870626710E+02  0.43870626710E+02  0.00000000000E+00 0. -1.
          2   -1    0    0  503    0 -0.00000000000E+00 -0.00000000000E+00 -0.14338375383E+04  0.14338375383E+04  0.00000000000E+00 0. -1.
         23    2    1    2    0    0  0.10446960011E+03 -0.96622120128E+02 -0.50509758430E+03  0.53257898862E+03  0.90923473391E+02 0.  0.
         24    2    1    2    0    0 -0.44640635859E+02  0.76292616363E+02 -0.23808283835E+03  0.26678781296E+03  0.81724840433E+02 0.  0.
        -13    1    4    4    0    0  0.18039694122E+02  0.25258301161E+02 -0.11815668356E+03  0.12216551973E+03  0.00000000000E+00 0.  1.
         14    1    4    4    0    0 -0.62680329981E+02  0.51034315202E+02 -0.11992615479E+03  0.14462229323E+03  0.00000000000E+00 0. -1.
        -13    1    3    3    0    0  0.28778340335E+02  0.16114680788E+02 -0.10604173738E+03  0.11105280670E+03  0.00000000000E+00 0.  1.
         13    1    3    3    0    0  0.75691259778E+02 -0.11273680092E+03 -0.39905584692E+03  0.42152618192E+03  0.00000000000E+00 0. -1.
         21    1    1    2  503  502 -0.66131494302E+02 -0.56858540340E+02 -0.53671719711E+03  0.54375694738E+03  0.00000000000E+00 0. -1.
          1    1    1    2  501    0  0.63025300483E+01  0.77188044105E+02 -0.11006929179E+03  0.13458441601E+03  0.00000000000E+00 0. -1.
<scales pt_clust_5="13000.00000" pt_clust_6="13000.00000" pt_clust_7="13000.00000" pt_clust_8="13000.00000" pt_clust_9="81.30492" pt_clust_10="77.44492"></scales>
<clustering>
<clus scale="   77.445">  1 10  2 -1</clus>
<clus scale="   81.305">  2  9  1 -1</clus>
<clus scale="   81.725">  5  6 -1 -1</clus>
<clus scale="   90.923">  7  8 -1 -1</clus>
<clus scale="  140.697">  1  5  2 -1</clus>
<clus scale="   77.445">  1  5  2 -1</clus>
</clustering>
</event>
<event>
10    4  0.2857708E-005  0.9512885E+02  0.7546771E-02  0.1295038E+00
          2   -1    0    0  503    0 -0.00000000000E+00  0.00000000000E+00  0.41807242797E+03  0.41807242797E+03  0.00000000000E+00 0. -1.
         21   -1    0    0  501  502  0.00000000000E+00 -0.00000000000E+00 -0.19325879351E+03  0.19325879351E+03  0.00000000000E+00 0. -1.
         23    2    1    2    0    0 -0.52860926675E+02 -0.36934231777E+02  0.20747435647E+03  0.23498453581E+03  0.89519318755E+02 0.  0.
         24    2    1    2    0    0  0.10806908951E+02  0.15071160620E+02 -0.17810402866E+02  0.85889570002E+02  0.81950464436E+02 0.  0.
        -13    1    4    4    0    0  0.13604395848E+02 -0.30015354606E+02  0.79329573002E+01  0.33895912881E+02  0.00000000000E+00 0.  1.
         14    1    4    4    0    0 -0.27974868962E+01  0.45086515226E+02 -0.25743360166E+02  0.51993657121E+02  0.00000000000E+00 0. -1.
        -13    1    3    3    0    0 -0.55164032587E+02  0.14561059245E+02  0.12951614397E+03  0.14152570963E+03  0.00000000000E+00 0. -1.
         13    1    3    3    0    0  0.23031059116E+01 -0.51495291022E+02  0.77958212507E+02  0.93458826183E+02  0.00000000000E+00 0.  1.
         21    1    1    2  503  502  0.21808947664E+02  0.31285934915E+02  0.15956217411E+03  0.16405647603E+03  0.00000000000E+00 0. -1.
          1    1    1    2  501    0  0.20245070060E+02 -0.94228637586E+01 -0.12441249325E+03  0.12640063964E+03  0.00000000000E+00 0. -1.
<scales pt_clust_5="13000.00000" pt_clust_6="13000.00000" pt_clust_7="13000.00000" pt_clust_8="13000.00000" pt_clust_9="38.27147" pt_clust_10="22.33054"></scales>
<clustering>
<clus scale="   22.331">  2 10  1 -1</clus>
<clus scale="   38.271">  1  9  2 -1</clus>
<clus scale="   81.950">  5  6 -1 -1</clus>
<clus scale="   88.044">  2  5  1 -1</clus>
<clus scale="   89.519">  7  8 -1 -1</clus>
<clus scale="   22.331">  2  5  1 -1</clus>
</clustering>
</event>
<event>
10    4  0.2857708E-005  0.9295029E+02  0.7546771E-02  0.1303001E+00
          2   -1    0    0  503    0 -0.00000000000E+00  0.00000000000E+00  0.44540538640E+03  0.44540538640E+03  0.00000000000E+00 0. -1.
         21   -1    0    0  501  502  0.00000000000E+00 -0.00000000000E+00 -0.62066185813E+02  0.62066185813E+02  0.00000000000E+00 0. -1.
         24    2    1    2    0    0 -0.65583194712E+01  0.31650317359E+01  0.21625610356E+03  0.23053890670E+03  0.79551594542E+02 0.  0.
         23    2    1    2    0    0  0.10900677162E+02  0.66900886803E+01  0.24187653696E+02  0.95281678140E+02  0.91268688765E+02 0.  0.
        -11    1    3    3    0    0  0.29749592926E+02  0.81551657238E+01  0.16298500840E+03  0.16587844336E+03  0.00000000000E+00 0.  1.
         12    1    3    3    0    0 -0.36307912397E+02 -0.49901339878E+01  0.53271095157E+02  0.64660463338E+02  0.00000000000E+00 0. -1.
        -11    1    4    4    0    0 -0.15316187913E+02  0.38029505916E+02  0.33998599210E+02  0.53260995866E+02  0.00000000000E+00 0.  1.
         11    1    4    4    0    0  0.26216865074E+02 -0.31339417236E+02 -0.98109455133E+01  0.42020682275E+02  0.00000000000E+00 0. -1.
         21    1    1    2  503  502  0.62258165816E+01 -0.32540664790E+02  0.15158161298E+03  0.15516004979E+03  0.00000000000E+00 0. -1.
          1    1    1    2  501    0 -0.10568174272E+02  0.22685544374E+02 -0.86861696489E+01  0.26490937585E+02  0.00000000000E+00 0. -1.
<scales pt_clust_5="13000.00000" pt_clust_6="13000.00000" pt_clust_7="13000.00000" pt_clust_8="13000.00000" pt_clust_9="32.15562" pt_clust_10="25.02639"></scales>
<clustering>
<clus scale="   25.026">  2 10  1 -1</clus>
<clus scale="   32.156">  1  9  2 -1</clus>
<clus scale="   79.552">  5  6 -1 -1</clus>
<clus scale="   81.475">  1  5  2 -1</clus>
<clus scale="   91.269">  7  8 -1 -1</clus>
<clus scale="   25.026">  2  5  1 -1</clus>
</clustering>
</event>
<event>
10    4  0.2857708E-005  0.9804558E+02  0.7546771E-02  0.1289686E+00
         -3   -1    0    0    0  501 -0.00000000000E+00  0.00000000000E+00  0.29578268509E+03  0.29578268509E+03  0.00000000000E+00 0.  1.
         21   -1    0    0  503  502  0.00000000000E+00 -0.00000000000E+00 -0.87534577679E+02  0.87534577679E+02  0.00000000000E+00 0.  1.
         24    2    1    2    0    0  0.62486574036E+02 -0.11900816792E+02  0.11462485341E+03  0.15295130356E+03  0.78797480070E+02 0.  0.
         23    2    1    2    0    0 -0.22859599800E+02 -0.22492876585E+02 -0.17580983378E+02  0.96243352208E+02  0.89023598375E+02 0.  0.
        -13    1    3    3    0    0  0.41935036067E+02  0.25840846324E+02  0.29033689000E+02  0.57177370398E+02  0.00000000000E+00 0.  1.
         14    1    3    3    0    0  0.20551537969E+02 -0.37741663116E+02  0.85591164410E+02  0.95773933158E+02  0.00000000000E+00 0. -1.
        -11    1    4    4    0    0  0.29421043034E+02 -0.29342227318E+02 -0.36816472977E+01  0.41714728862E+02  0.00000000000E+00 0.  1.
         11    1    4    4    0    0 -0.52280642833E+02  0.68493507334E+01 -0.13899336080E+02  0.54528623346E+02  0.00000000000E+00 0. -1.
         21    1    1    2  503  501 -0.33315324326E+02  0.62409200905E+01  0.22098612637E+02  0.40462434418E+02  0.00000000000E+00 0.  1.
         -4    1    1    2    0  502 -0.63116499100E+01  0.28152773287E+02  0.89105624746E+02  0.93660172591E+02  0.00000000000E+00 0.  1.
<scales pt_clust_5="13000.00000" pt_clust_6="13000.00000" pt_clust_7="13000.00000" pt_clust_8="13000.00000" pt_clust_9="35.23707" pt_clust_10="28.85163"></scales>
<clustering>
<clus scale="   28.852">  2 10  1 -1</clus>
<clus scale="   35.237">  1  9  2 -1</clus>
<clus scale="   78.797">  5  6 -1 -1</clus>
<clus scale="   88.864">  1  5  2 -1</clus>
<clus scale="   89.024">  7  8 -1 -1</clus>
<clus scale="   28.852">  2  5  1 -1</clus>
</clustering>
</event>
<event>
10    4  0.2857708E-005  0.7549209E+03  0.7546771E-02  0.1017521E+00
          2   -1    0    0  503    0 -0.00000000000E+00  0.00000000000E+00  0.11664617594E+04  0.11664617594E+04  0.00000000000E+00 0. -1.
         21   -1    0    0  501  502  0.00000000000E+00 -0.00000000000E+00 -0.90925709426E+03  0.90925709426E+03  0.00000000000E+00 0. -1.
         23    2    1    2    0    0 -0.10068774691E+03 -0.39167782531E+02  0.45284149951E+03  0.47436027405E+03  0.90995100715E+02 0.  0.
         24    2    1    2    0    0  0.70616577599E+03  0.34656164410E+03 -0.82594873856E+02  0.79481950687E+03  0.78364909060E+02 0.  0.
        -13    1    4    4    0    0  0.34104049517E+03  0.14932837447E+03 -0.74885305113E+02  0.37975701665E+03  0.00000000000E+00 0.  1.
         14    1    4    4    0    0  0.36512528082E+03  0.19723326963E+03 -0.77095687430E+01  0.41506249022E+03  0.00000000000E+00 0. -1.
        -11    1    3    3    0    0 -0.95655528018E+02 -0.57157013524E+00  0.37903633812E+03  0.39092051922E+03  0.00000000000E+00 0.  1.
         11    1    3    3    0    0 -0.50322188880E+01 -0.38596212396E+02  0.73805161387E+02  0.83439754827E+02  0.00000000000E+00 0. -1.
         21    1    1    2  503  502  0.26266854203E+02  0.42303533257E+02  0.45289861274E+02  0.67310534762E+02  0.00000000000E+00 0.  1.
          1    1    1    2  501    0 -0.63174488329E+03 -0.34969739483E+03 -0.15833182183E+03  0.73922853794E+03  0.00000000000E+00 0. -1.
<scales pt_clust_5="13000.00000" pt_clust_6="13000.00000" pt_clust_7="13000.00000" pt_clust_8="13000.00000" pt_clust_9="49.79495" pt_clust_10="750.84255"></scales>
<clustering>
<clus scale="   49.795">  1  9  2 -1</clus>
<clus scale="   78.365">  5  6 -1 -1</clus>
<clus scale="   90.995">  7  8 -1 -1</clus>
<clus scale="  129.584">  1  7  2 -1</clus>
<clus scale="  750.843">  2 10  1 -1</clus>
<clus scale="  750.843">  2  5  1 -1</clus>
</clustering>
</event>
<event>
10    4  0.2857708E-005  0.1447402E+03  0.7546771E-02  0.1228195E+00
         21   -1    0    0  501  502  0.00000000000E+00  0.00000000000E+00  0.12567400023E+03  0.12567400023E+03  0.00000000000E+00 0. -1.
         -1   -1    0    0    0  501 -0.00000000000E+00 -0.00000000000E+00 -0.31049695594E+03  0.31049695594E+03  0.00000000000E+00 0.  1.
         23    2    1    2    0    0 -0.87639873182E+01 -0.48824538388E+01 -0.64139985857E+02  0.11277462558E+03  0.92214600583E+02 0.  0.
         24    2    1    2    0    0  0.12137214850E+03 -0.18456994870E+02  0.90264473802E+01  0.14706029732E+03  0.80457412376E+02 0.  0.
        -13    1    4    4    0    0  0.36132666837E+02 -0.72054394189E+01 -0.34690434653E+02  0.50605476249E+02  0.00000000000E+00 0.  1.
         14    1    4    4    0    0  0.85239481660E+02 -0.11251555451E+02  0.43716882034E+02  0.96454821074E+02  0.00000000000E+00 0. -1.
        -13    1    3    3    0    0  0.15498395593E+02  0.37004991941E+02 -0.46106622325E+02  0.61117839595E+02  0.00000000000E+00 0.  1.
         13    1    3    3    0    0 -0.24262382911E+02 -0.41887445780E+02 -0.18033363532E+02  0.51656785990E+02  0.00000000000E+00 0. -1.
         21    1    1    2  503  502 -0.63598579371E+02  0.25665052658E+02 -0.60206015097E+02  0.91259182989E+02  0.00000000000E+00 0.  1.
         -2    1    1    2    0  503 -0.49009581808E+02 -0.23256039494E+01 -0.69503402145E+02  0.85076850273E+02  0.00000000000E+00 0.  1.
<scales pt_clust_5="13000.00000" pt_clust_6="13000.00000" pt_clust_7="13000.00000" pt_clust_8="13000.00000" pt_clust_9="27.33642" pt_clust_10="124.58287"></scales>
<clustering>
<clus scale="   27.336">  9 10 -1 -1</clus>
<clus scale="   80.457">  5  6 -1 -1</clus>
<clus scale="   92.215">  7  8 -1 -1</clus>
<clus scale="   92.759">  2  7  1 -1</clus>
<clus scale="  124.583">  1  9  2 -1</clus>
<clus scale="  124.583">  1  5  2 -1</clus>
</clustering>
</event>
<event>
10    4  0.2857708E-005  0.1248619E+03  0.7546771E-02  0.1242521E+00
          2   -1    0    0  503    0 -0.00000000000E+00  0.00000000000E+00  0.21506659398E+04  0.21506659398E+04  0.00000000000E+00 0. -1.
         21   -1    0    0  501  502  0.00000000000E+00 -0.00000000000E+00 -0.39725181260E+02  0.39725181260E+02  0.00000000000E+00 0. -1.
         24    2    1    2    0    0  0.91627463851E+02  0.27377035516E+02  0.17473951422E+04  0.17518610943E+04  0.80513454679E+02 0.  0.
         23    2    1    2    0    0 -0.42945746833E+02 -0.17991526704E+02  0.29093047424E+03  0.31187727626E+03  0.10226857973E+03 0.  0.
        -11    1    3    3    0    0  0.33072446306E+02  0.10961067165E+02  0.18316668291E+03  0.18645097325E+03  0.00000000000E+00 0.  1.
         12    1    3    3    0    0  0.58555017545E+02  0.16415968352E+02  0.15642284593E+04  0.15654101210E+04  0.00000000000E+00 0. -1.
        -13    1    4    4    0    0 -0.30315867714E+02  0.30964812337E+02  0.22314087803E+03  0.22730975097E+03  0.00000000000E+00 0. -1.
         13    1    4    4    0    0 -0.12629879119E+02 -0.48956339041E+02  0.67789596208E+02  0.84567525285E+02  0.00000000000E+00 0.  1.
         21    1    1    2  503  502 -0.23450622903E+02  0.34880586855E+01  0.90232652077E+02  0.93295389858E+02  0.00000000000E+00 0.  1.
          1    1    1    2  501    0 -0.25231094116E+02 -0.12873567498E+02 -0.17617510013E+02  0.33357360649E+02  0.00000000000E+00 0. -1.
<scales pt_clust_5="13000.00000" pt_clust_6="13000.00000" pt_clust_7="13000.00000" pt_clust_8="13000.00000" pt_clust_9="23.70861" pt_clust_10="28.39939"></scales>
<clustering>
<clus scale="   23.709">  1  9  2 -1</clus>
<clus scale="   28.399">  2 10  1 -1</clus>
<clus scale="   80.513">  5  6 -1 -1</clus>
<clus scale="  102.269">  7  8 -1 -1</clus>
<clus scale="  107.769">  1  5  2 -1</clus>
<clus scale="   28.399">  2  5  1 -1</clus>
</clustering>
</event>
<event>
10    4  0.2857708E-005  0.2098276E+03  0.7546771E-02  0.1167222E+00
         21   -1    0    0  501  502  0.00000000000E+00  0.00000000000E+00  0.44819731227E+03  0.44819731227E+03  0.00000000000E+00 0. -1.
          2   -1    0    0  503    0 -0.00000000000E+00 -0.00000000000E+00 -0.26714888620E+03  0.26714888620E+03  0.00000000000E+00 0. -1.
         24    2    1    2    0    0 -0.13565654233E+02 -0.80846168994E+02 -0.43100492840E+02  0.12296144474E+03  0.80880989081E+02 0.  0.
         23    2    1    2    0    0  0.10829315700E+03 -0.18232130824E+03  0.12176565225E+03  0.26199568684E+03  0.94055295263E+02 0.  0.
        -13    1    3    3    0    0 -0.24074673613E+02  0.80470862195E+01 -0.61219725876E+01  0.26111760847E+02  0.00000000000E+00 0.  1.
         14    1    3    3    0    0  0.10509019380E+02 -0.88893255214E+02 -0.36978520252E+02  0.96849683897E+02  0.00000000000E+00 0. -1.
        -13    1    4    4    0    0  0.53199530906E+02 -0.40646368436E+02 -0.44362374505E+00  0.66951580696E+02  0.00000000000E+00 0.  1.
         13    1    4    4    0    0  0.55093626093E+02 -0.14167493980E+03  0.12220927600E+03  0.19504410615E+03  0.00000000000E+00 0. -1.
         21    1    1    2  503  502 -0.59184321152E+00  0.11923246351E+03 -0.17824466227E+02  0.12055887454E+03  0.00000000000E+00 0. -1.
          1    1    1    2  501    0 -0.94135659555E+02  0.14393501372E+03  0.12020773288E+03  0.20983019234E+03  0.00000000000E+00 0. -1.
<scales pt_clust_5="13000.00000" pt_clust_6="13000.00000" pt_clust_7="13000.00000" pt_clust_8="13000.00000" pt_clust_9="89.03240" pt_clust_10="187.56662"></scales>
<clustering>
<clus scale="   80.881">  5  6 -1 -1</clus>
<clus scale="   94.055">  7  8 -1 -1</clus>
<clus scale="  115.160">  2  5  1 -1</clus>
<clus scale="   89.032">  2  9  1 -1</clus>
<clus scale="  187.567">  1 10  2 -1</clus>
<clus scale="  187.567">  1  5  2 -1</clus>
</clustering>
</event>
<event>
10    4  0.2857708E-005  0.1113346E+03  0.7546771E-02  0.1261837E+00
         21   -1    0    0  501  502  0.00000000000E+00  0.00000000000E+00  0.20241532338E+03  0.20241532338E+03  0.00000000000E+00 0. -1.
          2   -1    0    0  503    0 -0.00000000000E+00 -0.00000000000E+00 -0.56843112467E+03  0.56843112467E+03  0.00000000000E+00 0. -1.
         24    2    1    2    0    0 -0.69170599899E+02 -0.42690279911E+02 -0.43110193616E+03  0.44596748834E+03  0.80194073384E+02 0.  0.
         23    2    1    2    0    0  0.88847463754E+02 -0.20823548713E+01 -0.27676741004E+02  0.12954169092E+03  0.90093505178E+02 0.  0.
        -11    1    3    3    0    0 -0.26999093663E+02 -0.59175779548E+02 -0.30822997416E+03  0.31501815965E+03  0.00000000000E+00 0.  1.
         12    1    3    3    0    0 -0.42171506236E+02  0.16485499638E+02 -0.12287196201E+03  0.13094932869E+03  0.00000000000E+00 0. -1.
        -13    1    4    4    0    0  0.59670142159E+02  0.34857859138E+02 -0.41338240508E+02  0.80526059989E+02  0.00000000000E+00 0. -1.
         13    1    4    4    0    0  0.29177321594E+02 -0.36940214009E+02  0.13661499504E+02  0.49015630927E+02  0.00000000000E+00 0.  1.
         21    1    1    2  503  502  0.15984455361E+02  0.17125594608E+02 -0.44804160972E+02  0.50558892831E+02  0.00000000000E+00 0. -1.
          1    1    1    2  501    0 -0.35661319216E+02  0.27647040174E+02  0.13756703685E+03  0.14477837596E+03  0.00000000000E+00 0. -1.
<scales pt_clust_5="13000.00000" pt_clust_6="13000.00000" pt_clust_7="13000.00000" pt_clust_8="13000.00000" pt_clust_9="23.42624" pt_clust_10="45.10851"></scales>
<clustering>
<clus scale="   23.426">  2  9  1 -1</clus>
<clus scale="   45.109">  1 10  2 -1</clus>
<clus scale="   80.194">  5  6 -1 -1</clus>
<clus scale="   90.094">  7  8 -1 -1</clus>
<clus scale="  103.487">  2  5  1 -1</clus>
<clus scale="   45.109">  1  5  2 -1</clus>
</clustering>
</event>
<event>
10    4  0.3787983E-005  0.2178252E+03  0.7546771E-02  0.1137971E+00
          2   -1    0    0  503    0 -0.00000000000E+00  0.00000000000E+00  0.15860874557E+04  0.15860874557E+04  0.00000000000E+00 0. -1.
         21   -1    0    0  501  502  0.00000000000E+00 -0.00000000000E+00 -0.17075147644E+03  0.17075147644E+03  0.00000000000E+00 0. -1.
         23    2    1    2    0    0  0.15895967707E+03 -0.41725639956E+02  0.33795112584E+03  0.39072841298E+03  0.10699776301E+03 0.  0.
         24    2    1    2    0    0 -0.30778373734E+03  0.66959105537E+02  0.56210656326E+02  0.32938097081E+03  0.78216592005E+02 0.  0.
        -11    1    4    4    0    0 -0.57021263606E+02  0.12366295604E+02 -0.19981185894E+02  0.61673313191E+02  0.00000000000E+00 0.  1.
         12    1    4    4    0    0 -0.25076247373E+03  0.54592809933E+02  0.76191842220E+02  0.26770765762E+03  0.00000000000E+00 0. -1.
        -13    1    3    3    0    0  0.11053811211E+03 -0.76736766653E+02  0.20850055131E+03  0.24815254478E+03  0.00000000000E+00 0.  1.
         13    1    3    3    0    0  0.48421564955E+02  0.35011126697E+02  0.12945057454E+03  0.14257586820E+03  0.00000000000E+00 0. -1.
         21    1    1    2  503  502 -0.26944432804E+01 -0.20705633229E+02  0.56838019740E+02  0.60551992205E+02  0.00000000000E+00 0.  1.
          1    1    1    2  501    0  0.15151850355E+03 -0.45278323522E+01  0.96433617738E+03  0.97617755618E+03  0.00000000000E+00 0. -1.
<scales pt_clust_5="13000.00000" pt_clust_6="13000.00000" pt_clust_7="13000.00000" pt_clust_8="13000.00000" pt_clust_9="20.88021" pt_clust_10="150.84674"></scales>
<clustering>
<clus scale="   20.880">  1  9  2 -1</clus>
<clus scale="   78.217">  5  6 -1 -1</clus>
<clus scale="  106.998">  7  8 -1 -1</clus>
<clus scale="  150.847">  2 10  1 -1</clus>
<clus scale="  205.225">  2  5  1 -1</clus>
<clus scale="  150.847">  2  5  1 -1</clus>
</clustering>
</event>
<event>
10    4  0.2857708E-005  0.1256232E+03  0.7546771E-02  0.1247590E+00
          2   -1    0    0  503    0 -0.00000000000E+00  0.00000000000E+00  0.16955407196E+03  0.16955407196E+03  0.00000000000E+00 0. -1.
         21   -1    0    0  501  502  0.00000000000E+00 -0.00000000000E+00 -0.26620458487E+03  0.26620458487E+03  0.00000000000E+00 0. -1.
         23    2    1    2    0    0  0.21475487869E+02 -0.43612083563E+01 -0.80708744626E+02  0.12353398308E+03  0.90920442144E+02 0.  0.
         24    2    1    2    0    0 -0.37703876785E+02 -0.10562858448E+03  0.13628368324E+02  0.13863814342E+03  0.80348131301E+02 0.  0.
        -13    1    4    4    0    0 -0.33631514768E+02 -0.33900734482E+02 -0.28246763630E+02  0.55481692833E+02  0.00000000000E+00 0.  1.
         14    1    4    4    0    0 -0.40723620168E+01 -0.71727850002E+02  0.41875131954E+02  0.83156450588E+02  0.00000000000E+00 0. -1.
        -11    1    3    3    0    0 -0.20180538911E+02  0.18872545943E+02  0.23753604880E+01  0.27732101950E+02  0.00000000000E+00 0.  1.
         11    1    3    3    0    0  0.41656026781E+02 -0.23233754299E+02 -0.83084105114E+02  0.95801881133E+02  0.00000000000E+00 0. -1.
         21    1    1    2  503  502  0.45667489798E+02  0.17606332742E+02  0.32232646706E+02  0.58604147385E+02  0.00000000000E+00 0. -1.
          1    1    1    2  501    0 -0.29439100882E+02  0.92383460098E+02 -0.61802783321E+02  0.11498238294E+03  0.00000000000E+00 0. -1.
<scales pt_clust_5="13000.00000" pt_clust_6="13000.00000" pt_clust_7="13000.00000" pt_clust_8="13000.00000" pt_clust_9="48.94387" pt_clust_10="96.56787"></scales>
<clustering>
<clus scale="   48.944">  1  9  2 -1</clus>
<clus scale="   80.348">  5  6 -1 -1</clus>
<clus scale="   90.920">  7  8 -1 -1</clus>
<clus scale="   95.550">  1  7  2 -1</clus>
<clus scale="   96.568">  2 10  1 -1</clus>
<clus scale="   96.568">  2  5  1 -1</clus>
</clustering>
</event>
<event>
10    4  0.2857708E-005  0.1560635E+03  0.7546771E-02  0.1197378E+00
         21   -1    0    0  501  502  0.00000000000E+00  0.00000000000E+00  0.17161154864E+03  0.17161154864E+03  0.00000000000E+00 0. -1.
          2   -1    0    0  503    0 -0.00000000000E+00 -0.00000000000E+00 -0.36809195299E+03  0.36809195299E+03  0.00000000000E+00 0. -1.
         23    2    1    2    0    0 -0.48558794394E+02  0.10562495246E+03 -0.15416831885E+03  0.21376062351E+03  0.91712303050E+02 0.  0.
         24    2    1    2    0    0  0.16081681290E+02 -0.89415831671E+02  0.57568834287E+02  0.12617424462E+03  0.65969370914E+02 0.  0.
        -11    1    4    4    0    0  0.36574095726E+00 -0.42943123844E+02 -0.86057008203E+01  0.43798444477E+02  0.00000000000E+00 0.  1.
         12    1    4    4    0    0  0.15715940333E+02 -0.46472707826E+02  0.66174535108E+02  0.82375800148E+02  0.00000000000E+00 0. -1.
        -11    1    3    3    0    0 -0.29755632912E+02  0.11838573440E+03 -0.14424662292E+03  0.18896472693E+03  0.00000000000E+00 0. -1.
         11    1    3    3    0    0 -0.18803161482E+02 -0.12760781934E+02 -0.99216959324E+01  0.24795896585E+02  0.00000000000E+00 0.  1.
         21    1    1    2  503  502 -0.52263352986E+02  0.42846136505E+02 -0.55074291953E+02  0.87180428497E+02  0.00000000000E+00 0. -1.
          1    1    1    2  501    0  0.84740466089E+02 -0.59055257297E+02 -0.44806627835E+02  0.11258820500E+03  0.00000000000E+00 0. -1.
<scales pt_clust_5="13000.00000" pt_clust_6="13000.00000" pt_clust_7="13000.00000" pt_clust_8="13000.00000" pt_clust_9="67.58143" pt_clust_10="85.44480"></scales>
<clustering>
<clus scale="   65.969">  5  6 -1 -1</clus>
<clus scale="   67.581">  2  9  1 -1</clus>
<clus scale="   85.445">  1 10  2 -1</clus>
<clus scale="   91.712">  7  8 -1 -1</clus>
<clus scale="  142.466">  1  5  2 -1</clus>
<clus scale="   85.445">  1  5  2 -1</clus>
</clustering>
</event>
<event>
10    4  0.2857708E-005  0.1039236E+03  0.7546771E-02  0.1277439E+00
         -1   -1    0    0    0  501 -0.00000000000E+00  0.00000000000E+00  0.44106136560E+03  0.44106136560E+03  0.00000000000E+00 0.  1.
         21   -1    0    0  503  502  0.00000000000E+00 -0.00000000000E+00 -0.22189884586E+03  0.22189884586E+03  0.00000000000E+00 0.  1.
         23    2    1    2    0    0 -0.61209786631E+02 -0.50063899814E+02  0.20532860034E+03  0.23820104390E+03  0.91251691227E+02 0.  0.
         24    2    1    2    0    0  0.26474127779E+02 -0.50421045759E+02  0.82869012015E+02  0.12840836510E+03  0.79864095678E+02 0.  0.
        -13    1    4    4    0    0  0.19417468431E+02 -0.22219728440E+02  0.93041801179E+02  0.97609073241E+02  0.00000000000E+00 0.  1.
         14    1    4    4    0    0  0.70566593486E+01 -0.28201317319E+02 -0.10172789165E+02  0.30799291860E+02  0.00000000000E+00 0. -1.
        -11    1    3    3    0    0 -0.23063847367E+02  0.13263727440E+02  0.84749225040E+01  0.27922962458E+02  0.00000000000E+00 0. -1.
         11    1    3    3    0    0 -0.38145939264E+02 -0.63327627254E+02  0.19685367784E+03  0.21027808144E+03  0.00000000000E+00 0.  1.
         21    1    1    2  503  501 -0.36798140227E+02  0.67169973150E+02  0.90384183788E+02  0.11847028782E+03  0.00000000000E+00 0. -1.
         -2    1    1    2    0  502  0.71533799079E+02  0.33314972423E+02 -0.15941927641E+03  0.17788051464E+03  0.00000000000E+00 0.  1.
<scales pt_clust_5="13000.00000" pt_clust_6="13000.00000" pt_clust_7="13000.00000" pt_clust_8="13000.00000" pt_clust_9="76.58922" pt_clust_10="78.80194"></scales>
<clustering>
<clus scale="   76.589">  1  9  2 -1</clus>
<clus scale="   78.802">  2 10  1 -1</clus>
<clus scale="   79.864">  5  6 -1 -1</clus>
<clus scale="   91.252">  7  8 -1 -1</clus>
<clus scale="   94.082">  2  5  1 -1</clus>
<clus scale="   78.802">  2  5  1 -1</clus>
</clustering>
</event>
<event>
10    4  0.2857708E-005  0.1210264E+03  0.7546771E-02  0.1245506E+00
         21   -1    0    0  501  502  0.00000000000E+00  0.00000000000E+00  0.65377588467E+02  0.65377588467E+02  0.00000000000E+00 0. -1.
          2   -1    0    0  503    0 -0.00000000000E+00 -0.00000000000E+00 -0.77498827647E+03  0.77498827647E+03  0.00000000000E+00 0. -1.
         24    2    1    2    0    0  0.44096468799E+02  0.71647899733E+02 -0.35518987493E+03  0.37339975593E+03  0.78674076939E+02 0.  0.
         23    2    1    2    0    0 -0.43846025730E+02  0.39438568751E+02 -0.56241300257E+02  0.12422711033E+03  0.93762553344E+02 0.  0.
        -11    1    3    3    0    0  0.20207360113E+02  0.49828036978E+02 -0.32409681397E+03  0.32852688702E+03  0.00000000000E+00 0.  1.
         12    1    3    3    0    0  0.23889108686E+02  0.21819862755E+02 -0.31093060961E+02  0.44872868912E+02  0.00000000000E+00 0. -1.
        -11    1    4    4    0    0 -0.73000268599E+02  0.29036783324E+02 -0.48470603031E+02  0.92312368399E+02  0.00000000000E+00 0. -1.
         11    1    4    4    0    0  0.29154242868E+02  0.10401785427E+02 -0.77706972253E+01  0.31914741933E+02  0.00000000000E+00 0.  1.
         21    1    1    2  503  502 -0.34145343224E+02  0.58145334954E+01 -0.13374880444E+03  0.13816097840E+03  0.00000000000E+00 0. -1.
          1    1    1    2  501    0  0.33894900155E+02 -0.11690100198E+03 -0.16443070838E+03  0.20457802027E+03  0.00000000000E+00 0. -1.
<scales pt_clust_5="13000.00000" pt_clust_6="13000.00000" pt_clust_7="13000.00000" pt_clust_8="13000.00000" pt_clust_9="34.63688" pt_clust_10="76.52437"></scales>
<clustering>
<clus scale="   34.637">  2  9  1 -1</clus>
<clus scale="   78.674">  5  6 -1 -1</clus>
<clus scale="   93.763">  7  8 -1 -1</clus>
<clus scale="  111.426">  2  5  1 -1</clus>
<clus scale="   76.524">  1 10  2 -1</clus>
<clus scale="   76.524">  1  5  2 -1</clus>
</clustering>
</event>
<event>
10    4  0.2857708E-005  0.2043535E+03  0.7546771E-02  0.1174816E+00
          2   -1    0    0  503    0 -0.00000000000E+00  0.00000000000E+00  0.58102149711E+03  0.58102149711E+03  0.00000000000E+00 0. -1.
         21   -1    0    0  501  502  0.00000000000E+00 -0.00000000000E+00 -0.13925357077E+03  0.13925357077E+03  0.00000000000E+00 0. -1.
         24    2    1    2    0    0  0.73446565879E+02  0.14555308681E+02  0.15073498408E+03  0.18521822181E+03  0.77320755404E+02 0.  0.
         23    2    1    2    0    0  0.58241635543E+02  0.17293828975E+03  0.13937708575E+03  0.24710792581E+03  0.91305064426E+02 0.  0.
        -11    1    3    3    0    0  0.68327693734E+01 -0.21788936786E+02  0.91894192858E+01  0.24614831513E+02  0.00000000000E+00 0.  1.
         12    1    3    3    0    0  0.66613796505E+02  0.36344245467E+02  0.14154556479E+03  0.16060339030E+03  0.00000000000E+00 0. -1.
        -13    1    4    4    0    0  0.36932114954E+02  0.11548834718E+03  0.35216110768E+02  0.12626050019E+03  0.00000000000E+00 0. -1.
         13    1    4    4    0    0  0.21309520588E+02  0.57449942572E+02  0.10416097498E+03  0.12084742562E+03  0.00000000000E+00 0.  1.
         21    1    1    2  503  502 -0.10790032844E+03 -0.16198367736E+03  0.16014938079E+03  0.25204963158E+03  0.00000000000E+00 0. -1.
          1    1    1    2  501    0 -0.23787872977E+02 -0.25509921070E+02 -0.84935242805E+01  0.35899288690E+02  0.00000000000E+00 0. -1.
<scales pt_clust_5="13000.00000" pt_clust_6="13000.00000" pt_clust_7="13000.00000" pt_clust_8="13000.00000" pt_clust_9="182.82161" pt_clust_10="34.88007"></scales>
<clustering>
<clus scale="   34.880">  2 10  1 -1</clus>
<clus scale="   77.321">  5  6 -1 -1</clus>
<clus scale="   91.305">  7  8 -1 -1</clus>
<clus scale="  104.819">  1  5  2 -1</clus>
<clus scale="  182.822">  1  9  2 -1</clus>
<clus scale="   34.880">  2  5  1 -1</clus>
</clustering>
</event>
<event>
10    4  0.2857708E-005  0.1989635E+03  0.7546771E-02  0.1151159E+00
          2   -1    0    0  503    0 -0.00000000000E+00  0.00000000000E+00  0.59152953764E+03  0.59152953764E+03  0.00000000000E+00 0. -1.
         21   -1    0    0  501  502  0.00000000000E+00 -0.00000000000E+00 -0.11467816660E+03  0.11467816660E+03  0.00000000000E+00 0. -1.
         23    2    1    2    0    0 -0.18540973236E+03  0.59676324216E+02  0.20180950481E+03  0.29373750917E+03  0.87273223470E+02 0.  0.
         24    2    1    2    0    0  0.14619289634E+03 -0.70914121891E+02  0.73209584615E+02  0.19589188852E+03  0.81319204894E+02 0.  0.
        -11    1    4    4    0    0  0.41223207730E+02 -0.45914145710E+02  0.61889026212E+02  0.87394011221E+02  0.00000000000E+00 0.  1.
         12    1    4    4    0    0  0.10496968861E+03 -0.24999976181E+02  0.11320558402E+02  0.10849787730E+03  0.00000000000E+00 0. -1.
        -11    1    3    3    0    0 -0.23617214409E+02  0.43457813258E+02  0.33664125376E+02  0.59829989863E+02  0.00000000000E+00 0.  1.
         11    1    3    3    0    0 -0.16179251795E+03  0.16218510958E+02  0.16814537943E+03  0.23390751931E+03  0.00000000000E+00 0. -1.
         21    1    1    2  503  502  0.25230527931E+02  0.29108012443E+02  0.50297147761E+02  0.63353445060E+02  0.00000000000E+00 0. -1.
          1    1    1    2  501    0  0.13986308095E+02 -0.17870214767E+02  0.15153513385E+03  0.15322486150E+03  0.00000000000E+00 0. -1.
<scales pt_clust_5="13000.00000" pt_clust_6="13000.00000" pt_clust_7="13000.00000" pt_clust_8="13000.00000" pt_clust_9="38.29311" pt_clust_10="22.69277"></scales>
<clustering>
<clus scale="   22.693">  2 10  1 -1</clus>
<clus scale="   38.293">  1  9  2 -1</clus>
<clus scale="   81.319">  5  6 -1 -1</clus>
<clus scale="   87.273">  7  8 -1 -1</clus>
<clus scale="  196.425">  2  5  1 -1</clus>
<clus scale="   22.693">  2  5  1 -1</clus>
</clustering>
</event>
<event>
10    4  0.2857708E-005  0.2823573E+03  0.7546771E-02  0.1094408E+00
         -3   -1    0    0    0  501 -0.00000000000E+00  0.00000000000E+00  0.53552422610E+03  0.53552422610E+03  0.00000000000E+00 0.  1.
         21   -1    0    0  503  502  0.00000000000E+00 -0.00000000000E+00 -0.14809317178E+03  0.14809317178E+03  0.00000000000E+00 0.  1.
         24    2    1    2    0    0 -0.13865817839E+03  0.20975915732E+02  0.12413256551E+03  0.20356180192E+03  0.79764866350E+02 0.  0.
         23    2    1    2    0    0 -0.53052048180E+02  0.32369774276E+02  0.94650544939E+02  0.14516709971E+03  0.90842936310E+02 0.  0.
        -11    1    3    3    0    0 -0.13189035879E+03 -0.74610596505E+01  0.10135301196E+03  0.16650275429E+03  0.00000000000E+00 0.  1.
         12    1    3    3    0    0 -0.67678196009E+01  0.28436975382E+02  0.22779553546E+02  0.37059047624E+02  0.00000000000E+00 0. -1.
        -11    1    4    4    0    0 -0.22991587252E+02  0.55852019255E+01  0.10159209821E+03  0.10431089101E+03  0.00000000000E+00 0.  1.
         11    1    4    4    0    0 -0.30060460928E+02  0.26784572351E+02 -0.69415532704E+01  0.40856208696E+02  0.00000000000E+00 0. -1.
         21    1    1    2  503  501 -0.15372794000E+02  0.25374929050E+02  0.97943948764E+02  0.10233878502E+03  0.00000000000E+00 0.  1.
         -4    1    1    2    0  502  0.20708302057E+03 -0.78720619058E+02  0.70703995101E+02  0.23254971124E+03  0.00000000000E+00 0.  1.
<scales pt_clust_5="13000.00000" pt_clust_6="13000.00000" pt_clust_7="13000.00000" pt_clust_8="13000.00000" pt_clust_9="29.66833" pt_clust_10="213.49100"></scales>
<clustering>
<clus scale="   29.668">  1  9  2 -1</clus>
<clus scale="   79.765">  5  6 -1 -1</clus>
<clus scale="   90.843">  7  8 -1 -1</clus>
<clus scale="   95.607">  5  7 -1 -1</clus>
<clus scale="  213.491">  2 10  1 -1</clus>
<clus scale="  213.491">  2  5  1 -1</clus>
</clustering>
</event>
<event>
10    4  0.2857708E-005  0.1887743E+03  0.7546771E-02  0.1193410E+00
         21   -1    0    0  503  502  0.00000000000E+00  0.00000000000E+00  0.28789339242E+03  0.28789339242E+03  0.00000000000E+00 0.  1.
         -1   -1    0    0    0  501 -0.00000000000E+00 -0.00000000000E+00 -0.24472802727E+03  0.24472802727E+03  0.00000000000E+00 0.  1.
         24    2    1    2    0    0 -0.39459131312E+01 -0.24412706473E+02 -0.69194566974E+02  0.10921828685E+03  0.80803438151E+02 0.  0.
         23    2    1    2    0    0 -0.12661098942E+03 -0.81188758656E+02  0.92142705118E+02  0.19757641982E+03  0.89018011594E+02 0.  0.
        -13    1    3    3    0    0 -0.34504435504E+02 -0.37529487045E+02 -0.37584986504E+02  0.63337585033E+02  0.00000000000E+00 0.  1.
         14    1    3    3    0    0  0.30558522373E+02  0.13116780572E+02 -0.31609580470E+02  0.45880701822E+02  0.00000000000E+00 0. -1.
        -11    1    4    4    0    0 -0.13873138264E+03 -0.61912779069E+02  0.78023011768E+02  0.17078401303E+03  0.00000000000E+00 0.  1.
         11    1    4    4    0    0  0.12120393226E+02 -0.19275979588E+02  0.14119693351E+02  0.26792406785E+02  0.00000000000E+00 0. -1.
         21    1    1    2  503  501 -0.13039483010E+02 -0.21507885219E+02 -0.17156819196E+02  0.30446242604E+02  0.00000000000E+00 0. -1.
         -2    1    1    2    0  502  0.14359638556E+03  0.12710935035E+03  0.37374046206E+02  0.19538047042E+03  0.00000000000E+00 0.  1.
<scales pt_clust_5="13000.00000" pt_clust_6="13000.00000" pt_clust_7="13000.00000" pt_clust_8="13000.00000" pt_clust_9="25.15188" pt_clust_10="166.46786"></scales>
<clustering>
<clus scale="   25.152">  2  9  1 -1</clus>
<clus scale="   80.803">  5  6 -1 -1</clus>
<clus scale="   87.804">  2  5  1 -1</clus>
<clus scale="   89.018">  7  8 -1 -1</clus>
<clus scale="  166.468">  1 10  2 -1</clus>
<clus scale="  166.468">  1  5  2 -1</clus>
</clustering>
</event>
<event>
10    4  0.2857708E-005  0.3105274E+03  0.7546771E-02  0.1107656E+00
         -1   -1    0    0    0  501 -0.00000000000E+00  0.00000000000E+00  0.66336506193E+03  0.66336506193E+03  0.00000000000E+00 0.  1.
         21   -1    0    0  503  502  0.00000000000E+00 -0.00000000000E+00 -0.65870838224E+03  0.65870838224E+03  0.00000000000E+00 0.  1.
         23    2    1    2    0    0 -0.11759913419E+03  0.18647285729E+02 -0.20643703563E+03  0.25489427079E+03  0.90429873247E+02 0.  0.
         24    2    1    2    0    0  0.87452672337E+02  0.32878709006E+03  0.28429060484E+03  0.45060145401E+03  0.80446266943E+02 0.  0.
        -13    1    4    4    0    0  0.67632841752E+02  0.31430524212E+03  0.24474601909E+03  0.40405766961E+03  0.00000000000E+00 0.  1.
         14    1    4    4    0    0  0.19819830585E+02  0.14481847938E+02  0.39544585751E+02  0.46543784400E+02  0.00000000000E+00 0. -1.
        -13    1    3    3    0    0 -0.52296077044E+02 -0.36215737678E+02 -0.76904834182E+02  0.99803871920E+02  0.00000000000E+00 0.  1.
         13    1    3    3    0    0 -0.65303057142E+02  0.54863023407E+02 -0.12953220145E+03  0.15509039887E+03  0.00000000000E+00 0. -1.
         21    1    1    2  503  501 -0.34650929631E+02 -0.56098390439E+02  0.20084608800E+03  0.21139268530E+03  0.00000000000E+00 0.  1.
         -2    1    1    2    0  502  0.64797391480E+02 -0.29133598535E+03 -0.27404297752E+03  0.40518503406E+03  0.00000000000E+00 0.  1.
<scales pt_clust_5="13000.00000" pt_clust_6="13000.00000" pt_clust_7="13000.00000" pt_clust_8="13000.00000" pt_clust_9="65.93722" pt_clust_10="299.92611"></scales>
<clustering>
<clus scale="   65.937">  1  9  2 -1</clus>
<clus scale="   80.446">  5  6 -1 -1</clus>
<clus scale="   90.430">  7  8 -1 -1</clus>
<clus scale="  150.626">  1  7  2 -1</clus>
<clus scale="  299.926">  2 10  1 -1</clus>
<clus scale="  299.926">  2  5  1 -1</clus>
</clustering>
</event>
<event>
10    4  0.2857708E-005  0.1085710E+03  0.7546771E-02  0.1266332E+00
         21   -1    0    0  501  502  0.00000000000E+00  0.00000000000E+00  0.72338642447E+02  0.72338642447E+02  0.00000000000E+00 0. -1.
          2   -1    0    0  503    0 -0.00000000000E+00 -0.00000000000E+00 -0.48870813736E+03  0.48870813736E+03  0.00000000000E+00 0. -1.
         24    2    1    2    0    0 -0.14929540695E+02  0.59261332866E+02 -0.17812193285E+03  0.20514704312E+03  0.81382366518E+02 0.  0.
         23    2    1    2    0    0  0.27643633866E+02 -0.20722566098E+02 -0.50189343940E+01  0.95820364848E+02  0.89234283648E+02 0.  0.
        -13    1    3    3    0    0  0.20516911414E+01  0.29490316885E+02 -0.66722906417E+01  0.30305241938E+02  0.00000000000E+00 0.  1.
         14    1    3    3    0    0 -0.16981231837E+02  0.29771015981E+02 -0.17144964220E+03  0.17484180118E+03  0.00000000000E+00 0. -1.
        -13    1    4    4    0    0 -0.10640294277E+02 -0.34013311020E+02 -0.31372266456E+02  0.47479893549E+02  0.00000000000E+00 0.  1.
         13    1    4    4    0    0  0.38283928143E+02  0.13290744922E+02  0.26353332062E+02  0.48340471299E+02  0.00000000000E+00 0. -1.
         21    1    1    2  503  502 -0.13259177158E+02  0.35475474551E+02 -0.52093778993E+02  0.64405565623E+02  0.00000000000E+00 0. -1.
          1    1    1    2  501    0  0.54508398724E+00 -0.74014241318E+02 -0.18113484868E+03  0.19567380622E+03  0.00000000000E+00 0. -1.
<scales pt_clust_5="13000.00000" pt_clust_6="13000.00000" pt_clust_7="13000.00000" pt_clust_8="13000.00000" pt_clust_9="37.87235" pt_clust_10="58.72315"></scales>
<clustering>
<clus scale="   37.872">  2  9  1 -1</clus>
<clus scale="   58.723">  1 10  2 -1</clus>
<clus scale="   81.382">  5  6 -1 -1</clus>
<clus scale="   89.234">  7  8 -1 -1</clus>
<clus scale="  102.215">  2  5  1 -1</clus>
<clus scale="   58.723">  1  5  2 -1</clus>
</clustering>
</event>
<event>
10    4  0.2857708E-005  0.1502240E+03  0.7546771E-02  0.1202414E+00
         21   -1    0    0  501  502  0.00000000000E+00  0.00000000000E+00  0.27834440203E+03  0.27834440203E+03  0.00000000000E+00 0. -1.
          2   -1    0    0  503    0 -0.00000000000E+00 -0.00000000000E+00 -0.17469092754E+03  0.17469092754E+03  0.00000000000E+00 0. -1.
         23    2    1    2    0    0  0.10228045735E+03 -0.89250856760E+02  0.24074862325E+02  0.16619812198E+03  0.92818152138E+02 0.  0.
         24    2    1    2    0    0 -0.10365694537E+03  0.50754316117E+02  0.12399088439E+03  0.18773090210E+03  0.80922118515E+02 0.  0.
        -11    1    4    4    0    0 -0.49752318388E+02 -0.91989149272E+01  0.16203345419E+02  0.53126844661E+02  0.00000000000E+00 0.  1.
         12    1    4    4    0    0 -0.53904626982E+02  0.59953231044E+02  0.10778753897E+03  0.13460405744E+03  0.00000000000E+00 0. -1.
        -13    1    3    3    0    0  0.28370727780E+02  0.11148159070E+02  0.28106852225E+02  0.41462932692E+02  0.00000000000E+00 0.  1.
         13    1    3    3    0    0  0.73909729573E+02 -0.10039901583E+03 -0.40319898994E+01  0.12473518929E+03  0.00000000000E+00 0. -1.
         21    1    1    2  503  502 -0.36608919059E+02  0.10835707646E+02 -0.33669524765E+02  0.50904443939E+02  0.00000000000E+00 0. -1.
          1    1    1    2  501    0  0.37985407077E+02  0.27660832997E+02 -0.10742747462E+02  0.48201861540E+02  0.00000000000E+00 0. -1.
<scales pt_clust_5="13000.00000" pt_clust_6="13000.00000" pt_clust_7="13000.00000" pt_clust_8="13000.00000" pt_clust_9="38.17886" pt_clust_10="42.36261"></scales>
<clustering>
<clus scale="   38.179">  2  9  1 -1</clus>
<clus scale="   42.363">  1 10  2 -1</clus>
<clus scale="   80.922">  5  6 -1 -1</clus>
<clus scale="   92.818">  7  8 -1 -1</clus>
<clus scale="  143.180">  1  5  2 -1</clus>
<clus scale="   42.363">  1  5  2 -1</clus>
</clustering>
</event>
<event>
10    4  0.2857708E-005  0.2113433E+03  0.7546771E-02  0.1141450E+00
         21   -1    0    0  501  502  0.00000000000E+00  0.00000000000E+00  0.94260900446E+02  0.94260900446E+02  0.00000000000E+00 0. -1.
          2   -1    0    0  503    0 -0.00000000000E+00 -0.00000000000E+00 -0.17088683246E+04  0.17088683246E+04  0.00000000000E+00 0. -1.
         23    2    1    2    0    0  0.55048319442E+02 -0.15242548294E+03 -0.28029345694E+03  0.33637934520E+03  0.91229362330E+02 0.  0.
         24    2    1    2    0    0 -0.25447955444E+02  0.26684537421E+03 -0.40770626432E+03  0.49438620966E+03  0.79619558935E+02 0.  0.
        -13    1    4    4    0    0  0.26219323904E+02  0.13845764398E+03 -0.19390036330E+03  0.23969840010E+03  0.00000000000E+00 0.  1.
         14    1    4    4    0    0 -0.51667279348E+02  0.12838773023E+03 -0.21380590102E+03  0.25468780957E+03  0.00000000000E+00 0. -1.
        -11    1    3    3    0    0  0.41238409170E+02 -0.97962604259E+01 -0.56300499805E+02  0.70472117802E+02  0.00000000000E+00 0. -1.
         11    1    3    3    0    0  0.13809910272E+02 -0.14262922251E+03 -0.22399295714E+03  0.26590722740E+03  0.00000000000E+00 0.  1.
         21    1    1    2  503  502 -0.66133648346E+02  0.67154112646E+02 -0.47483952271E+03  0.48410319831E+03  0.00000000000E+00 0. -1.
          1    1    1    2  501    0  0.36533284348E+02 -0.18157400392E+03 -0.45176818014E+03  0.48826047183E+03  0.00000000000E+00 0. -1.
<scales pt_clust_5="13000.00000" pt_clust_6="13000.00000" pt_clust_7="13000.00000" pt_clust_8="13000.00000" pt_clust_9="94.25144" pt_clust_10="156.30555"></scales>
<clustering>
<clus scale="   79.620">  5  6 -1 -1</clus>
<clus scale="   91.229">  7  8 -1 -1</clus>
<clus scale="   94.251">  2  9  1 -1</clus>
<clus scale="  156.306">  1 10  2 -1</clus>
<clus scale="  206.597">  1  5  2 -1</clus>
<clus scale="  156.306">  1  5  2 -1</clus>
</clustering>
</event>
<event>
10    4  0.2857708E-005  0.1495137E+03  0.7546771E-02  0.1218816E+00
         -1   -1    0    0    0  501 -0.00000000000E+00  0.00000000000E+00  0.25598615426E+03  0.25598615426E+03  0.00000000000E+00 0.  1.
         21   -1    0    0  503  502  0.00000000000E+00 -0.00000000000E+00 -0.77583310848E+03  0.77583310848E+03  0.00000000000E+00 0.  1.
         24    2    1    2    0    0  0.57169213450E+02 -0.18692332580E+02 -0.14539945937E+03  0.17781227647E+03  0.82815944209E+02 0.  0.
         23    2    1    2    0    0 -0.10022541878E+02  0.94916135334E+02  0.17748889001E+03  0.22128613825E+03  0.91409653825E+02 0.  0.
        -11    1    3    3    0    0  0.32764637009E+02  0.32057617553E+02 -0.70821065673E+02  0.84361339632E+02  0.00000000000E+00 0.  1.
         12    1    3    3    0    0  0.24404576440E+02 -0.50749950132E+02 -0.74578393696E+02  0.93450936839E+02  0.00000000000E+00 0. -1.
        -13    1    4    4    0    0 -0.23727915722E+02  0.67128039053E+02  0.42784894855E+02  0.83064642534E+02  0.00000000000E+00 0.  1.
         13    1    4    4    0    0  0.13705373843E+02  0.27788096280E+02  0.13470399516E+03  0.13822149572E+03  0.00000000000E+00 0. -1.
         21    1    1    2  503  501 -0.23213274659E+00  0.11333924013E+03 -0.18201858109E+03  0.21442154999E+03  0.00000000000E+00 0. -1.
         -2    1    1    2    0  502 -0.46914538825E+02 -0.18956304288E+03 -0.36991780377E+03  0.41829929802E+03  0.00000000000E+00 0.  1.
<scales pt_clust_5="13000.00000" pt_clust_6="13000.00000" pt_clust_7="13000.00000" pt_clust_8="13000.00000" pt_clust_9="112.13503" pt_clust_10="118.31578"></scales>
<clustering>
<clus scale="   82.816">  5  6 -1 -1</clus>
<clus scale="   91.410">  7  8 -1 -1</clus>
<clus scale="  102.353">  1  5  2 -1</clus>
<clus scale="  112.135">  2  9  1 -1</clus>
<clus scale="  118.316">  2 10  1 -1</clus>
<clus scale="  112.135">  2  5  1 -1</clus>
</clustering>
</event>
<event>
10    4  0.2857708E-005  0.1243581E+03  0.7546771E-02  0.1240066E+00
         21   -1    0    0  501  502  0.00000000000E+00  0.00000000000E+00  0.21622751655E+03  0.21622751655E+03  0.00000000000E+00 0.  1.
          2   -1    0    0  503    0 -0.00000000000E+00 -0.00000000000E+00 -0.34957710251E+03  0.34957710251E+03  0.00000000000E+00 0. -1.
         23    2    1    2    0    0  0.13158644326E+03 -0.84374543116E+01  0.28147062907E+02  0.16234428659E+03  0.90428024165E+02 0.  0.
         24    2    1    2    0    0 -0.27293174001E+02  0.65924002171E+02  0.77146067136E+02  0.12999552639E+03  0.76527314054E+02 0.  0.
        -11    1    4    4    0    0 -0.29638543975E+02  0.13217281976E+02  0.69476676756E+02  0.76682125980E+02  0.00000000000E+00 0.  1.
         12    1    4    4    0    0  0.23453699732E+01  0.52706720194E+02  0.76693903801E+01  0.53313400405E+02  0.00000000000E+00 0. -1.
        -13    1    3    3    0    0  0.97415134775E+02  0.33942388139E+02  0.52726529413E+01  0.10329373197E+03  0.00000000000E+00 0.  1.
         13    1    3    3    0    0  0.34171308483E+02 -0.42379842451E+02  0.22874409966E+02  0.59050554620E+02  0.00000000000E+00 0. -1.
         21    1    1    2  503  502 -0.82311437302E+02 -0.67282543514E+02 -0.16776841046E+03  0.19861609432E+03  0.00000000000E+00 0.  1.
          1    1    1    2  501    0 -0.21981831955E+02  0.97959956546E+01 -0.70874305544E+02  0.74848711768E+02  0.00000000000E+00 0. -1.
<scales pt_clust_5="13000.00000" pt_clust_6="13000.00000" pt_clust_7="13000.00000" pt_clust_8="13000.00000" pt_clust_9="107.10152" pt_clust_10="24.06581"></scales>
<clustering>
<clus scale="   24.066">  1 10  2 -1</clus>
<clus scale="   76.527">  5  6 -1 -1</clus>
<clus scale="   90.428">  7  8 -1 -1</clus>
<clus scale="  107.102">  2  9  1 -1</clus>
<clus scale="  114.648">  1  5  2 -1</clus>
<clus scale="   24.066">  1  5  2 -1</clus>
</clustering>
</event>
<event>
10    4  0.2857708E-005  0.1477945E+03  0.7546771E-02  0.1221756E+00
         21   -1    0    0  503  502  0.00000000000E+00  0.00000000000E+00  0.96828252349E+02  0.96828252349E+02  0.00000000000E+00 0.  1.
         -1   -1    0    0    0  501 -0.00000000000E+00 -0.00000000000E+00 -0.52975970236E+03  0.52975970236E+03  0.00000000000E+00 0.  1.
         24    2    1    2    0    0  0.41892567917E+02  0.64372490677E+02 -0.16052491427E+03  0.19375602711E+03  0.76644276615E+02 0.  0.
         23    2    1    2    0    0 -0.12139428856E+03  0.11494975266E+02 -0.39703622836E+02  0.15716831587E+03  0.90866903183E+02 0.  0.
        -13    1    3    3    0    0  0.37072176820E+02  0.81325850581E+02 -0.14465313646E+03  0.17003755513E+03  0.00000000000E+00 0.  1.
         14    1    3    3    0    0  0.48203910974E+01 -0.16953359903E+02 -0.15871777817E+02  0.23718471988E+02  0.00000000000E+00 0. -1.
        -11    1    4    4    0    0 -0.20018126387E+02 -0.57820744913E+01  0.27363536751E+02  0.34393617330E+02  0.00000000000E+00 0. -1.
         11    1    4    4    0    0 -0.10137616218E+03  0.17277049757E+02 -0.67067159588E+02  0.12277469854E+03  0.00000000000E+00 0.  1.
         21    1    1    2  503  501 -0.19952407851E+02 -0.29921747243E+02 -0.38455807657E+02  0.52652242874E+02  0.00000000000E+00 0.  1.
         -2    1    1    2    0  502  0.99454128497E+02 -0.45945718701E+02 -0.19424710524E+03  0.22301136885E+03  0.00000000000E+00 0.  1.
<scales pt_clust_5="13000.00000" pt_clust_6="13000.00000" pt_clust_7="13000.00000" pt_clust_8="13000.00000" pt_clust_9="35.96400" pt_clust_10="116.56086"></scales>
<clustering>
<clus scale="   35.964">  2  9  1 -1</clus>
<clus scale="   76.644">  5  6 -1 -1</clus>
<clus scale="   90.867">  7  8 -1 -1</clus>
<clus scale="   99.626">  2  5  1 -1</clus>
<clus scale="  116.561">  1 10  2 -1</clus>
<clus scale="  116.561">  1  5  2 -1</clus>
</clustering>
</event>
<event>
10    4  0.2857708E-005  0.1618564E+03  0.7546771E-02  0.1188758E+00
          2   -1    0    0  503    0 -0.00000000000E+00  0.00000000000E+00  0.21718546879E+03  0.21718546879E+03  0.00000000000E+00 0. -1.
         21   -1    0    0  501  502  0.00000000000E+00 -0.00000000000E+00 -0.22064321303E+03  0.22064321303E+03  0.00000000000E+00 0. -1.
         24    2    1    2    0    0  0.11057637436E+03 -0.25802882228E+02  0.97321428397E+02  0.16976819102E+03  0.80354557803E+02 0.  0.
         23    2    1    2    0    0 -0.14700970801E+03 -0.23064864878E+02 -0.88833828837E+02  0.19714653287E+03  0.93975869430E+02 0.  0.
        -11    1    3    3    0    0  0.12049373964E+03 -0.13141367400E+02  0.76012735361E+02  0.14307121571E+03  0.00000000000E+00 0.  1.
         12    1    3    3    0    0 -0.99173652749E+01 -0.12661514828E+02  0.21308693036E+02  0.26696975309E+02  0.00000000000E+00 0. -1.
        -13    1    4    4    0    0 -0.10289816159E+03  0.22839445343E+02 -0.27924495612E+02  0.10903875172E+03  0.00000000000E+00 0.  1.
         13    1    4    4    0    0 -0.44111546420E+02 -0.45904310222E+02 -0.60909333225E+02  0.88107781146E+02  0.00000000000E+00 0. -1.
         21    1    1    2  503  502  0.26631088050E+02  0.14874607839E+02  0.62403439938E+01  0.31135360962E+02  0.00000000000E+00 0. -1.
          1    1    1    2  501    0  0.98022455947E+01  0.33993139268E+02 -0.18185687792E+02  0.39778596964E+02  0.00000000000E+00 0. -1.
<scales pt_clust_5="13000.00000" pt_clust_6="13000.00000" pt_clust_7="13000.00000" pt_clust_8="13000.00000" pt_clust_9="30.50359" pt_clust_10="36.57555"></scales>
<clustering>
<clus scale="   30.504">  1  9  2 -1</clus>
<clus scale="   36.576">  2 10  1 -1</clus>
<clus scale="   80.355">  5  6 -1 -1</clus>
<clus scale="   93.976">  7  8 -1 -1</clus>
<clus scale="  154.347">  1  5  2 -1</clus>
<clus scale="   36.576">  2  5  1 -1</clus>
</clustering>
</event>
<event>
10    4  0.2857708E-005  0.2493145E+03  0.7546771E-02  0.1114296E+00
         21   -1    0    0  501  502  0.00000000000E+00  0.00000000000E+00  0.19092609659E+03  0.19092609659E+03  0.00000000000E+00 0.  1.
          2   -1    0    0  503    0 -0.00000000000E+00 -0.00000000000E+00 -0.78729087772E+03  0.78729087772E+03  0.00000000000E+00 0. -1.
         23    2    1    2    0    0 -0.21785174239E+03  0.69118049788E+02 -0.25029523794E+03  0.35090683392E+03  0.90836190407E+02 0.  0.
         24    2    1    2    0    0  0.23522987797E+03 -0.13931234234E+03 -0.47577749117E+02  0.28901163243E+03  0.80765445889E+02 0.  0.
        -11    1    4    4    0    0  0.20752275374E+03 -0.10733748619E+03 -0.12364272492E+02  0.23396560537E+03  0.00000000000E+00 0.  1.
         12    1    4    4    0    0  0.27707124227E+02 -0.31974856145E+02 -0.35213476625E+02  0.55046027054E+02  0.00000000000E+00 0. -1.
        -11    1    3    3    0    0 -0.31543743740E+02  0.30590649524E+02 -0.11181605778E+02  0.45341194462E+02  0.00000000000E+00 0.  1.
         11    1    3    3    0    0 -0.18630799865E+03  0.38527400264E+02 -0.23911363216E+03  0.30556563946E+03  0.00000000000E+00 0. -1.
         21    1    1    2  503  502  0.18725802588E+02 -0.17682219724E+02 -0.19927082419E+03  0.20092829057E+03  0.00000000000E+00 0. -1.
          1    1    1    2  501    0 -0.36103938167E+02  0.87876512273E+02 -0.99220969880E+02  0.13737021738E+03  0.00000000000E+00 0. -1.
<scales pt_clust_5="13000.00000" pt_clust_6="13000.00000" pt_clust_7="13000.00000" pt_clust_8="13000.00000" pt_clust_9="25.75493" pt_clust_10="90.30074"></scales>
<clustering>
<clus scale="   25.755">  2  9  1 -1</clus>
<clus scale="   80.765">  5  6 -1 -1</clus>
<clus scale="   90.301">  1 10  2 -1</clus>
<clus scale="   90.836">  7  8 -1 -1</clus>
<clus scale="  245.824">  1  5  2 -1</clus>
<clus scale="   90.301">  1  5  2 -1</clus>
</clustering>
</event>
<event>
10    4  0.2857708E-005  0.1438520E+03  0.7546771E-02  0.1224899E+00
         -1   -1    0    0    0  501 -0.00000000000E+00  0.00000000000E+00  0.22365201721E+03  0.22365201721E+03  0.00000000000E+00 0.  1.
         21   -1    0    0  503  502  0.00000000000E+00 -0.00000000000E+00 -0.56101715766E+03  0.56101715766E+03  0.00000000000E+00 0.  1.
         23    2    1    2    0    0 -0.42075619788E+02 -0.74053487003E+01  0.10519883426E+03  0.14737324545E+03  0.93951486287E+02 0.  0.
         24    2    1    2    0    0  0.25273357759E+02  0.15559559445E+03 -0.11846630735E+03  0.21301503886E+03  0.80575487444E+02 0.  0.
        -11    1    4    4    0    0  0.14302073727E+02  0.16146182177E+03 -0.11812513643E+03  0.20056923258E+03  0.00000000000E+00 0.  1.
         12    1    4    4    0    0  0.10971284032E+02 -0.58662273164E+01 -0.34117091798E+00  0.12445806275E+02  0.00000000000E+00 0. -1.
        -11    1    3    3    0    0 -0.28224866783E+02 -0.44897339988E+02  0.26903230971E+02  0.59465940500E+02  0.00000000000E+00 0.  1.
         11    1    3    3    0    0 -0.13850753005E+02  0.37491991287E+02  0.78295603290E+02  0.87907304953E+02  0.00000000000E+00 0. -1.
         21    1    1    2  503  501  0.36787234821E+02 -0.37961032726E+02  0.24399244261E+02  0.58220819059E+02  0.00000000000E+00 0. -1.
         -2    1    1    2    0  502 -0.19984972792E+02 -0.11022921302E+03 -0.34849691162E+03  0.36606007150E+03  0.00000000000E+00 0.  1.
<scales pt_clust_5="13000.00000" pt_clust_6="13000.00000" pt_clust_7="13000.00000" pt_clust_8="13000.00000" pt_clust_9="52.86152" pt_clust_10="119.16787"></scales>
<clustering>
<clus scale="   52.862">  1  9  2 -1</clus>
<clus scale="   80.575">  5  6 -1 -1</clus>
<clus scale="   93.951">  7  8 -1 -1</clus>
<clus scale="  101.182">  1  7  2 -1</clus>
<clus scale="  119.168">  2 10  1 -1</clus>
<clus scale="  119.168">  2  5  1 -1</clus>
</clustering>
</event>
<event>
10    4  0.2857708E-005  0.2194181E+03  0.7546771E-02  0.1164540E+00
          2   -1    0    0  503    0 -0.00000000000E+00  0.00000000000E+00  0.79610243738E+03  0.79610243738E+03  0.00000000000E+00 0. -1.
         21   -1    0    0  501  502  0.00000000000E+00 -0.00000000000E+00 -0.27745401040E+03  0.27745401040E+03  0.00000000000E+00 0.  1.
         24    2    1    2    0    0  0.35874437264E+02  0.43597799787E+02  0.27044404535E+03  0.28786206602E+03  0.80850751338E+02 0.  0.
         23    2    1    2    0    0  0.18636426435E+03  0.38487491011E+02 -0.16310737213E+03  0.26649978774E+03  0.90582537111E+02 0.  0.
        -11    1    3    3    0    0  0.51985528067E+02  0.57184918387E+02  0.20359397821E+03  0.21776849630E+03  0.00000000000E+00 0.  1.
         12    1    3    3    0    0 -0.16111090802E+02 -0.13587118599E+02  0.66850067147E+02  0.70093569721E+02  0.00000000000E+00 0. -1.
        -13    1    4    4    0    0  0.12486719557E+03 -0.68243023297E+00 -0.55810313622E+02  0.13677380359E+03  0.00000000000E+00 0. -1.
         13    1    4    4    0    0  0.61497068774E+02  0.39169921244E+02 -0.10729705851E+03  0.12972598415E+03  0.00000000000E+00 0.  1.
         21    1    1    2  503  502  0.26089629428E+02  0.22284322072E+02  0.10905559456E+03  0.11432577347E+03  0.00000000000E+00 0.  1.
          1    1    1    2  501    0 -0.24832833104E+03 -0.10436961287E+03  0.30225615919E+03  0.40486882056E+03  0.00000000000E+00 0. -1.
<scales pt_clust_5="13000.00000" pt_clust_6="13000.00000" pt_clust_7="13000.00000" pt_clust_8="13000.00000" pt_clust_9="34.31122" pt_clust_10="199.84785"></scales>
<clustering>
<clus scale="   34.311">  1  9  2 -1</clus>
<clus scale="   80.851">  5  6 -1 -1</clus>
<clus scale="   90.583">  7  8 -1 -1</clus>
<clus scale="  107.128">  1  5  2 -1</clus>
<clus scale="  199.848">  2 10  1 -1</clus>
<clus scale="  199.848">  2  5  1 -1</clus>
</clustering>
</event>
<event>
10    4  0.2857708E-005  0.1651387E+03  0.7546771E-02  0.1207456E+00
         -3   -1    0    0    0  501 -0.00000000000E+00  0.00000000000E+00  0.13395539777E+03  0.13395539777E+03  0.00000000000E+00 0.  1.
         21   -1    0    0  503  502  0.00000000000E+00 -0.00000000000E+00 -0.80067066783E+03  0.80067066783E+03  0.00000000000E+00 0.  1.
         24    2    1    2    0    0  0.49200130216E+01  0.39199870181E+02  0.47887964603E+02  0.10196980770E+03  0.80893437180E+02 0.  0.
         23    2    1    2    0    0 -0.73242412318E+01  0.88990627390E+02 -0.10300453827E+03  0.16514574344E+03  0.93221271182E+02 0.  0.
        -11    1    3    3    0    0  0.36692952398E+02  0.81973799583E+01  0.13023319085E+01  0.37620019434E+02  0.00000000000E+00 0.  1.
         12    1    3    3    0    0 -0.31772939376E+02  0.31002490223E+02  0.46585632695E+02  0.64349788268E+02  0.00000000000E+00 0. -1.
        -13    1    4    4    0    0 -0.42015194694E+02  0.75046977658E+02 -0.47585463017E+02  0.98293955721E+02  0.00000000000E+00 0.  1.
         13    1    4    4    0    0  0.34690953462E+02  0.13943649732E+02 -0.55419075252E+02  0.66851787723E+02  0.00000000000E+00 0. -1.
         21    1    1    2  503  501 -0.89692535540E+01  0.21091075898E+02  0.12223218944E+02  0.25974758386E+02  0.00000000000E+00 0.  1.
         -4    1    1    2    0  502  0.11373481764E+02 -0.14928157347E+03 -0.62382191533E+03  0.64153575607E+03  0.00000000000E+00 0.  1.
<scales pt_clust_5="13000.00000" pt_clust_6="13000.00000" pt_clust_7="13000.00000" pt_clust_8="13000.00000" pt_clust_9="22.91901" pt_clust_10="136.31064"></scales>
<clustering>
<clus scale="   22.919">  1  9  2 -1</clus>
<clus scale="   80.893">  5  6 -1 -1</clus>
<clus scale="   93.221">  7  8 -1 -1</clus>
<clus scale="   96.692">  1  5  2 -1</clus>
<clus scale="  136.311">  2 10  1 -1</clus>
<clus scale="  136.311">  2  5  1 -1</clus>
</clustering>
</event>
<event>
10    4  0.2857708E-005  0.2454314E+03  0.7546771E-02  0.1154121E+00
          2   -1    0    0  502    0 -0.00000000000E+00  0.00000000000E+00  0.13493761295E+04  0.13493761295E+04  0.00000000000E+00 0. -1.
         21   -1    0    0  503  502  0.00000000000E+00 -0.00000000000E+00 -0.86238925648E+02  0.86238925648E+02  0.00000000000E+00 0. -1.
         24    2    1    2    0    0 -0.30270237712E+01  0.57819107744E+02  0.27387134354E+02  0.10135642409E+03  0.78554805594E+02 0.  0.
         23    2    1    2    0    0 -0.99991701083E+02 -0.21304254992E+03  0.41049031376E+03  0.48653674884E+03  0.11327065778E+03 0.  0.
        -13    1    3    3    0    0 -0.35882553517E+02  0.10402364970E+02  0.22148155594E+02  0.43431643303E+02  0.00000000000E+00 0.  1.
         14    1    3    3    0    0  0.32855529745E+02  0.47416742774E+02  0.52389787608E+01  0.57924780782E+02  0.00000000000E+00 0. -1.
        -11    1    4    4    0    0 -0.23438621922E+02 -0.17085412773E+03  0.29482287168E+03  0.34155677072E+03  0.00000000000E+00 0.  1.
         11    1    4    4    0    0 -0.76553079162E+02 -0.42188422189E+02  0.11566744208E+03  0.14497997811E+03  0.00000000000E+00 0. -1.
         21    1    1    2  503  501  0.50821473294E+02  0.96664990753E+02  0.58098744256E+03  0.59116271110E+03  0.00000000000E+00 0. -1.
          1    1    1    2  501    0  0.52197251560E+02  0.58558451425E+02  0.24427231316E+03  0.25655917111E+03  0.00000000000E+00 0. -1.
<scales pt_clust_5="13000.00000" pt_clust_6="13000.00000" pt_clust_7="13000.00000" pt_clust_8="13000.00000" pt_clust_9="45.41602" pt_clust_10="224.22741"></scales>
<clustering>
<clus scale="   45.416">  9 10 -1 -1</clus>
<clus scale="   78.555">  5  6 -1 -1</clus>
<clus scale="   97.586">  1  5  2 -1</clus>
<clus scale="  113.271">  7  8 -1 -1</clus>
<clus scale="  224.227">  2  9  1 -1</clus>
<clus scale="  224.227">  2  5  1 -1</clus>
</clustering>
</event>
<event>
10    4  0.2857708E-005  0.1471386E+03  0.7546771E-02  0.1219577E+00
         -3   -1    0    0    0  501 -0.00000000000E+00  0.00000000000E+00  0.81316755426E+03  0.81316755426E+03  0.00000000000E+00 0.  1.
         21   -1    0    0  503  502  0.00000000000E+00 -0.00000000000E+00 -0.11401211190E+03  0.11401211190E+03  0.00000000000E+00 0.  1.
         24    2    1    2    0    0 -0.15692217925E+03  0.19487467243E+02  0.15811585201E+03  0.23744719577E+03  0.79851214149E+02 0.  0.
         23    2    1    2    0    0 -0.10329930676E+02 -0.64325568686E+02  0.60057160991E+02  0.12789611412E+03  0.92228342526E+02 0.  0.
        -11    1    3    3    0    0 -0.10520743842E+03  0.49410638954E+01  0.49720189405E+02  0.11646937986E+03  0.00000000000E+00 0.  1.
         12    1    3    3    0    0 -0.51714740832E+02  0.14546403347E+02  0.10839566261E+03  0.12097781591E+03  0.00000000000E+00 0. -1.
        -13    1    4    4    0    0  0.29481092478E+02 -0.99082812477E+01 -0.79797448417E+01  0.32108957920E+02  0.00000000000E+00 0. -1.
         13    1    4    4    0    0 -0.39811023154E+02 -0.54417287438E+02  0.68036905832E+02  0.95787156195E+02  0.00000000000E+00 0.  1.
         21    1    1    2  503  501  0.11742037811E+03  0.11975818394E+02  0.48768938616E+03  0.50176877423E+03  0.00000000000E+00 0.  1.
         -4    1    1    2    0  502  0.49831731822E+02  0.32862283049E+02 -0.67069567967E+01  0.60067582047E+02  0.00000000000E+00 0.  1.
<scales pt_clust_5="13000.00000" pt_clust_6="13000.00000" pt_clust_7="13000.00000" pt_clust_8="13000.00000" pt_clust_9="123.58618" pt_clust_10="59.69197"></scales>
<clustering>
<clus scale="   59.692">  2 10  1 -1</clus>
<clus scale="   79.851">  5  6 -1 -1</clus>
<clus scale="   92.228">  7  8 -1 -1</clus>
<clus scale="  105.686">  2  7  1 -1</clus>
<clus scale="  123.586">  1  9  2 -1</clus>
<clus scale="   59.692">  2  5  1 -1</clus>
</clustering>
</event>
<event>
10    4  0.2857708E-005  0.1714678E+03  0.7546771E-02  0.1178575E+00
          2   -1    0    0  503    0 -0.00000000000E+00  0.00000000000E+00  0.97617310856E+03  0.97617310856E+03  0.00000000000E+00 0. -1.
         21   -1    0    0  501  502  0.00000000000E+00 -0.00000000000E+00 -0.57386079095E+02  0.57386079095E+02  0.00000000000E+00 0. -1.
         24    2    1    2    0    0 -0.12859505757E+03 -0.18548687225E+02  0.44916575695E+03  0.47419573490E+03  0.78936526052E+02 0.  0.
         23    2    1    2    0    0  0.12035105292E+03  0.99871459230E+02  0.20063051443E+03  0.27162867161E+03  0.95240997540E+02 0.  0.
        -13    1    3    3    0    0 -0.85815332162E+02  0.42906796633E+01  0.38082166162E+03  0.39039444044E+03  0.00000000000E+00 0.  1.
         14    1    3    3    0    0 -0.42779725411E+02 -0.22839366888E+02  0.68344095334E+02  0.83801294460E+02  0.00000000000E+00 0. -1.
        -11    1    4    4    0    0  0.29425373618E+02  0.54257620553E+02  0.14050040617E+03  0.15346043833E+03  0.00000000000E+00 0.  1.
         11    1    4    4    0    0  0.90925679304E+02  0.45613838677E+02  0.60130108258E+02  0.11816823327E+03  0.00000000000E+00 0. -1.
         21    1    1    2  503  502 -0.23893473897E+02 -0.26946817806E+02  0.13302567873E+03  0.13781458663E+03  0.00000000000E+00 0. -1.
          1    1    1    2  501    0  0.32137478548E+02 -0.54375954199E+02  0.13596507935E+03  0.14992019452E+03  0.00000000000E+00 0. -1.
<scales pt_clust_5="13000.00000" pt_clust_6="13000.00000" pt_clust_7="13000.00000" pt_clust_8="13000.00000" pt_clust_9="36.01429" pt_clust_10="65.30078"></scales>
<clustering>
<clus scale="   36.014">  1  9  2 -1</clus>
<clus scale="   65.301">  2 10  1 -1</clus>
<clus scale="   78.937">  5  6 -1 -1</clus>
<clus scale="   95.241">  7  8 -1 -1</clus>
<clus scale="  162.976">  1  5  2 -1</clus>
<clus scale="   65.301">  2  5  1 -1</clus>
</clustering>
</event>
<event>
10    4  0.2857708E-005  0.3363972E+03  0.7546771E-02  0.1068341E+00
         21   -1    0    0  501  502  0.00000000000E+00  0.00000000000E+00  0.29044686787E+03  0.29044686787E+03  0.00000000000E+00 0. -1.
          2   -1    0    0  503    0 -0.00000000000E+00 -0.00000000000E+00 -0.38459306375E+03  0.38459306375E+03  0.00000000000E+00 0. -1.
         24    2    1    2    0    0 -0.15125157818E+03 -0.25328751868E+02 -0.45606736583E+01  0.17374030621E+03  0.81524896096E+02 0.  0.
         23    2    1    2    0    0 -0.99540710512E+02  0.57748796048E+02  0.68857689482E+02  0.16283862343E+03  0.92367523431E+02 0.  0.
        -11    1    3    3    0    0 -0.41068945876E+02 -0.40329166505E+02  0.17934265234E+02  0.60288787148E+02  0.00000000000E+00 0.  1.
         12    1    3    3    0    0 -0.11018263231E+03  0.15000414637E+02 -0.22494938893E+02  0.11345151906E+03  0.00000000000E+00 0. -1.
        -13    1    4    4    0    0 -0.80533440252E+02  0.53495038236E+00  0.14841324882E+02  0.81891306590E+02  0.00000000000E+00 0.  1.
         13    1    4    4    0    0 -0.19007270260E+02  0.57213845666E+02  0.54016364600E+02  0.80947316838E+02  0.00000000000E+00 0. -1.
         21    1    1    2  503  502 -0.20766453665E+02 -0.36826673103E+01 -0.30038757869E+02  0.36703332418E+02  0.00000000000E+00 0. -1.
          1    1    1    2  501    0  0.27155874236E+03 -0.28737376870E+02 -0.12840445384E+03  0.30175766957E+03  0.00000000000E+00 0. -1.
<scales pt_clust_5="13000.00000" pt_clust_6="13000.00000" pt_clust_7="13000.00000" pt_clust_8="13000.00000" pt_clust_9="21.09046" pt_clust_10="260.69078"></scales>
<clustering>
<clus scale="   21.090">  2  9  1 -1</clus>
<clus scale="   81.525">  5  6 -1 -1</clus>
<clus scale="   92.368">  7  8 -1 -1</clus>
<clus scale="  139.301">  5  7 -1 -1</clus>
<clus scale="  260.691">  1 10  2 -1</clus>
<clus scale="  260.691">  1  5  2 -1</clus>
</clustering>
</event>
<event>
10    4  0.2857708E-005  0.5014233E+03  0.7546771E-02  0.1013477E+00
          2   -1    0    0  502    0 -0.00000000000E+00  0.00000000000E+00  0.82395570765E+03  0.82395570765E+03  0.00000000000E+00 0. -1.
         21   -1    0    0  503  502  0.00000000000E+00 -0.00000000000E+00 -0.46913822242E+03  0.46913822242E+03  0.00000000000E+00 0. -1.
         23    2    1    2    0    0  0.37829670043E+03  0.32087924349E+03  0.34864425518E+03  0.61296465200E+03  0.90005363589E+02 0.  0.
         24    2    1    2    0    0 -0.34204297675E+03 -0.34765014524E+03 -0.14924380872E+03  0.51688995248E+03  0.83949312697E+02 0.  0.
        -13    1    4    4    0    0 -0.41243606360E+02 -0.51906583909E+02  0.78348400621E+01  0.66758619200E+02  0.00000000000E+00 0.  1.
         14    1    4    4    0    0 -0.30079937039E+03 -0.29574356133E+03 -0.15707864878E+03  0.45013133328E+03  0.00000000000E+00 0. -1.
        -11    1    3    3    0    0  0.27144871137E+03  0.27661373482E+03  0.25236363326E+03  0.46247915044E+03  0.00000000000E+00 0. -1.
         11    1    3    3    0    0  0.10684798906E+03  0.44265508666E+02  0.96280621919E+02  0.15048550157E+03  0.00000000000E+00 0.  1.
         21    1    1    2  503  501 -0.17076177111E+02  0.16413748080E+02  0.46746436841E+02  0.52404544727E+02  0.00000000000E+00 0.  1.
          1    1    1    2  501    0 -0.19177546574E+02  0.10357153676E+02  0.10867060193E+03  0.11083478086E+03  0.00000000000E+00 0. -1.
<scales pt_clust_5="13000.00000" pt_clust_6="13000.00000" pt_clust_7="13000.00000" pt_clust_8="13000.00000" pt_clust_9="20.61005" pt_clust_10="49.92619"></scales>
<clustering>
<clus scale="   20.610">  9 10 -1 -1</clus>
<clus scale="   49.926">  2  9  1 -1</clus>
<clus scale="   83.949">  5  6 -1 -1</clus>
<clus scale="   90.005">  7  8 -1 -1</clus>
<clus scale="  500.372">  2  5  1 -1</clus>
<clus scale="   49.926">  2  5  1 -1</clus>
</clustering>
</event>
<event>
10    4  0.2857708E-005  0.1522256E+03  0.7546771E-02  0.1199432E+00
         21   -1    0    0  501  502  0.00000000000E+00  0.00000000000E+00  0.15866120210E+03  0.15866120210E+03  0.00000000000E+00 0.  1.
          2   -1    0    0  503    0 -0.00000000000E+00 -0.00000000000E+00 -0.42621734161E+03  0.42621734161E+03  0.00000000000E+00 0. -1.
         24    2    1    2    0    0 -0.10479982575E+03 -0.38616230798E+02 -0.21343897414E+03  0.25462181165E+03  0.82473356492E+02 0.  0.
         23    2    1    2    0    0  0.17640967454E+03  0.20216949353E+02 -0.86575247402E+01  0.20007054246E+03  0.91783282316E+02 0.  0.
        -13    1    3    3    0    0 -0.94955072527E+01 -0.41559206086E+02 -0.79522710242E+02  0.90228563730E+02  0.00000000000E+00 0.  1.
         14    1    3    3    0    0 -0.95304318493E+02  0.29429752881E+01 -0.13391626390E+03  0.16439324792E+03  0.00000000000E+00 0. -1.
        -13    1    4    4    0    0  0.12895292816E+03 -0.27630398290E+02 -0.13128179392E+02  0.13253167805E+03  0.00000000000E+00 0.  1.
         13    1    4    4    0    0  0.47456746376E+02  0.47847347643E+02  0.44706546520E+01  0.67538864412E+02  0.00000000000E+00 0. -1.
         21    1    1    2  503  502  0.11858727951E+02 -0.19916448354E+02 -0.28591567647E+02  0.36807228695E+02  0.00000000000E+00 0.  1.
          1    1    1    2  501    0 -0.83468576744E+02  0.38315729799E+02 -0.16868072977E+02  0.93378960905E+02  0.00000000000E+00 0. -1.
<scales pt_clust_5="13000.00000" pt_clust_6="13000.00000" pt_clust_7="13000.00000" pt_clust_8="13000.00000" pt_clust_9="23.17961" pt_clust_10="89.18823"></scales>
<clustering>
<clus scale="   23.180">  2  9  1 -1</clus>
<clus scale="   82.473">  5  6 -1 -1</clus>
<clus scale="   89.188">  1 10  2 -1</clus>
<clus scale="   91.783">  7  8 -1 -1</clus>
<clus scale="  146.800">  2  5  1 -1</clus>
<clus scale="   89.188">  1  5  2 -1</clus>
</clustering>
</event>
<event>
10    4  0.2857708E-005  0.1369494E+03  0.7546771E-02  0.1220303E+00
          2   -1    0    0  503    0 -0.00000000000E+00  0.00000000000E+00  0.15323104805E+04  0.15323104805E+04  0.00000000000E+00 0. -1.
         21   -1    0    0  501  502  0.00000000000E+00 -0.00000000000E+00 -0.42194613161E+02  0.42194613161E+02  0.00000000000E+00 0. -1.
         24    2    1    2    0    0  0.32133883565E+02  0.10099218920E+03  0.42863446036E+03  0.44892735483E+03  0.81094146253E+02 0.  0.
         23    2    1    2    0    0 -0.23149916238E+01 -0.10172047346E+03  0.34695995142E+03  0.37336342407E+03  0.93094707892E+02 0.  0.
        -11    1    3    3    0    0  0.26903057389E+02  0.28784447940E+00  0.15469446174E+03  0.15701666741E+03  0.00000000000E+00 0.  1.
         12    1    3    3    0    0  0.52308261759E+01  0.10070434472E+03  0.27393999862E+03  0.29191068742E+03  0.00000000000E+00 0. -1.
        -13    1    4    4    0    0 -0.35299870772E+02 -0.71894685602E+01  0.12024019922E+03  0.12552081438E+03  0.00000000000E+00 0.  1.
         13    1    4    4    0    0  0.32984879148E+02 -0.94531004900E+02  0.22671975219E+03  0.24784260968E+03  0.00000000000E+00 0. -1.
         21    1    1    2  503  502  0.86289813665E+02 -0.50499904182E+02  0.41582815551E+03  0.42767888325E+03  0.00000000000E+00 0. -1.
          1    1    1    2  501    0 -0.11610870561E+03  0.51228188445E+02  0.29869330006E+03  0.32453543152E+03  0.00000000000E+00 0. -1.
<scales pt_clust_5="13000.00000" pt_clust_6="13000.00000" pt_clust_7="13000.00000" pt_clust_8="13000.00000" pt_clust_9="99.98086" pt_clust_10="99.08720"></scales>
<clustering>
<clus scale="   81.094">  5  6 -1 -1</clus>
<clus scale="   93.095">  7  8 -1 -1</clus>
<clus scale="   99.981">  1  9  2 -1</clus>
<clus scale="   99.087">  2 10  1 -1</clus>
<clus scale="  129.092">  1  5  2 -1</clus>
<clus scale="   99.087">  2  5  1 -1</clus>
</clustering>
</event>
<event>
10    4  0.2857708E-005  0.1272685E+03  0.7546771E-02  0.1239580E+00
         21   -1    0    0  503  502  0.00000000000E+00  0.00000000000E+00  0.20504797464E+03  0.20504797464E+03  0.00000000000E+00 0. -1.
         -1   -1    0    0    0  501 -0.00000000000E+00 -0.00000000000E+00 -0.15561569445E+03  0.15561569445E+03  0.00000000000E+00 0.  1.
         23    2    1    2    0    0 -0.61575158228E+02 -0.31809708801E+02 -0.31715583709E+02  0.12918721992E+03  0.10430772674E+03 0.  0.
         24    2    1    2    0    0  0.87096521650E+02 -0.64474774622E+01  0.50211649503E+02  0.12845358753E+03  0.79697806461E+02 0.  0.
        -11    1    4    4    0    0  0.68965116946E+02  0.22744301172E+02  0.65830873476E+01  0.72916579940E+02  0.00000000000E+00 0.  1.
         12    1    4    4    0    0  0.18131404704E+02 -0.29191778635E+02  0.43628562156E+02  0.55537007591E+02  0.00000000000E+00 0. -1.
        -13    1    3    3    0    0  0.26524975316E+02 -0.15095973583E+01 -0.23829623108E+02  0.35688991821E+02  0.00000000000E+00 0. -1.
         13    1    3    3    0    0 -0.88100133544E+02 -0.30300111443E+02 -0.78859606010E+01  0.93498228104E+02  0.00000000000E+00 0.  1.
         21    1    1    2  503  501 -0.69007656126E+01  0.65116423064E+02  0.18383795208E+02  0.68012741784E+02  0.00000000000E+00 0.  1.
         -2    1    1    2    0  502 -0.18620597809E+02 -0.26859236801E+02  0.12552419196E+02  0.35010119851E+02  0.00000000000E+00 0.  1.
<scales pt_clust_5="13000.00000" pt_clust_6="13000.00000" pt_clust_7="13000.00000" pt_clust_8="13000.00000" pt_clust_9="59.80024" pt_clust_10="32.68249"></scales>
<clustering>
<clus scale="   32.682">  1 10  2 -1</clus>
<clus scale="   59.800">  1  9  2 -1</clus>
<clus scale="   79.698">  5  6 -1 -1</clus>
<clus scale="  104.308">  7  8 -1 -1</clus>
<clus scale="  108.023">  1  5  2 -1</clus>
<clus scale="   32.682">  1  5  2 -1</clus>
</clustering>
</event>
<event>
10    4  0.2857708E-005  0.1185384E+03  0.7546771E-02  0.1249254E+00
          2   -1    0    0  503    0 -0.00000000000E+00  0.00000000000E+00  0.22146312211E+03  0.22146312211E+03  0.00000000000E+00 0. -1.
         21   -1    0    0  501  502  0.00000000000E+00 -0.00000000000E+00 -0.78725171495E+03  0.78725171495E+03  0.00000000000E+00 0. -1.
         23    2    1    2    0    0 -0.34733993360E+02  0.87314702497E+02  0.11660664527E+03  0.17574774920E+03  0.91977464974E+02 0.  0.
         24    2    1    2    0    0 -0.58339538887E+02 -0.14315845534E+02 -0.42623816474E+03  0.43794483927E+03  0.80673811923E+02 0.  0.
        -13    1    4    4    0    0 -0.44455439422E+02 -0.46561357149E+02 -0.24358006962E+03  0.25194343887E+03  0.00000000000E+00 0.  1.
         14    1    4    4    0    0 -0.13884099465E+02  0.32245511614E+02 -0.18265809512E+03  0.18600140040E+03  0.00000000000E+00 0. -1.
        -13    1    3    3    0    0  0.24649344447E+02  0.64501442370E+01  0.55350404582E+01  0.26073573120E+02  0.00000000000E+00 0.  1.
         13    1    3    3    0    0 -0.59383337807E+02  0.80864558260E+02  0.11107160481E+03  0.14967417608E+03  0.00000000000E+00 0. -1.
         21    1    1    2  503  502  0.94498886430E+02 -0.32157103964E+02  0.31348178591E+02  0.10462708623E+03  0.00000000000E+00 0. -1.
          1    1    1    2  501    0 -0.14253541825E+01 -0.40841752999E+02 -0.28750525195E+03  0.29039516236E+03  0.00000000000E+00 0. -1.
<scales pt_clust_5="13000.00000" pt_clust_6="13000.00000" pt_clust_7="13000.00000" pt_clust_8="13000.00000" pt_clust_9="100.72973" pt_clust_10="40.86662"></scales>
<clustering>
<clus scale="   40.867">  2 10  1 -1</clus>
<clus scale="   80.674">  5  6 -1 -1</clus>
<clus scale="   91.977">  7  8 -1 -1</clus>
<clus scale="  100.730">  1  9  2 -1</clus>
<clus scale="  109.999">  2  5  1 -1</clus>
<clus scale="   40.867">  2  5  1 -1</clus>
</clustering>
</event>
<event>
10    4  0.2857708E-005  0.1333892E+03  0.7546771E-02  0.1225456E+00
          2   -1    0    0  503    0 -0.00000000000E+00  0.00000000000E+00  0.10265318214E+04  0.10265318214E+04  0.00000000000E+00 0. -1.
         21   -1    0    0  501  502  0.00000000000E+00 -0.00000000000E+00 -0.10738054448E+03  0.10738054448E+03  0.00000000000E+00 0.  1.
         24    2    1    2    0    0 -0.27427666800E+02 -0.72016162997E+02  0.26792419871E+03  0.29031015683E+03  0.80981518053E+02 0.  0.
         23    2    1    2    0    0 -0.75663158519E+02  0.77645294705E+02  0.50144204855E+01  0.14280425830E+03  0.92812749275E+02 0.  0.
        -13    1    3    3    0    0  0.18735752103E+02  0.71833261724E+01  0.51571395824E+02  0.55337486833E+02  0.00000000000E+00 0.  1.
         14    1    3    3    0    0 -0.46163418903E+02 -0.79199489170E+02  0.21635280288E+03  0.23497266999E+03  0.00000000000E+00 0. -1.
        -13    1    4    4    0    0 -0.23790419579E+02  0.82903779880E+02  0.20033003030E+02  0.88545705670E+02  0.00000000000E+00 0.  1.
         13    1    4    4    0    0 -0.51872738940E+02 -0.52584851753E+01 -0.15018582545E+02  0.54258552627E+02  0.00000000000E+00 0. -1.
         21    1    1    2  503  502  0.88232513966E+02 -0.20569077681E+02  0.66585591862E+03  0.67199119625E+03  0.00000000000E+00 0. -1.
          1    1    1    2  501    0  0.14858311353E+02  0.14939945974E+02 -0.19643260935E+02  0.28806754453E+02  0.00000000000E+00 0. -1.
<scales pt_clust_5="13000.00000" pt_clust_6="13000.00000" pt_clust_7="13000.00000" pt_clust_8="13000.00000" pt_clust_9="91.00945" pt_clust_10="21.07063"></scales>
<clustering>
<clus scale="   21.071">  2 10  1 -1</clus>
<clus scale="   80.982">  5  6 -1 -1</clus>
<clus scale="   91.009">  1  9  2 -1</clus>
<clus scale="   92.813">  7  8 -1 -1</clus>
<clus scale="  125.445">  1  5  2 -1</clus>
<clus scale="   21.071">  2  5  1 -1</clus>
</clustering>
</event>
<event>
10    4  0.2857708E-005  0.1459426E+03  0.7546771E-02  0.1226785E+00
          2   -1    0    0  503    0 -0.00000000000E+00  0.00000000000E+00  0.47223131769E+03  0.47223131769E+03  0.00000000000E+00 0. -1.
         21   -1    0    0  501  502  0.00000000000E+00 -0.00000000000E+00 -0.15565128791E+03  0.15565128791E+03  0.00000000000E+00 0. -1.
         24    2    1    2    0    0  0.66472552533E+02  0.40525384101E+02  0.19066114974E+03  0.22102656872E+03  0.80250626557E+02 0.  0.
         23    2    1    2    0    0  0.93118963755E+02 -0.53343108575E+02  0.67726624177E+02  0.15607544748E+03  0.90862649306E+02 0.  0.
        -11    1    3    3    0    0  0.72620264289E+01  0.50761713008E+02  0.97621448304E+02  0.11026983134E+03  0.00000000000E+00 0.  1.
         12    1    3    3    0    0  0.59210526105E+02 -0.10236328907E+02  0.93039701431E+02  0.11075673737E+03  0.00000000000E+00 0. -1.
        -11    1    4    4    0    0  0.53362640788E+02 -0.77294037458E+02  0.40678243899E+02  0.10235555278E+03  0.00000000000E+00 0. -1.
         11    1    4    4    0    0  0.39756322968E+02  0.23950928883E+02  0.27048380278E+02  0.53719894694E+02  0.00000000000E+00 0.  1.
         21    1    1    2  503  502 -0.48013083876E+02 -0.22923923275E+02  0.11036954409E+03  0.12252427818E+03  0.00000000000E+00 0.  1.
          1    1    1    2  501    0 -0.11157843241E+03  0.35741647749E+02 -0.52177288220E+02  0.12825631123E+03  0.00000000000E+00 0. -1.
<scales pt_clust_5="13000.00000" pt_clust_6="13000.00000" pt_clust_7="13000.00000" pt_clust_8="13000.00000" pt_clust_9="53.20491" pt_clust_10="114.20691"></scales>
<clustering>
<clus scale="   53.205">  1  9  2 -1</clus>
<clus scale="   80.251">  5  6 -1 -1</clus>
<clus scale="   90.863">  7  8 -1 -1</clus>
<clus scale="   93.170">  1  5  2 -1</clus>
<clus scale="  114.207">  2 10  1 -1</clus>
<clus scale="  114.207">  2  5  1 -1</clus>
</clustering>
</event>
<event>
10    4  0.2857708E-005  0.1387079E+03  0.7546771E-02  0.1223204E+00
         -1   -1    0    0    0  501 -0.00000000000E+00  0.00000000000E+00  0.11622606354E+03  0.11622606354E+03  0.00000000000E+00 0.  1.
         21   -1    0    0  503  502  0.00000000000E+00 -0.00000000000E+00 -0.96607192938E+03  0.96607192938E+03  0.00000000000E+00 0. -1.
         24    2    1    2    0    0 -0.62091716608E+02 -0.33954115735E+02 -0.61865610376E+03  0.62927923415E+03  0.90822445283E+02 0.  0.
         23    2    1    2    0    0 -0.64039440387E+02  0.71221418541E+02 -0.18708200805E+03  0.22823391115E+03  0.88980335333E+02 0.  0.
        -11    1    3    3    0    0  0.22935727326E+02  0.19671134515E+00 -0.10053861413E+03  0.10312176887E+03  0.00000000000E+00 0.  1.
         12    1    3    3    0    0 -0.85027443933E+02 -0.34150827080E+02 -0.51811748962E+03  0.52615746528E+03  0.00000000000E+00 0. -1.
        -13    1    4    4    0    0 -0.55044393128E+02 -0.30363676008E+01 -0.67058610470E+02  0.86809918680E+02  0.00000000000E+00 0.  1.
         13    1    4    4    0    0 -0.89950472598E+01  0.74257786142E+02 -0.12002339758E+03  0.14142399247E+03  0.00000000000E+00 0. -1.
         21    1    1    2  503  501 -0.36446477333E+02 -0.24257241221E+02  0.21758604637E+02  0.48889634252E+02  0.00000000000E+00 0. -1.
         -2    1    1    2    0  502  0.16257763433E+03 -0.13010061585E+02 -0.65866358669E+02  0.17589521338E+03  0.00000000000E+00 0.  1.
<scales pt_clust_5="13000.00000" pt_clust_6="13000.00000" pt_clust_7="13000.00000" pt_clust_8="13000.00000" pt_clust_9="43.78081" pt_clust_10="106.40677"></scales>
<clustering>
<clus scale="   43.781">  1  9  2 -1</clus>
<clus scale="   88.980">  7  8 -1 -1</clus>
<clus scale="   90.822">  5  6 -1 -1</clus>
<clus scale="  116.921">  1  5  2 -1</clus>
<clus scale="  106.407">  2 10  1 -1</clus>
<clus scale="  106.407">  2  5  1 -1</clus>
</clustering>
</event>
<event>
10    4  0.2857708E-005  0.1471606E+03  0.7546771E-02  0.1205783E+00
         -3   -1    0    0    0  501 -0.00000000000E+00  0.00000000000E+00  0.55419175628E+03  0.55419175628E+03  0.00000000000E+00 0.  1.
         21   -1    0    0  503  502  0.00000000000E+00 -0.00000000000E+00 -0.22789036594E+03  0.22789036594E+03  0.00000000000E+00 0.  1.
         24    2    1    2    0    0  0.67912931527E+02 -0.84775482429E+02  0.43775041676E+03  0.45996682342E+03  0.90249668039E+02 0.  0.
         23    2    1    2    0    0 -0.64622340812E+02  0.23849269580E+02 -0.52750179671E+01  0.12047221524E+03  0.98695968708E+02 0.  0.
        -13    1    3    3    0    0  0.83096037751E+01 -0.51895628420E+02  0.31720669105E+03  0.32153116585E+03  0.00000000000E+00 0.  1.
         14    1    3    3    0    0  0.59603327752E+02 -0.32879854009E+02  0.12054372571E+03  0.13843565757E+03  0.00000000000E+00 0. -1.
        -11    1    4    4    0    0 -0.16645588717E+02 -0.12243300447E+02  0.40171222382E+02  0.45174120216E+02  0.00000000000E+00 0.  1.
         11    1    4    4    0    0 -0.47976752095E+02  0.36092570027E+02 -0.45446240349E+02  0.75298095027E+02  0.00000000000E+00 0. -1.
         21    1    1    2  503  501  0.26500229184E+02  0.50479713417E+01  0.36593459897E+02  0.45462352212E+02  0.00000000000E+00 0.  1.
         -4    1    1    2    0  502 -0.29790819899E+02  0.55878241507E+02 -0.14276746835E+03  0.15618073135E+03  0.00000000000E+00 0.  1.
<scales pt_clust_5="13000.00000" pt_clust_6="13000.00000" pt_clust_7="13000.00000" pt_clust_8="13000.00000" pt_clust_9="26.97673" pt_clust_10="63.21972"></scales>
<clustering>
<clus scale="   26.977">  1  9  2 -1</clus>
<clus scale="   63.220">  2 10  1 -1</clus>
<clus scale="   90.250">  5  6 -1 -1</clus>
<clus scale="   98.696">  7  8 -1 -1</clus>
<clus scale="  141.635">  1  5  2 -1</clus>
<clus scale="   63.220">  2  5  1 -1</clus>
</clustering>
</event>
<event>
10    4  0.2857708E-005  0.1647093E+03  0.7546771E-02  0.1200679E+00
         21   -1    0    0  501  502  0.00000000000E+00  0.00000000000E+00  0.64366354364E+02  0.64366354364E+02  0.00000000000E+00 0. -1.
          2   -1    0    0  503    0 -0.00000000000E+00 -0.00000000000E+00 -0.18745347379E+04  0.18745347379E+04  0.00000000000E+00 0. -1.
         24    2    1    2    0    0  0.64502703803E+02 -0.40121011052E+02 -0.35459511368E+03  0.37139663452E+03  0.80171510877E+02 0.  0.
         23    2    1    2    0    0 -0.86512745174E+02 -0.20134455636E+02 -0.49366565394E+02  0.14196498081E+03  0.99131965668E+02 0.  0.
        -11    1    3    3    0    0  0.52276739733E+02 -0.36931875298E+02 -0.11616156239E+03  0.13262853956E+03  0.00000000000E+00 0.  1.
         12    1    3    3    0    0  0.12225964069E+02 -0.31891357536E+01 -0.23843355130E+03  0.23876809495E+03  0.00000000000E+00 0. -1.
        -11    1    4    4    0    0 -0.38964214417E+02  0.55488033841E+01 -0.73037432362E+02  0.82966654447E+02  0.00000000000E+00 0.  1.
         11    1    4    4    0    0 -0.47548530757E+02 -0.25683259020E+02  0.23670866967E+02  0.58998326367E+02  0.00000000000E+00 0. -1.
         21    1    1    2  503  502  0.50119842695E+02  0.14037949321E+03 -0.89042372707E+03  0.90281383157E+03  0.00000000000E+00 0. -1.
          1    1    1    2  501    0 -0.28109801324E+02 -0.80124026526E+02 -0.51578297743E+03  0.52272564540E+03  0.00000000000E+00 0. -1.
<scales pt_clust_5="13000.00000" pt_clust_6="13000.00000" pt_clust_7="13000.00000" pt_clust_8="13000.00000" pt_clust_9="131.53715" pt_clust_10="84.91188"></scales>
<clustering>
<clus scale="   80.172">  5  6 -1 -1</clus>
<clus scale="   84.912">  1 10  2 -1</clus>
<clus scale="   99.132">  7  8 -1 -1</clus>
<clus scale="  112.790">  2  5  1 -1</clus>
<clus scale="  131.537">  2  9  1 -1</clus>
<clus scale="   84.912">  1  5  2 -1</clus>
</clustering>
</event>
<event>
10    4  0.2857708E-005  0.1441937E+03  0.7546771E-02  0.1210184E+00
         -1   -1    0    0    0  501 -0.00000000000E+00  0.00000000000E+00  0.11046434774E+04  0.11046434774E+04  0.00000000000E+00 0.  1.
         21   -1    0    0  503  502  0.00000000000E+00 -0.00000000000E+00 -0.95631824786E+02  0.95631824786E+02  0.00000000000E+00 0.  1.
         24    2    1    2    0    0 -0.23564957370E+02 -0.35779255578E+02  0.55554223133E+03  0.56314180965E+03  0.81645971400E+02 0.  0.
         23    2    1    2    0    0  0.18088551311E+03  0.66509804792E+02  0.32190998835E+03  0.38659402213E+03  0.93197501912E+02 0.  0.
        -11    1    3    3    0    0  0.26957899436E+02 -0.30429990324E+02  0.21193354476E+03  0.21579745144E+03  0.00000000000E+00 0.  1.
         12    1    3    3    0    0 -0.50522856806E+02 -0.53492652540E+01  0.34360868657E+03  0.34734435821E+03  0.00000000000E+00 0. -1.
        -11    1    4    4    0    0  0.19553686072E+02 -0.21181970226E+02  0.61875582372E+02  0.68261337487E+02  0.00000000000E+00 0. -1.
         11    1    4    4    0    0  0.16133182704E+03  0.87691775017E+02  0.26003440598E+03  0.31833268465E+03  0.00000000000E+00 0.  1.
         21    1    1    2  503  501 -0.65868593703E+02 -0.42052350031E+02  0.13754503392E+03  0.15819515838E+03  0.00000000000E+00 0. -1.
         -2    1    1    2    0  502 -0.91451962042E+02  0.11321800817E+02 -0.59856010212E+01  0.92344311978E+02  0.00000000000E+00 0.  1.
<scales pt_clust_5="13000.00000" pt_clust_6="13000.00000" pt_clust_7="13000.00000" pt_clust_8="13000.00000" pt_clust_9="78.14776" pt_clust_10="94.89373"></scales>
<clustering>
<clus scale="   78.148">  1  9  2 -1</clus>
<clus scale="   81.646">  5  6 -1 -1</clus>
<clus scale="   93.198">  7  8 -1 -1</clus>
<clus scale="   94.894">  2 10  1 -1</clus>
<clus scale="  137.011">  1  5  2 -1</clus>
<clus scale="   94.894">  2  5  1 -1</clus>
</clustering>
</event>
<event>
10    4  0.2857708E-005  0.9495969E+02  0.7546771E-02  0.1296309E+00
         21   -1    0    0  501  502  0.00000000000E+00  0.00000000000E+00  0.13446395389E+03  0.13446395389E+03  0.00000000000E+00 0. -1.
          2   -1    0    0  503    0 -0.00000000000E+00 -0.00000000000E+00 -0.47547426227E+03  0.47547426227E+03  0.00000000000E+00 0. -1.
         24    2    1    2    0    0  0.51325110390E+02  0.82583228718E+02 -0.19458532316E+03  0.23230811331E+03  0.81543576693E+02 0.  0.
         23    2    1    2    0    0 -0.28129075399E+01  0.25603602359E+01  0.63902130932E+02  0.11086377307E+03  0.90514230646E+02 0.  0.
        -11    1    3    3    0    0  0.19509124215E+01  0.75912258945E+02 -0.10193351779E+03  0.12710987045E+03  0.00000000000E+00 0.  1.
         12    1    3    3    0    0  0.49374197969E+02  0.66709697733E+01 -0.92651805369E+02  0.10519824286E+03  0.00000000000E+00 0. -1.
        -13    1    4    4    0    0  0.37653354816E+02  0.21056487875E+02  0.17437421021E+02  0.46531865022E+02  0.00000000000E+00 0. -1.
         13    1    4    4    0    0 -0.40466262356E+02 -0.18496127639E+02  0.46464709910E+02  0.64331908053E+02  0.00000000000E+00 0.  1.
         21    1    1    2  503  502 -0.29236983262E+02 -0.69873845866E+02 -0.22549344877E+03  0.23787486409E+03  0.00000000000E+00 0. -1.
          1    1    1    2  501    0 -0.19275219588E+02 -0.15269743087E+02  0.15166332620E+02  0.28891465682E+02  0.00000000000E+00 0. -1.
<scales pt_clust_5="13000.00000" pt_clust_6="13000.00000" pt_clust_7="13000.00000" pt_clust_8="13000.00000" pt_clust_9="76.93205" pt_clust_10="24.59063"></scales>
<clustering>
<clus scale="   24.591">  1 10  2 -1</clus>
<clus scale="   76.932">  2  9  1 -1</clus>
<clus scale="   81.544">  5  6 -1 -1</clus>
<clus scale="   86.452">  2  5  1 -1</clus>
<clus scale="   90.514">  7  8 -1 -1</clus>
<clus scale="   24.591">  1  5  2 -1</clus>
</clustering>
</event>
<event>
10    4  0.2857708E-005  0.2650459E+03  0.7546771E-02  0.1138851E+00
         -3   -1    0    0    0  501 -0.00000000000E+00  0.00000000000E+00  0.56928829598E+03  0.56928829598E+03  0.00000000000E+00 0.  1.
         21   -1    0    0  503  502  0.00000000000E+00 -0.00000000000E+00 -0.54950963710E+03  0.54950963710E+03  0.00000000000E+00 0. -1.
         24    2    1    2    0    0 -0.84999878225E+02  0.93376895389E+01  0.19781643505E+03  0.22922644280E+03  0.78110488144E+02 0.  0.
         23    2    1    2    0    0 -0.21682906776E+03 -0.81662288160E+02 -0.33682476771E+03  0.41929676516E+03  0.93141178846E+02 0.  0.
        -13    1    3    3    0    0 -0.95981331360E+02  0.22017339395E+02  0.17637507235E+03  0.20200333005E+03  0.00000000000E+00 0.  1.
         14    1    3    3    0    0  0.10981453135E+02 -0.12679649857E+02  0.21441362695E+02  0.27223112748E+02  0.00000000000E+00 0. -1.
        -11    1    4    4    0    0 -0.89963851515E+02 -0.87289688115E+01 -0.19769749397E+03  0.21737982565E+03  0.00000000000E+00 0.  1.
         11    1    4    4    0    0 -0.12686521624E+03 -0.72933319348E+02 -0.13912727374E+03  0.20191693951E+03  0.00000000000E+00 0. -1.
         21    1    1    2  503  501  0.13106736811E+02 -0.46370999273E+02  0.15046758113E+03  0.15799540846E+03  0.00000000000E+00 0.  1.
         -4    1    1    2    0  502  0.28872220917E+03  0.11869559789E+03  0.83194104219E+01  0.31227931667E+03  0.00000000000E+00 0.  1.
<scales pt_clust_5="13000.00000" pt_clust_6="13000.00000" pt_clust_7="13000.00000" pt_clust_8="13000.00000" pt_clust_9="48.18772" pt_clust_10="248.14132"></scales>
<clustering>
<clus scale="   48.188">  1  9  2 -1</clus>
<clus scale="   78.110">  5  6 -1 -1</clus>
<clus scale="   93.141">  7  8 -1 -1</clus>
<clus scale="  111.518">  1  5  2 -1</clus>
<clus scale="  248.141">  2 10  1 -1</clus>
<clus scale="  248.141">  2  5  1 -1</clus>
</clustering>
</event>
<event>
10    4  0.2857708E-005  0.2436982E+03  0.7546771E-02  0.1117353E+00
         21   -1    0    0  501  502  0.00000000000E+00  0.00000000000E+00  0.32374014709E+02  0.32374014709E+02  0.00000000000E+00 0.  1.
          2   -1    0    0  503    0 -0.00000000000E+00 -0.00000000000E+00 -0.15899406718E+04  0.15899406718E+04  0.00000000000E+00 0. -1.
         24    2    1    2    0    0  0.61684830126E+02  0.52148400129E+02 -0.44592506590E+03  0.46033882163E+03  0.80859089772E+02 0.  0.
         23    2    1    2    0    0  0.10380385986E+03  0.17578864418E+02 -0.37921109672E+03  0.40117746292E+03  0.77833431665E+02 0.  0.
        -11    1    3    3    0    0 -0.13375522360E+02  0.20728565034E+02 -0.45777262499E+02  0.52001305452E+02  0.00000000000E+00 0.  1.
         12    1    3    3    0    0  0.75060352485E+02  0.31419835095E+02 -0.40014780340E+03  0.40833751617E+03  0.00000000000E+00 0. -1.
        -11    1    4    4    0    0 -0.57195473070E+01  0.20027993197E+02 -0.75156928807E+02  0.77989728045E+02  0.00000000000E+00 0. -1.
         11    1    4    4    0    0  0.10952340717E+03 -0.24491287789E+01 -0.30405416791E+03  0.32318773488E+03  0.00000000000E+00 0.  1.
         21    1    1    2  503  502 -0.19466590756E+02  0.19480362378E+02 -0.19089648096E+03  0.19287275370E+03  0.00000000000E+00 0. -1.
          1    1    1    2  501    0 -0.14602209923E+03 -0.89207626925E+02 -0.54153401348E+03  0.56792564823E+03  0.00000000000E+00 0. -1.
<scales pt_clust_5="13000.00000" pt_clust_6="13000.00000" pt_clust_7="13000.00000" pt_clust_8="13000.00000" pt_clust_9="27.53966" pt_clust_10="174.00163"></scales>
<clustering>
<clus scale="   27.540">  2  9  1 -1</clus>
<clus scale="   77.833">  7  8 -1 -1</clus>
<clus scale="   80.859">  5  6 -1 -1</clus>
<clus scale="   97.473">  5  7 -1 -1</clus>
<clus scale="  174.002">  1 10  2 -1</clus>
<clus scale="  174.002">  1  5  2 -1</clus>
</clustering>
</event>
<event>
10    4  0.2857708E-005  0.8726222E+02  0.7546771E-02  0.1311147E+00
         21   -1    0    0  501  502  0.00000000000E+00  0.00000000000E+00  0.88484526488E+03  0.88484526488E+03  0.00000000000E+00 0. -1.
          4   -1    0    0  503    0 -0.00000000000E+00 -0.00000000000E+00 -0.48459864211E+02  0.48459864211E+02  0.00000000000E+00 0. -1.
         24    2    1    2    0    0  0.24189632349E+02  0.40965544764E+02  0.47905932714E+02  0.10495429763E+03  0.80356157390E+02 0.  0.
         23    2    1    2    0    0 -0.35056096633E+02  0.14193779886E+02  0.37658416632E+03  0.38744465916E+03  0.82869392938E+02 0.  0.
        -11    1    3    3    0    0  0.45423783711E+02  0.32383083513E+02  0.57508245187E+02  0.80119800854E+02  0.00000000000E+00 0.  1.
         12    1    3    3    0    0 -0.21234151363E+02  0.85824612508E+01 -0.96023124721E+01  0.24834496774E+02  0.00000000000E+00 0. -1.
        -13    1    4    4    0    0 -0.37204679925E+02 -0.29394429427E+02  0.20148149603E+03  0.20698554040E+03  0.00000000000E+00 0.  1.
         13    1    4    4    0    0  0.21485832921E+01  0.43588209313E+02  0.17510267029E+03  0.18045911876E+03  0.00000000000E+00 0. -1.
         21    1    1    2  503  502 -0.24289939247E+02 -0.10162099333E+02  0.13031048920E+01  0.26362236131E+02  0.00000000000E+00 0. -1.
          3    1    1    2  501    0  0.35156403532E+02 -0.44997225316E+02  0.41059219674E+03  0.41454393618E+03  0.00000000000E+00 0. -1.
<scales pt_clust_5="13000.00000" pt_clust_6="13000.00000" pt_clust_7="13000.00000" pt_clust_8="13000.00000" pt_clust_9="26.33001" pt_clust_10="56.73792"></scales>
<clustering>
<clus scale="   26.330">  2  9  1 -1</clus>
<clus scale="   56.738">  1 10  2 -1</clus>
<clus scale="   80.356">  5  6 -1 -1</clus>
<clus scale="   82.869">  7  8 -1 -1</clus>
<clus scale="   84.879">  2  5  1 -1</clus>
<clus scale="   56.738">  1  5  2 -1</clus>
</clustering>
</event>
<event>
10    4  0.2857708E-005  0.1073966E+03  0.7546771E-02  0.1268736E+00
         -3   -1    0    0    0  501 -0.00000000000E+00  0.00000000000E+00  0.11726480521E+03  0.11726480521E+03  0.00000000000E+00 0.  1.
         21   -1    0    0  503  502  0.00000000000E+00 -0.00000000000E+00 -0.35306986763E+03  0.35306986763E+03  0.00000000000E+00 0. -1.
         24    2    1    2    0    0 -0.21802126523E+02 -0.74294788474E+02 -0.61309983192E+02  0.12938749502E+03  0.83589242810E+02 0.  0.
         23    2    1    2    0    0  0.19684219344E+02  0.14840504175E+02 -0.21261604848E+03  0.23275730052E+03  0.91447623347E+02 0.  0.
        -13    1    3    3    0    0 -0.34568982401E+02 -0.76475260730E+02 -0.73530498651E+02  0.11158052823E+03  0.00000000000E+00 0.  1.
         14    1    3    3    0    0  0.12766855878E+02  0.21804722556E+01  0.12220515459E+02  0.17806966793E+02  0.00000000000E+00 0. -1.
        -11    1    4    4    0    0  0.22249551719E+02 -0.24697718245E+02 -0.26617032742E+02  0.42585047496E+02  0.00000000000E+00 0.  1.
         11    1    4    4    0    0 -0.25653323751E+01  0.39538222420E+02 -0.18599901574E+03  0.19017225302E+03  0.00000000000E+00 0. -1.
         21    1    1    2  503  501  0.30765906341E+02  0.80184179477E+01  0.37694735294E+02  0.49312565216E+02  0.00000000000E+00 0.  1.
         -4    1    1    2    0  502 -0.28647999162E+02  0.51435866352E+02  0.42623395830E+00  0.58877312088E+02  0.00000000000E+00 0.  1.
<scales pt_clust_5="13000.00000" pt_clust_6="13000.00000" pt_clust_7="13000.00000" pt_clust_8="13000.00000" pt_clust_9="31.79365" pt_clust_10="57.03228"></scales>
<clustering>
<clus scale="   31.794">  1  9  2 -1</clus>
<clus scale="   57.032">  2 10  1 -1</clus>
<clus scale="   83.589">  5  6 -1 -1</clus>
<clus scale="   91.448">  7  8 -1 -1</clus>
<clus scale="  100.789">  1  5  2 -1</clus>
<clus scale="   57.032">  2  5  1 -1</clus>
</clustering>
</event>
<event>
10    4  0.2857708E-005  0.1320137E+03  0.7546771E-02  0.1236983E+00
         -1   -1    0    0    0  501 -0.00000000000E+00  0.00000000000E+00  0.26279817798E+03  0.26279817798E+03  0.00000000000E+00 0.  1.
         21   -1    0    0  503  502  0.00000000000E+00 -0.00000000000E+00 -0.15040710598E+03  0.15040710598E+03  0.00000000000E+00 0. -1.
         24    2    1    2    0    0  0.41760973105E+02 -0.41330074243E+02  0.57525646700E+02  0.11557353410E+03  0.81215071535E+02 0.  0.
         23    2    1    2    0    0  0.45275392139E+02  0.73051046901E+02 -0.16773139071E+02  0.12704286581E+03  0.92044744405E+02 0.  0.
        -11    1    3    3    0    0 -0.14156208915E+02 -0.18548809347E+02 -0.96499838825E+01  0.25250322136E+02  0.00000000000E+00 0.  1.
         12    1    3    3    0    0  0.55917182020E+02 -0.22781264896E+02  0.67175630582E+02  0.90323211964E+02  0.00000000000E+00 0. -1.
        -11    1    4    4    0    0  0.37595180374E+02  0.46235175552E+02  0.34366426865E+02  0.68790554156E+02  0.00000000000E+00 0.  1.
         11    1    4    4    0    0  0.76802117651E+01  0.26815871349E+02 -0.51139565936E+02  0.58252311655E+02  0.00000000000E+00 0. -1.
         21    1    1    2  503  501  0.21506903044E+02  0.13797027619E+02  0.42084354761E+02  0.49234111806E+02  0.00000000000E+00 0. -1.
         -2    1    1    2    0  502 -0.10854326829E+03 -0.45518000277E+02  0.29554209606E+02  0.12135477224E+03  0.00000000000E+00 0.  1.
<scales pt_clust_5="13000.00000" pt_clust_6="13000.00000" pt_clust_7="13000.00000" pt_clust_8="13000.00000" pt_clust_9="25.55200" pt_clust_10="94.63286"></scales>
<clustering>
<clus scale="   25.552">  1  9  2 -1</clus>
<clus scale="   81.215">  5  6 -1 -1</clus>
<clus scale="   92.045">  7  8 -1 -1</clus>
<clus scale="  102.045">  1  5  2 -1</clus>
<clus scale="   94.633">  2 10  1 -1</clus>
<clus scale="   94.633">  2  5  1 -1</clus>
</clustering>
</event>
<event>
10    4  0.2857708E-005  0.9701842E+02  0.7546771E-02  0.1294996E+00
         21   -1    0    0  501  502  0.00000000000E+00  0.00000000000E+00  0.26805893331E+03  0.26805893331E+03  0.00000000000E+00 0.  1.
          2   -1    0    0  503    0 -0.00000000000E+00 -0.00000000000E+00 -0.40380530969E+03  0.40380530969E+03  0.00000000000E+00 0. -1.
         24    2    1    2    0    0  0.46255305303E+01  0.39405735190E+02 -0.22799456347E+03  0.24404754089E+03  0.77482086586E+02 0.  0.
         23    2    1    2    0    0  0.27257200411E+02 -0.58292958115E+01  0.20415218123E+03  0.22576860148E+03  0.92284411752E+02 0.  0.
        -13    1    3    3    0    0  0.12268408677E+02  0.61206153591E+02 -0.14430250965E+03  0.15722570204E+03  0.00000000000E+00 0.  1.
         14    1    3    3    0    0 -0.76428781472E+01 -0.21800418402E+02 -0.83692053818E+02  0.86821838849E+02  0.00000000000E+00 0. -1.
        -11    1    4    4    0    0  0.49761284714E+02  0.23329090625E+02  0.15422940411E+03  0.16372886434E+03  0.00000000000E+00 0.  1.
         11    1    4    4    0    0 -0.22504084303E+02 -0.29158386437E+02  0.49922777118E+02  0.62039737146E+02  0.00000000000E+00 0. -1.
         21    1    1    2  503  502 -0.23155609244E+02 -0.73695186164E+02 -0.13455878425E+03  0.15515549981E+03  0.00000000000E+00 0. -1.
          1    1    1    2  501    0 -0.87271216979E+01  0.40118746786E+02  0.22654790110E+02  0.46892600821E+02  0.00000000000E+00 0. -1.
<scales pt_clust_5="13000.00000" pt_clust_6="13000.00000" pt_clust_7="13000.00000" pt_clust_8="13000.00000" pt_clust_9="75.67863" pt_clust_10="41.05699"></scales>
<clustering>
<clus scale="   41.057">  1 10  2 -1</clus>
<clus scale="   75.679">  2  9  1 -1</clus>
<clus scale="   77.482">  5  6 -1 -1</clus>
<clus scale="   83.064">  2  5  1 -1</clus>
<clus scale="   92.284">  7  8 -1 -1</clus>
<clus scale="   41.057">  1  5  2 -1</clus>
</clustering>
</event>
<event>
10    4  0.2857708E-005  0.1504502E+03  0.7546771E-02  0.1208156E+00
         21   -1    0    0  501  502  0.00000000000E+00  0.00000000000E+00  0.24866580907E+03  0.24866580907E+03  0.00000000000E+00 0. -1.
          2   -1    0    0  503    0 -0.00000000000E+00 -0.00000000000E+00 -0.23723574349E+03  0.23723574349E+03  0.00000000000E+00 0. -1.
         24    2    1    2    0    0  0.47655609547E+02 -0.12786819103E+03 -0.65931462321E+02  0.17124580618E+03  0.79729774941E+02 0.  0.
         23    2    1    2    0    0 -0.78058548978E+02  0.11509219571E+02  0.60509751594E+00  0.13910887821E+03  0.11456576561E+03 0.  0.
        -13    1    3    3    0    0  0.27089266051E+02 -0.38600176759E+01  0.35935761749E+01  0.27597859724E+02  0.00000000000E+00 0.  1.
         14    1    3    3    0    0  0.20566343496E+02 -0.12400817335E+03 -0.69525038495E+02  0.14364794646E+03  0.00000000000E+00 0. -1.
        -11    1    4    4    0    0 -0.67971520853E+02 -0.38349436451E+02  0.25990676259E+02  0.82257657246E+02  0.00000000000E+00 0. -1.
         11    1    4    4    0    0 -0.10087028125E+02  0.49858656022E+02 -0.25385578743E+02  0.56851220961E+02  0.00000000000E+00 0.  1.
         21    1    1    2  503  502 -0.23519229793E+02  0.59528974669E+00 -0.48121045822E+01  0.24013847889E+02  0.00000000000E+00 0. -1.
          1    1    1    2  501    0  0.53922169223E+02  0.11576368171E+03  0.81568534971E+02  0.15153302028E+03  0.00000000000E+00 0. -1.
<scales pt_clust_5="13000.00000" pt_clust_6="13000.00000" pt_clust_7="13000.00000" pt_clust_8="13000.00000" pt_clust_9="23.52676" pt_clust_10="126.27709"></scales>
<clustering>
<clus scale="   23.527">  2  9  1 -1</clus>
<clus scale="   79.730">  5  6 -1 -1</clus>
<clus scale="  114.566">  7  8 -1 -1</clus>
<clus scale="  126.277">  1 10  2 -1</clus>
<clus scale="  125.963">  2  5  1 -1</clus>
<clus scale="  126.277">  1  5  2 -1</clus>
</clustering>
</event>
<event>
10    4  0.2857708E-005  0.1671878E+03  0.7546771E-02  0.1211865E+00
         -1   -1    0    0    0  501 -0.00000000000E+00  0.00000000000E+00  0.10627967990E+04  0.10627967990E+04  0.00000000000E+00 0.  1.
         21   -1    0    0  503  502  0.00000000000E+00 -0.00000000000E+00 -0.11199805621E+03  0.11199805621E+03  0.00000000000E+00 0.  1.
         24    2    1    2    0    0  0.42188187106E+02  0.13677808054E+02  0.66492004087E+02  0.10903572364E+03  0.74166548110E+02 0.  0.
         23    2    1    2    0    0 -0.93049405189E+02 -0.90260221068E+02  0.79622154211E+03  0.81497423088E+03  0.11579789963E+03 0.  0.
        -11    1    3    3    0    0 -0.54131839696E+01  0.34041737263E+02  0.23237866068E+02  0.41570913581E+02  0.00000000000E+00 0.  1.
         12    1    3    3    0    0  0.47601371076E+02 -0.20363929209E+02  0.43254138019E+02  0.67464810063E+02  0.00000000000E+00 0. -1.
        -13    1    4    4    0    0 -0.10860359306E+03 -0.35071701487E+02  0.58962792836E+03  0.60057127684E+03  0.00000000000E+00 0.  1.
         13    1    4    4    0    0  0.15554187875E+02 -0.55188519581E+02  0.20659361376E+03  0.21440295404E+03  0.00000000000E+00 0. -1.
         21    1    1    2  503  501 -0.33416396349E+02 -0.89566666879E+01  0.12134638298E+03  0.12618170265E+03  0.00000000000E+00 0.  1.
         -2    1    1    2    0  502  0.84277614432E+02  0.85539079702E+02 -0.33261186348E+02  0.12460319806E+03  0.00000000000E+00 0.  1.
<scales pt_clust_5="13000.00000" pt_clust_6="13000.00000" pt_clust_7="13000.00000" pt_clust_8="13000.00000" pt_clust_9="34.59592" pt_clust_10="120.59267"></scales>
<clustering>
<clus scale="   34.596">  1  9  2 -1</clus>
<clus scale="   74.167">  5  6 -1 -1</clus>
<clus scale="   84.804">  1  5  2 -1</clus>
<clus scale="  115.798">  7  8 -1 -1</clus>
<clus scale="  120.593">  2 10  1 -1</clus>
<clus scale="  120.593">  2  5  1 -1</clus>
</clustering>
</event>
<event>
10    4  0.2857708E-005  0.2142919E+03  0.7546771E-02  0.1139137E+00
         21   -1    0    0  501  502  0.00000000000E+00  0.00000000000E+00  0.50694855718E+03  0.50694855718E+03  0.00000000000E+00 0. -1.
          2   -1    0    0  503    0 -0.00000000000E+00 -0.00000000000E+00 -0.90971320405E+03  0.90971320405E+03  0.00000000000E+00 0. -1.
         24    2    1    2    0    0  0.11438358106E+03 -0.15457932634E+03 -0.51092979034E+03  0.55175582825E+03  0.80042935990E+02 0.  0.
         23    2    1    2    0    0 -0.34291186581E+02  0.13385562425E+03  0.24007657966E+03  0.29179764242E+03  0.91738140350E+02 0.  0.
        -13    1    3    3    0    0  0.66808470588E+02 -0.63701259086E+02 -0.14643756830E+03  0.17310454518E+03  0.00000000000E+00 0.  1.
         14    1    3    3    0    0  0.47575110473E+02 -0.90878067258E+02 -0.36449222204E+03  0.37865128308E+03  0.00000000000E+00 0. -1.
        -13    1    4    4    0    0 -0.48206869201E+02  0.24040558347E+02  0.96339330181E+02  0.11037715898E+03  0.00000000000E+00 0.  1.
         13    1    4    4    0    0  0.13915682620E+02  0.10981506591E+03  0.14373724948E+03  0.18142048344E+03  0.00000000000E+00 0. -1.
         21    1    1    2  503  502 -0.36339139956E+02 -0.29105044855E+02 -0.34593157141E+03  0.34905055340E+03  0.00000000000E+00 0. -1.
          1    1    1    2  501    0 -0.43753254525E+02  0.49828746945E+02  0.21402013522E+03  0.22405773716E+03  0.00000000000E+00 0. -1.
<scales pt_clust_5="13000.00000" pt_clust_6="13000.00000" pt_clust_7="13000.00000" pt_clust_8="13000.00000" pt_clust_9="46.55789" pt_clust_10="66.33188"></scales>
<clustering>
<clus scale="   46.558">  2  9  1 -1</clus>
<clus scale="   66.332">  1 10  2 -1</clus>
<clus scale="   80.043">  5  6 -1 -1</clus>
<clus scale="   91.738">  7  8 -1 -1</clus>
<clus scale="  209.552">  2  5  1 -1</clus>
<clus scale="   66.332">  1  5  2 -1</clus>
</clustering>
</event>
<event>
10    4  0.2857708E-005  0.1142167E+03  0.7546771E-02  0.1261548E+00
         21   -1    0    0  501  502  0.00000000000E+00  0.00000000000E+00  0.20727278985E+03  0.20727278985E+03  0.00000000000E+00 0.  1.
          2   -1    0    0  503    0 -0.00000000000E+00 -0.00000000000E+00 -0.27812687886E+03  0.27812687886E+03  0.00000000000E+00 0. -1.
         24    2    1    2    0    0 -0.24783581986E+02 -0.40924752412E+02 -0.20611397346E+03  0.23791930590E+03  0.10878218957E+03 0.  0.
         23    2    1    2    0    0 -0.23095414386E+02  0.44467606430E+02  0.10183217226E+03  0.14477683045E+03  0.89887558321E+02 0.  0.
        -11    1    3    3    0    0 -0.73101966683E+00  0.36926508287E+02 -0.55267980819E+02  0.66472935153E+02  0.00000000000E+00 0.  1.
         12    1    3    3    0    0 -0.24052562319E+02 -0.77851260699E+02 -0.15084599264E+03  0.17144637074E+03  0.00000000000E+00 0. -1.
        -11    1    4    4    0    0 -0.50456481040E+02  0.60435944626E+01  0.30526710560E+02  0.59281207567E+02  0.00000000000E+00 0. -1.
         11    1    4    4    0    0  0.27361066654E+02  0.38424011967E+02  0.71305461697E+02  0.85495622882E+02  0.00000000000E+00 0.  1.
         21    1    1    2  503  502  0.29592278559E+02  0.92672650450E+01 -0.25206700722E+02  0.39962018380E+02  0.00000000000E+00 0. -1.
          1    1    1    2  501    0  0.18286717813E+02 -0.12810119063E+02  0.58634412910E+02  0.62741513977E+02  0.00000000000E+00 0. -1.
<scales pt_clust_5="13000.00000" pt_clust_6="13000.00000" pt_clust_7="13000.00000" pt_clust_8="13000.00000" pt_clust_9="31.70757" pt_clust_10="22.32719"></scales>
<clustering>
<clus scale="   22.327">  1 10  2 -1</clus>
<clus scale="   31.708">  2  9  1 -1</clus>
<clus scale="   89.888">  7  8 -1 -1</clus>
<clus scale="   96.393">  1  7  2 -1</clus>
<clus scale="  108.782">  5  6 -1 -1</clus>
<clus scale="   22.327">  1  5  2 -1</clus>
</clustering>
</event>
<event>
10    4  0.2857708E-005  0.9976405E+02  0.7546771E-02  0.1286571E+00
          2   -1    0    0  503    0 -0.00000000000E+00  0.00000000000E+00  0.32079220705E+03  0.32079220705E+03  0.00000000000E+00 0. -1.
         21   -1    0    0  501  502  0.00000000000E+00 -0.00000000000E+00 -0.19824237999E+03  0.19824237999E+03  0.00000000000E+00 0.  1.
         24    2    1    2    0    0 -0.15158791999E+02  0.24667818270E+02  0.18447425776E+03  0.20295586199E+03  0.79511256485E+02 0.  0.
         23    2    1    2    0    0 -0.68168584435E+01 -0.51320753177E+02 -0.92651279235E+02  0.13979017250E+03  0.90976609725E+02 0.  0.
        -13    1    3    3    0    0 -0.79316101921E+01 -0.29193468536E+02  0.63716361512E+02  0.70533281291E+02  0.00000000000E+00 0.  1.
         14    1    3    3    0    0 -0.72271818066E+01  0.53861286805E+02  0.12075789624E+03  0.13242258070E+03  0.00000000000E+00 0. -1.
        -13    1    4    4    0    0 -0.32332343864E+02 -0.64283128218E+02 -0.47120801340E+02  0.86012039577E+02  0.00000000000E+00 0. -1.
         13    1    4    4    0    0  0.25515485421E+02  0.12962375041E+02 -0.45530477894E+02  0.53778132919E+02  0.00000000000E+00 0.  1.
         21    1    1    2  503  502  0.46019968122E+02  0.83522037796E+01  0.94654313519E+02  0.10557952378E+03  0.00000000000E+00 0. -1.
          1    1    1    2  501    0 -0.24044317680E+02  0.18300731128E+02 -0.63927464979E+02  0.70709028781E+02  0.00000000000E+00 0. -1.
<scales pt_clust_5="13000.00000" pt_clust_6="13000.00000" pt_clust_7="13000.00000" pt_clust_8="13000.00000" pt_clust_9="45.93044" pt_clust_10="30.21665"></scales>
<clustering>
<clus scale="   30.217">  2 10  1 -1</clus>
<clus scale="   45.930">  1  9  2 -1</clus>
<clus scale="   79.511">  5  6 -1 -1</clus>
<clus scale="   89.432">  1  5  2 -1</clus>
<clus scale="   90.977">  7  8 -1 -1</clus>
<clus scale="   30.217">  2  5  1 -1</clus>
</clustering>
</event>
<event>
10    4  0.2857708E-005  0.1402556E+03  0.7546771E-02  0.1214645E+00
         21   -1    0    0  503  502  0.00000000000E+00  0.00000000000E+00  0.11302154045E+03  0.11302154045E+03  0.00000000000E+00 0. -1.
         -3   -1    0    0    0  501 -0.00000000000E+00 -0.00000000000E+00 -0.64782471726E+03  0.64782471726E+03  0.00000000000E+00 0.  1.
         23    2    1    2    0    0 -0.12963493892E+03 -0.11351306527E+02 -0.65066027380E+02  0.16980822078E+03  0.87562402762E+02 0.  0.
         24    2    1    2    0    0  0.88745617189E+02 -0.92831692223E+01 -0.12519150664E+02  0.12019941074E+03  0.79556315947E+02 0.  0.
        -13    1    4    4    0    0  0.81755112599E+01 -0.18998899890E+02 -0.30715875278E+02  0.37030557321E+02  0.00000000000E+00 0.  1.
         14    1    4    4    0    0  0.80570105930E+02  0.97157306681E+01  0.18196724614E+02  0.83168853416E+02  0.00000000000E+00 0. -1.
        -13    1    3    3    0    0 -0.10710537073E+03  0.28382120055E+02 -0.51307457410E+02  0.12210471066E+03  0.00000000000E+00 0.  1.
         13    1    3    3    0    0 -0.22529568185E+02 -0.39733426582E+02 -0.13758569970E+02  0.47703510124E+02  0.00000000000E+00 0. -1.
         21    1    1    2  503  501 -0.18993026013E+02 -0.17844528872E+02 -0.41024005195E+02  0.48601761800E+02  0.00000000000E+00 0.  1.
         -4    1    1    2    0  502  0.59882347742E+02  0.38479004622E+02 -0.41619399357E+03  0.42223686440E+03  0.00000000000E+00 0.  1.
<scales pt_clust_5="13000.00000" pt_clust_6="13000.00000" pt_clust_7="13000.00000" pt_clust_8="13000.00000" pt_clust_9="26.06074" pt_clust_10="53.46677"></scales>
<clustering>
<clus scale="   26.061">  2  9  1 -1</clus>
<clus scale="   53.467">  1 10  2 -1</clus>
<clus scale="   79.556">  5  6 -1 -1</clus>
<clus scale="   87.562">  7  8 -1 -1</clus>
<clus scale="  135.402">  1  5  2 -1</clus>
<clus scale="   53.467">  1  5  2 -1</clus>
</clustering>
</event>
<event>
10    4  0.2857708E-005  0.1830781E+03  0.7546771E-02  0.1167118E+00
         21   -1    0    0  501  502  0.00000000000E+00  0.00000000000E+00  0.40702923798E+03  0.40702923798E+03  0.00000000000E+00 0.  1.
          2   -1    0    0  503    0 -0.00000000000E+00 -0.00000000000E+00 -0.45139287089E+03  0.45139287089E+03  0.00000000000E+00 0. -1.
         24    2    1    2    0    0 -0.16890420872E+03 -0.22914031177E+02 -0.30486354235E+03  0.35900134276E+03  0.82984938960E+02 0.  0.
         23    2    1    2    0    0  0.16684575420E+03 -0.11720650788E+03  0.15461177730E+03  0.27510401343E+03  0.10100764991E+03 0.  0.
        -13    1    3    3    0    0 -0.28688293931E+02  0.17214217372E+02 -0.20014900257E+02  0.38986455606E+02  0.00000000000E+00 0.  1.
         14    1    3    3    0    0 -0.14021591479E+03 -0.40128248549E+02 -0.28484864210E+03  0.32001488715E+03  0.00000000000E+00 0. -1.
        -13    1    4    4    0    0  0.92145595463E+02 -0.12103762671E+03  0.93907602850E+02  0.17877235725E+03  0.00000000000E+00 0.  1.
         13    1    4    4    0    0  0.74700158739E+02  0.38311188324E+01  0.60704174450E+02  0.96331656182E+02  0.00000000000E+00 0. -1.
         21    1    1    2  503  502  0.23900315795E+02 -0.23431533106E+01 -0.21295123518E+02  0.32096693727E+02  0.00000000000E+00 0.  1.
          1    1    1    2  501    0 -0.21841861276E+02  0.14246369236E+03  0.12718325566E+03  0.19222005896E+03  0.00000000000E+00 0. -1.
<scales pt_clust_5="13000.00000" pt_clust_6="13000.00000" pt_clust_7="13000.00000" pt_clust_8="13000.00000" pt_clust_9="24.01490" pt_clust_10="143.68469"></scales>
<clustering>
<clus scale="   24.015">  2  9  1 -1</clus>
<clus scale="   82.985">  5  6 -1 -1</clus>
<clus scale="  101.008">  7  8 -1 -1</clus>
<clus scale="  143.685">  1 10  2 -1</clus>
<clus scale="  173.786">  2  5  1 -1</clus>
<clus scale="  143.685">  1  5  2 -1</clus>
</clustering>
</event>
<event>
10    4  0.2857708E-005  0.3525635E+03  0.7546771E-02  0.1061568E+00
          2   -1    0    0  503    0 -0.00000000000E+00  0.00000000000E+00  0.61056270495E+03  0.61056270495E+03  0.00000000000E+00 0. -1.
         21   -1    0    0  501  502  0.00000000000E+00 -0.00000000000E+00 -0.22747154041E+03  0.22747154041E+03  0.00000000000E+00 0.  1.
         24    2    1    2    0    0 -0.16588512764E+03  0.11149819790E+03  0.38498849838E+02  0.21846899303E+03  0.79352478010E+02 0.  0.
         23    2    1    2    0    0 -0.10131088225E+03  0.47411958798E+02  0.13233249099E+03  0.19662109561E+03  0.92931040928E+02 0.  0.
        -13    1    3    3    0    0 -0.17254995012E+03  0.11229302424E+03  0.43095164507E+02  0.21033402431E+03  0.00000000000E+00 0.  1.
         14    1    3    3    0    0  0.66648224719E+01 -0.79482633917E+00 -0.45963146693E+01  0.81349687173E+01  0.00000000000E+00 0. -1.
        -13    1    4    4    0    0 -0.71574055129E+02  0.75841244480E+02  0.95275517332E+02  0.14125212896E+03  0.00000000000E+00 0. -1.
         13    1    4    4    0    0 -0.29736827116E+02 -0.28429285682E+02  0.37056973661E+02  0.55368966654E+02  0.00000000000E+00 0.  1.
         21    1    1    2  503  502  0.18653336744E+03 -0.18875721968E+03  0.20738688755E+03  0.33679861383E+03  0.00000000000E+00 0. -1.
          1    1    1    2  501    0  0.80662642449E+02  0.29847062977E+02  0.48729361592E+01  0.86145542903E+02  0.00000000000E+00 0. -1.
<scales pt_clust_5="13000.00000" pt_clust_6="13000.00000" pt_clust_7="13000.00000" pt_clust_8="13000.00000" pt_clust_9="278.98165" pt_clust_10="86.00761"></scales>
<clustering>
<clus scale="   79.352">  5  6 -1 -1</clus>
<clus scale="   86.008">  2 10  1 -1</clus>
<clus scale="   92.931">  7  8 -1 -1</clus>
<clus scale="  127.192">  5  7 -1 -1</clus>
<clus scale="  278.982">  1  9  2 -1</clus>
<clus scale="   86.008">  2  5  1 -1</clus>
</clustering>
</event>
<event>
10    4  0.2857708E-005  0.9560748E+02  0.7546771E-02  0.1293113E+00
          2   -1    0    0  503    0 -0.00000000000E+00  0.00000000000E+00  0.46915209160E+03  0.46915209160E+03  0.00000000000E+00 0. -1.
         21   -1    0    0  501  502  0.00000000000E+00 -0.00000000000E+00 -0.11723470746E+03  0.11723470746E+03  0.00000000000E+00 0. -1.
         23    2    1    2    0    0 -0.15722069997E+01 -0.12141899541E+01  0.26719223750E+03  0.28236010908E+03  0.91277562017E+02 0.  0.
         24    2    1    2    0    0  0.33675043471E+02 -0.97197725621E+00  0.71386342774E+01  0.91963309439E+02  0.85272134317E+02 0.  0.
        -11    1    4    4    0    0 -0.20527823632E+02  0.15474327375E+02 -0.16542142133E+02  0.30569409826E+02  0.00000000000E+00 0.  1.
         12    1    4    4    0    0  0.54202867104E+02 -0.16446304631E+02  0.23680776410E+02  0.61393899613E+02  0.00000000000E+00 0. -1.
        -13    1    3    3    0    0 -0.37839784529E+02  0.25768770424E+02  0.12273392029E+03  0.13099425183E+03  0.00000000000E+00 0.  1.
         13    1    3    3    0    0  0.36267577529E+02 -0.26982960378E+02  0.14445831721E+03  0.15136585725E+03  0.00000000000E+00 0. -1.
         21    1    1    2  503  502 -0.22468722414E+02 -0.26394322140E+02  0.13920701373E+03  0.14345764671E+03  0.00000000000E+00 0.  1.
          1    1    1    2  501    0 -0.96341140579E+01  0.28580489350E+02 -0.61620501368E+02  0.68605733828E+02  0.00000000000E+00 0. -1.
<scales pt_clust_5="13000.00000" pt_clust_6="13000.00000" pt_clust_7="13000.00000" pt_clust_8="13000.00000" pt_clust_9="34.04629" pt_clust_10="30.16058"></scales>
<clustering>
<clus scale="   30.161">  2 10  1 -1</clus>
<clus scale="   34.046">  1  9  2 -1</clus>
<clus scale="   85.272">  5  6 -1 -1</clus>
<clus scale="   89.892">  2  5  1 -1</clus>
<clus scale="   91.278">  7  8 -1 -1</clus>
<clus scale="   30.161">  2  5  1 -1</clus>
</clustering>
</event>
<event>
10    4  0.2857708E-005  0.9568502E+02  0.7546771E-02  0.1294414E+00
          2   -1    0    0  503    0 -0.00000000000E+00  0.00000000000E+00  0.17938994062E+03  0.17938994062E+03  0.00000000000E+00 0. -1.
         21   -1    0    0  501  502  0.00000000000E+00 -0.00000000000E+00 -0.21591306708E+03  0.21591306708E+03  0.00000000000E+00 0. -1.
         24    2    1    2    0    0  0.23587988650E+02 -0.30621824441E+02 -0.37313411634E+01  0.91864597236E+02  0.83253179987E+02 0.  0.
         23    2    1    2    0    0 -0.10770239540E+02  0.41875018493E+02 -0.10156507174E+03  0.14356430504E+03  0.91791778765E+02 0.  0.
        -11    1    3    3    0    0  0.52785099492E+02 -0.27838381527E+02 -0.13057641049E+02  0.61088003767E+02  0.00000000000E+00 0.  1.
         12    1    3    3    0    0 -0.29197110843E+02 -0.27834429137E+01  0.93262998856E+01  0.30776593469E+02  0.00000000000E+00 0. -1.
        -13    1    4    4    0    0  0.40418747646E+02  0.16309955155E+02 -0.52117455366E+02  0.67940554548E+02  0.00000000000E+00 0.  1.
         13    1    4    4    0    0 -0.51188987186E+02  0.25565063338E+02 -0.49447616378E+02  0.75623750489E+02  0.00000000000E+00 0. -1.
         21    1    1    2  503  502 -0.30886701762E+02  0.21310857627E+02  0.10279631011E+03  0.10943135917E+03  0.00000000000E+00 0. -1.
          1    1    1    2  501    0  0.18068952653E+02 -0.32564051679E+02 -0.34023023654E+02  0.50442746260E+02  0.00000000000E+00 0. -1.
<scales pt_clust_5="13000.00000" pt_clust_6="13000.00000" pt_clust_7="13000.00000" pt_clust_8="13000.00000" pt_clust_9="36.88923" pt_clust_10="37.24117"></scales>
<clustering>
<clus scale="   37.241">  2 10  1 -1</clus>
<clus scale="   36.889">  1  9  2 -1</clus>
<clus scale="   83.253">  5  6 -1 -1</clus>
<clus scale="   87.527">  1  5  2 -1</clus>
<clus scale="   91.792">  7  8 -1 -1</clus>
<clus scale="   37.241">  2  5  1 -1</clus>
</clustering>
</event>
<event>
10    4  0.2857708E-005  0.1079334E+03  0.7546771E-02  0.1265210E+00
         21   -1    0    0  501  502  0.00000000000E+00  0.00000000000E+00  0.84318646118E+02  0.84318646118E+02  0.00000000000E+00 0.  1.
          2   -1    0    0  503    0 -0.00000000000E+00 -0.00000000000E+00 -0.27218974396E+03  0.27218974396E+03  0.00000000000E+00 0. -1.
         24    2    1    2    0    0 -0.83822007602E+02  0.13612104140E+01 -0.63751099676E+02  0.13233252556E+03  0.80123110017E+02 0.  0.
         23    2    1    2    0    0  0.51665331526E+02 -0.23487736619E+02 -0.26085581331E+02  0.10326457411E+03  0.82232198433E+02 0.  0.
        -11    1    3    3    0    0 -0.64708211118E+02 -0.35143663032E+02 -0.49520099134E+02  0.88738209671E+02  0.00000000000E+00 0.  1.
         12    1    3    3    0    0 -0.19113796483E+02  0.36504873446E+02 -0.14231000541E+02  0.43594315887E+02  0.00000000000E+00 0. -1.
        -13    1    4    4    0    0  0.71611853546E+02 -0.67070865888E+01 -0.27872606631E+02  0.77137051922E+02  0.00000000000E+00 0.  1.
         13    1    4    4    0    0 -0.19946522020E+02 -0.16780650030E+02  0.17870253009E+01  0.26127522185E+02  0.00000000000E+00 0. -1.
         21    1    1    2  503  502 -0.12261901287E+02  0.18890376247E+02 -0.16198388368E+02  0.27741454967E+02  0.00000000000E+00 0. -1.
          1    1    1    2  501    0  0.44418577363E+02  0.32361499572E+01 -0.81836028469E+02  0.93169835446E+02  0.00000000000E+00 0. -1.
<scales pt_clust_5="13000.00000" pt_clust_6="13000.00000" pt_clust_7="13000.00000" pt_clust_8="13000.00000" pt_clust_9="22.52111" pt_clust_10="41.31986"></scales>
<clustering>
<clus scale="   22.521">  2  9  1 -1</clus>
<clus scale="   41.320">  1 10  2 -1</clus>
<clus scale="   80.123">  5  6 -1 -1</clus>
<clus scale="   82.232">  7  8 -1 -1</clus>
<clus scale="  106.335">  2  5  1 -1</clus>
<clus scale="   41.320">  1  5  2 -1</clus>
</clustering>
</event>
<event>
10    4  0.2857708E-005  0.9725453E+02  0.7546771E-02  0.1293109E+00
         21   -1    0    0  501  502  0.00000000000E+00  0.00000000000E+00  0.16531900915E+03  0.16531900915E+03  0.00000000000E+00 0.  1.
          2   -1    0    0  503    0 -0.00000000000E+00 -0.00000000000E+00 -0.34982110133E+03  0.34982110133E+03  0.00000000000E+00 0. -1.
         24    2    1    2    0    0  0.28705102735E+02 -0.71481796684E+01 -0.88562587479E+02  0.11962490752E+03  0.74777718626E+02 0.  0.
         23    2    1    2    0    0  0.31975849192E+02 -0.55924521947E+02  0.82671275911E+02  0.13689515209E+03  0.88066654973E+02 0.  0.
        -13    1    3    3    0    0 -0.21509404753E+02 -0.13683904385E+02 -0.49471254761E+02  0.55653470509E+02  0.00000000000E+00 0.  1.
         14    1    3    3    0    0  0.50214507487E+02  0.65357247164E+01 -0.39091332718E+02  0.63971437012E+02  0.00000000000E+00 0. -1.
        -13    1    4    4    0    0  0.56118868976E+02 -0.42110564191E+02  0.83504417211E+02  0.10906701960E+03  0.00000000000E+00 0.  1.
         13    1    4    4    0    0 -0.24143019783E+02 -0.13813957757E+02 -0.83314130062E+00  0.27828132485E+02  0.00000000000E+00 0. -1.
         21    1    1    2  503  502 -0.34737933006E+02  0.62080579527E+02 -0.20775034450E+03  0.21959264101E+03  0.00000000000E+00 0. -1.
          1    1    1    2  501    0 -0.25943018921E+02  0.99212208896E+00  0.29139563887E+02  0.39027409861E+02  0.00000000000E+00 0. -1.
<scales pt_clust_5="13000.00000" pt_clust_6="13000.00000" pt_clust_7="13000.00000" pt_clust_8="13000.00000" pt_clust_9="71.75635" pt_clust_10="25.96198"></scales>
<clustering>
<clus scale="   25.962">  1 10  2 -1</clus>
<clus scale="   71.756">  2  9  1 -1</clus>
<clus scale="   74.778">  5  6 -1 -1</clus>
<clus scale="   85.407">  2  5  1 -1</clus>
<clus scale="   88.067">  7  8 -1 -1</clus>
<clus scale="   25.962">  1  5  2 -1</clus>
</clustering>
</event>
<event>
10    4  0.2857708E-005  0.1794512E+03  0.7546771E-02  0.1196285E+00
          2   -1    0    0  503    0 -0.00000000000E+00  0.00000000000E+00  0.73434270481E+03  0.73434270481E+03  0.00000000000E+00 0. -1.
         21   -1    0    0  501  502  0.00000000000E+00 -0.00000000000E+00 -0.14752222351E+03  0.14752222351E+03  0.00000000000E+00 0. -1.
         23    2    1    2    0    0  0.26297200676E+02 -0.11722111451E+02  0.44213163349E+02  0.10812007804E+03  0.94372648588E+02 0.  0.
         24    2    1    2    0    0 -0.11450997345E+03  0.87502693909E+02  0.39992595275E+02  0.17004497168E+03  0.80911243085E+02 0.  0.
        -13    1    4    4    0    0 -0.88996971116E+02  0.10197607041E+03  0.38296983176E+02  0.14066356573E+03  0.00000000000E+00 0.  1.
         14    1    4    4    0    0 -0.25513002333E+02 -0.14473376500E+02  0.16956120995E+01  0.29381405953E+02  0.00000000000E+00 0. -1.
        -11    1    3    3    0    0  0.44378497652E+02 -0.21506451058E+02  0.63180408354E+02  0.80148253198E+02  0.00000000000E+00 0. -1.
         11    1    3    3    0    0 -0.18081296976E+02  0.97843396064E+01 -0.18967245004E+02  0.27971824841E+02  0.00000000000E+00 0.  1.
         21    1    1    2  503  502 -0.44284423277E+02  0.63086181450E+02  0.35027510699E+03  0.35865530390E+03  0.00000000000E+00 0. -1.
          1    1    1    2  501    0  0.13249719605E+03 -0.13886676391E+03  0.15233961569E+03  0.24504457469E+03  0.00000000000E+00 0. -1.
<scales pt_clust_5="13000.00000" pt_clust_6="13000.00000" pt_clust_7="13000.00000" pt_clust_8="13000.00000" pt_clust_9="77.07773" pt_clust_10="160.17527"></scales>
<clustering>
<clus scale="   77.078">  1  9  2 -1</clus>
<clus scale="   80.911">  5  6 -1 -1</clus>
<clus scale="   94.373">  7  8 -1 -1</clus>
<clus scale="   95.971">  1  7  2 -1</clus>
<clus scale="  160.175">  2 10  1 -1</clus>
<clus scale="  160.175">  2  5  1 -1</clus>
</clustering>
</event>
<event>
10    4  0.2857708E-005  0.1369857E+03  0.7546771E-02  0.1221308E+00
         -3   -1    0    0    0  501 -0.00000000000E+00  0.00000000000E+00  0.56186357237E+02  0.56186357237E+02  0.00000000000E+00 0.  1.
         21   -1    0    0  503  502  0.00000000000E+00 -0.00000000000E+00 -0.47983722201E+03  0.47983722201E+03  0.00000000000E+00 0.  1.
         23    2    1    2    0    0  0.58133202387E+02 -0.10701416405E+03 -0.18350423119E+03  0.24115824641E+03  0.98244574494E+02 0.  0.
         24    2    1    2    0    0 -0.33742697758E+02  0.66481323607E+02 -0.19280126859E+03  0.22264147033E+03  0.82695580908E+02 0.  0.
        -11    1    4    4    0    0  0.12622033432E+02  0.60935583186E+02 -0.86714455221E+02  0.10673264623E+03  0.00000000000E+00 0.  1.
         12    1    4    4    0    0 -0.46364731189E+02  0.55457404210E+01 -0.10608681337E+03  0.11590882411E+03  0.00000000000E+00 0. -1.
        -13    1    3    3    0    0  0.66322816277E+02 -0.81723876729E+02 -0.74472851239E+02  0.12893298088E+03  0.00000000000E+00 0.  1.
         13    1    3    3    0    0 -0.81896138900E+01 -0.25290287321E+02 -0.10903137995E+03  0.11222526553E+03  0.00000000000E+00 0. -1.
         21    1    1    2  503  501 -0.23384633561E+02  0.17453390933E+02 -0.15978928032E+02  0.33268424713E+02  0.00000000000E+00 0.  1.
         -4    1    1    2    0  502 -0.10058710679E+01  0.23079449510E+02 -0.31366436964E+02  0.38955437799E+02  0.00000000000E+00 0.  1.
<scales pt_clust_5="13000.00000" pt_clust_6="13000.00000" pt_clust_7="13000.00000" pt_clust_8="13000.00000" pt_clust_9="30.00524" pt_clust_10="23.10136"></scales>
<clustering>
<clus scale="   23.101">  2 10  1 -1</clus>
<clus scale="   30.005">  1  9  2 -1</clus>
<clus scale="   82.696">  5  6 -1 -1</clus>
<clus scale="   98.245">  7  8 -1 -1</clus>
<clus scale="  126.300">  2  5  1 -1</clus>
<clus scale="   23.101">  2  5  1 -1</clus>
</clustering>
</event>
<event>
10    4  0.2857708E-005  0.8769796E+02  0.7546771E-02  0.1314764E+00
         21   -1    0    0  503  502  0.00000000000E+00  0.00000000000E+00  0.83429754849E+02  0.83429754849E+02  0.00000000000E+00 0. -1.
         -1   -1    0    0    0  501 -0.00000000000E+00 -0.00000000000E+00 -0.29137253387E+03  0.29137253387E+03  0.00000000000E+00 0.  1.
         23    2    1    2    0    0  0.71837394055E+01 -0.19490872707E+02 -0.13852032683E+03  0.16447082836E+03  0.86204827034E+02 0.  0.
         24    2    1    2    0    0  0.16507201565E+02 -0.32372836498E+02 -0.16036589563E+02  0.86335481357E+02  0.76656081884E+02 0.  0.
        -13    1    4    4    0    0 -0.98477679246E+01  0.20482966951E+02  0.56479101866E+01  0.23418568651E+02  0.00000000000E+00 0.  1.
         14    1    4    4    0    0  0.26354969490E+02 -0.52855803449E+02 -0.21684499749E+02  0.62916912706E+02  0.00000000000E+00 0. -1.
        -13    1    3    3    0    0  0.38162667429E+02 -0.16520545504E+02 -0.29215244764E+02  0.50821728972E+02  0.00000000000E+00 0. -1.
         13    1    3    3    0    0 -0.30978928023E+02 -0.29703272032E+01 -0.10930508207E+03  0.11364909938E+03  0.00000000000E+00 0.  1.
         21    1    1    2  503  501 -0.31660274139E+02  0.26963372169E+02 -0.77804906925E+02  0.88221312272E+02  0.00000000000E+00 0.  1.
         -2    1    1    2    0  502  0.79693331682E+01  0.24900337037E+02  0.24419044297E+02  0.35774666736E+02  0.00000000000E+00 0.  1.
<scales pt_clust_5="13000.00000" pt_clust_6="13000.00000" pt_clust_7="13000.00000" pt_clust_8="13000.00000" pt_clust_9="42.63527" pt_clust_10="26.14454"></scales>
<clustering>
<clus scale="   26.145">  1 10  2 -1</clus>
<clus scale="   42.635">  2  9  1 -1</clus>
<clus scale="   76.656">  5  6 -1 -1</clus>
<clus scale="   78.331">  1  5  2 -1</clus>
<clus scale="   86.205">  7  8 -1 -1</clus>
<clus scale="   26.145">  1  5  2 -1</clus>
</clustering>
</event>
<event>
10    4  0.2857708E-005  0.1574381E+03  0.7546771E-02  0.1193866E+00
          4   -1    0    0  503    0 -0.00000000000E+00  0.00000000000E+00  0.67725164496E+03  0.67725164496E+03  0.00000000000E+00 0. -1.
         21   -1    0    0  501  502  0.00000000000E+00 -0.00000000000E+00 -0.15983926656E+03  0.15983926656E+03  0.00000000000E+00 0. -1.
         23    2    1    2    0    0 -0.84713540056E+02  0.63827701369E+02  0.16725102099E+03  0.21900831120E+03  0.93495331557E+02 0.  0.
         24    2    1    2    0    0  0.99979432593E+02 -0.15123378622E+03 -0.50053650844E+02  0.20440698371E+03  0.80058116329E+02 0.  0.
        -13    1    4    4    0    0  0.41713674565E+02 -0.96506486458E+02 -0.64257523915E+02  0.12321753915E+03  0.00000000000E+00 0.  1.
         14    1    4    4    0    0  0.58265758028E+02 -0.54727299760E+02  0.14203873070E+02  0.81189444559E+02  0.00000000000E+00 0. -1.
        -13    1    3    3    0    0 -0.96234851151E+02  0.31666759920E+02  0.94087638395E+02  0.13826212048E+03  0.00000000000E+00 0. -1.
         13    1    3    3    0    0  0.11521311094E+02  0.32160941450E+02  0.73163382592E+02  0.80746190724E+02  0.00000000000E+00 0.  1.
         21    1    1    2  503  502 -0.25151025016E+02  0.13879776118E+02  0.14861340673E+03  0.15136435150E+03  0.00000000000E+00 0.  1.
          3    1    1    2  501    0  0.98851324797E+01  0.73526308731E+02  0.25160160153E+03  0.26231126512E+03  0.00000000000E+00 0. -1.
<scales pt_clust_5="13000.00000" pt_clust_6="13000.00000" pt_clust_7="13000.00000" pt_clust_8="13000.00000" pt_clust_9="28.72668" pt_clust_10="80.32555"></scales>
<clustering>
<clus scale="   28.727">  1  9  2 -1</clus>
<clus scale="   80.058">  5  6 -1 -1</clus>
<clus scale="   80.326">  2 10  1 -1</clus>
<clus scale="   93.495">  7  8 -1 -1</clus>
<clus scale="  149.849">  2  5  1 -1</clus>
<clus scale="   80.326">  2  5  1 -1</clus>
</clustering>
</event>
<event>
10    4  0.2857708E-005  0.2158351E+03  0.7546771E-02  0.1187938E+00
         -1   -1    0    0    0  501 -0.00000000000E+00  0.00000000000E+00  0.86827347837E+03  0.86827347837E+03  0.00000000000E+00 0.  1.
         21   -1    0    0  503  502  0.00000000000E+00 -0.00000000000E+00 -0.13264355671E+03  0.13264355671E+03  0.00000000000E+00 0.  1.
         24    2    1    2    0    0  0.53857817623E+01 -0.50808475642E+01  0.15150082691E+03  0.16517428718E+03  0.65385188940E+02 0.  0.
         23    2    1    2    0    0  0.12615387051E+03 -0.12373172344E+03  0.47335743834E+03  0.51362084944E+03  0.92275533697E+02 0.  0.
        -11    1    3    3    0    0 -0.52761656580E+01 -0.31882446238E+02  0.49036489889E+02  0.58727384096E+02  0.00000000000E+00 0.  1.
         12    1    3    3    0    0  0.10661947420E+02  0.26801598673E+02  0.10246433702E+03  0.10644690308E+03  0.00000000000E+00 0. -1.
        -13    1    4    4    0    0  0.51911428542E+02 -0.76216566876E+02  0.13169385847E+03  0.16077012732E+03  0.00000000000E+00 0. -1.
         13    1    4    4    0    0  0.74242441967E+02 -0.47515156568E+02  0.34166357987E+03  0.35285072212E+03  0.00000000000E+00 0.  1.
         21    1    1    2  503  501 -0.15099665337E+03  0.17598066111E+03  0.13204318177E+03  0.26684187127E+03  0.00000000000E+00 0.  1.
         -2    1    1    2    0  502  0.19457001101E+02 -0.47168090099E+02 -0.21271525350E+02  0.55280027190E+02  0.00000000000E+00 0.  1.
<scales pt_clust_5="13000.00000" pt_clust_6="13000.00000" pt_clust_7="13000.00000" pt_clust_8="13000.00000" pt_clust_9="195.11539" pt_clust_10="51.02356"></scales>
<clustering>
<clus scale="   51.024">  2 10  1 -1</clus>
<clus scale="   65.385">  5  6 -1 -1</clus>
<clus scale="   66.284">  1  5  2 -1</clus>
<clus scale="   92.276">  7  8 -1 -1</clus>
<clus scale="  195.115">  2  9  1 -1</clus>
<clus scale="   51.024">  2  5  1 -1</clus>
</clustering>
</event>
<event>
10    4  0.2857708E-005  0.3214506E+03  0.7546771E-02  0.1126434E+00
          2   -1    0    0  503    0 -0.00000000000E+00  0.00000000000E+00  0.55854564439E+03  0.55854564439E+03  0.00000000000E+00 0. -1.
         21   -1    0    0  501  502  0.00000000000E+00 -0.00000000000E+00 -0.44593342736E+03  0.44593342736E+03  0.00000000000E+00 0. -1.
         24    2    1    2    0    0 -0.35865427889E+02 -0.15529313491E+02  0.23575384845E+03  0.25192040824E+03  0.79727827839E+02 0.  0.
         23    2    1    2    0    0  0.83229845030E+01 -0.29319450724E+03 -0.11629946927E+03  0.32931380321E+03  0.94285329123E+02 0.  0.
        -11    1    3    3    0    0 -0.32924593678E+01 -0.43453773800E+02  0.90208354732E+02  0.10018292274E+03  0.00000000000E+00 0.  1.
         12    1    3    3    0    0 -0.32572968521E+02  0.27924460310E+02  0.14554549372E+03  0.15173748549E+03  0.00000000000E+00 0. -1.
        -11    1    4    4    0    0 -0.16472429598E+02 -0.31968358901E+02  0.11078790161E+02  0.37630526160E+02  0.00000000000E+00 0.  1.
         11    1    4    4    0    0  0.24795414101E+02 -0.26122614834E+03 -0.12737825944E+03  0.29168327705E+03  0.00000000000E+00 0. -1.
         21    1    1    2  503  502  0.37338571731E+02 -0.14818661549E+02  0.78771446757E+02  0.88423427287E+02  0.00000000000E+00 0. -1.
          1    1    1    2  501    0 -0.97961283452E+01  0.32354248228E+03 -0.85613608902E+02  0.33482143300E+03  0.00000000000E+00 0. -1.
<scales pt_clust_5="13000.00000" pt_clust_6="13000.00000" pt_clust_7="13000.00000" pt_clust_8="13000.00000" pt_clust_9="40.17165" pt_clust_10="307.31235"></scales>
<clustering>
<clus scale="   40.172">  1  9  2 -1</clus>
<clus scale="   79.728">  5  6 -1 -1</clus>
<clus scale="   84.679">  1  5  2 -1</clus>
<clus scale="   94.285">  7  8 -1 -1</clus>
<clus scale="  307.312">  2 10  1 -1</clus>
<clus scale="  307.312">  2  5  1 -1</clus>
</clustering>
</event>
<event>
10    4  0.2857708E-005  0.1849987E+03  0.7546771E-02  0.1197804E+00
          2   -1    0    0  503    0 -0.00000000000E+00  0.00000000000E+00  0.18736659526E+03  0.18736659526E+03  0.00000000000E+00 0. -1.
         21   -1    0    0  501  502  0.00000000000E+00 -0.00000000000E+00 -0.42553354035E+03  0.42553354035E+03  0.00000000000E+00 0. -1.
         23    2    1    2    0    0 -0.14767392454E+03 -0.21366933552E+02 -0.21565218996E+03  0.27900312522E+03  0.95250947537E+02 0.  0.
         24    2    1    2    0    0  0.32435114795E+02 -0.16584416936E+02 -0.39833163803E+02  0.95573649488E+02  0.78870539373E+02 0.  0.
        -13    1    4    4    0    0  0.21790584938E+02  0.27810311289E+02 -0.34889061238E+02  0.49653696741E+02  0.00000000000E+00 0.  1.
         14    1    4    4    0    0  0.10644529858E+02 -0.44394728226E+02 -0.49441025648E+01  0.45919952747E+02  0.00000000000E+00 0. -1.
        -13    1    3    3    0    0 -0.13500265241E+03 -0.49238389754E+02 -0.15696760026E+03  0.21281203611E+03  0.00000000000E+00 0. -1.
         13    1    3    3    0    0 -0.12671272130E+02  0.27871456202E+02 -0.58684589703E+02  0.66191089104E+02  0.00000000000E+00 0.  1.
         21    1    1    2  503  502  0.15436071980E+03  0.45392161525E+02  0.67310427871E+02  0.17440864039E+03  0.00000000000E+00 0. -1.
          1    1    1    2  501    0 -0.39121910054E+02 -0.74408110373E+01 -0.49992019200E+02  0.63914720517E+02  0.00000000000E+00 0. -1.
<scales pt_clust_5="13000.00000" pt_clust_6="13000.00000" pt_clust_7="13000.00000" pt_clust_8="13000.00000" pt_clust_9="158.59314" pt_clust_10="39.82323"></scales>
<clustering>
<clus scale="   39.823">  2 10  1 -1</clus>
<clus scale="   78.871">  5  6 -1 -1</clus>
<clus scale="   84.737">  2  5  1 -1</clus>
<clus scale="   95.251">  7  8 -1 -1</clus>
<clus scale="  158.593">  1  9  2 -1</clus>
<clus scale="   39.823">  2  5  1 -1</clus>
</clustering>
</event>
<event>
10    4  0.2857708E-005  0.1167702E+03  0.7546771E-02  0.1251610E+00
          2   -1    0    0  503    0 -0.00000000000E+00  0.00000000000E+00  0.43452582603E+03  0.43452582603E+03  0.00000000000E+00 0. -1.
         21   -1    0    0  501  502  0.00000000000E+00 -0.00000000000E+00 -0.15792403732E+03  0.15792403732E+03  0.00000000000E+00 0. -1.
         23    2    1    2    0    0  0.27595003421E+02  0.30560642974E+02  0.22579049157E+03  0.24697205933E+03  0.91205344648E+02 0.  0.
         24    2    1    2    0    0  0.98605168948E+02 -0.44456684352E+02 -0.52547114638E+01  0.13587821298E+03  0.82072532817E+02 0.  0.
        -11    1    4    4    0    0  0.16140540960E+02 -0.14873614168E+02  0.33523427960E+02  0.40069460729E+02  0.00000000000E+00 0.  1.
         12    1    4    4    0    0  0.82464627987E+02 -0.29583070184E+02 -0.38778139424E+02  0.95808752250E+02  0.00000000000E+00 0. -1.
        -13    1    3    3    0    0 -0.11228534643E+02  0.33302983854E+02  0.26763430232E+02  0.44175218410E+02  0.00000000000E+00 0.  1.
         13    1    3    3    0    0  0.38823538064E+02 -0.27423408801E+01  0.19902706134E+03  0.20279684092E+03  0.00000000000E+00 0. -1.
         21    1    1    2  503  502 -0.54127992351E+02  0.70298857548E+02  0.74961314102E+02  0.11615062437E+03  0.00000000000E+00 0. -1.
          1    1    1    2  501    0 -0.72072180017E+02 -0.56402816170E+02 -0.18895305489E+02  0.93448966681E+02  0.00000000000E+00 0. -1.
<scales pt_clust_5="13000.00000" pt_clust_6="13000.00000" pt_clust_7="13000.00000" pt_clust_8="13000.00000" pt_clust_9="88.72299" pt_clust_10="91.96094"></scales>
<clustering>
<clus scale="   82.073">  5  6 -1 -1</clus>
<clus scale="   88.723">  1  9  2 -1</clus>
<clus scale="   91.205">  7  8 -1 -1</clus>
<clus scale="   91.961">  2 10  1 -1</clus>
<clus scale="  109.785">  2  5  1 -1</clus>
<clus scale="   91.961">  2  5  1 -1</clus>
</clustering>
</event>
<event>
10    4  0.2857708E-005  0.9137430E+02  0.7546771E-02  0.1305006E+00
         21   -1    0    0  503  502  0.00000000000E+00  0.00000000000E+00  0.39517557503E+03  0.39517557503E+03  0.00000000000E+00 0. -1.
          2   -1    0    0  502    0 -0.00000000000E+00 -0.00000000000E+00 -0.40019316322E+02  0.40019316322E+02  0.00000000000E+00 0. -1.
         24    2    1    2    0    0  0.30347551513E+02  0.32146016559E+01  0.82260297407E+02  0.11897707727E+03  0.80358452191E+02 0.  0.
         23    2    1    2    0    0  0.39365653097E+01 -0.76440939713E+01  0.18912554588E+03  0.20931917324E+03  0.89286703733E+02 0.  0.
        -13    1    3    3    0    0 -0.19332950676E+02  0.24009506867E+02  0.40109684590E+02  0.50586620758E+02  0.00000000000E+00 0.  1.
         14    1    3    3    0    0  0.49680502189E+02 -0.20794905211E+02  0.42150612817E+02  0.68390456507E+02  0.00000000000E+00 0. -1.
        -13    1    4    4    0    0 -0.28674281834E+02  0.65548201484E-01  0.15710463095E+02  0.32696137171E+02  0.00000000000E+00 0.  1.
         13    1    4    4    0    0  0.32610847143E+02 -0.77096421728E+01  0.17341508279E+03  0.17662303607E+03  0.00000000000E+00 0. -1.
         21    1    1    2  503  501 -0.50690495522E+01  0.28100166693E+02  0.40809842920E+02  0.49807207418E+02  0.00000000000E+00 0. -1.
          1    1    1    2  501    0 -0.29215067271E+02 -0.23670674378E+02  0.42960572499E+02  0.57091433426E+02  0.00000000000E+00 0. -1.
<scales pt_clust_5="13000.00000" pt_clust_6="13000.00000" pt_clust_7="13000.00000" pt_clust_8="13000.00000" pt_clust_9="28.55371" pt_clust_10="35.81379"></scales>
<clustering>
<clus scale="   28.554">  1  9  2 -1</clus>
<clus scale="   35.814">  1 10  2 -1</clus>
<clus scale="   80.358">  5  6 -1 -1</clus>
<clus scale="   82.672">  2  5  1 -1</clus>
<clus scale="   89.287">  7  8 -1 -1</clus>
<clus scale="   28.554">  1  5  2 -1</clus>
</clustering>
</event>
<event>
10    4  0.2857708E-005  0.1867876E+03  0.7546771E-02  0.1199175E+00
         21   -1    0    0  501  502  0.00000000000E+00  0.00000000000E+00  0.85468704843E+02  0.85468704843E+02  0.00000000000E+00 0. -1.
          2   -1    0    0  503    0 -0.00000000000E+00 -0.00000000000E+00 -0.86537538297E+03  0.86537538297E+03  0.00000000000E+00 0. -1.
         24    2    1    2    0    0 -0.14891210638E+02 -0.18289841028E+02 -0.29449926107E+03  0.30577511001E+03  0.78818377865E+02 0.  0.
         23    2    1    2    0    0  0.10303397609E+03  0.10374497630E+03 -0.21741996791E+03  0.27741949905E+03  0.91165320569E+02 0.  0.
        -13    1    3    3    0    0  0.30884474632E+02 -0.18380234477E+02 -0.11215124850E+03  0.11776920792E+03  0.00000000000E+00 0.  1.
         14    1    3    3    0    0 -0.45775685270E+02  0.90393448686E-01 -0.18234801257E+03  0.18800590209E+03  0.00000000000E+00 0. -1.
        -11    1    4    4    0    0  0.43284448320E+02  0.10376343302E+03 -0.14703493087E+03  0.18509366384E+03  0.00000000000E+00 0. -1.
         11    1    4    4    0    0  0.59749527769E+02 -0.18456716184E-01 -0.70385037037E+02  0.92325835214E+02  0.00000000000E+00 0.  1.
         21    1    1    2  503  502  0.94691028173E+01  0.62013351363E+02 -0.12638125597E+03  0.14109408746E+03  0.00000000000E+00 0. -1.
          1    1    1    2  501    0 -0.97611868268E+02 -0.14746848664E+03 -0.14160619319E+03  0.22655539130E+03  0.00000000000E+00 0. -1.
<scales pt_clust_5="13000.00000" pt_clust_6="13000.00000" pt_clust_7="13000.00000" pt_clust_8="13000.00000" pt_clust_9="62.73213" pt_clust_10="163.02914"></scales>
<clustering>
<clus scale="   62.732">  2  9  1 -1</clus>
<clus scale="   78.818">  5  6 -1 -1</clus>
<clus scale="   79.904">  2  5  1 -1</clus>
<clus scale="   91.165">  7  8 -1 -1</clus>
<clus scale="  163.029">  1 10  2 -1</clus>
<clus scale="  163.029">  1  5  2 -1</clus>
</clustering>
</event>
<event>
10    4  0.2857708E-005  0.1555006E+03  0.7546771E-02  0.1195660E+00
          2   -1    0    0  503    0 -0.00000000000E+00  0.00000000000E+00  0.43326305381E+02  0.43326305381E+02  0.00000000000E+00 0. -1.
         21   -1    0    0  501  502  0.00000000000E+00 -0.00000000000E+00 -0.92958438159E+03  0.92958438159E+03  0.00000000000E+00 0.  1.
         24    2    1    2    0    0  0.67552977276E+02 -0.92904870262E+02 -0.16074910521E+03  0.21343500998E+03  0.80743476528E+02 0.  0.
         23    2    1    2    0    0 -0.56078418326E+02  0.10053693169E+03 -0.61773180650E+03  0.63496976457E+03  0.91332105646E+02 0.  0.
        -13    1    3    3    0    0 -0.15443484433E+02 -0.33713228332E+02 -0.56868059233E+02  0.67890051826E+02  0.00000000000E+00 0.  1.
         14    1    3    3    0    0  0.82996461709E+02 -0.59191641930E+02 -0.10388104597E+03  0.14554495815E+03  0.00000000000E+00 0. -1.
        -13    1    4    4    0    0 -0.12880149839E+02  0.10286889947E+03 -0.43159136595E+03  0.44386824160E+03  0.00000000000E+00 0.  1.
         13    1    4    4    0    0 -0.43198268488E+02 -0.23319677763E+01 -0.18614044055E+03  0.19110152297E+03  0.00000000000E+00 0. -1.
         21    1    1    2  503  502  0.19072673937E+02 -0.19521080700E+02 -0.32752308870E+02  0.42632771656E+02  0.00000000000E+00 0.  1.
          1    1    1    2  501    0 -0.30547232886E+02  0.11889019269E+02 -0.75024855633E+02  0.81873140766E+02  0.00000000000E+00 0. -1.
<scales pt_clust_5="13000.00000" pt_clust_6="13000.00000" pt_clust_7="13000.00000" pt_clust_8="13000.00000" pt_clust_9="27.29175" pt_clust_10="30.57879"></scales>
<clustering>
<clus scale="   27.292">  1  9  2 -1</clus>
<clus scale="   30.579">  2 10  1 -1</clus>
<clus scale="   80.743">  5  6 -1 -1</clus>
<clus scale="   91.332">  7  8 -1 -1</clus>
<clus scale="  149.527">  1  5  2 -1</clus>
<clus scale="   30.579">  2  5  1 -1</clus>
</clustering>
</event>
<event>
10    4  0.2857708E-005  0.1490170E+03  0.7546771E-02  0.1225348E+00
         -3   -1    0    0    0  501 -0.00000000000E+00  0.00000000000E+00  0.12180477740E+03  0.12180477740E+03  0.00000000000E+00 0.  1.
         21   -1    0    0  503  502  0.00000000000E+00 -0.00000000000E+00 -0.35711868823E+03  0.35711868823E+03  0.00000000000E+00 0. -1.
         24    2    1    2    0    0  0.71251597256E+01 -0.33198776713E+02  0.13296839161E+02  0.87064602165E+02  0.79060181773E+02 0.  0.
         23    2    1    2    0    0 -0.12540311727E+03  0.23526667872E+02 -0.18636174710E+03  0.24366206804E+03  0.91438813962E+02 0.  0.
        -13    1    3    3    0    0 -0.26130799928E+02 -0.19188802244E+02  0.32738407756E+02  0.46074202965E+02  0.00000000000E+00 0.  1.
         14    1    3    3    0    0  0.33255959653E+02 -0.14009974470E+02 -0.19441568596E+02  0.40990399200E+02  0.00000000000E+00 0. -1.
        -11    1    4    4    0    0 -0.11132283606E+02  0.31163699390E+02 -0.12303359672E+02  0.35305474890E+02  0.00000000000E+00 0.  1.
         11    1    4    4    0    0 -0.11427083366E+03 -0.76370315185E+01 -0.17405838743E+03  0.20835659315E+03  0.00000000000E+00 0. -1.
         21    1    1    2  503  501  0.99457410397E+01 -0.19451527749E+02 -0.57360650074E+01  0.22587211832E+02  0.00000000000E+00 0.  1.
         -4    1    1    2    0  502  0.10833221650E+03  0.29123636591E+02 -0.56512937892E+02  0.12560958359E+03  0.00000000000E+00 0.  1.
<scales pt_clust_5="13000.00000" pt_clust_6="13000.00000" pt_clust_7="13000.00000" pt_clust_8="13000.00000" pt_clust_9="21.84673" pt_clust_10="117.66481"></scales>
<clustering>
<clus scale="   21.847">  1  9  2 -1</clus>
<clus scale="   79.060">  5  6 -1 -1</clus>
<clus scale="   90.174">  1  5  2 -1</clus>
<clus scale="   91.439">  7  8 -1 -1</clus>
<clus scale="  117.665">  2 10  1 -1</clus>
<clus scale="  117.665">  2  5  1 -1</clus>
</clustering>
</event>
<event>
10    4  0.2857708E-005  0.1075067E+03  0.7546771E-02  0.1269850E+00
         -1   -1    0    0    0  501 -0.00000000000E+00  0.00000000000E+00  0.22713690250E+03  0.22713690250E+03  0.00000000000E+00 0.  1.
         21   -1    0    0  503  502  0.00000000000E+00 -0.00000000000E+00 -0.64966721557E+03  0.64966721557E+03  0.00000000000E+00 0.  1.
         23    2    1    2    0    0  0.10385662099E+02 -0.63368686856E+02  0.14864912952E+03  0.18646339561E+03  0.92458540679E+02 0.  0.
         24    2    1    2    0    0 -0.47481284909E+02 -0.18317913589E+00 -0.58660836108E+03  0.59415902134E+03  0.81615362374E+02 0.  0.
        -13    1    4    4    0    0 -0.58575194855E+02 -0.12167863227E+02 -0.24639635604E+03  0.25355526936E+03  0.00000000000E+00 0.  1.
         14    1    4    4    0    0  0.11093909946E+02  0.11984684091E+02 -0.34021200504E+03  0.34060375198E+03  0.00000000000E+00 0. -1.
        -11    1    3    3    0    0  0.27514476636E+02 -0.81812282823E+02  0.10346731205E+03  0.13474338837E+03  0.00000000000E+00 0.  1.
         11    1    3    3    0    0 -0.17128814537E+02  0.18443595967E+02  0.45181817467E+02  0.51720007243E+02  0.00000000000E+00 0. -1.
         21    1    1    2  503  501  0.28038288499E+02  0.22520631189E+02  0.34682148738E+02  0.49961744287E+02  0.00000000000E+00 0.  1.
         -2    1    1    2    0  502  0.90573343113E+01  0.41031234803E+02 -0.19253230249E+02  0.46219956829E+02  0.00000000000E+00 0.  1.
<scales pt_clust_5="13000.00000" pt_clust_6="13000.00000" pt_clust_7="13000.00000" pt_clust_8="13000.00000" pt_clust_9="35.96282" pt_clust_10="44.09499"></scales>
<clustering>
<clus scale="   35.963">  1  9  2 -1</clus>
<clus scale="   44.095">  2 10  1 -1</clus>
<clus scale="   81.615">  5  6 -1 -1</clus>
<clus scale="   92.459">  7  8 -1 -1</clus>
<clus scale="   98.337">  2  5  1 -1</clus>
<clus scale="   44.095">  2  5  1 -1</clus>
</clustering>
</event>
<event>
10    4  0.2857708E-005  0.1071359E+03  0.7546771E-02  0.1271811E+00
         -1   -1    0    0    0  501 -0.00000000000E+00  0.00000000000E+00  0.11460783991E+03  0.11460783991E+03  0.00000000000E+00 0.  1.
         21   -1    0    0  503  502  0.00000000000E+00 -0.00000000000E+00 -0.41144665872E+03  0.41144665872E+03  0.00000000000E+00 0. -1.
         23    2    1    2    0    0 -0.68714878229E+02  0.34563944104E+02 -0.81099087252E+02  0.14567380202E+03  0.93420521934E+02 0.  0.
         24    2    1    2    0    0 -0.29064736732E+01 -0.52261319343E+02 -0.13365930981E+03  0.16433538576E+03  0.80010092022E+02 0.  0.
        -11    1    4    4    0    0  0.32772638654E+02 -0.10353150490E+02 -0.24895362158E+02  0.42438339110E+02  0.00000000000E+00 0.  1.
         12    1    4    4    0    0 -0.35679112328E+02 -0.41908168853E+02 -0.10876394765E+03  0.12189704665E+03  0.00000000000E+00 0. -1.
        -13    1    3    3    0    0 -0.83565390450E+02  0.50536479911E+02 -0.56604706344E+02  0.11287693769E+03  0.00000000000E+00 0.  1.
         13    1    3    3    0    0  0.14850512220E+02 -0.15972535807E+02 -0.24494380907E+02  0.32796864322E+02  0.00000000000E+00 0. -1.
         21    1    1    2  503  501  0.38217290764E+02  0.55160671371E+01  0.59022727259E+02  0.70531345110E+02  0.00000000000E+00 0.  1.
         -2    1    1    2    0  502  0.33404061138E+02  0.12181308102E+02 -0.14110314901E+03  0.14551396575E+03  0.00000000000E+00 0.  1.
<scales pt_clust_5="13000.00000" pt_clust_6="13000.00000" pt_clust_7="13000.00000" pt_clust_8="13000.00000" pt_clust_9="39.36048" pt_clust_10="35.55581"></scales>
<clustering>
<clus scale="   35.556">  2 10  1 -1</clus>
<clus scale="   39.360">  1  9  2 -1</clus>
<clus scale="   80.010">  5  6 -1 -1</clus>
<clus scale="   93.421">  7  8 -1 -1</clus>
<clus scale="   95.668">  2  5  1 -1</clus>
<clus scale="   35.556">  2  5  1 -1</clus>
</clustering>
</event>
<event>
10    4  0.2857708E-005  0.2265912E+03  0.7546771E-02  0.1129062E+00
         -1   -1    0    0    0  501 -0.00000000000E+00  0.00000000000E+00  0.66463913493E+03  0.66463913493E+03  0.00000000000E+00 0.  1.
         21   -1    0    0  503  502  0.00000000000E+00 -0.00000000000E+00 -0.10263120337E+03  0.10263120337E+03  0.00000000000E+00 0.  1.
         24    2    1    2    0    0 -0.89766322477E+02 -0.10852929582E+02  0.23836984021E+03  0.26742686214E+03  0.80753743810E+02 0.  0.
         23    2    1    2    0    0 -0.70592246020E+02  0.30587077615E+02  0.16742238536E+03  0.20661476756E+03  0.93491029178E+02 0.  0.
        -11    1    3    3    0    0 -0.91119838143E+02 -0.15887479821E+02  0.24327717405E+03  0.26026720948E+03  0.00000000000E+00 0.  1.
         12    1    3    3    0    0  0.13535156661E+01  0.50345502391E+01 -0.49073338377E+01  0.71596526566E+01  0.00000000000E+00 0. -1.
        -11    1    4    4    0    0 -0.22237049102E+02  0.24012908093E+02  0.15192934209E+03  0.15541438510E+03  0.00000000000E+00 0. -1.
         11    1    4    4    0    0 -0.48355196918E+02  0.65741695227E+01  0.15493043272E+02  0.51200382457E+02  0.00000000000E+00 0.  1.
         21    1    1    2  503  501  0.34072925752E+02 -0.43428592510E+02  0.15521207158E+03  0.16473552769E+03  0.00000000000E+00 0.  1.
         -2    1    1    2    0  502  0.12628564274E+03  0.23694444476E+02  0.10036344008E+01  0.12849318093E+03  0.00000000000E+00 0.  1.
<scales pt_clust_5="13000.00000" pt_clust_6="13000.00000" pt_clust_7="13000.00000" pt_clust_8="13000.00000" pt_clust_9="55.19970" pt_clust_10="131.90803"></scales>
<clustering>
<clus scale="   55.200">  1  9  2 -1</clus>
<clus scale="   80.754">  5  6 -1 -1</clus>
<clus scale="   93.491">  7  8 -1 -1</clus>
<clus scale="  102.143">  5  7 -1 -1</clus>
<clus scale="  131.908">  2 10  1 -1</clus>
<clus scale="  131.908">  2  5  1 -1</clus>
</clustering>
</event>
<event>
10    4  0.2857708E-005  0.9936055E+02  0.7546771E-02  0.1288835E+00
         -3   -1    0    0    0  501 -0.00000000000E+00  0.00000000000E+00  0.75226233086E+02  0.75226233086E+02  0.00000000000E+00 0.  1.
         21   -1    0    0  503  502  0.00000000000E+00 -0.00000000000E+00 -0.51409682643E+03  0.51409682643E+03  0.00000000000E+00 0.  1.
         24    2    1    2    0    0 -0.22559265162E+02 -0.20473130357E+01 -0.24850660950E+02  0.86733279142E+02  0.79949949504E+02 0.  0.
         23    2    1    2    0    0  0.26655285660E+02 -0.84691384002E+02 -0.33321456177E+03  0.35728560841E+03  0.93476879601E+02 0.  0.
        -11    1    3    3    0    0 -0.31518843730E+02 -0.35345883052E+02 -0.21742793569E+02  0.52110632610E+02  0.00000000000E+00 0.  1.
         12    1    3    3    0    0  0.89595785676E+01  0.33298570016E+02 -0.31078673815E+01  0.34622646532E+02  0.00000000000E+00 0. -1.
        -11    1    4    4    0    0  0.61884257504E+02 -0.56030475725E+02 -0.21232010410E+03  0.22814228486E+03  0.00000000000E+00 0.  1.
         11    1    4    4    0    0 -0.35228971845E+02 -0.28660908277E+02 -0.12089445767E+03  0.12914332355E+03  0.00000000000E+00 0. -1.
         21    1    1    2  503  501  0.62139303416E+01  0.30523814831E+02  0.14356309055E+02  0.34298976833E+02  0.00000000000E+00 0.  1.
         -4    1    1    2    0  502 -0.10309950839E+02  0.56214882207E+02 -0.95161679674E+02  0.11100519513E+03  0.00000000000E+00 0.  1.
<scales pt_clust_5="13000.00000" pt_clust_6="13000.00000" pt_clust_7="13000.00000" pt_clust_8="13000.00000" pt_clust_9="31.14990" pt_clust_10="61.67728"></scales>
<clustering>
<clus scale="   31.150">  1  9  2 -1</clus>
<clus scale="   61.677">  2 10  1 -1</clus>
<clus scale="   79.950">  5  6 -1 -1</clus>
<clus scale="   86.756">  1  5  2 -1</clus>
<clus scale="   93.477">  7  8 -1 -1</clus>
<clus scale="   61.677">  2  5  1 -1</clus>
</clustering>
</event>
<event>
10    4  0.2857708E-005  0.1157074E+03  0.7546771E-02  0.1254383E+00
         21   -1    0    0  501  502  0.00000000000E+00  0.00000000000E+00  0.75314487333E+02  0.75314487333E+02  0.00000000000E+00 0.  1.
          2   -1    0    0  503    0 -0.00000000000E+00 -0.00000000000E+00 -0.35789942539E+03  0.35789942539E+03  0.00000000000E+00 0. -1.
         24    2    1    2    0    0  0.38107130381E+02 -0.68811360904E+02 -0.20393469900E+03  0.23301196317E+03  0.80734483009E+02 0.  0.
         23    2    1    2    0    0 -0.44108528465E+02  0.66295615477E+02 -0.25984565398E+02  0.12457369417E+03  0.92210285351E+02 0.  0.
        -11    1    3    3    0    0 -0.16243815990E+02 -0.52422945491E+02 -0.84283407823E+02  0.10057693377E+03  0.00000000000E+00 0.  1.
         12    1    3    3    0    0  0.54350946372E+02 -0.16388415413E+02 -0.11965129118E+03  0.13243502940E+03  0.00000000000E+00 0. -1.
        -13    1    4    4    0    0  0.28343569707E+02  0.27916793246E+02 -0.10342822063E+02  0.41105708327E+02  0.00000000000E+00 0. -1.
         13    1    4    4    0    0 -0.72452098172E+02  0.38378822232E+02 -0.15641743334E+02  0.83467985839E+02  0.00000000000E+00 0.  1.
         21    1    1    2  503  502  0.51854525573E+01  0.25216972061E+02 -0.44648637345E+02  0.51539163894E+02  0.00000000000E+00 0. -1.
          1    1    1    2  501    0  0.81594552638E+00 -0.22701226634E+02 -0.80170363105E+01  0.24089091494E+02  0.00000000000E+00 0. -1.
<scales pt_clust_5="13000.00000" pt_clust_6="13000.00000" pt_clust_7="13000.00000" pt_clust_8="13000.00000" pt_clust_9="24.61587" pt_clust_10="22.71589"></scales>
<clustering>
<clus scale="   22.716">  1 10  2 -1</clus>
<clus scale="   24.616">  2  9  1 -1</clus>
<clus scale="   80.734">  5  6 -1 -1</clus>
<clus scale="   92.210">  7  8 -1 -1</clus>
<clus scale="  106.787">  2  5  1 -1</clus>
<clus scale="   22.716">  1  5  2 -1</clus>
</clustering>
</event>
<event>
10    4  0.2857708E-005  0.1090802E+03  0.7546771E-02  0.1275370E+00
         21   -1    0    0  503  502  0.00000000000E+00  0.00000000000E+00  0.23549352983E+03  0.23549352983E+03  0.00000000000E+00 0. -1.
         -1   -1    0    0    0  501 -0.00000000000E+00 -0.00000000000E+00 -0.20085925998E+03  0.20085925998E+03  0.00000000000E+00 0.  1.
         23    2    1    2    0    0 -0.33688018888E+02  0.50915197116E+02  0.11752614388E+02  0.12028785299E+03  0.10297477224E+03 0.  0.
         24    2    1    2    0    0  0.48364901217E+01  0.18105500099E+02  0.14264416484E+03  0.16300024354E+03  0.76619324317E+02 0.  0.
        -13    1    4    4    0    0  0.17261313309E+02 -0.14748996897E+02  0.83542434478E+01  0.24192544930E+02  0.00000000000E+00 0.  1.
         14    1    4    4    0    0 -0.12424823187E+02  0.32854496996E+02  0.13428992140E+03  0.13880769861E+03  0.00000000000E+00 0. -1.
        -11    1    3    3    0    0  0.33609233293E+02  0.33971360401E+02  0.16929429286E+02  0.50697529190E+02  0.00000000000E+00 0. -1.
         11    1    3    3    0    0 -0.67297252181E+02  0.16943836715E+02 -0.51768148975E+01  0.69590323797E+02  0.00000000000E+00 0.  1.
         21    1    1    2  503  501  0.26486908220E+02 -0.37410883925E+00 -0.29662993465E+02  0.39769202227E+02  0.00000000000E+00 0.  1.
         -2    1    1    2    0  502  0.23646205461E+01 -0.68646588375E+02 -0.90099515921E+02  0.11329549106E+03  0.00000000000E+00 0.  1.
<scales pt_clust_5="13000.00000" pt_clust_6="13000.00000" pt_clust_7="13000.00000" pt_clust_8="13000.00000" pt_clust_9="26.48955" pt_clust_10="71.33704"></scales>
<clustering>
<clus scale="   26.490">  2  9  1 -1</clus>
<clus scale="   71.337">  1 10  2 -1</clus>
<clus scale="   76.619">  5  6 -1 -1</clus>
<clus scale="   84.648">  1  5  2 -1</clus>
<clus scale="  102.975">  7  8 -1 -1</clus>
<clus scale="   71.337">  1  5  2 -1</clus>
</clustering>
</event>
<event>
10    4  0.2857708E-005  0.1956892E+03  0.7546771E-02  0.1160421E+00
         21   -1    0    0  501  502  0.00000000000E+00  0.00000000000E+00  0.19115214791E+03  0.19115214791E+03  0.00000000000E+00 0.  1.
          2   -1    0    0  503    0 -0.00000000000E+00 -0.00000000000E+00 -0.74571101970E+03  0.74571101970E+03  0.00000000000E+00 0. -1.
         23    2    1    2    0    0  0.13667212060E+03  0.80091309251E+02 -0.43230655528E+03  0.46879305873E+03  0.88227477631E+02 0.  0.
         24    2    1    2    0    0  0.39848329048E+02 -0.19100560899E+03 -0.19877031696E+02  0.21467694662E+03  0.87292972371E+02 0.  0.
        -13    1    4    4    0    0  0.23197999428E+02 -0.18419008564E+03  0.28795542634E+01  0.18566751643E+03  0.00000000000E+00 0.  1.
         14    1    4    4    0    0  0.16650329620E+02 -0.68155233508E+01 -0.22756585960E+02  0.29009430183E+02  0.00000000000E+00 0. -1.
        -13    1    3    3    0    0  0.79864423599E+02  0.92539192982E+02 -0.26996573329E+03  0.29635000514E+03  0.00000000000E+00 0.  1.
         13    1    3    3    0    0  0.56807697000E+02 -0.12447883731E+02 -0.16234082199E+03  0.17244305359E+03  0.00000000000E+00 0. -1.
         21    1    1    2  503  502 -0.33527353467E+02  0.27814327075E+01 -0.60603722158E+02  0.69315445160E+02  0.00000000000E+00 0. -1.
          1    1    1    2  501    0 -0.14299309618E+03  0.10813286703E+03 -0.41771562657E+02  0.18407771710E+03  0.00000000000E+00 0. -1.
<scales pt_clust_5="13000.00000" pt_clust_6="13000.00000" pt_clust_7="13000.00000" pt_clust_8="13000.00000" pt_clust_9="33.64253" pt_clust_10="175.14060"></scales>
<clustering>
<clus scale="   33.643">  2  9  1 -1</clus>
<clus scale="   87.293">  5  6 -1 -1</clus>
<clus scale="   88.227">  7  8 -1 -1</clus>
<clus scale="  166.142">  2  7  1 -1</clus>
<clus scale="  175.141">  1 10  2 -1</clus>
<clus scale="  175.141">  1  5  2 -1</clus>
</clustering>
</event>
<event>
10    4  0.2857708E-005  0.2042104E+03  0.7546771E-02  0.1147091E+00
          2   -1    0    0  503    0 -0.00000000000E+00  0.00000000000E+00  0.40541978717E+03  0.40541978717E+03  0.00000000000E+00 0. -1.
         21   -1    0    0  501  502  0.00000000000E+00 -0.00000000000E+00 -0.29404146994E+03  0.29404146994E+03  0.00000000000E+00 0. -1.
         23    2    1    2    0    0 -0.14309311676E+03  0.46936366536E+02  0.34845316572E+02  0.17929617794E+03  0.90852962358E+02 0.  0.
         24    2    1    2    0    0  0.21934128922E+03  0.21109656313E+02 -0.11321005110E+03  0.26068977920E+03  0.81156802335E+02 0.  0.
        -11    1    4    4    0    0  0.11607986377E+02 -0.18590297197E+02 -0.27507409617E+01  0.22088709184E+02  0.00000000000E+00 0.  1.
         12    1    4    4    0    0  0.20773330284E+03  0.39699953510E+02 -0.11045931014E+03  0.23860107002E+03  0.00000000000E+00 0. -1.
        -11    1    3    3    0    0 -0.73293052113E+01  0.23225224589E+02  0.33567077204E+02  0.41471417194E+02  0.00000000000E+00 0. -1.
         11    1    3    3    0    0 -0.13576381155E+03  0.23711141947E+02  0.12782393675E+01  0.13782476075E+03  0.00000000000E+00 0.  1.
         21    1    1    2  503  502 -0.51720266953E+02 -0.61912808116E+02  0.21134617882E+03  0.22621978058E+03  0.00000000000E+00 0. -1.
          1    1    1    2  501    0 -0.24527905503E+02 -0.61332147326E+01 -0.21603127055E+02  0.33255519390E+02  0.00000000000E+00 0. -1.
<scales pt_clust_5="13000.00000" pt_clust_6="13000.00000" pt_clust_7="13000.00000" pt_clust_8="13000.00000" pt_clust_9="81.24429" pt_clust_10="25.28309"></scales>
<clustering>
<clus scale="   25.283">  2 10  1 -1</clus>
<clus scale="   81.157">  5  6 -1 -1</clus>
<clus scale="   81.244">  1  9  2 -1</clus>
<clus scale="   90.853">  7  8 -1 -1</clus>
<clus scale="  200.085">  2  5  1 -1</clus>
<clus scale="   25.283">  2  5  1 -1</clus>
</clustering>
</event>
<event>
10    4  0.2857708E-005  0.1025391E+03  0.7546771E-02  0.1279186E+00
          2   -1    0    0  503    0 -0.00000000000E+00  0.00000000000E+00  0.10802560738E+04  0.10802560738E+04  0.00000000000E+00 0. -1.
         21   -1    0    0  501  502  0.00000000000E+00 -0.00000000000E+00 -0.10131146021E+03  0.10131146021E+03  0.00000000000E+00 0. -1.
         24    2    1    2    0    0 -0.56994577985E+02 -0.69697763542E+02  0.62690037363E+03  0.63853974288E+03  0.81380369962E+02 0.  0.
         23    2    1    2    0    0 -0.22470506043E+02  0.37760523319E+02  0.13582132412E+03  0.16893995765E+03  0.90346535303E+02 0.  0.
        -13    1    3    3    0    0 -0.72580265751E+02 -0.45362908183E+02  0.35791776837E+03  0.36800926256E+03  0.00000000000E+00 0.  1.
         14    1    3    3    0    0  0.15585687766E+02 -0.24334855359E+02  0.26898260526E+03  0.27053048032E+03  0.00000000000E+00 0. -1.
        -13    1    4    4    0    0 -0.54845644713E+02  0.23595478915E+02  0.11004847306E+03  0.12520166849E+03  0.00000000000E+00 0.  1.
         13    1    4    4    0    0  0.32375138670E+02  0.14165044404E+02  0.25772851057E+02  0.43738289158E+02  0.00000000000E+00 0. -1.
         21    1    1    2  503  502  0.60376869128E+02  0.23137208231E+02  0.29013124099E+03  0.29724877415E+03  0.00000000000E+00 0. -1.
          1    1    1    2  501    0  0.19088214901E+02  0.88000319920E+01 -0.73908325158E+02  0.76839059330E+02  0.00000000000E+00 0. -1.
<scales pt_clust_5="13000.00000" pt_clust_6="13000.00000" pt_clust_7="13000.00000" pt_clust_8="13000.00000" pt_clust_9="67.53619" pt_clust_10="21.01905"></scales>
<clustering>
<clus scale="   21.019">  2 10  1 -1</clus>
<clus scale="   67.536">  1  9  2 -1</clus>
<clus scale="   81.380">  5  6 -1 -1</clus>
<clus scale="   90.347">  7  8 -1 -1</clus>
<clus scale="   94.734">  1  5  2 -1</clus>
<clus scale="   21.019">  2  5  1 -1</clus>
</clustering>
</event>
<event>
10    4  0.2857708E-005  0.1690880E+03  0.7546771E-02  0.1180343E+00
         21   -1    0    0  501  502  0.00000000000E+00  0.00000000000E+00  0.39916894561E+02  0.39916894561E+02  0.00000000000E+00 0. -1.
          2   -1    0    0  503    0 -0.00000000000E+00 -0.00000000000E+00 -0.13907557254E+04  0.13907557254E+04  0.00000000000E+00 0. -1.
         24    2    1    2    0    0 -0.15056298806E+03  0.24962087123E+02 -0.77898148958E+03  0.79773116472E+03  0.79186683770E+02 0.  0.
         23    2    1    2    0    0  0.12655366487E+03  0.34879028985E+02 -0.37735509497E+03  0.40965138006E+03  0.90471038077E+02 0.  0.
        -13    1    3    3    0    0 -0.55290151029E+02  0.13927675000E+02 -0.13354428463E+03  0.14520694505E+03  0.00000000000E+00 0.  1.
         14    1    3    3    0    0 -0.95272837029E+02  0.11034412123E+02 -0.64543720495E+03  0.65252421967E+03  0.00000000000E+00 0. -1.
        -11    1    4    4    0    0  0.27640213539E+02 -0.25360376004E+02 -0.14845411896E+03  0.15312006894E+03  0.00000000000E+00 0.  1.
         11    1    4    4    0    0  0.98913451331E+02  0.60239404989E+02 -0.22890097601E+03  0.25653131112E+03  0.00000000000E+00 0. -1.
         21    1    1    2  503  502 -0.68057886839E+01  0.20043289827E+02 -0.62161282983E+02  0.65666409441E+02  0.00000000000E+00 0. -1.
          1    1    1    2  501    0  0.30815111872E+02 -0.79884405935E+02 -0.13234096326E+03  0.15762366570E+03  0.00000000000E+00 0. -1.
<scales pt_clust_5="13000.00000" pt_clust_6="13000.00000" pt_clust_7="13000.00000" pt_clust_8="13000.00000" pt_clust_9="21.16724" pt_clust_10="83.31084"></scales>
<clustering>
<clus scale="   21.167">  2  9  1 -1</clus>
<clus scale="   79.187">  5  6 -1 -1</clus>
<clus scale="   83.311">  1 10  2 -1</clus>
<clus scale="   90.471">  7  8 -1 -1</clus>
<clus scale="  163.329">  2  5  1 -1</clus>
<clus scale="   83.311">  1  5  2 -1</clus>
</clustering>
</event>
<event>
10    4  0.2857708E-005  0.2237541E+03  0.7546771E-02  0.1131788E+00
          2   -1    0    0  503    0 -0.00000000000E+00  0.00000000000E+00  0.93794160679E+03  0.93794160679E+03  0.00000000000E+00 0. -1.
         21   -1    0    0  501  502  0.00000000000E+00 -0.00000000000E+00 -0.12447325502E+03  0.12447325502E+03  0.00000000000E+00 0.  1.
         23    2    1    2    0    0 -0.19336932165E+03  0.10401547047E+03  0.50801354233E+03  0.56074864823E+03  0.90279425400E+02 0.  0.
         24    2    1    2    0    0  0.14541805212E+03 -0.11720997418E+03  0.25719141013E+03  0.32796011176E+03  0.80782581846E+02 0.  0.
        -13    1    4    4    0    0  0.10909911144E+03 -0.49179166803E+02  0.19542614202E+03  0.22915624266E+03  0.00000000000E+00 0.  1.
         14    1    4    4    0    0  0.36318940683E+02 -0.68030807377E+02  0.61765268114E+02  0.98803869104E+02  0.00000000000E+00 0. -1.
        -11    1    3    3    0    0 -0.15666735574E+03  0.37733014127E+02  0.36201471319E+03  0.39626139514E+03  0.00000000000E+00 0.  1.
         11    1    3    3    0    0 -0.36701965909E+02  0.66282456342E+02  0.14599882913E+03  0.16448725309E+03  0.00000000000E+00 0. -1.
         21    1    1    2  503  502  0.76571072158E+02  0.22830889404E+02  0.91175887881E+02  0.12123292100E+03  0.00000000000E+00 0.  1.
          1    1    1    2  501    0 -0.28619802631E+02 -0.96363856931E+01 -0.42912488568E+02  0.52473180835E+02  0.00000000000E+00 0. -1.
<scales pt_clust_5="13000.00000" pt_clust_6="13000.00000" pt_clust_7="13000.00000" pt_clust_8="13000.00000" pt_clust_9="73.99534" pt_clust_10="30.19856"></scales>
<clustering>
<clus scale="   30.199">  2 10  1 -1</clus>
<clus scale="   73.995">  2  9  1 -1</clus>
<clus scale="   80.783">  5  6 -1 -1</clus>
<clus scale="   90.279">  7  8 -1 -1</clus>
<clus scale="  220.094">  2  5  1 -1</clus>
<clus scale="   30.199">  2  5  1 -1</clus>
</clustering>
</event>
<event>
10    4  0.2857708E-005  0.2281171E+03  0.7546771E-02  0.1154286E+00
         21   -1    0    0  503  502  0.00000000000E+00  0.00000000000E+00  0.13569586747E+03  0.13569586747E+03  0.00000000000E+00 0.  1.
         -3   -1    0    0    0  501 -0.00000000000E+00 -0.00000000000E+00 -0.78325873876E+03  0.78325873876E+03  0.00000000000E+00 0.  1.
         23    2    1    2    0    0 -0.77904364768E+02  0.21879072960E+02 -0.73205914201E+02  0.14219338503E+03  0.91170548917E+02 0.  0.
         24    2    1    2    0    0  0.16179376737E+01 -0.20009093505E+03 -0.24443837574E+03  0.32799750833E+03  0.88279362982E+02 0.  0.
        -11    1    4    4    0    0  0.15204268280E+02 -0.20232464758E+03 -0.21569350383E+03  0.29612517689E+03  0.00000000000E+00 0.  1.
         12    1    4    4    0    0 -0.13586330606E+02  0.22337125265E+01 -0.28744871906E+02  0.31872331447E+02  0.00000000000E+00 0. -1.
        -13    1    3    3    0    0  0.66297702476E+01  0.34239082651E+02 -0.11195894788E+02  0.36628086142E+02  0.00000000000E+00 0. -1.
         13    1    3    3    0    0 -0.84534135016E+02 -0.12360009691E+02 -0.62010019413E+02  0.10556529889E+03  0.00000000000E+00 0.  1.
         21    1    1    2  503  501 -0.47585844842E+00 -0.32066522781E+02 -0.17163327305E+03  0.17460374779E+03  0.00000000000E+00 0.  1.
         -4    1    1    2    0  502  0.76762285543E+02  0.21027838487E+03 -0.15828530830E+03  0.27415996507E+03  0.00000000000E+00 0.  1.
<scales pt_clust_5="13000.00000" pt_clust_6="13000.00000" pt_clust_7="13000.00000" pt_clust_8="13000.00000" pt_clust_9="32.07005" pt_clust_10="210.34301"></scales>
<clustering>
<clus scale="   32.070">  2  9  1 -1</clus>
<clus scale="   88.279">  5  6 -1 -1</clus>
<clus scale="   91.171">  7  8 -1 -1</clus>
<clus scale="  121.067">  2  7  1 -1</clus>
<clus scale="  210.343">  1 10  2 -1</clus>
<clus scale="  210.343">  1  5  2 -1</clus>
</clustering>
</event>
<event>
10    4  0.2857708E-005  0.9843423E+02  0.7546771E-02  0.1290487E+00
          2   -1    0    0  503    0 -0.00000000000E+00  0.00000000000E+00  0.49173066742E+03  0.49173066742E+03  0.00000000000E+00 0. -1.
         21   -1    0    0  501  502  0.00000000000E+00 -0.00000000000E+00 -0.12470796485E+03  0.12470796485E+03  0.00000000000E+00 0.  1.
         23    2    1    2    0    0  0.15884077875E+00  0.34393720496E+02  0.16642377047E+03  0.19315711715E+03  0.91814199803E+02 0.  0.
         24    2    1    2    0    0  0.14772638816E+02 -0.84011369473E+01 -0.89901561635E+02  0.12081114813E+03  0.78893806901E+02 0.  0.
        -13    1    4    4    0    0  0.44514481345E+02  0.33006671719E+01 -0.70437127482E+02  0.83389581970E+02  0.00000000000E+00 0.  1.
         14    1    4    4    0    0 -0.29741842528E+02 -0.11701804119E+02 -0.19464434153E+02  0.37421566155E+02  0.00000000000E+00 0. -1.
        -13    1    3    3    0    0 -0.18203644547E+02 -0.17237543887E+02  0.11603553271E+03  0.11871289082E+03  0.00000000000E+00 0. -1.
         13    1    3    3    0    0  0.18362485326E+02  0.51631264383E+02  0.50388237760E+02  0.74444226329E+02  0.00000000000E+00 0.  1.
         21    1    1    2  503  502 -0.34494194776E+02 -0.83873038695E+01  0.25900454604E+03  0.26142599566E+03  0.00000000000E+00 0. -1.
          1    1    1    2  501    0  0.19562715181E+02 -0.17605279679E+02  0.31495947686E+02  0.41044371338E+02  0.00000000000E+00 0. -1.
<scales pt_clust_5="13000.00000" pt_clust_6="13000.00000" pt_clust_7="13000.00000" pt_clust_8="13000.00000" pt_clust_9="35.35002" pt_clust_10="26.31818"></scales>
<clustering>
<clus scale="   26.318">  2 10  1 -1</clus>
<clus scale="   35.350">  1  9  2 -1</clus>
<clus scale="   78.894">  5  6 -1 -1</clus>
<clus scale="   86.508">  2  5  1 -1</clus>
<clus scale="   91.814">  7  8 -1 -1</clus>
<clus scale="   26.318">  2  5  1 -1</clus>
</clustering>
</event>
<event>
10    4  0.2857708E-005  0.3490212E+03  0.7546771E-02  0.1063432E+00
         21   -1    0    0  501  502  0.00000000000E+00  0.00000000000E+00  0.13984202666E+03  0.13984202666E+03  0.00000000000E+00 0. -1.
          2   -1    0    0  503    0 -0.00000000000E+00 -0.00000000000E+00 -0.30112027493E+04  0.30112027493E+04  0.00000000000E+00 0. -1.
         24    2    1    2    0    0 -0.29139123866E+03  0.26065935537E+03 -0.16995644264E+04  0.17455957701E+04  0.75717895328E+02 0.  0.
         23    2    1    2    0    0  0.33761939475E+03  0.19755890968E+02 -0.78272994615E+03  0.85764341590E+03  0.92243749453E+02 0.  0.
        -13    1    3    3    0    0 -0.31385392644E+02  0.25401263422E+01 -0.11554127967E+03  0.11975509350E+03  0.00000000000E+00 0.  1.
         14    1    3    3    0    0 -0.26000584602E+03  0.25811922903E+03 -0.15840231467E+04  0.16258406766E+04  0.00000000000E+00 0. -1.
        -11    1    4    4    0    0  0.22725401948E+03  0.55295103651E+02 -0.49688981581E+03  0.54918250783E+03  0.00000000000E+00 0. -1.
         11    1    4    4    0    0  0.11036537527E+03 -0.35539212682E+02 -0.28584013033E+03  0.30846090807E+03  0.00000000000E+00 0.  1.
         21    1    1    2  503  502  0.38618084806E+02 -0.79957982870E+01 -0.20386098237E+03  0.20764052928E+03  0.00000000000E+00 0. -1.
          1    1    1    2  501    0 -0.84846240891E+02 -0.27241944805E+03 -0.18520536776E+03  0.34016506069E+03  0.00000000000E+00 0. -1.
<scales pt_clust_5="13000.00000" pt_clust_6="13000.00000" pt_clust_7="13000.00000" pt_clust_8="13000.00000" pt_clust_9="39.43716" pt_clust_10="284.98980"></scales>
<clustering>
<clus scale="   39.437">  2  9  1 -1</clus>
<clus scale="   75.718">  5  6 -1 -1</clus>
<clus scale="   92.244">  7  8 -1 -1</clus>
<clus scale="  284.990">  1 10  2 -1</clus>
<clus scale="  345.022">  2  5  1 -1</clus>
<clus scale="  284.990">  1  5  2 -1</clus>
</clustering>
</event>
<event>
10    4  0.2857708E-005  0.3376398E+03  0.7546771E-02  0.1086283E+00
         21   -1    0    0  501  502  0.00000000000E+00  0.00000000000E+00  0.55459671722E+03  0.55459671722E+03  0.00000000000E+00 0.  1.
          2   -1    0    0  503    0 -0.00000000000E+00 -0.00000000000E+00 -0.71799530725E+03  0.71799530725E+03  0.00000000000E+00 0. -1.
         23    2    1    2    0    0 -0.14823851980E+03  0.92624541345E+02 -0.15577195445E+03  0.25205095825E+03  0.93331770325E+02 0.  0.
         24    2    1    2    0    0 -0.19689855127E+03 -0.14638080480E+03 -0.35168075536E+03  0.43641950215E+03  0.81155706304E+02 0.  0.
        -11    1    4    4    0    0 -0.61877751613E+02 -0.59859151696E+02 -0.19050751897E+03  0.20905762117E+03  0.00000000000E+00 0.  1.
         12    1    4    4    0    0 -0.13502079965E+03 -0.86521653101E+02 -0.16117323639E+03  0.22736188098E+03  0.00000000000E+00 0. -1.
        -11    1    3    3    0    0 -0.29159105174E+02 -0.16998242415E+02 -0.43545575860E+02  0.55094562679E+02  0.00000000000E+00 0.  1.
         11    1    3    3    0    0 -0.11907941462E+03  0.10962278376E+03 -0.11222637859E+03  0.19695639558E+03  0.00000000000E+00 0. -1.
         21    1    1    2  503  502  0.38436184468E+03 -0.57915915791E+01  0.22518708310E+03  0.44550734289E+03  0.00000000000E+00 0.  1.
          1    1    1    2  501    0 -0.39224773614E+02  0.59547855031E+02  0.11886703668E+03  0.13861422117E+03  0.00000000000E+00 0. -1.
<scales pt_clust_5="13000.00000" pt_clust_6="13000.00000" pt_clust_7="13000.00000" pt_clust_8="13000.00000" pt_clust_9="327.74139" pt_clust_10="71.30589"></scales>
<clustering>
<clus scale="   71.306">  1 10  2 -1</clus>
<clus scale="   81.156">  5  6 -1 -1</clus>
<clus scale="   93.332">  7  8 -1 -1</clus>
<clus scale="  204.674">  2  7  1 -1</clus>
<clus scale="  327.741">  1  9  2 -1</clus>
<clus scale="   71.306">  1  5  2 -1</clus>
</clustering>
</event>
<event>
10    4  0.2857708E-005  0.3548181E+03  0.7546771E-02  0.1092425E+00
          4   -1    0    0  503    0 -0.00000000000E+00  0.00000000000E+00  0.28124515846E+03  0.28124515846E+03  0.00000000000E+00 0. -1.
         21   -1    0    0  501  502  0.00000000000E+00 -0.00000000000E+00 -0.91939592420E+03  0.91939592420E+03  0.00000000000E+00 0. -1.
         23    2    1    2    0    0 -0.82689700881E+02 -0.90243327605E+02 -0.19861345998E+03  0.25121658815E+03  0.93172006870E+02 0.  0.
         24    2    1    2    0    0  0.24483490078E+03  0.30579548958E+03 -0.21638871127E+03  0.45472248969E+03  0.80581996591E+02 0.  0.
        -11    1    4    4    0    0  0.52501267373E+02  0.12658927134E+03 -0.72730398434E+02  0.15514811488E+03  0.00000000000E+00 0.  1.
         12    1    4    4    0    0  0.19233363340E+03  0.17920621824E+03 -0.14365831284E+03  0.29957437481E+03  0.00000000000E+00 0. -1.
        -11    1    3    3    0    0  0.11191794478E+02 -0.25391892413E+02 -0.76890875888E+01  0.28794557332E+02  0.00000000000E+00 0.  1.
         11    1    3    3    0    0 -0.93881495359E+02 -0.64851435191E+02 -0.19092437240E+03  0.22242203082E+03  0.00000000000E+00 0. -1.
         21    1    1    2  503  502 -0.35311027310E+01  0.60745648929E+02  0.47086347656E+02  0.76939110249E+02  0.00000000000E+00 0. -1.
          3    1    1    2  501    0 -0.15861409716E+03 -0.27629781090E+03 -0.27023494214E+03  0.41776289457E+03  0.00000000000E+00 0. -1.
<scales pt_clust_5="13000.00000" pt_clust_6="13000.00000" pt_clust_7="13000.00000" pt_clust_8="13000.00000" pt_clust_9="60.84819" pt_clust_10="345.54655"></scales>
<clustering>
<clus scale="   60.848">  1  9  2 -1</clus>
<clus scale="   80.582">  5  6 -1 -1</clus>
<clus scale="   93.172">  7  8 -1 -1</clus>
<clus scale="  149.902">  1  7  2 -1</clus>
<clus scale="  345.547">  2 10  1 -1</clus>
<clus scale="  345.547">  2  5  1 -1</clus>
</clustering>
</event>
<event>
10    4  0.2857708E-005  0.1438137E+03  0.7546771E-02  0.1223903E+00
          2   -1    0    0  503    0 -0.00000000000E+00  0.00000000000E+00  0.16080619111E+04  0.16080619111E+04  0.00000000000E+00 0. -1.
         21   -1    0    0  501  502  0.00000000000E+00 -0.00000000000E+00 -0.81631692290E+02  0.81631692290E+02  0.00000000000E+00 0. -1.
         24    2    1    2    0    0  0.67869948473E+01 -0.59316340539E+02  0.19178683237E+02  0.10514905138E+03  0.84403848028E+02 0.  0.
         23    2    1    2    0    0 -0.77632936003E+02 -0.51624049486E+02  0.17356356603E+03  0.21828405323E+03  0.93977131281E+02 0.  0.
        -13    1    3    3    0    0 -0.20051568458E+02 -0.56347695152E+02  0.39220403465E+02  0.71521802232E+02  0.00000000000E+00 0.  1.
         14    1    3    3    0    0  0.26838563305E+02 -0.29686453873E+01 -0.20041720228E+02  0.33627249150E+02  0.00000000000E+00 0. -1.
        -13    1    4    4    0    0 -0.59181245034E+02 -0.70185519010E+02  0.82141734145E+02  0.12318965594E+03  0.00000000000E+00 0. -1.
         13    1    4    4    0    0 -0.18451690969E+02  0.18561469524E+02  0.91421831888E+02  0.95094397292E+02  0.00000000000E+00 0.  1.
         21    1    1    2  503  502 -0.21892698903E+02  0.17974724517E+03  0.81213155739E+03  0.83207333146E+03  0.00000000000E+00 0. -1.
          1    1    1    2  501    0  0.92738640058E+02 -0.68806855146E+02  0.52155641218E+03  0.53418716735E+03  0.00000000000E+00 0. -1.
<scales pt_clust_5="13000.00000" pt_clust_6="13000.00000" pt_clust_7="13000.00000" pt_clust_8="13000.00000" pt_clust_9="108.86083" pt_clust_10="130.25982"></scales>
<clustering>
<clus scale="   84.404">  5  6 -1 -1</clus>
<clus scale="   93.977">  7  8 -1 -1</clus>
<clus scale="  103.385">  1  5  2 -1</clus>
<clus scale="  130.260">  2 10  1 -1</clus>
<clus scale="  108.861">  1  9  2 -1</clus>
<clus scale="  130.260">  2  5  1 -1</clus>
</clustering>
</event>
<event>
10    4  0.2857708E-005  0.9324314E+02  0.7546771E-02  0.1299573E+00
          2   -1    0    0  503    0 -0.00000000000E+00  0.00000000000E+00  0.11774241141E+03  0.11774241141E+03  0.00000000000E+00 0. -1.
         21   -1    0    0  501  502  0.00000000000E+00 -0.00000000000E+00 -0.15489837836E+03  0.15489837836E+03  0.00000000000E+00 0.  1.
         23    2    1    2    0    0 -0.16057306566E+01  0.16560874073E+01  0.22012509432E+02  0.91319155482E+02  0.88596368944E+02 0.  0.
         24    2    1    2    0    0  0.35249924612E+02 -0.47023172629E+02 -0.46594307780E+02  0.11031604912E+03  0.80900341320E+02 0.  0.
        -13    1    4    4    0    0  0.68703691865E+00  0.22008695300E+02 -0.48328005281E+01  0.22543527884E+02  0.00000000000E+00 0.  1.
         14    1    4    4    0    0  0.34562887693E+02 -0.69031867929E+02 -0.41761507252E+02  0.87772521232E+02  0.00000000000E+00 0. -1.
        -11    1    3    3    0    0 -0.35993352310E+02  0.58405361014E+01 -0.16061201321E+02  0.39844641551E+02  0.00000000000E+00 0.  1.
         11    1    3    3    0    0  0.34387621654E+02 -0.41844486941E+01  0.38073710753E+02  0.51474513930E+02  0.00000000000E+00 0. -1.
         21    1    1    2  503  502 -0.18806779718E+02  0.16902394192E+02  0.14380890120E+02  0.29089446427E+02  0.00000000000E+00 0.  1.
          1    1    1    2  501    0 -0.14837414238E+02  0.28464691030E+02 -0.26955058724E+02  0.41916138748E+02  0.00000000000E+00 0. -1.
<scales pt_clust_5="13000.00000" pt_clust_6="13000.00000" pt_clust_7="13000.00000" pt_clust_8="13000.00000" pt_clust_9="25.28608" pt_clust_10="33.95185"></scales>
<clustering>
<clus scale="   25.286">  1  9  2 -1</clus>
<clus scale="   33.952">  2 10  1 -1</clus>
<clus scale="   80.900">  5  6 -1 -1</clus>
<clus scale="   85.964">  2  5  1 -1</clus>
<clus scale="   88.596">  7  8 -1 -1</clus>
<clus scale="   33.952">  2  5  1 -1</clus>
</clustering>
</event>
<event>
10    4  0.2857708E-005  0.1170875E+03  0.7546771E-02  0.1252152E+00
         21   -1    0    0  501  502  0.00000000000E+00  0.00000000000E+00  0.83048706038E+02  0.83048706038E+02  0.00000000000E+00 0.  1.
          2   -1    0    0  503    0 -0.00000000000E+00 -0.00000000000E+00 -0.68686944682E+03  0.68686944682E+03  0.00000000000E+00 0. -1.
         24    2    1    2    0    0  0.64179753542E+02 -0.35475146791E+02 -0.36854422569E+02  0.11458039211E+03  0.79955556333E+02 0.  0.
         23    2    1    2    0    0 -0.46846701266E+02  0.58297407066E+02 -0.49176652987E+02  0.12848771707E+03  0.92182152011E+02 0.  0.
        -11    1    3    3    0    0  0.44366466313E+02 -0.58196861179E+02 -0.93548612766E+01  0.73775140893E+02  0.00000000000E+00 0.  1.
         12    1    3    3    0    0  0.19813287230E+02  0.22721714388E+02 -0.27499561293E+02  0.40805251217E+02  0.00000000000E+00 0. -1.
        -11    1    4    4    0    0 -0.43928027925E+02  0.26223749160E+02  0.17801513083E+02  0.54168722760E+02  0.00000000000E+00 0.  1.
         11    1    4    4    0    0 -0.29186733406E+01  0.32073657906E+02 -0.66978166070E+02  0.74318994313E+02  0.00000000000E+00 0. -1.
         21    1    1    2  503  502 -0.45023698756E+02  0.15457672951E+02 -0.31843473781E+03  0.32197322148E+03  0.00000000000E+00 0. -1.
          1    1    1    2  501    0  0.27690646480E+02 -0.38279933225E+02 -0.19935492741E+03  0.20487682220E+03  0.00000000000E+00 0. -1.
<scales pt_clust_5="13000.00000" pt_clust_6="13000.00000" pt_clust_7="13000.00000" pt_clust_8="13000.00000" pt_clust_9="46.75609" pt_clust_10="47.24540"></scales>
<clustering>
<clus scale="   47.245">  1 10  2 -1</clus>
<clus scale="   46.756">  2  9  1 -1</clus>
<clus scale="   79.956">  5  6 -1 -1</clus>
<clus scale="   92.182">  7  8 -1 -1</clus>
<clus scale="  107.726">  2  5  1 -1</clus>
<clus scale="   47.245">  1  5  2 -1</clus>
</clustering>
</event>
<event>
10    4  0.2857708E-005  0.1518729E+03  0.7546771E-02  0.1200441E+00
         -3   -1    0    0    0  501 -0.00000000000E+00  0.00000000000E+00  0.17580545545E+03  0.17580545545E+03  0.00000000000E+00 0.  1.
         21   -1    0    0  503  502  0.00000000000E+00 -0.00000000000E+00 -0.26766163458E+03  0.26766163458E+03  0.00000000000E+00 0. -1.
         23    2    1    2    0    0 -0.68623146120E+02  0.83548070219E+02  0.36938215777E+01  0.14197270711E+03  0.91941225936E+02 0.  0.
         24    2    1    2    0    0  0.11116382949E+03 -0.74589981290E+02 -0.45789863072E+02  0.16223398435E+03  0.79385715489E+02 0.  0.
        -13    1    4    4    0    0  0.55100391273E+02  0.44946310502E+01 -0.62134935932E+00  0.55286896294E+02  0.00000000000E+00 0.  1.
         14    1    4    4    0    0  0.56063438214E+02 -0.79084612340E+02 -0.45168513712E+02  0.10694708806E+03  0.00000000000E+00 0. -1.
        -13    1    3    3    0    0  0.30406142535E+01  0.52384371391E+02 -0.25766554971E+02  0.58457532074E+02  0.00000000000E+00 0. -1.
         13    1    3    3    0    0 -0.71663760374E+02  0.31163698828E+02  0.29460376549E+02  0.83515175040E+02  0.00000000000E+00 0.  1.
         21    1    1    2  503  501 -0.23627901516E+02  0.83142337045E+01  0.39292674281E+02  0.46597408344E+02  0.00000000000E+00 0.  1.
         -4    1    1    2    0  502 -0.18912781851E+02 -0.17272322634E+02 -0.89052811917E+02  0.92662990221E+02  0.00000000000E+00 0.  1.
<scales pt_clust_5="13000.00000" pt_clust_6="13000.00000" pt_clust_7="13000.00000" pt_clust_8="13000.00000" pt_clust_9="25.04804" pt_clust_10="25.77562"></scales>
<clustering>
<clus scale="   25.048">  1  9  2 -1</clus>
<clus scale="   25.776">  2 10  1 -1</clus>
<clus scale="   79.386">  5  6 -1 -1</clus>
<clus scale="   91.941">  7  8 -1 -1</clus>
<clus scale="  144.618">  2  5  1 -1</clus>
<clus scale="   25.776">  2  5  1 -1</clus>
</clustering>
</event>
<event>
10    4  0.2857708E-005  0.1374044E+03  0.7546771E-02  0.1219083E+00
          2   -1    0    0  503    0 -0.00000000000E+00  0.00000000000E+00  0.59592563372E+02  0.59592563372E+02  0.00000000000E+00 0. -1.
         21   -1    0    0  501  502  0.00000000000E+00 -0.00000000000E+00 -0.54218834177E+03  0.54218834177E+03  0.00000000000E+00 0. -1.
         24    2    1    2    0    0 -0.85287841347E+02  0.73173736244E+02 -0.16975315969E+03  0.21902361554E+03  0.80788596849E+02 0.  0.
         23    2    1    2    0    0  0.61910932371E+02 -0.64531496208E+02 -0.25173785642E+03  0.28210045600E+03  0.90617003770E+02 0.  0.
        -11    1    3    3    0    0 -0.27197174490E+01  0.53428646707E+02 -0.66792354404E+02  0.85575906415E+02  0.00000000000E+00 0.  1.
         12    1    3    3    0    0 -0.82568123898E+02  0.19745089537E+02 -0.10296080529E+03  0.13344770912E+03  0.00000000000E+00 0. -1.
        -11    1    4    4    0    0 -0.12350428722E+02 -0.38499690419E+02 -0.43005572069E+02  0.59027438374E+02  0.00000000000E+00 0.  1.
         11    1    4    4    0    0  0.74261361092E+02 -0.26031805790E+02 -0.20873228435E+03  0.22307301763E+03  0.00000000000E+00 0. -1.
         21    1    1    2  503  502  0.18171642841E+02  0.32839321577E+02 -0.22543887686E+02  0.43781919980E+02  0.00000000000E+00 0. -1.
          1    1    1    2  501    0  0.52052661361E+01 -0.41481561613E+02 -0.38560874600E+02  0.56874913620E+02  0.00000000000E+00 0. -1.
<scales pt_clust_5="13000.00000" pt_clust_6="13000.00000" pt_clust_7="13000.00000" pt_clust_8="13000.00000" pt_clust_9="37.53172" pt_clust_10="36.37334"></scales>
<clustering>
<clus scale="   37.532">  1  9  2 -1</clus>
<clus scale="   36.373">  2 10  1 -1</clus>
<clus scale="   80.789">  5  6 -1 -1</clus>
<clus scale="   90.617">  7  8 -1 -1</clus>
<clus scale="  131.131">  1  5  2 -1</clus>
<clus scale="   36.373">  2  5  1 -1</clus>
</clustering>
</event>
<event>
10    4  0.2857708E-005  0.2727949E+03  0.7546771E-02  0.1127342E+00
          2   -1    0    0  503    0 -0.00000000000E+00  0.00000000000E+00  0.47555002459E+03  0.47555002459E+03  0.00000000000E+00 0. -1.
         21   -1    0    0  501  502  0.00000000000E+00 -0.00000000000E+00 -0.31175578315E+03  0.31175578315E+03  0.00000000000E+00 0. -1.
         23    2    1    2    0    0  0.84388979336E+02 -0.11026248416E+02 -0.45043751501E+02  0.13174717065E+03  0.89918293119E+02 0.  0.
         24    2    1    2    0    0  0.15859566814E+03  0.13024264313E+03  0.15749533570E+03  0.26889700851E+03  0.73383161399E+02 0.  0.
        -11    1    4    4    0    0  0.69501353025E+02  0.61365148454E+02  0.27080218395E+02  0.96589118152E+02  0.00000000000E+00 0.  1.
         12    1    4    4    0    0  0.89094315110E+02  0.68877494679E+02  0.13041511730E+03  0.17230789036E+03  0.00000000000E+00 0. -1.
        -11    1    3    3    0    0  0.30798652558E+02 -0.29308380743E+02  0.18735001802E+02  0.46460073974E+02  0.00000000000E+00 0.  1.
         11    1    3    3    0    0  0.53590326778E+02  0.18282132327E+02 -0.63778753302E+02  0.85287096676E+02  0.00000000000E+00 0. -1.
         21    1    1    2  503  502  0.54045208846E+02  0.16369077862E+02  0.25824613334E+01  0.56528757423E+02  0.00000000000E+00 0. -1.
          1    1    1    2  501    0 -0.29702985632E+03 -0.13558547258E+03  0.48760195908E+02  0.33013287116E+03  0.00000000000E+00 0. -1.
<scales pt_clust_5="13000.00000" pt_clust_6="13000.00000" pt_clust_7="13000.00000" pt_clust_8="13000.00000" pt_clust_9="56.46974" pt_clust_10="262.73930"></scales>
<clustering>
<clus scale="   56.470">  2  9  1 -1</clus>
<clus scale="   73.383">  5  6 -1 -1</clus>
<clus scale="   89.918">  7  8 -1 -1</clus>
<clus scale="  135.480">  1  7  2 -1</clus>
<clus scale="  262.739">  2 10  1 -1</clus>
<clus scale="   56.470">  2  5  1 -1</clus>
</clustering>
</event>
<event>
10    4  0.2857708E-005  0.1005195E+03  0.7546771E-02  0.1284586E+00
         -1   -1    0    0    0  501 -0.00000000000E+00  0.00000000000E+00  0.10537371512E+04  0.10537371512E+04  0.00000000000E+00 0.  1.
         21   -1    0    0  503  502  0.00000000000E+00 -0.00000000000E+00 -0.22231120508E+02  0.22231120508E+02  0.00000000000E+00 0.  1.
         24    2    1    2    0    0 -0.29820416299E+01 -0.22136316916E+02  0.68781618774E+03  0.69301134214E+03  0.81698856273E+02 0.  0.
         23    2    1    2    0    0  0.26191195614E+02  0.49898154164E+02  0.16257472198E+03  0.19531100597E+03  0.92412360152E+02 0.  0.
        -13    1    3    3    0    0  0.20087909491E+02 -0.33997414656E+02  0.16920412356E+03  0.17375092443E+03  0.00000000000E+00 0.  1.
         14    1    3    3    0    0 -0.23069951121E+02  0.11861097739E+02  0.51861206418E+03  0.51926041771E+03  0.00000000000E+00 0. -1.
        -11    1    4    4    0    0  0.32479905223E+02  0.72031483493E+02  0.93024175039E+02  0.12205316874E+03  0.00000000000E+00 0.  1.
         11    1    4    4    0    0 -0.62887096094E+01 -0.22133329329E+02  0.69550546946E+02  0.73257837234E+02  0.00000000000E+00 0. -1.
         21    1    1    2  503  501 -0.27178691366E+02 -0.81126835042E+01  0.12086556706E+03  0.12414903222E+03  0.00000000000E+00 0.  1.
         -2    1    1    2    0  502  0.39695373828E+01 -0.19649153743E+02  0.60249553919E+02  0.63496891398E+02  0.00000000000E+00 0.  1.
<scales pt_clust_5="13000.00000" pt_clust_6="13000.00000" pt_clust_7="13000.00000" pt_clust_8="13000.00000" pt_clust_9="28.55269" pt_clust_10="20.04611"></scales>
<clustering>
<clus scale="   20.046">  2 10  1 -1</clus>
<clus scale="   28.553">  1  9  2 -1</clus>
<clus scale="   81.699">  5  6 -1 -1</clus>
<clus scale="   90.768">  1  5  2 -1</clus>
<clus scale="   92.412">  7  8 -1 -1</clus>
<clus scale="   20.046">  2  5  1 -1</clus>
</clustering>
</event>
<event>
10    4  0.2857708E-005  0.9401214E+02  0.7546771E-02  0.1300305E+00
         21   -1    0    0  503  502  0.00000000000E+00  0.00000000000E+00  0.11237709162E+03  0.11237709162E+03  0.00000000000E+00 0. -1.
         -1   -1    0    0    0  501 -0.00000000000E+00 -0.00000000000E+00 -0.66336779136E+03  0.66336779136E+03  0.00000000000E+00 0.  1.
         23    2    1    2    0    0  0.44383775033E+02 -0.36163302001E+02 -0.50622597379E+03  0.51767780237E+03  0.91912276852E+02 0.  0.
         24    2    1    2    0    0 -0.45124580867E+02  0.34074964816E+02  0.48973686983E+02  0.10978431027E+03  0.80354475540E+02 0.  0.
        -11    1    4    4    0    0 -0.48278447597E+01 -0.23111061916E+02 -0.12849701113E+01  0.23644881393E+02  0.00000000000E+00 0.  1.
         12    1    4    4    0    0 -0.40296736107E+02  0.57186026733E+02  0.50258657095E+02  0.86139428877E+02  0.00000000000E+00 0. -1.
        -11    1    3    3    0    0  0.26009267306E+02  0.29087981297E+02 -0.14573323846E+03  0.15086672740E+03  0.00000000000E+00 0.  1.
         11    1    3    3    0    0  0.18374507727E+02 -0.65251283298E+02 -0.36049273532E+03  0.36681107498E+03  0.00000000000E+00 0. -1.
         21    1    1    2  503  501 -0.40085433911E+02  0.26434826444E+02 -0.88204124506E+02  0.10042713598E+03  0.00000000000E+00 0. -1.
         -2    1    1    2    0  502  0.40826239745E+02 -0.24346489259E+02 -0.55342884373E+01  0.47855634355E+02  0.00000000000E+00 0.  1.
<scales pt_clust_5="13000.00000" pt_clust_6="13000.00000" pt_clust_7="13000.00000" pt_clust_8="13000.00000" pt_clust_9="44.83578" pt_clust_10="47.53455"></scales>
<clustering>
<clus scale="   47.535">  1 10  2 -1</clus>
<clus scale="   44.836">  2  9  1 -1</clus>
<clus scale="   80.354">  5  6 -1 -1</clus>
<clus scale="   82.748">  1  5  2 -1</clus>
<clus scale="   91.912">  7  8 -1 -1</clus>
<clus scale="   47.535">  1  5  2 -1</clus>
</clustering>
</event>
<event>
10    4  0.2857708E-005  0.1039945E+03  0.7546771E-02  0.1278917E+00
         21   -1    0    0  503  502  0.00000000000E+00  0.00000000000E+00  0.65771928527E+02  0.65771928527E+02  0.00000000000E+00 0. -1.
         -1   -1    0    0    0  501 -0.00000000000E+00 -0.00000000000E+00 -0.46789769744E+03  0.46789769744E+03  0.00000000000E+00 0.  1.
         23    2    1    2    0    0  0.36237938117E+02  0.29427514938E+02 -0.24190901245E+03  0.26339115662E+03  0.93143782868E+02 0.  0.
         24    2    1    2    0    0  0.11416962474E+01 -0.84036906736E+01  0.92248647754E+01  0.79685242022E+02  0.78693800129E+02 0.  0.
        -11    1    4    4    0    0 -0.20522977683E+02 -0.14519395461E+02 -0.27090822261E+02  0.36958329350E+02  0.00000000000E+00 0.  1.
         12    1    4    4    0    0  0.21664673931E+02  0.61157047875E+01  0.36315687036E+02  0.42726912672E+02  0.00000000000E+00 0. -1.
        -11    1    3    3    0    0  0.66566072199E+02  0.83123089598E+01 -0.16262764692E+03  0.17592011821E+03  0.00000000000E+00 0.  1.
         11    1    3    3    0    0 -0.30328134082E+02  0.21115205978E+02 -0.79281365535E+02  0.87471038415E+02  0.00000000000E+00 0. -1.
         21    1    1    2  503  501  0.20826104973E+02  0.74744178096E+01 -0.50676179038E+02  0.55296190572E+02  0.00000000000E+00 0. -1.
         -2    1    1    2    0  502 -0.58205739337E+02 -0.28498242074E+02 -0.11876544220E+03  0.13529703675E+03  0.00000000000E+00 0.  1.
<scales pt_clust_5="13000.00000" pt_clust_6="13000.00000" pt_clust_7="13000.00000" pt_clust_8="13000.00000" pt_clust_9="22.12676" pt_clust_10="58.07976"></scales>
<clustering>
<clus scale="   22.127">  2  9  1 -1</clus>
<clus scale="   58.080">  1 10  2 -1</clus>
<clus scale="   78.694">  5  6 -1 -1</clus>
<clus scale="   91.279">  1  5  2 -1</clus>
<clus scale="   93.144">  7  8 -1 -1</clus>
<clus scale="   58.080">  1  5  2 -1</clus>
</clustering>
</event>
<event>
10    4  0.2857708E-005  0.1136024E+03  0.7546771E-02  0.1259037E+00
         21   -1    0    0  501  502  0.00000000000E+00  0.00000000000E+00  0.35176014242E+02  0.35176014242E+02  0.00000000000E+00 0.  1.
          2   -1    0    0  503    0 -0.00000000000E+00 -0.00000000000E+00 -0.77889211585E+03  0.77889211585E+03  0.00000000000E+00 0. -1.
         23    2    1    2    0    0  0.86061008147E+02  0.23402049286E+02 -0.25457509460E+03  0.28551249659E+03  0.93566841796E+02 0.  0.
         24    2    1    2    0    0 -0.49417967668E+02  0.67848874853E+01 -0.19611901203E+03  0.21769824429E+03  0.80260129955E+02 0.  0.
        -11    1    4    4    0    0  0.10680794550E+02 -0.21300320970E+02 -0.85068511979E+02  0.88342712070E+02  0.00000000000E+00 0.  1.
         12    1    4    4    0    0 -0.60098762219E+02  0.28085208455E+02 -0.11105050005E+03  0.12935553222E+03  0.00000000000E+00 0. -1.
        -13    1    3    3    0    0  0.81174916363E+01 -0.28992331316E+02 -0.32013456750E+02  0.43946676310E+02  0.00000000000E+00 0.  1.
         13    1    3    3    0    0  0.77943516511E+02  0.52394380601E+02 -0.22256163785E+03  0.24156582028E+03  0.00000000000E+00 0. -1.
         21    1    1    2  503  502 -0.57855443796E+02 -0.48698449730E+02 -0.21474662121E+03  0.22767279746E+03  0.00000000000E+00 0. -1.
          1    1    1    2  501    0  0.21212403317E+02  0.18511512959E+02 -0.78275373764E+02  0.83184591749E+02  0.00000000000E+00 0. -1.
<scales pt_clust_5="13000.00000" pt_clust_6="13000.00000" pt_clust_7="13000.00000" pt_clust_8="13000.00000" pt_clust_9="70.06273" pt_clust_10="28.15392"></scales>
<clustering>
<clus scale="   28.154">  1 10  2 -1</clus>
<clus scale="   70.063">  2  9  1 -1</clus>
<clus scale="   80.260">  5  6 -1 -1</clus>
<clus scale="   93.567">  7  8 -1 -1</clus>
<clus scale="  102.920">  1  5  2 -1</clus>
<clus scale="   28.154">  1  5  2 -1</clus>
</clustering>
</event>
<event>
10    4  0.2857708E-005  0.1407094E+03  0.7546771E-02  0.1214168E+00
         21   -1    0    0  503  502  0.00000000000E+00  0.00000000000E+00  0.16868360114E+03  0.16868360114E+03  0.00000000000E+00 0.  1.
         -1   -1    0    0    0  501 -0.00000000000E+00 -0.00000000000E+00 -0.25063162292E+03  0.25063162292E+03  0.00000000000E+00 0.  1.
         23    2    1    2    0    0  0.40421459295E+02  0.12376867235E+03 -0.47893399950E+02  0.16552177771E+03  0.90283456464E+02 0.  0.
         24    2    1    2    0    0 -0.10207304548E+02 -0.84256096631E+02  0.12584575225E+02  0.11858650357E+03  0.81860298128E+02 0.  0.
        -11    1    4    4    0    0 -0.45028382009E+02 -0.54414919699E+02  0.16594996940E+02  0.72552964072E+02  0.00000000000E+00 0.  1.
         12    1    4    4    0    0  0.34821077462E+02 -0.29841176932E+02 -0.40104217154E+01  0.46033539497E+02  0.00000000000E+00 0. -1.
        -11    1    3    3    0    0  0.25156707668E+02  0.17157039599E+02 -0.49146900368E+02  0.57815584095E+02  0.00000000000E+00 0.  1.
         11    1    3    3    0    0  0.15264751627E+02  0.10661163275E+03  0.12535004172E+01  0.10770619362E+03  0.00000000000E+00 0. -1.
         21    1    1    2  503  501 -0.23044711676E+02  0.13296882243E+01 -0.79192935178E+02  0.82488470644E+02  0.00000000000E+00 0. -1.
         -2    1    1    2    0  502 -0.71694430717E+01 -0.40842263944E+02  0.32553738127E+02  0.52718472133E+02  0.00000000000E+00 0.  1.
<scales pt_clust_5="13000.00000" pt_clust_6="13000.00000" pt_clust_7="13000.00000" pt_clust_8="13000.00000" pt_clust_9="23.08304" pt_clust_10="41.64784"></scales>
<clustering>
<clus scale="   23.083">  2  9  1 -1</clus>
<clus scale="   41.648">  1 10  2 -1</clus>
<clus scale="   81.860">  5  6 -1 -1</clus>
<clus scale="   90.283">  7  8 -1 -1</clus>
<clus scale="  135.459">  1  5  2 -1</clus>
<clus scale="   41.648">  1  5  2 -1</clus>
</clustering>
</event>
<event>
10    4  0.2857708E-005  0.1040122E+03  0.7546771E-02  0.1277543E+00
          2   -1    0    0  503    0 -0.00000000000E+00  0.00000000000E+00  0.37033011523E+03  0.37033011523E+03  0.00000000000E+00 0. -1.
         21   -1    0    0  501  502  0.00000000000E+00 -0.00000000000E+00 -0.77211707553E+02  0.77211707553E+02  0.00000000000E+00 0.  1.
         24    2    1    2    0    0  0.21595605669E+02 -0.42380520358E+02  0.13099311094E+03  0.16046949317E+03  0.79553657586E+02 0.  0.
         23    2    1    2    0    0  0.35183455206E+01  0.36137030416E+02 -0.10823629821E+02  0.99051118793E+02  0.91518902142E+02 0.  0.
        -11    1    3    3    0    0  0.50027223542E+02 -0.15856836773E+02  0.88345546799E+02  0.10275747178E+03  0.00000000000E+00 0.  1.
         12    1    3    3    0    0 -0.28431617873E+02 -0.26523683585E+02  0.42647564138E+02  0.57712021389E+02  0.00000000000E+00 0. -1.
        -13    1    4    4    0    0 -0.26851610885E+02  0.21493729546E+02 -0.41199961287E+02  0.53669602448E+02  0.00000000000E+00 0.  1.
         13    1    4    4    0    0  0.30369956405E+02  0.14643300870E+02  0.30376331466E+02  0.45381516345E+02  0.00000000000E+00 0. -1.
         21    1    1    2  503  502  0.18720005782E+02 -0.13159112004E+02  0.33549597370E+02  0.40610052067E+02  0.00000000000E+00 0. -1.
          1    1    1    2  501    0 -0.43833956971E+02  0.19402601945E+02  0.13939932919E+03  0.14741115875E+03  0.00000000000E+00 0. -1.
<scales pt_clust_5="13000.00000" pt_clust_6="13000.00000" pt_clust_7="13000.00000" pt_clust_8="13000.00000" pt_clust_9="22.88233" pt_clust_10="38.32590"></scales>
<clustering>
<clus scale="   22.882">  1  9  2 -1</clus>
<clus scale="   38.326">  2 10  1 -1</clus>
<clus scale="   79.554">  5  6 -1 -1</clus>
<clus scale="   91.519">  7  8 -1 -1</clus>
<clus scale="   93.657">  1  5  2 -1</clus>
<clus scale="   38.326">  2  5  1 -1</clus>
</clustering>
</event>
<event>
10    4  0.2857708E-005  0.9339824E+02  0.7546771E-02  0.1301717E+00
          2   -1    0    0  503    0 -0.00000000000E+00  0.00000000000E+00  0.28200338580E+03  0.28200338580E+03  0.00000000000E+00 0. -1.
         21   -1    0    0  501  502  0.00000000000E+00 -0.00000000000E+00 -0.86423315282E+02  0.86423315282E+02  0.00000000000E+00 0. -1.
         24    2    1    2    0    0  0.33850819251E+02  0.33257083059E+02  0.14513947267E+03  0.17240338720E+03  0.80034679053E+02 0.  0.
         23    2    1    2    0    0  0.14027319844E+02  0.30371276355E+01  0.26181791486E+02  0.96224584966E+02  0.91475104265E+02 0.  0.
        -13    1    3    3    0    0  0.33052646625E+02 -0.10804060965E+02  0.11197428252E+03  0.11724949948E+03  0.00000000000E+00 0.  1.
         14    1    3    3    0    0  0.79817262608E+00  0.44061144024E+02  0.33165190151E+02  0.55153887715E+02  0.00000000000E+00 0. -1.
        -13    1    4    4    0    0 -0.39125978477E+01 -0.27846994603E+02 -0.22382365261E+02  0.35940698449E+02  0.00000000000E+00 0.  1.
         13    1    4    4    0    0  0.17939917692E+02  0.30884122238E+02  0.48564156746E+02  0.60283886518E+02  0.00000000000E+00 0. -1.
         21    1    1    2  503  502 -0.40374232964E+02 -0.73155230331E+01  0.46863664655E+02  0.62288029585E+02  0.00000000000E+00 0. -1.
          1    1    1    2  501    0 -0.75039061312E+01 -0.28978687662E+02 -0.22604858297E+02  0.37510699333E+02  0.00000000000E+00 0. -1.
<scales pt_clust_5="13000.00000" pt_clust_6="13000.00000" pt_clust_7="13000.00000" pt_clust_8="13000.00000" pt_clust_9="42.91024" pt_clust_10="29.93448"></scales>
<clustering>
<clus scale="   29.934">  2 10  1 -1</clus>
<clus scale="   42.910">  1  9  2 -1</clus>
<clus scale="   80.035">  5  6 -1 -1</clus>
<clus scale="   82.226">  1  5  2 -1</clus>
<clus scale="   91.475">  7  8 -1 -1</clus>
<clus scale="   29.934">  2  5  1 -1</clus>
</clustering>
</event>
<event>
10    4  0.2857708E-005  0.1199353E+03  0.7546771E-02  0.1247373E+00
         21   -1    0    0  501  502  0.00000000000E+00  0.00000000000E+00  0.64375084650E+02  0.64375084650E+02  0.00000000000E+00 0.  1.
          2   -1    0    0  503    0 -0.00000000000E+00 -0.00000000000E+00 -0.10476455482E+04  0.10476455482E+04  0.00000000000E+00 0. -1.
         24    2    1    2    0    0 -0.45801223565E+02  0.70404755537E+01 -0.66064118009E+03  0.66729192154E+03  0.81758298339E+02 0.  0.
         23    2    1    2    0    0  0.77514547869E+02  0.54870464015E+02 -0.66272503358E+02  0.14939463403E+03  0.94379229827E+02 0.  0.
        -11    1    3    3    0    0 -0.20524033087E+01 -0.32260575049E+02 -0.16191447730E+03  0.16510982715E+03  0.00000000000E+00 0.  1.
         12    1    3    3    0    0 -0.43748820257E+02  0.39301050603E+02 -0.49872670279E+03  0.50218209439E+03  0.00000000000E+00 0. -1.
        -13    1    4    4    0    0  0.46210834166E+02 -0.96394874475E+01  0.60021684868E+01  0.47585574905E+02  0.00000000000E+00 0.  1.
         13    1    4    4    0    0  0.31303713703E+02  0.64509951463E+02 -0.72274671844E+02  0.10180905912E+03  0.00000000000E+00 0. -1.
         21    1    1    2  503  502 -0.31952283343E+02 -0.19255473207E+02 -0.24932706797E+03  0.25210257532E+03  0.00000000000E+00 0. -1.
          1    1    1    2  501    0  0.23895903886E+00 -0.42655466362E+02 -0.70297121698E+01  0.43231502000E+02  0.00000000000E+00 0. -1.
<scales pt_clust_5="13000.00000" pt_clust_6="13000.00000" pt_clust_7="13000.00000" pt_clust_8="13000.00000" pt_clust_9="37.30579" pt_clust_10="43.26950"></scales>
<clustering>
<clus scale="   37.306">  2  9  1 -1</clus>
<clus scale="   43.270">  1 10  2 -1</clus>
<clus scale="   81.758">  5  6 -1 -1</clus>
<clus scale="   94.379">  7  8 -1 -1</clus>
<clus scale="  110.279">  2  5  1 -1</clus>
<clus scale="   43.270">  1  5  2 -1</clus>
</clustering>
</event>
<event>
10    4  0.2857708E-005  0.2771960E+03  0.7546771E-02  0.1097845E+00
          2   -1    0    0  503    0 -0.00000000000E+00  0.00000000000E+00  0.11343566662E+04  0.11343566662E+04  0.00000000000E+00 0. -1.
         21   -1    0    0  501  502  0.00000000000E+00 -0.00000000000E+00 -0.24754636187E+03  0.24754636187E+03  0.00000000000E+00 0. -1.
         23    2    1    2    0    0 -0.76286158827E+02 -0.19514183488E+03  0.45805776187E+03  0.51238195855E+03  0.93906573192E+02 0.  0.
         24    2    1    2    0    0  0.15358833143E+03  0.29965510025E+03  0.23267680843E+03  0.41703346232E+03  0.79974101190E+02 0.  0.
        -11    1    4    4    0    0  0.10561043513E+03  0.24650494185E+03  0.21384003494E+03  0.34299535115E+03  0.00000000000E+00 0.  1.
         12    1    4    4    0    0  0.47977896301E+02  0.53150158394E+02  0.18836773486E+02  0.74038111174E+02  0.00000000000E+00 0. -1.
        -13    1    3    3    0    0 -0.14606968999E+02 -0.13858905407E+03  0.22395864766E+03  0.26377597562E+03  0.00000000000E+00 0.  1.
         13    1    3    3    0    0 -0.61679189828E+02 -0.56552780808E+02  0.23409911421E+03  0.24860598293E+03  0.00000000000E+00 0. -1.
         21    1    1    2  503  502 -0.23520812921E+02 -0.40672412716E+02  0.30872562921E+03  0.31228030346E+03  0.00000000000E+00 0. -1.
          1    1    1    2  501    0 -0.53781359681E+02 -0.63840852649E+02 -0.11264989522E+03  0.14020730370E+03  0.00000000000E+00 0. -1.
<scales pt_clust_5="13000.00000" pt_clust_6="13000.00000" pt_clust_7="13000.00000" pt_clust_8="13000.00000" pt_clust_9="46.98376" pt_clust_10="84.24887"></scales>
<clustering>
<clus scale="   46.984">  1  9  2 -1</clus>
<clus scale="   79.974">  5  6 -1 -1</clus>
<clus scale="   84.249">  2 10  1 -1</clus>
<clus scale="   93.907">  7  8 -1 -1</clus>
<clus scale="  272.791">  2  5  1 -1</clus>
<clus scale="   84.249">  2  5  1 -1</clus>
</clustering>
</event>
<event>
10    4  0.2857708E-005  0.9903353E+02  0.7546771E-02  0.1288390E+00
          2   -1    0    0  503    0 -0.00000000000E+00  0.00000000000E+00  0.40221758047E+03  0.40221758047E+03  0.00000000000E+00 0. -1.
         21   -1    0    0  501  502  0.00000000000E+00 -0.00000000000E+00 -0.25029244720E+03  0.25029244720E+03  0.00000000000E+00 0. -1.
         23    2    1    2    0    0 -0.19280246488E+01 -0.29554369218E+02  0.30223479962E+03  0.31698565128E+03  0.90867216275E+02 0.  0.
         24    2    1    2    0    0  0.48525050111E+01  0.32555720603E+02  0.44358316690E+02  0.96469839147E+02  0.79090757087E+02 0.  0.
        -13    1    4    4    0    0 -0.11271546180E+02  0.35032477486E+02  0.62214443962E+02  0.72283879736E+02  0.00000000000E+00 0.  1.
         14    1    4    4    0    0  0.16124051191E+02 -0.24767568831E+01 -0.17856127272E+02  0.24185959411E+02  0.00000000000E+00 0. -1.
        -11    1    3    3    0    0  0.37354575499E+02 -0.38907015804E+02  0.14692577271E+03  0.15651294795E+03  0.00000000000E+00 0.  1.
         11    1    3    3    0    0 -0.39282600148E+02  0.93526465854E+01  0.15530902691E+03  0.16047270333E+03  0.00000000000E+00 0. -1.
         21    1    1    2  503  502  0.23465980977E+02 -0.18787237417E+02  0.10312753705E+02  0.31779953461E+02  0.00000000000E+00 0. -1.
          1    1    1    2  501    0 -0.26390461340E+02  0.15785886033E+02 -0.20498073674E+03  0.20727458378E+03  0.00000000000E+00 0. -1.
<scales pt_clust_5="13000.00000" pt_clust_6="13000.00000" pt_clust_7="13000.00000" pt_clust_8="13000.00000" pt_clust_9="30.06015" pt_clust_10="30.66182"></scales>
<clustering>
<clus scale="   30.060">  1  9  2 -1</clus>
<clus scale="   30.662">  2 10  1 -1</clus>
<clus scale="   79.091">  5  6 -1 -1</clus>
<clus scale="   88.352">  2  5  1 -1</clus>
<clus scale="   90.867">  7  8 -1 -1</clus>
<clus scale="   30.662">  2  5  1 -1</clus>
</clustering>
</event>
<event>
10    4  0.2857708E-005  0.1153468E+03  0.7546771E-02  0.1254370E+00
         -1   -1    0    0    0  501 -0.00000000000E+00  0.00000000000E+00  0.21435751529E+03  0.21435751529E+03  0.00000000000E+00 0.  1.
         21   -1    0    0  503  502  0.00000000000E+00 -0.00000000000E+00 -0.15207963467E+03  0.15207963467E+03  0.00000000000E+00 0.  1.
         24    2    1    2    0    0 -0.25355388061E+02 -0.10027821469E+03  0.42273028751E+02  0.13686192714E+03  0.79028868739E+02 0.  0.
         23    2    1    2    0    0 -0.68919527974E+01  0.47958607472E+02  0.26112487445E+02  0.10466586472E+03  0.89025581675E+02 0.  0.
        -13    1    3    3    0    0 -0.33949696266E+01 -0.10664878881E+03  0.29661405231E+02  0.11074876493E+03  0.00000000000E+00 0.  1.
         14    1    3    3    0    0 -0.21960418435E+02  0.63705741200E+01  0.12611623520E+02  0.26113162203E+02  0.00000000000E+00 0. -1.
        -13    1    4    4    0    0 -0.28064120127E+02  0.13755960304E+02  0.49198513345E+02  0.58286490697E+02  0.00000000000E+00 0. -1.
         13    1    4    4    0    0  0.21172167330E+02  0.34202647168E+02 -0.23086025900E+02  0.46379374021E+02  0.00000000000E+00 0.  1.
         21    1    1    2  503  501 -0.25100199961E+02  0.33073518331E+02  0.32863477987E+02  0.52951731212E+02  0.00000000000E+00 0. -1.
         -2    1    1    2    0  502  0.57347540820E+02  0.19246088891E+02 -0.38971113560E+02  0.71957626891E+02  0.00000000000E+00 0.  1.
<scales pt_clust_5="13000.00000" pt_clust_6="13000.00000" pt_clust_7="13000.00000" pt_clust_8="13000.00000" pt_clust_9="41.51961" pt_clust_10="59.33490"></scales>
<clustering>
<clus scale="   41.520">  1  9  2 -1</clus>
<clus scale="   59.335">  2 10  1 -1</clus>
<clus scale="   79.029">  5  6 -1 -1</clus>
<clus scale="   89.026">  7  8 -1 -1</clus>
<clus scale="  107.819">  1  5  2 -1</clus>
<clus scale="   59.335">  2  5  1 -1</clus>
</clustering>
</event>
<event>
10    4  0.2857708E-005  0.1576417E+03  0.7546771E-02  0.1193036E+00
          2   -1    0    0  503    0 -0.00000000000E+00  0.00000000000E+00  0.15265700389E+03  0.15265700389E+03  0.00000000000E+00 0. -1.
         21   -1    0    0  501  502  0.00000000000E+00 -0.00000000000E+00 -0.63509096206E+03  0.63509096206E+03  0.00000000000E+00 0. -1.
         24    2    1    2    0    0 -0.85164463558E+02 -0.74497206682E+02  0.26703463717E+02  0.14141963508E+03  0.80520919983E+02 0.  0.
         23    2    1    2    0    0 -0.86386508230E+01  0.18191079209E+03 -0.35469179188E+03  0.40889894130E+03  0.90696826894E+02 0.  0.
        -11    1    3    3    0    0 -0.62122739249E+02 -0.22565471429E+02  0.46986562348E+02  0.81093601929E+02  0.00000000000E+00 0.  1.
         12    1    3    3    0    0 -0.23041724309E+02 -0.51931735253E+02 -0.20283098631E+02  0.60326033149E+02  0.00000000000E+00 0. -1.
        -13    1    4    4    0    0  0.35233498927E+02  0.13138610918E+03 -0.22386288011E+03  0.26195094621E+03  0.00000000000E+00 0. -1.
         13    1    4    4    0    0 -0.43872149750E+02  0.50524682913E+02 -0.13082891177E+03  0.14694799509E+03  0.00000000000E+00 0.  1.
         21    1    1    2  503  502 -0.17823738928E+02 -0.21572501203E+02  0.58942316814E+00  0.27989389011E+02  0.00000000000E+00 0. -1.
          1    1    1    2  501    0  0.11162685331E+03 -0.85841084203E+02 -0.15503505318E+03  0.20944000055E+03  0.00000000000E+00 0. -1.
<scales pt_clust_5="13000.00000" pt_clust_6="13000.00000" pt_clust_7="13000.00000" pt_clust_8="13000.00000" pt_clust_9="27.98318" pt_clust_10="140.73141"></scales>
<clustering>
<clus scale="   27.983">  1  9  2 -1</clus>
<clus scale="   80.521">  5  6 -1 -1</clus>
<clus scale="   90.697">  7  8 -1 -1</clus>
<clus scale="  140.731">  2 10  1 -1</clus>
<clus scale="  152.015">  1  5  2 -1</clus>
<clus scale="  140.731">  2  5  1 -1</clus>
</clustering>
</event>
<event>
10    4  0.2857708E-005  0.9883016E+02  0.7546771E-02  0.1299243E+00
         21   -1    0    0  503  502  0.00000000000E+00  0.00000000000E+00  0.51503746418E+03  0.51503746418E+03  0.00000000000E+00 0.  1.
          4   -1    0    0  502    0 -0.00000000000E+00 -0.00000000000E+00 -0.50741131883E+02  0.50741131883E+02  0.00000000000E+00 0. -1.
         24    2    1    2    0    0 -0.30021179463E+02 -0.10158346443E+02  0.15337241500E+03  0.17149500338E+03  0.69878289066E+02 0.  0.
         23    2    1    2    0    0  0.59779298425E-01 -0.29252658996E+02  0.29020193115E+03  0.30732294970E+03  0.96822068434E+02 0.  0.
        -11    1    3    3    0    0 -0.92354208081E+01  0.27311412975E+02  0.33518815387E+02  0.44212184532E+02  0.00000000000E+00 0.  1.
         12    1    3    3    0    0 -0.20785758655E+02 -0.37469759418E+02  0.11985359962E+03  0.12728281885E+03  0.00000000000E+00 0. -1.
        -13    1    4    4    0    0  0.46491141541E+02 -0.19890890984E+02  0.18794208096E+03  0.19462605062E+03  0.00000000000E+00 0.  1.
         13    1    4    4    0    0 -0.46431362242E+02 -0.93617680127E+01  0.10225985019E+03  0.11269689908E+03  0.00000000000E+00 0. -1.
         21    1    1    2  503  501  0.74317833778E+00  0.21187423876E+02  0.41599782846E+02  0.46690482728E+02  0.00000000000E+00 0.  1.
          3    1    1    2  501    0  0.29218221826E+02  0.18223581564E+02 -0.20877796703E+02  0.40270160254E+02  0.00000000000E+00 0. -1.
<scales pt_clust_5="13000.00000" pt_clust_6="13000.00000" pt_clust_7="13000.00000" pt_clust_8="13000.00000" pt_clust_9="21.20045" pt_clust_10="34.68127"></scales>
<clustering>
<clus scale="   21.200">  1  9  2 -1</clus>
<clus scale="   34.681">  1 10  2 -1</clus>
<clus scale="   69.878">  5  6 -1 -1</clus>
<clus scale="   72.635">  2  5  1 -1</clus>
<clus scale="   96.822">  7  8 -1 -1</clus>
<clus scale="   21.200">  1  5  2 -1</clus>
</clustering>
</event>
<event>
10    4  0.2857708E-005  0.1287194E+03  0.7546771E-02  0.1246623E+00
         21   -1    0    0  501  502  0.00000000000E+00  0.00000000000E+00  0.19390332316E+03  0.19390332316E+03  0.00000000000E+00 0. -1.
          2   -1    0    0  503    0 -0.00000000000E+00 -0.00000000000E+00 -0.35312612350E+03  0.35312612350E+03  0.00000000000E+00 0. -1.
         24    2    1    2    0    0  0.93856850740E+02  0.18256041538E+02 -0.13009748455E+03  0.18108960581E+03  0.82010355219E+02 0.  0.
         23    2    1    2    0    0  0.25224920532E+02 -0.37686493890E+02  0.68602368436E+02  0.12200926967E+03  0.90129953356E+02 0.  0.
        -11    1    3    3    0    0  0.64863849640E+02  0.50569036970E+02 -0.91075777260E+02  0.12271651761E+03  0.00000000000E+00 0.  1.
         12    1    3    3    0    0  0.28993001100E+02 -0.32312995432E+02 -0.39021707286E+02  0.58373088201E+02  0.00000000000E+00 0. -1.
        -11    1    4    4    0    0  0.51610811934E+02 -0.48013171990E+02  0.59509246716E+02  0.92251238679E+02  0.00000000000E+00 0. -1.
         11    1    4    4    0    0 -0.26385891402E+02  0.10326678100E+02  0.90931217203E+01  0.29758030988E+02  0.00000000000E+00 0.  1.
         21    1    1    2  503  502 -0.94465592308E+02 -0.39730938096E+02 -0.13523780129E+03  0.16968075457E+03  0.00000000000E+00 0. -1.
          1    1    1    2  501    0 -0.24616178965E+02  0.59161390448E+02  0.37510117053E+02  0.74249816619E+02  0.00000000000E+00 0. -1.
<scales pt_clust_5="13000.00000" pt_clust_6="13000.00000" pt_clust_7="13000.00000" pt_clust_8="13000.00000" pt_clust_9="99.21188" pt_clust_10="64.07828"></scales>
<clustering>
<clus scale="   64.078">  1 10  2 -1</clus>
<clus scale="   82.010">  5  6 -1 -1</clus>
<clus scale="   90.130">  7  8 -1 -1</clus>
<clus scale="   90.560">  1  7  2 -1</clus>
<clus scale="   99.212">  2  9  1 -1</clus>
<clus scale="   64.078">  1  5  2 -1</clus>
</clustering>
</event>
<event>
10    4  0.2857708E-005  0.1930966E+03  0.7546771E-02  0.1177360E+00
         21   -1    0    0  503  502  0.00000000000E+00  0.00000000000E+00  0.92343549402E+03  0.92343549402E+03  0.00000000000E+00 0.  1.
         -1   -1    0    0    0  501 -0.00000000000E+00 -0.00000000000E+00 -0.10103177331E+03  0.10103177331E+03  0.00000000000E+00 0.  1.
         23    2    1    2    0    0 -0.84198453739E+02  0.56636620109E+01  0.20686897136E+03  0.23950944874E+03  0.86304971135E+02 0.  0.
         24    2    1    2    0    0 -0.30818467598E+02 -0.15868724236E+03  0.65447902131E+02  0.19199043253E+03  0.80283743408E+02 0.  0.
        -11    1    4    4    0    0  0.90042258442E+01 -0.28149592350E+02 -0.15438994898E+02  0.33344237823E+02  0.00000000000E+00 0.  1.
         12    1    4    4    0    0 -0.39822693443E+02 -0.13053765001E+03  0.80886897029E+02  0.15864619471E+03  0.00000000000E+00 0. -1.
        -11    1    3    3    0    0 -0.69068499722E-01 -0.27386821752E+02  0.73131590670E+02  0.78091435702E+02  0.00000000000E+00 0.  1.
         11    1    3    3    0    0 -0.84129385239E+02  0.33050483763E+02  0.13373738069E+03  0.16141801303E+03  0.00000000000E+00 0. -1.
         21    1    1    2  503  501  0.28544623138E+02 -0.53656992116E+01  0.27105569792E+02  0.39727800743E+02  0.00000000000E+00 0.  1.
         -2    1    1    2    0  502  0.86472298199E+02  0.15838927956E+03  0.52298127743E+03  0.55323958533E+03  0.00000000000E+00 0.  1.
<scales pt_clust_5="13000.00000" pt_clust_6="13000.00000" pt_clust_7="13000.00000" pt_clust_8="13000.00000" pt_clust_9="29.04456" pt_clust_10="175.61552"></scales>
<clustering>
<clus scale="   29.045">  2  9  1 -1</clus>
<clus scale="   80.284">  5  6 -1 -1</clus>
<clus scale="   86.305">  7  8 -1 -1</clus>
<clus scale="  117.288">  2  7  1 -1</clus>
<clus scale="  175.616">  1 10  2 -1</clus>
<clus scale="  175.616">  1  5  2 -1</clus>
</clustering>
</event>
<event>
10    4  0.2857708E-005  0.1502552E+03  0.7546771E-02  0.1202110E+00
          2   -1    0    0  503    0 -0.00000000000E+00  0.00000000000E+00  0.93488591304E+03  0.93488591304E+03  0.00000000000E+00 0. -1.
         21   -1    0    0  501  502  0.00000000000E+00 -0.00000000000E+00 -0.42594230181E+03  0.42594230181E+03  0.00000000000E+00 0. -1.
         24    2    1    2    0    0 -0.19445530671E+03 -0.15936009519E+01  0.32113770282E+03  0.38411165198E+03  0.81221494343E+02 0.  0.
         23    2    1    2    0    0  0.12163146219E+03  0.12750334038E+03  0.56311152032E+00  0.19869367503E+03  0.91801661198E+02 0.  0.
        -11    1    3    3    0    0 -0.49875679294E+02  0.11489945835E+02  0.15627714058E+03  0.16444496620E+03  0.00000000000E+00 0.  1.
         12    1    3    3    0    0 -0.14457962742E+03 -0.13083546786E+02  0.16486056224E+03  0.21966668579E+03  0.00000000000E+00 0. -1.
        -13    1    4    4    0    0  0.63924708874E+02  0.87622289074E+02 -0.42377939549E+02  0.11644708544E+03  0.00000000000E+00 0.  1.
         13    1    4    4    0    0  0.57706753320E+02  0.39881051302E+02  0.42941051069E+02  0.82246589586E+02  0.00000000000E+00 0. -1.
         21    1    1    2  503  502  0.11255253106E+03 -0.84755453797E+01  0.46253309232E+03  0.47610583761E+03  0.00000000000E+00 0. -1.
          1    1    1    2  501    0 -0.39728686541E+02 -0.11743419404E+03 -0.27529029543E+03  0.30191705024E+03  0.00000000000E+00 0. -1.
<scales pt_clust_5="13000.00000" pt_clust_6="13000.00000" pt_clust_7="13000.00000" pt_clust_8="13000.00000" pt_clust_9="112.87120" pt_clust_10="123.21024"></scales>
<clustering>
<clus scale="   81.221">  5  6 -1 -1</clus>
<clus scale="   91.802">  7  8 -1 -1</clus>
<clus scale="  112.871">  1  9  2 -1</clus>
<clus scale="  123.210">  2 10  1 -1</clus>
<clus scale="  144.035">  1  5  2 -1</clus>
<clus scale="  123.210">  2  5  1 -1</clus>
</clustering>
</event>
<event>
10    4  0.2857708E-005  0.1075021E+03  0.7546771E-02  0.1270110E+00
         -1   -1    0    0    0  501 -0.00000000000E+00  0.00000000000E+00  0.11544318474E+03  0.11544318474E+03  0.00000000000E+00 0.  1.
         21   -1    0    0  503  502  0.00000000000E+00 -0.00000000000E+00 -0.37747763897E+03  0.37747763897E+03  0.00000000000E+00 0. -1.
         23    2    1    2    0    0  0.46155889689E+02 -0.37084411763E+02 -0.12332747279E+03  0.16497927857E+03  0.92211046312E+02 0.  0.
         24    2    1    2    0    0  0.20086007382E+02  0.70111461495E+02 -0.12364223181E+03  0.16470729762E+03  0.80759071793E+02 0.  0.
        -13    1    4    4    0    0  0.24118503468E+02  0.86802418555E+02 -0.92360165437E+02  0.12902233232E+03  0.00000000000E+00 0.  1.
         14    1    4    4    0    0 -0.40324960861E+01 -0.16690957060E+02 -0.31282066370E+02  0.35684965303E+02  0.00000000000E+00 0. -1.
        -11    1    3    3    0    0  0.58988536249E+02  0.24025220479E+01 -0.38347034418E+02  0.70398256866E+02  0.00000000000E+00 0. -1.
         11    1    3    3    0    0 -0.12832646561E+02 -0.39486933811E+02 -0.84980438375E+02  0.94581021700E+02  0.00000000000E+00 0.  1.
         21    1    1    2  503  501  0.42092424551E+02  0.47526667202E+01  0.14466046662E+02  0.44761887265E+02  0.00000000000E+00 0.  1.
         -2    1    1    2    0  502 -0.10833432162E+03 -0.37779716453E+02 -0.29530796293E+02  0.11847236026E+03  0.00000000000E+00 0.  1.
<scales pt_clust_5="13000.00000" pt_clust_6="13000.00000" pt_clust_7="13000.00000" pt_clust_8="13000.00000" pt_clust_9="42.35989" pt_clust_10="93.45522"></scales>
<clustering>
<clus scale="   42.360">  1  9  2 -1</clus>
<clus scale="   80.759">  5  6 -1 -1</clus>
<clus scale="   92.211">  7  8 -1 -1</clus>
<clus scale="   93.455">  2 10  1 -1</clus>
<clus scale="   97.856">  2  5  1 -1</clus>
<clus scale="   93.455">  2  5  1 -1</clus>
</clustering>
</event>
<event>
10    4  0.2857708E-005  0.1140650E+03  0.7546771E-02  0.1257166E+00
          2   -1    0    0  503    0 -0.00000000000E+00  0.00000000000E+00  0.52484526390E+03  0.52484526390E+03  0.00000000000E+00 0. -1.
         21   -1    0    0  501  502  0.00000000000E+00 -0.00000000000E+00 -0.22946553078E+03  0.22946553078E+03  0.00000000000E+00 0.  1.
         24    2    1    2    0    0  0.44908489996E+02 -0.54152291057E+02 -0.15697926283E+02  0.10812887010E+03  0.80598911654E+02 0.  0.
         23    2    1    2    0    0 -0.96039106072E+02 -0.33620923293E+02 -0.12180436717E+03  0.18321755190E+03  0.91534097944E+02 0.  0.
        -11    1    3    3    0    0  0.38300927451E+02 -0.20763972718E+02 -0.45423639024E+02  0.62939737757E+02  0.00000000000E+00 0.  1.
         12    1    3    3    0    0  0.66075625449E+01 -0.33388318339E+02  0.29725712742E+02  0.45189132347E+02  0.00000000000E+00 0. -1.
        -13    1    4    4    0    0 -0.45667413517E+02 -0.16689652715E+02  0.18198191014E+01  0.48655615366E+02  0.00000000000E+00 0. -1.
         13    1    4    4    0    0 -0.50371692555E+02 -0.16931270577E+02 -0.12362418627E+03  0.13456193654E+03  0.00000000000E+00 0.  1.
         21    1    1    2  503  502  0.38027275649E+02 -0.24441036035E+01  0.26332488692E+02  0.46318973396E+02  0.00000000000E+00 0. -1.
          1    1    1    2  501    0  0.13103340427E+02  0.90217317953E+02  0.40654953787E+03  0.41664539927E+03  0.00000000000E+00 0. -1.
<scales pt_clust_5="13000.00000" pt_clust_6="13000.00000" pt_clust_7="13000.00000" pt_clust_8="13000.00000" pt_clust_9="38.10574" pt_clust_10="99.04409"></scales>
<clustering>
<clus scale="   38.106">  1  9  2 -1</clus>
<clus scale="   80.599">  5  6 -1 -1</clus>
<clus scale="   91.534">  7  8 -1 -1</clus>
<clus scale="   99.044">  2 10  1 -1</clus>
<clus scale="  105.492">  1  5  2 -1</clus>
<clus scale="   99.044">  2  5  1 -1</clus>
</clustering>
</event>
<event>
10    4  0.2857708E-005  0.3380705E+03  0.7546771E-02  0.1067663E+00
         21   -1    0    0  501  502  0.00000000000E+00  0.00000000000E+00  0.55820721793E+03  0.55820721793E+03  0.00000000000E+00 0. -1.
          2   -1    0    0  503    0 -0.00000000000E+00 -0.00000000000E+00 -0.38836339980E+03  0.38836339980E+03  0.00000000000E+00 0. -1.
         24    2    1    2    0    0 -0.41101669532E+03 -0.23817117427E+02  0.65496529420E+02  0.42331421736E+03  0.73506138092E+02 0.  0.
         23    2    1    2    0    0  0.28833748835E+03  0.49405937416E+02  0.14760015317E+03  0.33541413621E+03  0.71675544759E+02 0.  0.
        -11    1    3    3    0    0 -0.12085957948E+03  0.16788357252E+02  0.43358041792E+02  0.12949442722E+03  0.00000000000E+00 0.  1.
         12    1    3    3    0    0 -0.29015711583E+03 -0.40605474679E+02  0.22138487629E+02  0.29381979014E+03  0.00000000000E+00 0. -1.
        -11    1    4    4    0    0  0.48738991547E+02  0.78495042426E+01  0.58220145285E+02  0.76332753984E+02  0.00000000000E+00 0.  1.
         11    1    4    4    0    0  0.23959849680E+03  0.41556433173E+02  0.89380007882E+02  0.25908138223E+03  0.00000000000E+00 0. -1.
         21    1    1    2  503  502  0.13460034504E+03  0.62423579344E+01 -0.62768852520E+02  0.14864773380E+03  0.00000000000E+00 0.  1.
          1    1    1    2  501    0 -0.11921138071E+02 -0.31831177923E+02  0.19515988062E+02  0.39194530370E+02  0.00000000000E+00 0. -1.
<scales pt_clust_5="13000.00000" pt_clust_6="13000.00000" pt_clust_7="13000.00000" pt_clust_8="13000.00000" pt_clust_9="133.68248" pt_clust_10="33.99025"></scales>
<clustering>
<clus scale="   33.990">  1 10  2 -1</clus>
<clus scale="   71.676">  7  8 -1 -1</clus>
<clus scale="   73.506">  5  6 -1 -1</clus>
<clus scale="  133.682">  2  9  1 -1</clus>
<clus scale="  337.677">  1  7  2 -1</clus>
<clus scale="   33.990">  1  5  2 -1</clus>
</clustering>
</event>
<event>
10    4  0.2857708E-005  0.2044585E+03  0.7546771E-02  0.1146895E+00
         21   -1    0    0  501  502  0.00000000000E+00  0.00000000000E+00  0.10617565564E+03  0.10617565564E+03  0.00000000000E+00 0.  1.
          2   -1    0    0  503    0 -0.00000000000E+00 -0.00000000000E+00 -0.10415745105E+04  0.10415745105E+04  0.00000000000E+00 0. -1.
         24    2    1    2    0    0  0.15682170765E+03  0.17954216504E+03 -0.56198770136E+03  0.61569478385E+03  0.80133971288E+02 0.  0.
         23    2    1    2    0    0 -0.75807384706E+02 -0.11308643489E+03 -0.25886144022E+03  0.30602829986E+03  0.90048729852E+02 0.  0.
        -13    1    3    3    0    0  0.73172529416E+02  0.47918460853E+02 -0.13247686749E+03  0.15874671137E+03  0.00000000000E+00 0.  1.
         14    1    3    3    0    0  0.83649178236E+02  0.13162370419E+03 -0.42951083387E+03  0.45694807247E+03  0.00000000000E+00 0. -1.
        -11    1    4    4    0    0 -0.52821940200E+02 -0.11643418509E+03 -0.16176228233E+03  0.20618950703E+03  0.00000000000E+00 0.  1.
         11    1    4    4    0    0 -0.22985444506E+02  0.33477501987E+01 -0.97099157887E+02  0.99838792826E+02  0.00000000000E+00 0. -1.
         21    1    1    2  503  502 -0.45863993545E+02 -0.36228860837E+01 -0.14177643820E+03  0.14905431774E+03  0.00000000000E+00 0. -1.
          1    1    1    2  501    0 -0.35150329401E+02 -0.62832844069E+02  0.27226724941E+02  0.76972764676E+02  0.00000000000E+00 0. -1.
<scales pt_clust_5="13000.00000" pt_clust_6="13000.00000" pt_clust_7="13000.00000" pt_clust_8="13000.00000" pt_clust_9="46.00686" pt_clust_10="72.71361"></scales>
<clustering>
<clus scale="   46.007">  2  9  1 -1</clus>
<clus scale="   72.714">  1 10  2 -1</clus>
<clus scale="   80.134">  5  6 -1 -1</clus>
<clus scale="   90.049">  7  8 -1 -1</clus>
<clus scale="  200.290">  2  5  1 -1</clus>
<clus scale="   72.714">  1  5  2 -1</clus>
</clustering>
</event>
<event>
10    4  0.2857708E-005  0.1287793E+03  0.7546771E-02  0.1245636E+00
         21   -1    0    0  503  502  0.00000000000E+00  0.00000000000E+00  0.92683251754E+02  0.92683251754E+02  0.00000000000E+00 0.  1.
         -1   -1    0    0    0  501 -0.00000000000E+00 -0.00000000000E+00 -0.72228767565E+03  0.72228767565E+03  0.00000000000E+00 0.  1.
         23    2    1    2    0    0  0.17769053359E+02 -0.76884259755E+01 -0.14304767393E+02  0.94475615446E+02  0.91357344491E+02 0.  0.
         24    2    1    2    0    0  0.57436486004E+02  0.68478996146E+02 -0.51638357936E+03  0.53016254390E+03  0.80199744871E+02 0.  0.
        -11    1    4    4    0    0  0.76526780648E+02  0.53152542272E+02 -0.44640646359E+03  0.45602661286E+03  0.00000000000E+00 0.  1.
         12    1    4    4    0    0 -0.19090294645E+02  0.15326453874E+02 -0.69977115776E+02  0.74135931034E+02  0.00000000000E+00 0. -1.
        -13    1    3    3    0    0 -0.23383407957E+02  0.29420059250E+02 -0.10040849180E+02  0.38899129890E+02  0.00000000000E+00 0. -1.
         13    1    3    3    0    0  0.41152461316E+02 -0.37108485226E+02 -0.42639182131E+01  0.55576485555E+02  0.00000000000E+00 0.  1.
         21    1    1    2  503  501 -0.28079096971E+02  0.40390179899E+02 -0.43725967144E+02  0.65816126608E+02  0.00000000000E+00 0.  1.
         -2    1    1    2    0  502 -0.47126442392E+02 -0.10118075007E+03 -0.55190109993E+02  0.12451664145E+03  0.00000000000E+00 0.  1.
<scales pt_clust_5="13000.00000" pt_clust_6="13000.00000" pt_clust_7="13000.00000" pt_clust_8="13000.00000" pt_clust_9="49.19149" pt_clust_10="100.75770"></scales>
<clustering>
<clus scale="   49.191">  1  9  2 -1</clus>
<clus scale="   80.200">  5  6 -1 -1</clus>
<clus scale="   91.357">  7  8 -1 -1</clus>
<clus scale="   92.247">  2  7  1 -1</clus>
<clus scale="  100.758">  1 10  2 -1</clus>
<clus scale="   49.191">  1  5  2 -1</clus>
</clustering>
</event>
<event>
10    4  0.2857708E-005  0.2662606E+03  0.7546771E-02  0.1103989E+00
         21   -1    0    0  501  502  0.00000000000E+00  0.00000000000E+00  0.63314619436E+03  0.63314619436E+03  0.00000000000E+00 0. -1.
          2   -1    0    0  503    0 -0.00000000000E+00 -0.00000000000E+00 -0.48313470828E+03  0.48313470828E+03  0.00000000000E+00 0. -1.
         24    2    1    2    0    0  0.25991800280E+03  0.10058886843E+03 -0.49605256903E+02  0.29434715007E+03  0.80647843186E+02 0.  0.
         23    2    1    2    0    0 -0.18150774195E+03 -0.27603267048E+03  0.32933359059E+03  0.47548344097E+03  0.92112937141E+02 0.  0.
        -11    1    3    3    0    0  0.81645732933E+02 -0.42630415200E+01 -0.41980416566E+00  0.81758029971E+02  0.00000000000E+00 0.  1.
         12    1    3    3    0    0  0.17827226987E+03  0.10485190995E+03 -0.49185452738E+02  0.21258912010E+03  0.00000000000E+00 0. -1.
        -13    1    4    4    0    0 -0.17679442648E+03 -0.21116432051E+03  0.28765214738E+03  0.39823409872E+03  0.00000000000E+00 0. -1.
         13    1    4    4    0    0 -0.47133154745E+01 -0.64868349972E+02  0.41681443204E+02  0.77249342252E+02  0.00000000000E+00 0.  1.
         21    1    1    2  503  502 -0.94810097464E+02  0.12807772508E+02 -0.15389715494E+03  0.18121072793E+03  0.00000000000E+00 0. -1.
          1    1    1    2  501    0  0.16399836612E+02  0.16263602954E+03  0.24180307330E+02  0.16523958366E+03  0.00000000000E+00 0. -1.
<scales pt_clust_5="13000.00000" pt_clust_6="13000.00000" pt_clust_7="13000.00000" pt_clust_8="13000.00000" pt_clust_9="95.67128" pt_clust_10="165.56783"></scales>
<clustering>
<clus scale="   80.648">  5  6 -1 -1</clus>
<clus scale="   92.113">  7  8 -1 -1</clus>
<clus scale="   95.671">  2  9  1 -1</clus>
<clus scale="  165.568">  1 10  2 -1</clus>
<clus scale="  262.515">  2  5  1 -1</clus>
<clus scale="  165.568">  1  5  2 -1</clus>
</clustering>
</event>
<event>
10    4  0.2857708E-005  0.9715736E+02  0.7546771E-02  0.1292458E+00
         21   -1    0    0  501  502  0.00000000000E+00  0.00000000000E+00  0.19907337217E+03  0.19907337217E+03  0.00000000000E+00 0.  1.
          2   -1    0    0  503    0 -0.00000000000E+00 -0.00000000000E+00 -0.12542131340E+03  0.12542131340E+03  0.00000000000E+00 0. -1.
         23    2    1    2    0    0 -0.28386232050E+02  0.26911059772E+02 -0.29125353422E+02  0.10355860138E+03  0.91357070880E+02 0.  0.
         24    2    1    2    0    0 -0.77004347505E+01 -0.22567241905E+02  0.11579060878E+03  0.14283261296E+03  0.80156803455E+02 0.  0.
        -13    1    4    4    0    0 -0.21641864352E+02  0.25572489725E+02  0.47440670590E+02  0.58077015672E+02  0.00000000000E+00 0.  1.
         14    1    4    4    0    0  0.13941429601E+02 -0.48139731630E+02  0.68349938193E+02  0.84755597288E+02  0.00000000000E+00 0. -1.
        -11    1    3    3    0    0 -0.54652834242E+02  0.41798109773E+02 -0.16017802226E+02  0.70644067405E+02  0.00000000000E+00 0.  1.
         11    1    3    3    0    0  0.26266602192E+02 -0.14887050002E+02 -0.13107551196E+02  0.32914533975E+02  0.00000000000E+00 0. -1.
         21    1    1    2  503  502  0.21975618527E+02  0.11396775909E+02 -0.38013570198E+02  0.45363485646E+02  0.00000000000E+00 0. -1.
          1    1    1    2  501    0  0.14111048274E+02 -0.15740593775E+02  0.25000373603E+02  0.32739985584E+02  0.00000000000E+00 0. -1.
<scales pt_clust_5="13000.00000" pt_clust_6="13000.00000" pt_clust_7="13000.00000" pt_clust_8="13000.00000" pt_clust_9="24.87302" pt_clust_10="21.13973"></scales>
<clustering>
<clus scale="   21.140">  1 10  2 -1</clus>
<clus scale="   24.873">  2  9  1 -1</clus>
<clus scale="   80.157">  5  6 -1 -1</clus>
<clus scale="   86.710">  1  5  2 -1</clus>
<clus scale="   91.357">  7  8 -1 -1</clus>
<clus scale="   21.140">  1  5  2 -1</clus>
</clustering>
</event>
<event>
10    4  0.2857708E-005  0.1052433E+03  0.7546771E-02  0.1281957E+00
         -3   -1    0    0    0  501 -0.00000000000E+00  0.00000000000E+00  0.44789888109E+03  0.44789888109E+03  0.00000000000E+00 0.  1.
         21   -1    0    0  503  502  0.00000000000E+00 -0.00000000000E+00 -0.86748467625E+02  0.86748467625E+02  0.00000000000E+00 0. -1.
         24    2    1    2    0    0  0.43605378771E+02 -0.22050407415E+02  0.25217231077E+03  0.26532781637E+03  0.66485534485E+02 0.  0.
         23    2    1    2    0    0 -0.35493513401E+02  0.11650916682E+02 -0.36344990325E+02  0.10631884664E+03  0.92667175827E+02 0.  0.
        -13    1    3    3    0    0  0.33321358722E+02  0.98890663008E+01  0.20200478867E+03  0.20497326954E+03  0.00000000000E+00 0.  1.
         14    1    3    3    0    0  0.10284020049E+02 -0.31939473716E+02  0.50167522096E+02  0.60354546829E+02  0.00000000000E+00 0. -1.
        -13    1    4    4    0    0 -0.10264363702E+02 -0.24094559023E+02 -0.53307560429E+02  0.59393610225E+02  0.00000000000E+00 0. -1.
         13    1    4    4    0    0 -0.25229149700E+02  0.35745475705E+02  0.16962570103E+02  0.46925236414E+02  0.00000000000E+00 0.  1.
         21    1    1    2  503  501  0.97883611704E+01  0.26221578395E+02  0.13339170763E+03  0.13629648144E+03  0.00000000000E+00 0.  1.
         -4    1    1    2    0  502 -0.17900226540E+02 -0.15822087662E+02  0.11931385389E+02  0.26704204266E+02  0.00000000000E+00 0.  1.
<scales pt_clust_5="13000.00000" pt_clust_6="13000.00000" pt_clust_7="13000.00000" pt_clust_8="13000.00000" pt_clust_9="27.60391" pt_clust_10="23.89051"></scales>
<clustering>
<clus scale="   23.891">  2 10  1 -1</clus>
<clus scale="   27.604">  1  9  2 -1</clus>
<clus scale="   66.486">  5  6 -1 -1</clus>
<clus scale="   83.122">  1  5  2 -1</clus>
<clus scale="   92.667">  7  8 -1 -1</clus>
<clus scale="   23.891">  2  5  1 -1</clus>
</clustering>
</event>
<event>
10    4  0.2857708E-005  0.1173490E+03  0.7546771E-02  0.1253801E+00
          2   -1    0    0  503    0 -0.00000000000E+00  0.00000000000E+00  0.62746155995E+03  0.62746155995E+03  0.00000000000E+00 0. -1.
         21   -1    0    0  501  502  0.00000000000E+00 -0.00000000000E+00 -0.74997112734E+02  0.74997112734E+02  0.00000000000E+00 0. -1.
         24    2    1    2    0    0 -0.43323146627E+02 -0.55814962010E+02  0.44254326228E+03  0.45537609458E+03  0.80812396970E+02 0.  0.
         23    2    1    2    0    0  0.44216806421E+02  0.62799672204E+02  0.86728982457E+02  0.15165228523E+03  0.97865082738E+02 0.  0.
        -11    1    3    3    0    0  0.19984209794E+02 -0.23433101196E+02  0.76069397108E+02  0.82067241023E+02  0.00000000000E+00 0.  1.
         12    1    3    3    0    0 -0.63307356421E+02 -0.32381860814E+02  0.36647386518E+03  0.37330885356E+03  0.00000000000E+00 0. -1.
        -11    1    4    4    0    0  0.26000694145E+02  0.88650309886E+02  0.69751353910E+02  0.11575908133E+03  0.00000000000E+00 0. -1.
         11    1    4    4    0    0  0.18216112276E+02 -0.25850637683E+02  0.16977628547E+02  0.35893203899E+02  0.00000000000E+00 0.  1.
         21    1    1    2  503  502 -0.63927323133E+01  0.21685100252E+02  0.50579434541E+02  0.55402073949E+02  0.00000000000E+00 0. -1.
          1    1    1    2  501    0  0.54990725193E+01 -0.28669810446E+02 -0.27387232068E+02  0.40028218920E+02  0.00000000000E+00 0. -1.
<scales pt_clust_5="13000.00000" pt_clust_6="13000.00000" pt_clust_7="13000.00000" pt_clust_8="13000.00000" pt_clust_9="22.60776" pt_clust_10="28.94487"></scales>
<clustering>
<clus scale="   22.608">  1  9  2 -1</clus>
<clus scale="   28.945">  2 10  1 -1</clus>
<clus scale="   80.812">  5  6 -1 -1</clus>
<clus scale="   97.865">  7  8 -1 -1</clus>
<clus scale="  103.556">  1  5  2 -1</clus>
<clus scale="   28.945">  2  5  1 -1</clus>
</clustering>
</event>
<event>
10    4  0.2857708E-005  0.9410048E+02  0.7546771E-02  0.1300501E+00
          2   -1    0    0  503    0 -0.00000000000E+00  0.00000000000E+00  0.92505309182E+03  0.92505309182E+03  0.00000000000E+00 0. -1.
         21   -1    0    0  501  502  0.00000000000E+00 -0.00000000000E+00 -0.34018749842E+02  0.34018749842E+02  0.00000000000E+00 0.  1.
         23    2    1    2    0    0  0.22826078612E+01 -0.16824568944E+01  0.29876461396E+03  0.31243009401E+03  0.91346746676E+02 0.  0.
         24    2    1    2    0    0  0.60878216560E+02  0.43021252398E+02  0.10464927772E+03  0.15085624340E+03  0.79051561876E+02 0.  0.
        -11    1    4    4    0    0  0.13454446520E+02  0.26194889976E+02 -0.53162682166E+01  0.29924189208E+02  0.00000000000E+00 0.  1.
         12    1    4    4    0    0  0.47423770040E+02  0.16826362422E+02  0.10996554594E+03  0.12093205419E+03  0.00000000000E+00 0. -1.
        -11    1    3    3    0    0 -0.42909611365E+02 -0.15917553516E+01  0.18716503911E+03  0.19202739465E+03  0.00000000000E+00 0. -1.
         11    1    3    3    0    0  0.45192219226E+02 -0.90701542806E-01  0.11159957485E+03  0.12040269935E+03  0.00000000000E+00 0.  1.
         21    1    1    2  503  502 -0.23641292950E+02  0.12545082690E+01  0.64757246901E+02  0.68949151913E+02  0.00000000000E+00 0.  1.
          1    1    1    2  501    0 -0.39519531471E+02 -0.42593303772E+02  0.42286320340E+03  0.42683635235E+03  0.00000000000E+00 0. -1.
<scales pt_clust_5="13000.00000" pt_clust_6="13000.00000" pt_clust_7="13000.00000" pt_clust_8="13000.00000" pt_clust_9="23.67455" pt_clust_10="66.22296"></scales>
<clustering>
<clus scale="   23.675">  1  9  2 -1</clus>
<clus scale="   66.223">  2 10  1 -1</clus>
<clus scale="   79.052">  5  6 -1 -1</clus>
<clus scale="   82.218">  2  5  1 -1</clus>
<clus scale="   91.347">  7  8 -1 -1</clus>
<clus scale="   66.223">  2  5  1 -1</clus>
</clustering>
</event>
<event>
10    4  0.2857708E-005  0.1442117E+03  0.7546771E-02  0.1230501E+00
         -3   -1    0    0    0  501 -0.00000000000E+00  0.00000000000E+00  0.56809056652E+03  0.56809056652E+03  0.00000000000E+00 0.  1.
         21   -1    0    0  503  502  0.00000000000E+00 -0.00000000000E+00 -0.38390893764E+03  0.38390893764E+03  0.00000000000E+00 0.  1.
         24    2    1    2    0    0  0.32585497883E+02  0.39822823428E+02  0.45081402393E+03  0.46115435657E+03  0.82355233402E+02 0.  0.
         23    2    1    2    0    0 -0.11513291421E+03  0.18560925733E+02 -0.30437051151E+03  0.33873671455E+03  0.92201180104E+02 0.  0.
        -11    1    3    3    0    0  0.50185266144E+02 -0.20420741601E+01  0.19652077995E+03  0.20283773800E+03  0.00000000000E+00 0.  1.
         12    1    3    3    0    0 -0.17599768261E+02  0.41864897588E+02  0.25429324399E+03  0.25831661857E+03  0.00000000000E+00 0. -1.
        -11    1    4    4    0    0 -0.91732196185E+02 -0.26586680505E+02 -0.22552963939E+03  0.24491889605E+03  0.00000000000E+00 0.  1.
         11    1    4    4    0    0 -0.23400718024E+02  0.45147606238E+02 -0.78840872112E+02  0.93817818502E+02  0.00000000000E+00 0. -1.
         21    1    1    2  503  501 -0.76891622682E+01 -0.18643471045E+02  0.48884103989E+02  0.52880599957E+02  0.00000000000E+00 0. -1.
         -4    1    1    2    0  502  0.90236578595E+02 -0.39740278116E+02 -0.11145987539E+02  0.99227833088E+02  0.00000000000E+00 0.  1.
<scales pt_clust_5="13000.00000" pt_clust_6="13000.00000" pt_clust_7="13000.00000" pt_clust_8="13000.00000" pt_clust_9="20.16686" pt_clust_10="110.88718"></scales>
<clustering>
<clus scale="   20.167">  1  9  2 -1</clus>
<clus scale="   82.355">  5  6 -1 -1</clus>
<clus scale="   89.416">  1  5  2 -1</clus>
<clus scale="   92.201">  7  8 -1 -1</clus>
<clus scale="  110.887">  2 10  1 -1</clus>
<clus scale="  110.887">  2  5  1 -1</clus>
</clustering>
</event>
<event>
10    4  0.2857708E-005  0.1229877E+03  0.7546771E-02  0.1238524E+00
         -1   -1    0    0    0  501 -0.00000000000E+00  0.00000000000E+00  0.11796584423E+03  0.11796584423E+03  0.00000000000E+00 0.  1.
         21   -1    0    0  503  502  0.00000000000E+00 -0.00000000000E+00 -0.34068616442E+03  0.34068616442E+03  0.00000000000E+00 0. -1.
         23    2    1    2    0    0  0.21692300043E+02  0.89369183499E+02 -0.35561713755E+02  0.12761693417E+03  0.81018760548E+02 0.  0.
         24    2    1    2    0    0  0.26241765857E+01 -0.72900389572E+02 -0.20918967506E+03  0.23553503768E+03  0.79969248599E+02 0.  0.
        -11    1    4    4    0    0 -0.34142944635E+02 -0.57708233709E+02 -0.11227900192E+03  0.13077673791E+03  0.00000000000E+00 0.  1.
         12    1    4    4    0    0  0.36767121221E+02 -0.15192155863E+02 -0.96910673139E+02  0.10475829977E+03  0.00000000000E+00 0. -1.
        -11    1    3    3    0    0 -0.26525511004E+02  0.96601030837E+01 -0.97940101763E+00  0.28246761796E+02  0.00000000000E+00 0. -1.
         11    1    3    3    0    0  0.48217811047E+02  0.79709080415E+02 -0.34582312737E+02  0.99370172371E+02  0.00000000000E+00 0.  1.
         21    1    1    2  503  501  0.23152839627E+02  0.21896939946E+02  0.85400202714E+01  0.32991846084E+02  0.00000000000E+00 0. -1.
         -2    1    1    2    0  502 -0.47469316256E+02 -0.38365733874E+02  0.13491048355E+02  0.62508190720E+02  0.00000000000E+00 0.  1.
<scales pt_clust_5="13000.00000" pt_clust_6="13000.00000" pt_clust_7="13000.00000" pt_clust_8="13000.00000" pt_clust_9="31.86738" pt_clust_10="48.62397"></scales>
<clustering>
<clus scale="   31.867">  1  9  2 -1</clus>
<clus scale="   48.624">  2 10  1 -1</clus>
<clus scale="   79.969">  5  6 -1 -1</clus>
<clus scale="   81.019">  7  8 -1 -1</clus>
<clus scale="  122.299">  2  5  1 -1</clus>
<clus scale="   48.624">  2  5  1 -1</clus>
</clustering>
</event>
<event>
10    4  0.2857708E-005  0.1237546E+03  0.7546771E-02  0.1240619E+00
         21   -1    0    0  501  502  0.00000000000E+00  0.00000000000E+00  0.23110837032E+03  0.23110837032E+03  0.00000000000E+00 0. -1.
          2   -1    0    0  503    0 -0.00000000000E+00 -0.00000000000E+00 -0.34695821641E+03  0.34695821641E+03  0.00000000000E+00 0. -1.
         24    2    1    2    0    0 -0.83645936299E+02  0.18269078900E+02 -0.26791288968E+03  0.29199780461E+03  0.78453805113E+02 0.  0.
         23    2    1    2    0    0  0.41893479229E+02  0.50476182480E+02  0.54095015412E+02  0.12436418517E+03  0.90759414172E+02 0.  0.
        -13    1    3    3    0    0 -0.15289368734E+02 -0.28000400248E+02 -0.54117293639E+02  0.62820925504E+02  0.00000000000E+00 0.  1.
         14    1    3    3    0    0 -0.68356567565E+02  0.46269479148E+02 -0.21379559604E+03  0.22917687910E+03  0.00000000000E+00 0. -1.
        -13    1    4    4    0    0 -0.77266123691E+01 -0.22454233379E+02  0.10374259245E+02  0.25913671878E+02  0.00000000000E+00 0.  1.
         13    1    4    4    0    0  0.49620091598E+02  0.72930415859E+02  0.43720756168E+02  0.98450513292E+02  0.00000000000E+00 0. -1.
         21    1    1    2  503  502 -0.11807499631E+02 -0.31887492764E+02 -0.10200157502E+02  0.35500316272E+02  0.00000000000E+00 0. -1.
          1    1    1    2  501    0  0.53559956702E+02 -0.36857768616E+02  0.10816818568E+03  0.12620428068E+03  0.00000000000E+00 0. -1.
<scales pt_clust_5="13000.00000" pt_clust_6="13000.00000" pt_clust_7="13000.00000" pt_clust_8="13000.00000" pt_clust_9="34.00337" pt_clust_10="65.25542"></scales>
<clustering>
<clus scale="   34.003">  2  9  1 -1</clus>
<clus scale="   65.255">  1 10  2 -1</clus>
<clus scale="   78.454">  5  6 -1 -1</clus>
<clus scale="   90.759">  7  8 -1 -1</clus>
<clus scale="  115.034">  2  5  1 -1</clus>
<clus scale="   65.255">  1  5  2 -1</clus>
</clustering>
</event>
<event>
10    4  0.2857708E-005  0.1066780E+03  0.7546771E-02  0.1271974E+00
         21   -1    0    0  503  502  0.00000000000E+00  0.00000000000E+00  0.38199530214E+03  0.38199530214E+03  0.00000000000E+00 0. -1.
         -3   -1    0    0    0  501 -0.00000000000E+00 -0.00000000000E+00 -0.21165084609E+03  0.21165084609E+03  0.00000000000E+00 0.  1.
         24    2    1    2    0    0 -0.63041564900E+02  0.33125881177E+02 -0.10681143936E+03  0.15192158185E+03  0.81239895035E+02 0.  0.
         23    2    1    2    0    0  0.52511686197E+02 -0.63705749099E+02  0.31604356617E+03  0.33962887584E+03  0.92996440413E+02 0.  0.
        -13    1    3    3    0    0 -0.47963982999E+02  0.12358401153E+02 -0.11481160623E+03  0.12503990831E+03  0.00000000000E+00 0.  1.
         14    1    3    3    0    0 -0.15077581901E+02  0.20767480023E+02  0.80001668723E+01  0.26881673543E+02  0.00000000000E+00 0. -1.
        -11    1    4    4    0    0  0.23891206610E+01 -0.53898306533E+02  0.70203373619E+02  0.88539533612E+02  0.00000000000E+00 0.  1.
         11    1    4    4    0    0  0.50122565536E+02 -0.98074425660E+01  0.24584019255E+03  0.25108934223E+03  0.00000000000E+00 0. -1.
         21    1    1    2  503  501  0.19003671006E+02 -0.23416573746E+02 -0.36554116915E+02  0.47388594632E+02  0.00000000000E+00 0.  1.
         -4    1    1    2    0  502 -0.84737923034E+01  0.53996441668E+02 -0.23335538495E+01  0.54707095906E+02  0.00000000000E+00 0.  1.
<scales pt_clust_5="13000.00000" pt_clust_6="13000.00000" pt_clust_7="13000.00000" pt_clust_8="13000.00000" pt_clust_9="30.15751" pt_clust_10="50.33816"></scales>
<clustering>
<clus scale="   30.158">  2  9  1 -1</clus>
<clus scale="   50.338">  1 10  2 -1</clus>
<clus scale="   81.240">  5  6 -1 -1</clus>
<clus scale="   92.996">  7  8 -1 -1</clus>
<clus scale="   96.601">  2  5  1 -1</clus>
<clus scale="   50.338">  1  5  2 -1</clus>
</clustering>
</event>
<event>
10    4  0.2857708E-005  0.1820895E+03  0.7546771E-02  0.1171096E+00
          2   -1    0    0  503    0 -0.00000000000E+00  0.00000000000E+00  0.63052422707E+03  0.63052422707E+03  0.00000000000E+00 0. -1.
         21   -1    0    0  501  502  0.00000000000E+00 -0.00000000000E+00 -0.28417999179E+03  0.28417999179E+03  0.00000000000E+00 0.  1.
         23    2    1    2    0    0 -0.60437032599E+02 -0.11159450717E+03 -0.16596598445E+03  0.23137287564E+03  0.99411924075E+02 0.  0.
         24    2    1    2    0    0  0.17195309741E+03  0.18438672468E+02  0.37241159726E+03  0.41834039435E+03  0.80065194823E+02 0.  0.
        -11    1    4    4    0    0  0.10875364762E+02 -0.18746472001E+02  0.21953883294E+02  0.30849258709E+02  0.00000000000E+00 0.  1.
         12    1    4    4    0    0  0.16107773265E+03  0.37185144470E+02  0.35045771396E+03  0.38749113564E+03  0.00000000000E+00 0. -1.
        -13    1    3    3    0    0 -0.77897251775E+02 -0.86126140331E+02 -0.82700154958E+02  0.14256580766E+03  0.00000000000E+00 0.  1.
         13    1    3    3    0    0  0.17460219177E+02 -0.25468366835E+02 -0.83265829490E+02  0.88807067982E+02  0.00000000000E+00 0. -1.
         21    1    1    2  503  502  0.24122027806E+02 -0.13717168333E+02  0.75927204732E+02  0.80839182029E+02  0.00000000000E+00 0. -1.
          1    1    1    2  501    0 -0.13563809261E+03  0.10687300303E+03  0.63971417736E+02  0.18415176685E+03  0.00000000000E+00 0. -1.
<scales pt_clust_5="13000.00000" pt_clust_6="13000.00000" pt_clust_7="13000.00000" pt_clust_8="13000.00000" pt_clust_9="27.74947" pt_clust_10="163.54252"></scales>
<clustering>
<clus scale="   27.749">  1  9  2 -1</clus>
<clus scale="   80.065">  5  6 -1 -1</clus>
<clus scale="   99.412">  7  8 -1 -1</clus>
<clus scale="  161.245">  1  7  2 -1</clus>
<clus scale="  163.543">  2 10  1 -1</clus>
<clus scale="  163.543">  2  5  1 -1</clus>
</clustering>
</event>
<event>
10    4  0.2857708E-005  0.1842576E+03  0.7546771E-02  0.1165059E+00
         21   -1    0    0  501  502  0.00000000000E+00  0.00000000000E+00  0.35237957352E+03  0.35237957352E+03  0.00000000000E+00 0. -1.
          2   -1    0    0  503    0 -0.00000000000E+00 -0.00000000000E+00 -0.36085098892E+03  0.36085098892E+03  0.00000000000E+00 0. -1.
         24    2    1    2    0    0 -0.10102706855E+03 -0.73417492959E+02 -0.16691680980E+03  0.22337996146E+03  0.80254525938E+02 0.  0.
         23    2    1    2    0    0  0.57412083910E+02  0.12864728573E+03  0.68326667222E+02  0.18153528658E+03  0.91870862152E+02 0.  0.
        -13    1    3    3    0    0 -0.28527576991E+02 -0.37056866338E+02 -0.11633521792E+02  0.48191003529E+02  0.00000000000E+00 0.  1.
         14    1    3    3    0    0 -0.72499491560E+02 -0.36360626620E+02 -0.15528328801E+03  0.17518895793E+03  0.00000000000E+00 0. -1.
        -11    1    4    4    0    0 -0.22528009326E+02  0.52668027554E+02  0.16076208514E+02  0.59496863874E+02  0.00000000000E+00 0. -1.
         11    1    4    4    0    0  0.79940093236E+02  0.75979258181E+02  0.52250458709E+02  0.12203842270E+03  0.00000000000E+00 0.  1.
         21    1    1    2  503  502 -0.40556880818E+02 -0.83144933455E+02 -0.76186954759E+02  0.11984320013E+03  0.00000000000E+00 0. -1.
          1    1    1    2  501    0  0.84171865459E+02  0.27915140679E+02  0.16630568194E+03  0.18847211428E+03  0.00000000000E+00 0. -1.
<scales pt_clust_5="13000.00000" pt_clust_6="13000.00000" pt_clust_7="13000.00000" pt_clust_8="13000.00000" pt_clust_9="85.14466" pt_clust_10="88.68009"></scales>
<clustering>
<clus scale="   80.255">  5  6 -1 -1</clus>
<clus scale="   88.680">  1 10  2 -1</clus>
<clus scale="   85.145">  2  9  1 -1</clus>
<clus scale="   91.871">  7  8 -1 -1</clus>
<clus scale="  178.749">  2  5  1 -1</clus>
<clus scale="   88.680">  1  5  2 -1</clus>
</clustering>
</event>
<event>
10    4  0.2857708E-005  0.1140652E+03  0.7546771E-02  0.1257545E+00
         21   -1    0    0  501  502  0.00000000000E+00  0.00000000000E+00  0.20114771137E+03  0.20114771137E+03  0.00000000000E+00 0.  1.
          2   -1    0    0  503    0 -0.00000000000E+00 -0.00000000000E+00 -0.19463633119E+03  0.19463633119E+03  0.00000000000E+00 0. -1.
         23    2    1    2    0    0  0.51065333167E+02  0.32669631792E+02 -0.26284691383E+02  0.11254468914E+03  0.91106799739E+02 0.  0.
         24    2    1    2    0    0 -0.86226380389E+02 -0.74702321002E+02  0.54616400765E+02  0.14916916979E+03  0.79076321008E+02 0.  0.
        -11    1    4    4    0    0 -0.79361509235E+02 -0.90732692349E+02  0.42020189882E+02  0.12765722450E+03  0.00000000000E+00 0.  1.
         12    1    4    4    0    0 -0.68648711533E+01  0.16030371346E+02  0.12596210883E+02  0.21511945288E+02  0.00000000000E+00 0. -1.
        -13    1    3    3    0    0  0.67198407204E+02  0.13279797283E+02  0.90894897536E+01  0.69098464314E+02  0.00000000000E+00 0.  1.
         13    1    3    3    0    0 -0.16133074037E+02  0.19389834510E+02 -0.35374181137E+02  0.43446224822E+02  0.00000000000E+00 0. -1.
         21    1    1    2  503  502 -0.16529009970E+02 -0.35446842124E+02 -0.78017983000E+01  0.39881760792E+02  0.00000000000E+00 0. -1.
          1    1    1    2  501    0  0.51690057192E+02  0.77479531333E+02 -0.14018530902E+02  0.94188422838E+02  0.00000000000E+00 0. -1.
<scales pt_clust_5="13000.00000" pt_clust_6="13000.00000" pt_clust_7="13000.00000" pt_clust_8="13000.00000" pt_clust_9="39.11121" pt_clust_10="80.91454"></scales>
<clustering>
<clus scale="   39.111">  2  9  1 -1</clus>
<clus scale="   79.076">  5  6 -1 -1</clus>
<clus scale="   80.915">  1 10  2 -1</clus>
<clus scale="   91.107">  7  8 -1 -1</clus>
<clus scale="  104.707">  1  5  2 -1</clus>
<clus scale="   80.915">  1  5  2 -1</clus>
</clustering>
</event>
<event>
10    4  0.2857708E-005  0.2997914E+03  0.7546771E-02  0.1085570E+00
         21   -1    0    0  501  502  0.00000000000E+00  0.00000000000E+00  0.83362515628E+02  0.83362515628E+02  0.00000000000E+00 0. -1.
          2   -1    0    0  503    0 -0.00000000000E+00 -0.00000000000E+00 -0.21233938322E+04  0.21233938322E+04  0.00000000000E+00 0. -1.
         23    2    1    2    0    0 -0.32190720889E+03  0.98915115568E+01 -0.13752138841E+04  0.14150617829E+04  0.86397506858E+02 0.  0.
         24    2    1    2    0    0  0.23271616471E+03 -0.18022263625E+02 -0.51942709760E+03  0.57504762740E+03  0.79960294834E+02 0.  0.
        -11    1    4    4    0    0  0.12114663504E+03 -0.34133119414E+02 -0.19994820658E+03  0.23626439075E+03  0.00000000000E+00 0.  1.
         12    1    4    4    0    0  0.11156952967E+03  0.16110855789E+02 -0.31947889102E+03  0.33878323664E+03  0.00000000000E+00 0. -1.
        -13    1    3    3    0    0 -0.13799217168E+03 -0.34876512938E+01 -0.77370930601E+03  0.78592626459E+03  0.00000000000E+00 0.  1.
         13    1    3    3    0    0 -0.18391503721E+03  0.13379162851E+02 -0.60150457809E+03  0.62913551829E+03  0.00000000000E+00 0. -1.
         21    1    1    2  503  502 -0.18342869264E+02  0.18514463048E+02 -0.92994264688E+02  0.96577323734E+02  0.00000000000E+00 0.  1.
          1    1    1    2  501    0  0.10753391344E+03 -0.10383710980E+02 -0.52396070187E+02  0.12006961383E+03  0.00000000000E+00 0. -1.
<scales pt_clust_5="13000.00000" pt_clust_6="13000.00000" pt_clust_7="13000.00000" pt_clust_8="13000.00000" pt_clust_9="26.06235" pt_clust_10="107.18467"></scales>
<clustering>
<clus scale="   26.062">  2  9  1 -1</clus>
<clus scale="   79.960">  5  6 -1 -1</clus>
<clus scale="   86.398">  7  8 -1 -1</clus>
<clus scale="  107.185">  1 10  2 -1</clus>
<clus scale="  298.000">  1  5  2 -1</clus>
<clus scale="  107.185">  1  5  2 -1</clus>
</clustering>
</event>
<event>
10    4  0.2857708E-005  0.2372658E+03  0.7546771E-02  0.1122438E+00
         21   -1    0    0  501  502  0.00000000000E+00  0.00000000000E+00  0.91457803419E+02  0.91457803419E+02  0.00000000000E+00 0.  1.
          2   -1    0    0  503    0 -0.00000000000E+00 -0.00000000000E+00 -0.10036957065E+04  0.10036957065E+04  0.00000000000E+00 0. -1.
         23    2    1    2    0    0  0.14743769291E+03  0.16287029058E+03 -0.29715521994E+03  0.38111172590E+03  0.93168224383E+02 0.  0.
         24    2    1    2    0    0 -0.18916436512E+03 -0.11903726125E+03 -0.26550301980E+03  0.35622532616E+03  0.80321870472E+02 0.  0.
        -11    1    4    4    0    0 -0.91769912039E+02 -0.84572081981E+02 -0.94907307498E+02  0.15678504655E+03  0.00000000000E+00 0.  1.
         12    1    4    4    0    0 -0.97394453082E+02 -0.34465179274E+02 -0.17059571230E+03  0.19944027961E+03  0.00000000000E+00 0. -1.
        -11    1    3    3    0    0  0.38682462371E+02 -0.37846158379E+01 -0.60480111670E+02  0.71892281364E+02  0.00000000000E+00 0. -1.
         11    1    3    3    0    0  0.10875523054E+03  0.16665490642E+03 -0.23667510827E+03  0.30921944454E+03  0.00000000000E+00 0.  1.
         21    1    1    2  503  502 -0.47721742585E+00 -0.32622452871E+02 -0.14384064065E+03  0.14749434589E+03  0.00000000000E+00 0.  1.
          1    1    1    2  501    0  0.42203889635E+02 -0.11210576457E+02 -0.20573902268E+03  0.21032211196E+03  0.00000000000E+00 0. -1.
<scales pt_clust_5="13000.00000" pt_clust_6="13000.00000" pt_clust_7="13000.00000" pt_clust_8="13000.00000" pt_clust_9="32.62594" pt_clust_10="46.22759"></scales>
<clustering>
<clus scale="   32.626">  2  9  1 -1</clus>
<clus scale="   46.228">  1 10  2 -1</clus>
<clus scale="   80.322">  5  6 -1 -1</clus>
<clus scale="   93.168">  7  8 -1 -1</clus>
<clus scale="  232.522">  1  5  2 -1</clus>
<clus scale="   46.228">  1  5  2 -1</clus>
</clustering>
</event>
<event>
10    4  0.2857708E-005  0.1176446E+03  0.7546771E-02  0.1259588E+00
         -3   -1    0    0    0  501 -0.00000000000E+00  0.00000000000E+00  0.20213292542E+03  0.20213292542E+03  0.00000000000E+00 0.  1.
         21   -1    0    0  503  502  0.00000000000E+00 -0.00000000000E+00 -0.20513380941E+03  0.20513380941E+03  0.00000000000E+00 0. -1.
         23    2    1    2    0    0 -0.65994852566E+02 -0.56622940268E+01  0.74503310458E+02  0.13377947455E+03  0.89212232363E+02 0.  0.
         24    2    1    2    0    0 -0.43680253782E+02 -0.73192869614E+01  0.58028819510E+01  0.94650015570E+02  0.83447081892E+02 0.  0.
        -13    1    4    4    0    0 -0.36994738845E+02 -0.42831176919E+02 -0.53085509537E+01  0.56844534757E+02  0.00000000000E+00 0.  1.
         14    1    4    4    0    0 -0.66855149366E+01  0.35511889957E+02  0.11111432905E+02  0.37805480813E+02  0.00000000000E+00 0. -1.
        -13    1    3    3    0    0 -0.66288384991E+02 -0.39538749399E+02  0.53632790382E+02  0.93989036025E+02  0.00000000000E+00 0.  1.
         13    1    3    3    0    0  0.29353242541E+00  0.33876455372E+02  0.20870520076E+02  0.39790438526E+02  0.00000000000E+00 0. -1.
         21    1    1    2  503  501  0.93905705768E+02 -0.41435771787E+01 -0.17400711869E+01  0.94013183412E+02  0.00000000000E+00 0.  1.
         -4    1    1    2    0  502  0.15769400580E+02  0.17125158167E+02 -0.81567005207E+02  0.84824061299E+02  0.00000000000E+00 0.  1.
<scales pt_clust_5="13000.00000" pt_clust_6="13000.00000" pt_clust_7="13000.00000" pt_clust_8="13000.00000" pt_clust_9="76.69055" pt_clust_10="23.27971"></scales>
<clustering>
<clus scale="   23.280">  2 10  1 -1</clus>
<clus scale="   83.447">  5  6 -1 -1</clus>
<clus scale="   89.212">  7  8 -1 -1</clus>
<clus scale="   91.672">  2  5  1 -1</clus>
<clus scale="   76.691">  2  9  1 -1</clus>
<clus scale="   23.280">  2  5  1 -1</clus>
</clustering>
</event>
<event>
10    4  0.2857708E-005  0.4366548E+03  0.7546771E-02  0.1031946E+00
         21   -1    0    0  501  502  0.00000000000E+00  0.00000000000E+00  0.75031374562E+03  0.75031374562E+03  0.00000000000E+00 0.  1.
          2   -1    0    0  503    0 -0.00000000000E+00 -0.00000000000E+00 -0.15687545088E+04  0.15687545088E+04  0.00000000000E+00 0. -1.
         24    2    1    2    0    0 -0.34600775256E+03 -0.36335786492E+03 -0.12105228907E+04  0.13128628337E+04  0.80578211993E+02 0.  0.
         23    2    1    2    0    0  0.24613671595E+03  0.32472053636E+03  0.54650654095E+02  0.42116969113E+03  0.91490464297E+02 0.  0.
        -11    1    3    3    0    0 -0.73899870153E+02 -0.55119612521E+02 -0.15872183812E+03  0.18355376430E+03  0.00000000000E+00 0.  1.
         12    1    3    3    0    0 -0.27210788241E+03 -0.30823825240E+03 -0.10518010526E+04  0.11293090694E+04  0.00000000000E+00 0. -1.
        -13    1    4    4    0    0  0.72647020143E+02  0.16613226634E+03  0.77617311552E+01  0.18148764125E+03  0.00000000000E+00 0.  1.
         13    1    4    4    0    0  0.17348969581E+03  0.15858827002E+03  0.46888922940E+02  0.23968204988E+03  0.00000000000E+00 0. -1.
         21    1    1    2  503  502 -0.19543806075E+02  0.14122597547E+03 -0.62172840721E+02  0.15553841528E+03  0.00000000000E+00 0.  1.
          1    1    1    2  501    0  0.11941484268E+03 -0.10258864692E+03  0.39960431417E+03  0.42949731435E+03  0.00000000000E+00 0. -1.
<scales pt_clust_5="13000.00000" pt_clust_6="13000.00000" pt_clust_7="13000.00000" pt_clust_8="13000.00000" pt_clust_9="142.57186" pt_clust_10="156.33943"></scales>
<clustering>
<clus scale="   80.578">  5  6 -1 -1</clus>
<clus scale="   91.490">  7  8 -1 -1</clus>
<clus scale="  142.572">  2  9  1 -1</clus>
<clus scale="  156.339">  1 10  2 -1</clus>
<clus scale="  434.499">  2  5  1 -1</clus>
<clus scale="  156.339">  1  5  2 -1</clus>
</clustering>
</event>
<event>
10    4  0.2857708E-005  0.2292230E+03  0.7546771E-02  0.1127953E+00
         -3   -1    0    0    0  501 -0.00000000000E+00  0.00000000000E+00  0.44229655081E+03  0.44229655081E+03  0.00000000000E+00 0.  1.
         21   -1    0    0  503  502  0.00000000000E+00 -0.00000000000E+00 -0.26887196556E+03  0.26887196556E+03  0.00000000000E+00 0.  1.
         23    2    1    2    0    0  0.70157162801E+02 -0.15758224243E+03  0.22176416480E+03  0.29563404200E+03  0.92010604691E+02 0.  0.
         24    2    1    2    0    0 -0.96654241407E+02  0.17935099254E+03 -0.33245755649E+02  0.22165822450E+03  0.80735787054E+02 0.  0.
        -13    1    4    4    0    0 -0.66498144580E+02  0.43703741624E+02 -0.41251582921E+01  0.79680845850E+02  0.00000000000E+00 0.  1.
         14    1    4    4    0    0 -0.30156096828E+02  0.13564725091E+03 -0.29120597357E+02  0.14197737865E+03  0.00000000000E+00 0. -1.
        -11    1    3    3    0    0 -0.16304779917E+02 -0.62745938391E+02  0.53747361796E+02  0.84212098494E+02  0.00000000000E+00 0. -1.
         11    1    3    3    0    0  0.86461942718E+02 -0.94836304041E+02  0.16801680301E+03  0.21142194351E+03  0.00000000000E+00 0.  1.
         21    1    1    2  503  501  0.27478558238E-02 -0.85885575209E+02  0.49463085377E+02  0.99110689896E+02  0.00000000000E+00 0.  1.
         -4    1    1    2    0  502  0.26494330751E+02  0.64116825103E+02 -0.64556909274E+02  0.94765559980E+02  0.00000000000E+00 0.  1.
<scales pt_clust_5="13000.00000" pt_clust_6="13000.00000" pt_clust_7="13000.00000" pt_clust_8="13000.00000" pt_clust_9="77.55173" pt_clust_10="69.37519"></scales>
<clustering>
<clus scale="   69.375">  2 10  1 -1</clus>
<clus scale="   77.552">  1  9  2 -1</clus>
<clus scale="   80.736">  5  6 -1 -1</clus>
<clus scale="   92.011">  7  8 -1 -1</clus>
<clus scale="  224.934">  2  5  1 -1</clus>
<clus scale="   69.375">  2  5  1 -1</clus>
</clustering>
</event>
<event>
10    4  0.2857708E-005  0.1304266E+03  0.7546771E-02  0.1229080E+00
         21   -1    0    0  503  502  0.00000000000E+00  0.00000000000E+00  0.31358222290E+03  0.31358222290E+03  0.00000000000E+00 0. -1.
         -1   -1    0    0    0  501 -0.00000000000E+00 -0.00000000000E+00 -0.16441216880E+03  0.16441216880E+03  0.00000000000E+00 0.  1.
         23    2    1    2    0    0  0.78020002858E+02  0.36817342649E+02 -0.21531193653E+02  0.12444748433E+03  0.87068630920E+02 0.  0.
         24    2    1    2    0    0 -0.64925743012E+02 -0.57235530939E+02  0.18056082526E+03  0.21484065451E+03  0.77865506506E+02 0.  0.
        -11    1    4    4    0    0 -0.11701555936E+01 -0.28784718037E+02  0.11676800502E+03  0.12026926562E+03  0.00000000000E+00 0.  1.
         12    1    4    4    0    0 -0.63755587419E+02 -0.28450812902E+02  0.63792820238E+02  0.94571388886E+02  0.00000000000E+00 0. -1.
        -11    1    3    3    0    0  0.47574807399E+02  0.58951704232E+02 -0.36313489124E+02  0.84007947382E+02  0.00000000000E+00 0.  1.
         11    1    3    3    0    0  0.30445195458E+02 -0.22134361583E+02  0.14782295471E+02  0.40439536948E+02  0.00000000000E+00 0. -1.
         21    1    1    2  503  501  0.50374131073E+02 -0.28246584591E+02  0.23533561195E+01  0.57801045903E+02  0.00000000000E+00 0. -1.
         -2    1    1    2    0  502 -0.63468390918E+02  0.48664772881E+02 -0.12212933632E+02  0.80905206960E+02  0.00000000000E+00 0.  1.
<scales pt_clust_5="13000.00000" pt_clust_6="13000.00000" pt_clust_7="13000.00000" pt_clust_8="13000.00000" pt_clust_9="57.75312" pt_clust_10="60.57218"></scales>
<clustering>
<clus scale="   57.753">  2  9  1 -1</clus>
<clus scale="   60.572">  1 10  2 -1</clus>
<clus scale="   77.866">  5  6 -1 -1</clus>
<clus scale="   87.069">  7  8 -1 -1</clus>
<clus scale="  124.472">  1  5  2 -1</clus>
<clus scale="   60.572">  1  5  2 -1</clus>
</clustering>
</event>
<event>
10    4  0.2857708E-005  0.1091663E+03  0.7546771E-02  0.1266524E+00
          2   -1    0    0  503    0 -0.00000000000E+00  0.00000000000E+00  0.38480941273E+03  0.38480941273E+03  0.00000000000E+00 0. -1.
         21   -1    0    0  501  502  0.00000000000E+00 -0.00000000000E+00 -0.97526428857E+02  0.97526428857E+02  0.00000000000E+00 0. -1.
         24    2    1    2    0    0 -0.64945497731E+02  0.11543195159E+02  0.18883604705E+03  0.21560639479E+03  0.80472987888E+02 0.  0.
         23    2    1    2    0    0  0.43493634426E+02  0.16030779835E+02  0.39109468931E+02  0.10970736080E+03  0.91419211966E+02 0.  0.
        -11    1    3    3    0    0 -0.59951813448E+02  0.44453368101E+01  0.54971129104E+02  0.81460456603E+02  0.00000000000E+00 0.  1.
         12    1    3    3    0    0 -0.49936842834E+01  0.70978583486E+01  0.13386491795E+03  0.13414593819E+03  0.00000000000E+00 0. -1.
        -13    1    4    4    0    0  0.38303228222E+02  0.35718190789E+02  0.60605534585E+02  0.80099670834E+02  0.00000000000E+00 0.  1.
         13    1    4    4    0    0  0.51904062043E+01 -0.19687410955E+02 -0.21496065654E+02  0.29607689968E+02  0.00000000000E+00 0. -1.
         21    1    1    2  503  502  0.14282048441E+01  0.26621628942E+02  0.88410918581E+02  0.92343063740E+02  0.00000000000E+00 0. -1.
          1    1    1    2  501    0  0.20023658461E+02 -0.54195603935E+02 -0.29073450692E+02  0.64679022250E+02  0.00000000000E+00 0. -1.
<scales pt_clust_5="13000.00000" pt_clust_6="13000.00000" pt_clust_7="13000.00000" pt_clust_8="13000.00000" pt_clust_9="26.65991" pt_clust_10="56.30003"></scales>
<clustering>
<clus scale="   26.660">  1  9  2 -1</clus>
<clus scale="   56.300">  2 10  1 -1</clus>
<clus scale="   80.473">  5  6 -1 -1</clus>
<clus scale="   91.419">  7  8 -1 -1</clus>
<clus scale="  100.178">  1  5  2 -1</clus>
<clus scale="   56.300">  2  5  1 -1</clus>
</clustering>
</event>
<event>
10    4  0.2857708E-005  0.2311253E+03  0.7546771E-02  0.1149694E+00
          2   -1    0    0  503    0 -0.00000000000E+00  0.00000000000E+00  0.54442295040E+03  0.54442295040E+03  0.00000000000E+00 0. -1.
         21   -1    0    0  501  502  0.00000000000E+00 -0.00000000000E+00 -0.65058727707E+03  0.65058727707E+03  0.00000000000E+00 0.  1.
         24    2    1    2    0    0  0.96239525972E+02 -0.13216411931E+02  0.13257698409E+03  0.18292367094E+03  0.80297526584E+02 0.  0.
         23    2    1    2    0    0 -0.13893833080E+03 -0.16259788174E+03 -0.55864646728E+03  0.60538409367E+03  0.93070374212E+02 0.  0.
        -11    1    3    3    0    0  0.10687476790E+03  0.39274962193E+00  0.12379672279E+03  0.16354815450E+03  0.00000000000E+00 0.  1.
         12    1    3    3    0    0 -0.10635241926E+02 -0.13609161553E+02  0.87802613054E+01  0.19375516447E+02  0.00000000000E+00 0. -1.
        -13    1    4    4    0    0 -0.45452414138E+02 -0.12405778094E+03 -0.31861289953E+03  0.34492091081E+03  0.00000000000E+00 0. -1.
         13    1    4    4    0    0 -0.93485916658E+02 -0.38540100801E+02 -0.24003356774E+03  0.26046318286E+03  0.00000000000E+00 0.  1.
         21    1    1    2  503  502  0.78073707824E+01 -0.33122646709E+02  0.78356370681E+02  0.85427077615E+02  0.00000000000E+00 0. -1.
          1    1    1    2  501    0  0.34891434042E+02  0.20893694038E+03  0.24154878583E+03  0.32127538524E+03  0.00000000000E+00 0. -1.
<scales pt_clust_5="13000.00000" pt_clust_6="13000.00000" pt_clust_7="13000.00000" pt_clust_8="13000.00000" pt_clust_9="34.03035" pt_clust_10="211.55814"></scales>
<clustering>
<clus scale="   34.030">  1  9  2 -1</clus>
<clus scale="   80.298">  5  6 -1 -1</clus>
<clus scale="   93.070">  7  8 -1 -1</clus>
<clus scale="  129.731">  1  5  2 -1</clus>
<clus scale="  211.558">  2 10  1 -1</clus>
<clus scale="  211.558">  2  5  1 -1</clus>
</clustering>
</event>
<event>
10    4  0.2857708E-005  0.1398149E+03  0.7546771E-02  0.1225760E+00
         21   -1    0    0  501  502  0.00000000000E+00  0.00000000000E+00  0.18104299072E+03  0.18104299072E+03  0.00000000000E+00 0. -1.
          2   -1    0    0  503    0 -0.00000000000E+00 -0.00000000000E+00 -0.13391027756E+04  0.13391027756E+04  0.00000000000E+00 0. -1.
         24    2    1    2    0    0  0.47647802222E+02  0.63788151416E+02 -0.68849920964E+03  0.69747488074E+03  0.78107658152E+02 0.  0.
         23    2    1    2    0    0  0.90261766458E+02 -0.32684537939E+02 -0.92655729378E+02  0.16360135135E+03  0.94682904852E+02 0.  0.
        -13    1    3    3    0    0  0.35713726123E+02  0.75732551417E+02 -0.40990347318E+03  0.41836795635E+03  0.00000000000E+00 0.  1.
         14    1    3    3    0    0  0.11934076099E+02 -0.11944400001E+02 -0.27859573646E+03  0.27910692439E+03  0.00000000000E+00 0. -1.
        -11    1    4    4    0    0  0.89187755467E+02 -0.32328328194E+01 -0.29648446780E+02  0.94042210362E+02  0.00000000000E+00 0.  1.
         11    1    4    4    0    0  0.10740109912E+01 -0.29451705119E+02 -0.63007282598E+02  0.69559140984E+02  0.00000000000E+00 0. -1.
         21    1    1    2  503  502 -0.11957395821E+03  0.16593475421E+02 -0.50601448327E+03  0.52021527485E+03  0.00000000000E+00 0. -1.
          1    1    1    2  501    0 -0.18335610474E+02 -0.47697088898E+02  0.12910963737E+03  0.13885425943E+03  0.00000000000E+00 0. -1.
<scales pt_clust_5="13000.00000" pt_clust_6="13000.00000" pt_clust_7="13000.00000" pt_clust_8="13000.00000" pt_clust_9="102.87540" pt_clust_10="51.09997"></scales>
<clustering>
<clus scale="   51.100">  1 10  2 -1</clus>
<clus scale="   78.108">  5  6 -1 -1</clus>
<clus scale="   94.683">  7  8 -1 -1</clus>
<clus scale="  108.245">  2  5  1 -1</clus>
<clus scale="  102.875">  2  9  1 -1</clus>
<clus scale="   51.100">  1  5  2 -1</clus>
</clustering>
</event>
<event>
10    4  0.2857708E-005  0.9533701E+02  0.7546771E-02  0.1296893E+00
         21   -1    0    0  503  502  0.00000000000E+00  0.00000000000E+00  0.12900928567E+03  0.12900928567E+03  0.00000000000E+00 0.  1.
         -1   -1    0    0    0  501 -0.00000000000E+00 -0.00000000000E+00 -0.12759807225E+03  0.12759807225E+03  0.00000000000E+00 0.  1.
         23    2    1    2    0    0  0.32641242698E+02 -0.19444962801E+02 -0.23704533994E+02  0.10289854189E+03  0.92642580322E+02 0.  0.
         24    2    1    2    0    0 -0.89161243203E+01  0.21925852410E+01  0.51774662941E+02  0.96954471026E+02  0.81457037919E+02 0.  0.
        -13    1    4    4    0    0 -0.43887457747E+02 -0.22906897213E+01  0.16117767527E+02  0.46809599838E+02  0.00000000000E+00 0.  1.
         14    1    4    4    0    0  0.34971333427E+02  0.44832749623E+01  0.35656895413E+02  0.50144871189E+02  0.00000000000E+00 0. -1.
        -13    1    3    3    0    0  0.56802053682E+02 -0.30123829971E+02  0.42522695300E+01  0.64436016565E+02  0.00000000000E+00 0.  1.
         13    1    3    3    0    0 -0.24160810983E+02  0.10678867170E+02 -0.27956803524E+02  0.38462525329E+02  0.00000000000E+00 0. -1.
         21    1    1    2  503  501 -0.64097905310E+01  0.28660023686E+02 -0.15580642427E+02  0.33245131835E+02  0.00000000000E+00 0.  1.
         -2    1    1    2    0  502 -0.17315327847E+02 -0.11407646126E+02 -0.11078273102E+02  0.23509213162E+02  0.00000000000E+00 0.  1.
<scales pt_clust_5="13000.00000" pt_clust_6="13000.00000" pt_clust_7="13000.00000" pt_clust_8="13000.00000" pt_clust_9="28.87283" pt_clust_10="20.73537"></scales>
<clustering>
<clus scale="   20.735">  1 10  2 -1</clus>
<clus scale="   28.873">  2  9  1 -1</clus>
<clus scale="   81.457">  5  6 -1 -1</clus>
<clus scale="   84.509">  1  5  2 -1</clus>
<clus scale="   92.643">  7  8 -1 -1</clus>
<clus scale="   20.735">  1  5  2 -1</clus>
</clustering>
</event>
<event>
10    4  0.2857708E-005  0.1128801E+03  0.7546771E-02  0.1259420E+00
          2   -1    0    0  503    0 -0.00000000000E+00  0.00000000000E+00  0.14958140544E+04  0.14958140544E+04  0.00000000000E+00 0. -1.
         21   -1    0    0  501  502  0.00000000000E+00 -0.00000000000E+00 -0.23332094236E+02  0.23332094236E+02  0.00000000000E+00 0.  1.
         24    2    1    2    0    0 -0.56823980759E+02 -0.72957805867E+01  0.88129669721E+03  0.88682067191E+03  0.80528519288E+02 0.  0.
         23    2    1    2    0    0  0.46785665795E+02 -0.62492091348E+01  0.13003302070E+03  0.16589918809E+03  0.91575122151E+02 0.  0.
        -11    1    3    3    0    0 -0.29991085774E+02  0.88737539226E+01  0.97404623711E+02  0.10230283210E+03  0.00000000000E+00 0.  1.
         12    1    3    3    0    0 -0.26832894985E+02 -0.16169534509E+02  0.78389207350E+03  0.78451783982E+03  0.00000000000E+00 0. -1.
        -13    1    4    4    0    0  0.36713401857E+02  0.39948648713E+02  0.83352090798E+02  0.99455213288E+02  0.00000000000E+00 0. -1.
         13    1    4    4    0    0  0.10072263938E+02 -0.46197857847E+02  0.46680929905E+02  0.66443974801E+02  0.00000000000E+00 0.  1.
         21    1    1    2  503  502 -0.17833251141E+02  0.31735161252E+02  0.26084510579E+03  0.26337295708E+03  0.00000000000E+00 0.  1.
          1    1    1    2  501    0  0.27871566105E+02 -0.18190171530E+02  0.20030713643E+03  0.20305333152E+03  0.00000000000E+00 0. -1.
<scales pt_clust_5="13000.00000" pt_clust_6="13000.00000" pt_clust_7="13000.00000" pt_clust_8="13000.00000" pt_clust_9="34.71518" pt_clust_10="33.28224"></scales>
<clustering>
<clus scale="   33.282">  2 10  1 -1</clus>
<clus scale="   34.715">  1  9  2 -1</clus>
<clus scale="   80.529">  5  6 -1 -1</clus>
<clus scale="   91.575">  7  8 -1 -1</clus>
<clus scale="  104.119">  1  5  2 -1</clus>
<clus scale="   33.282">  2  5  1 -1</clus>
</clustering>
</event>
<event>
10    4  0.2857708E-005  0.1759812E+03  0.7546771E-02  0.1182421E+00
         21   -1    0    0  503  502  0.00000000000E+00  0.00000000000E+00  0.14608682222E+04  0.14608682222E+04  0.00000000000E+00 0.  1.
         -3   -1    0    0    0  501 -0.00000000000E+00 -0.00000000000E+00 -0.53377608373E+02  0.53377608373E+02  0.00000000000E+00 0.  1.
         23    2    1    2    0    0 -0.78814564439E+02  0.58901815925E+02  0.48852826218E+03  0.50662250917E+03  0.91243324998E+02 0.  0.
         24    2    1    2    0    0 -0.85741308556E+01 -0.16268033350E+03  0.32132470819E+03  0.36962884928E+03  0.82689246583E+02 0.  0.
        -11    1    4    4    0    0 -0.14037508780E+02 -0.14699472808E+03  0.20795354255E+03  0.25504740264E+03  0.00000000000E+00 0.  1.
         12    1    4    4    0    0  0.54633779243E+01 -0.15685605426E+02  0.11337116564E+03  0.11458144664E+03  0.00000000000E+00 0. -1.
        -11    1    3    3    0    0 -0.93544905687E+02  0.30411980258E+02  0.30984946841E+03  0.32508803577E+03  0.00000000000E+00 0. -1.
         11    1    3    3    0    0  0.14730341248E+02  0.28489835667E+02  0.17867879377E+03  0.18153447340E+03  0.00000000000E+00 0.  1.
         21    1    1    2  503  501 -0.39685297237E+02 -0.78303228920E+01  0.47211261622E+02  0.62170250099E+02  0.00000000000E+00 0. -1.
         -4    1    1    2    0  502  0.12707399253E+03  0.11160884047E+03  0.55042638179E+03  0.57582422198E+03  0.00000000000E+00 0.  1.
<scales pt_clust_5="13000.00000" pt_clust_6="13000.00000" pt_clust_7="13000.00000" pt_clust_8="13000.00000" pt_clust_9="40.45042" pt_clust_10="155.34435"></scales>
<clustering>
<clus scale="   40.450">  2  9  1 -1</clus>
<clus scale="   82.689">  5  6 -1 -1</clus>
<clus scale="   91.243">  7  8 -1 -1</clus>
<clus scale="  138.280">  2  7  1 -1</clus>
<clus scale="  155.344">  1 10  2 -1</clus>
<clus scale="  155.344">  1  5  2 -1</clus>
</clustering>
</event>
<event>
10    4  0.2857708E-005  0.2471513E+03  0.7546771E-02  0.1132029E+00
         21   -1    0    0  501  502  0.00000000000E+00  0.00000000000E+00  0.10153921335E+04  0.10153921335E+04  0.00000000000E+00 0. -1.
          2   -1    0    0  503    0 -0.00000000000E+00 -0.00000000000E+00 -0.14838210216E+03  0.14838210216E+03  0.00000000000E+00 0. -1.
         23    2    1    2    0    0 -0.16206358506E+02  0.13339361814E+03  0.89564522417E+02  0.18578883290E+03  0.91865027837E+02 0.  0.
         24    2    1    2    0    0 -0.11671712560E+03 -0.30451987861E+03  0.38353680164E+03  0.50989442546E+03  0.80849261182E+02 0.  0.
        -13    1    4    4    0    0  0.87114253658E+01 -0.63644726165E+02  0.80066318091E+02  0.10265064731E+03  0.00000000000E+00 0.  1.
         14    1    4    4    0    0 -0.12542855096E+03 -0.24087515244E+03  0.30347048355E+03  0.40724377815E+03  0.00000000000E+00 0. -1.
        -11    1    3    3    0    0  0.78025792637E+01  0.80220517687E+02  0.20688539325E+01  0.80625627798E+02  0.00000000000E+00 0. -1.
         11    1    3    3    0    0 -0.24008937770E+02  0.53173100450E+02  0.87495668485E+02  0.10516320510E+03  0.00000000000E+00 0.  1.
         21    1    1    2  503  502  0.73432158572E+02  0.24952137860E+01  0.12951981955E+03  0.14890900463E+03  0.00000000000E+00 0. -1.
          1    1    1    2  501    0  0.59491325530E+02  0.16863104668E+03  0.26438888772E+03  0.31918197266E+03  0.00000000000E+00 0. -1.
<scales pt_clust_5="13000.00000" pt_clust_6="13000.00000" pt_clust_7="13000.00000" pt_clust_8="13000.00000" pt_clust_9="73.47454" pt_clust_10="233.55335"></scales>
<clustering>
<clus scale="   73.475">  1  9  2 -1</clus>
<clus scale="   80.849">  5  6 -1 -1</clus>
<clus scale="   91.865">  7  8 -1 -1</clus>
<clus scale="  162.356">  2  7  1 -1</clus>
<clus scale="  233.553">  1 10  2 -1</clus>
<clus scale="   73.475">  1  5  2 -1</clus>
</clustering>
</event>
<event>
10    4  0.2857708E-005  0.1147320E+03  0.7546771E-02  0.1258730E+00
          2   -1    0    0  503    0 -0.00000000000E+00  0.00000000000E+00  0.96447467779E+03  0.96447467779E+03  0.00000000000E+00 0. -1.
         21   -1    0    0  501  502  0.00000000000E+00 -0.00000000000E+00 -0.89471955227E+02  0.89471955227E+02  0.00000000000E+00 0. -1.
         24    2    1    2    0    0  0.31397647829E+01  0.88502594191E+01  0.30610388209E+03  0.31638352902E+03  0.79440327221E+02 0.  0.
         23    2    1    2    0    0 -0.12006383127E+02 -0.13938044667E+03  0.35541351597E+03  0.39403144029E+03  0.96803648942E+02 0.  0.
        -13    1    3    3    0    0 -0.29180489739E+02  0.62696770748E+01  0.49964503288E+02  0.58200184028E+02  0.00000000000E+00 0.  1.
         14    1    3    3    0    0  0.32320254522E+02  0.25805823442E+01  0.25613937880E+03  0.25818334499E+03  0.00000000000E+00 0. -1.
        -11    1    4    4    0    0 -0.40605797124E+02 -0.10674477150E+03  0.31368820656E+03  0.33383164610E+03  0.00000000000E+00 0.  1.
         11    1    4    4    0    0  0.28599413997E+02 -0.32635675169E+02  0.41725309417E+02  0.60199794192E+02  0.00000000000E+00 0. -1.
         21    1    1    2  503  502  0.35459081490E+02  0.55018861986E+02  0.24789646432E+03  0.25639243097E+03  0.00000000000E+00 0.  1.
          1    1    1    2  501    0 -0.26592463145E+02  0.75511325267E+02 -0.34411139820E+02  0.87139232745E+02  0.00000000000E+00 0. -1.
<scales pt_clust_5="13000.00000" pt_clust_6="13000.00000" pt_clust_7="13000.00000" pt_clust_8="13000.00000" pt_clust_9="65.45549" pt_clust_10="81.56419"></scales>
<clustering>
<clus scale="   65.455">  1  9  2 -1</clus>
<clus scale="   79.440">  5  6 -1 -1</clus>
<clus scale="   81.564">  2 10  1 -1</clus>
<clus scale="   96.804">  7  8 -1 -1</clus>
<clus scale="  100.515">  1  5  2 -1</clus>
<clus scale="   81.564">  2  5  1 -1</clus>
</clustering>
</event>
<event>
10    4  0.2857708E-005  0.1395733E+03  0.7546771E-02  0.1229713E+00
         21   -1    0    0  503  502  0.00000000000E+00  0.00000000000E+00  0.56882170097E+02  0.56882170097E+02  0.00000000000E+00 0. -1.
          2   -1    0    0  502    0 -0.00000000000E+00 -0.00000000000E+00 -0.10206033400E+04  0.10206033400E+04  0.00000000000E+00 0. -1.
         24    2    1    2    0    0 -0.21205338859E+02  0.65347393829E+02 -0.14724309643E+03  0.18147091062E+03  0.80815924667E+02 0.  0.
         23    2    1    2    0    0 -0.97314502025E+02 -0.19608945799E+01 -0.12536916472E+03  0.18300417172E+03  0.91099626753E+02 0.  0.
        -13    1    3    3    0    0  0.15404453989E+02  0.34041107862E+02 -0.14192693921E+02  0.39969072893E+02  0.00000000000E+00 0.  1.
         14    1    3    3    0    0 -0.36609792848E+02  0.31306285967E+02 -0.13305040251E+03  0.14150183773E+03  0.00000000000E+00 0. -1.
        -13    1    4    4    0    0 -0.58339569341E+02 -0.45749463934E+02 -0.78239678914E+02  0.10778666967E+03  0.00000000000E+00 0.  1.
         13    1    4    4    0    0 -0.38974932684E+02  0.43788569354E+02 -0.47129485805E+02  0.75217502059E+02  0.00000000000E+00 0. -1.
         21    1    1    2  503  501 -0.51702792284E+01 -0.32444759325E+02 -0.53532462401E+02  0.62810180112E+02  0.00000000000E+00 0.  1.
          1    1    1    2  501    0  0.12369012011E+03 -0.30941739924E+02 -0.63757644637E+03  0.65020024765E+03  0.00000000000E+00 0. -1.
<scales pt_clust_5="13000.00000" pt_clust_6="13000.00000" pt_clust_7="13000.00000" pt_clust_8="13000.00000" pt_clust_9="32.85414" pt_clust_10="105.74291"></scales>
<clustering>
<clus scale="   32.854">  1  9  2 -1</clus>
<clus scale="   80.816">  5  6 -1 -1</clus>
<clus scale="   91.100">  7  8 -1 -1</clus>
<clus scale="  100.249">  2  5  1 -1</clus>
<clus scale="  105.743">  1 10  2 -1</clus>
<clus scale="   32.854">  1  5  2 -1</clus>
</clustering>
</event>
<event>
10    4  0.2857708E-005  0.1568631E+03  0.7546771E-02  0.1193626E+00
          2   -1    0    0  503    0 -0.00000000000E+00  0.00000000000E+00  0.26299016515E+03  0.26299016515E+03  0.00000000000E+00 0. -1.
         21   -1    0    0  501  502  0.00000000000E+00 -0.00000000000E+00 -0.24958025766E+03  0.24958025766E+03  0.00000000000E+00 0.  1.
         24    2    1    2    0    0  0.15511081156E+03  0.55389943108E+02 -0.62433571421E+01  0.18476970995E+03  0.83507224499E+02 0.  0.
         23    2    1    2    0    0 -0.51956470974E+02 -0.72346097944E+02 -0.93533846908E+02  0.15831945200E+03  0.91558918745E+02 0.  0.
        -11    1    3    3    0    0  0.96014505381E+02 -0.37550867439E+01 -0.24561300037E+02  0.99177332992E+02  0.00000000000E+00 0.  1.
         12    1    3    3    0    0  0.59096306184E+02  0.59145029852E+02  0.18317942895E+02  0.85592376954E+02  0.00000000000E+00 0. -1.
        -13    1    4    4    0    0 -0.24663191485E+02  0.62345578603E+01 -0.65939550699E+02  0.70676495897E+02  0.00000000000E+00 0.  1.
         13    1    4    4    0    0 -0.27293279489E+02 -0.78580655804E+02 -0.27594296209E+02  0.87642956107E+02  0.00000000000E+00 0. -1.
         21    1    1    2  503  502 -0.83467110438E+01  0.23849585242E+02  0.47920231268E+02  0.54173968529E+02  0.00000000000E+00 0.  1.
          1    1    1    2  501    0 -0.94807629547E+02 -0.68934304058E+01  0.65266880277E+02  0.11530729233E+03  0.00000000000E+00 0. -1.
<scales pt_clust_5="13000.00000" pt_clust_6="13000.00000" pt_clust_7="13000.00000" pt_clust_8="13000.00000" pt_clust_9="25.26797" pt_clust_10="98.41757"></scales>
<clustering>
<clus scale="   25.268">  1  9  2 -1</clus>
<clus scale="   83.507">  5  6 -1 -1</clus>
<clus scale="   91.559">  7  8 -1 -1</clus>
<clus scale="   98.418">  2 10  1 -1</clus>
<clus scale="  152.304">  1  5  2 -1</clus>
<clus scale="   98.418">  2  5  1 -1</clus>
</clustering>
</event>
<event>
10    4  0.2857708E-005  0.2710581E+03  0.7546771E-02  0.1101331E+00
          2   -1    0    0  503    0 -0.00000000000E+00  0.00000000000E+00  0.32149023647E+03  0.32149023647E+03  0.00000000000E+00 0. -1.
         21   -1    0    0  501  502  0.00000000000E+00 -0.00000000000E+00 -0.13429778055E+04  0.13429778055E+04  0.00000000000E+00 0. -1.
         23    2    1    2    0    0  0.24101915870E+03  0.11952022842E+03  0.44568784903E+02  0.28752500129E+03  0.91153331877E+02 0.  0.
         24    2    1    2    0    0 -0.17987510056E+03 -0.10028651443E+03 -0.17225860374E+03  0.27918091217E+03  0.76527892826E+02 0.  0.
        -11    1    4    4    0    0 -0.94665981693E+01 -0.34396022661E+02 -0.40204751158E+02  0.53750580197E+02  0.00000000000E+00 0.  1.
         12    1    4    4    0    0 -0.17040850239E+03 -0.65890491772E+02 -0.13205385258E+03  0.22543033197E+03  0.00000000000E+00 0. -1.
        -11    1    3    3    0    0  0.40712755558E+01  0.28248432060E+02 -0.45445604989E+01  0.28899865547E+02  0.00000000000E+00 0.  1.
         11    1    3    3    0    0  0.23694788315E+03  0.91271796363E+02  0.49113345401E+02  0.25862513574E+03  0.00000000000E+00 0. -1.
         21    1    1    2  503  502 -0.55716866479E+01  0.94812598766E+02  0.74797981514E+02  0.12089338533E+03  0.00000000000E+00 0.  1.
          1    1    1    2  501    0 -0.55572371498E+02 -0.11404631276E+03 -0.96859573171E+03  0.97686874319E+03  0.00000000000E+00 0. -1.
<scales pt_clust_5="13000.00000" pt_clust_6="13000.00000" pt_clust_7="13000.00000" pt_clust_8="13000.00000" pt_clust_9="94.97617" pt_clust_10="125.33713"></scales>
<clustering>
<clus scale="   76.528">  5  6 -1 -1</clus>
<clus scale="   91.153">  7  8 -1 -1</clus>
<clus scale="   94.976">  1  9  2 -1</clus>
<clus scale="  125.337">  2 10  1 -1</clus>
<clus scale="  266.496">  2  5  1 -1</clus>
<clus scale="  125.337">  2  5  1 -1</clus>
</clustering>
</event>
<event>
10    4  0.2857708E-005  0.1076428E+03  0.7546771E-02  0.1270174E+00
         -1   -1    0    0    0  501 -0.00000000000E+00  0.00000000000E+00  0.71887970195E+03  0.71887970195E+03  0.00000000000E+00 0.  1.
         21   -1    0    0  503  502  0.00000000000E+00 -0.00000000000E+00 -0.21977223026E+03  0.21977223026E+03  0.00000000000E+00 0. -1.
         24    2    1    2    0    0 -0.31190279451E+02  0.43699323090E+02  0.64730486683E+03  0.65449021220E+03  0.80444905835E+02 0.  0.
         23    2    1    2    0    0  0.24932801328E+02 -0.10324075392E+03 -0.10331640301E+03  0.17474425079E+03  0.92633558726E+02 0.  0.
        -11    1    3    3    0    0 -0.56925516376E+02  0.21804375617E+02  0.34969212583E+03  0.35496553083E+03  0.00000000000E+00 0.  1.
         12    1    3    3    0    0  0.25735236925E+02  0.21894947473E+02  0.29761274099E+03  0.29952468136E+03  0.00000000000E+00 0. -1.
        -13    1    4    4    0    0  0.48826793368E+02 -0.10425446655E+03 -0.95520608595E+02  0.14959022766E+03  0.00000000000E+00 0. -1.
         13    1    4    4    0    0 -0.23893992040E+02  0.10137126311E+01 -0.77957944109E+01  0.25154023126E+02  0.00000000000E+00 0.  1.
         21    1    1    2  503  501 -0.20605952118E+02 -0.96421875451E-01  0.11026757160E+02  0.23371006255E+02  0.00000000000E+00 0. -1.
         -2    1    1    2    0  502  0.26863430242E+02  0.59637852703E+02 -0.55907749291E+02  0.86046462973E+02  0.00000000000E+00 0.  1.
<scales pt_clust_5="13000.00000" pt_clust_6="13000.00000" pt_clust_7="13000.00000" pt_clust_8="13000.00000" pt_clust_9="20.60618" pt_clust_10="62.87690"></scales>
<clustering>
<clus scale="   20.606">  2  9  1 -1</clus>
<clus scale="   62.877">  2 10  1 -1</clus>
<clus scale="   80.445">  5  6 -1 -1</clus>
<clus scale="   92.634">  7  8 -1 -1</clus>
<clus scale="   97.352">  1  5  2 -1</clus>
<clus scale="   20.606">  2  5  1 -1</clus>
</clustering>
</event>
<event>
10    4  0.2857708E-005  0.1474632E+03  0.7546771E-02  0.1225089E+00
         21   -1    0    0  503  502  0.00000000000E+00  0.00000000000E+00  0.53909221700E+03  0.53909221700E+03  0.00000000000E+00 0.  1.
         -1   -1    0    0    0  501 -0.00000000000E+00 -0.00000000000E+00 -0.14166480589E+03  0.14166480589E+03  0.00000000000E+00 0.  1.
         24    2    1    2    0    0 -0.17921486468E+02  0.48886007388E+02  0.24234880073E+03  0.26079976486E+03  0.81071294182E+02 0.  0.
         23    2    1    2    0    0 -0.12268561402E+03  0.53038186486E+02  0.15095488460E+03  0.22137745955E+03  0.91410028427E+02 0.  0.
        -13    1    3    3    0    0 -0.20534600800E+02  0.64895461196E+02  0.23146447049E+03  0.24126518981E+03  0.00000000000E+00 0.  1.
         14    1    3    3    0    0  0.26131143319E+01 -0.16009453808E+02  0.10884330242E+02  0.19534575054E+02  0.00000000000E+00 0. -1.
        -13    1    4    4    0    0 -0.10837288533E+03  0.77724934885E+02  0.12275063312E+03  0.18125552601E+03  0.00000000000E+00 0.  1.
         13    1    4    4    0    0 -0.14312728686E+02 -0.24686748399E+02  0.28204251482E+02  0.40121933535E+02  0.00000000000E+00 0. -1.
         21    1    1    2  503  501  0.69466776192E+02 -0.27107986604E+02 -0.41913465542E+02  0.85540718526E+02  0.00000000000E+00 0.  1.
         -2    1    1    2    0  502  0.71140324296E+02 -0.74816207271E+02  0.46037191322E+02  0.11303907995E+03  0.00000000000E+00 0.  1.
<scales pt_clust_5="13000.00000" pt_clust_6="13000.00000" pt_clust_7="13000.00000" pt_clust_8="13000.00000" pt_clust_9="74.56860" pt_clust_10="115.71352"></scales>
<clustering>
<clus scale="   74.569">  2  9  1 -1</clus>
<clus scale="   81.071">  5  6 -1 -1</clus>
<clus scale="   91.410">  7  8 -1 -1</clus>
<clus scale="   93.558">  2  5  1 -1</clus>
<clus scale="  115.714">  1 10  2 -1</clus>
<clus scale="  115.714">  1  5  2 -1</clus>
</clustering>
</event>
<event>
10    4  0.2857708E-005  0.1156594E+03  0.7546771E-02  0.1255937E+00
          2   -1    0    0  503    0 -0.00000000000E+00  0.00000000000E+00  0.83542013934E+02  0.83542013934E+02  0.00000000000E+00 0. -1.
         21   -1    0    0  501  502  0.00000000000E+00 -0.00000000000E+00 -0.81509852053E+03  0.81509852053E+03  0.00000000000E+00 0. -1.
         23    2    1    2    0    0 -0.57524078550E+02 -0.80629855943E+02 -0.83876120161E+01  0.13894111278E+03  0.97077739480E+02 0.  0.
         24    2    1    2    0    0  0.74807838675E+02 -0.68440561089E+01 -0.48828268439E+03  0.50085817740E+03  0.82437128497E+02 0.  0.
        -11    1    4    4    0    0  0.92595480726E+02 -0.32244761722E+01 -0.38492788497E+03  0.39592145298E+03  0.00000000000E+00 0.  1.
         12    1    4    4    0    0 -0.17787642050E+02 -0.36195799367E+01 -0.10335479942E+03  0.10493672442E+03  0.00000000000E+00 0. -1.
        -11    1    3    3    0    0 -0.17774742577E+02  0.17338989485E+02 -0.20928444014E+02  0.32474325226E+02  0.00000000000E+00 0.  1.
         11    1    3    3    0    0 -0.39749335973E+02 -0.97968845428E+02  0.12540831998E+02  0.10646678755E+03  0.00000000000E+00 0. -1.
         21    1    1    2  503  502  0.47590839543E+01  0.55430317905E+02 -0.69924582173E+02  0.89356679746E+02  0.00000000000E+00 0. -1.
          1    1    1    2  501    0 -0.22042844079E+02  0.32043594147E+02 -0.16496162801E+03  0.16948456454E+03  0.00000000000E+00 0. -1.
<scales pt_clust_5="13000.00000" pt_clust_6="13000.00000" pt_clust_7="13000.00000" pt_clust_8="13000.00000" pt_clust_9="59.40467" pt_clust_10="38.89317"></scales>
<clustering>
<clus scale="   38.893">  2 10  1 -1</clus>
<clus scale="   59.405">  1  9  2 -1</clus>
<clus scale="   82.437">  5  6 -1 -1</clus>
<clus scale="   97.078">  7  8 -1 -1</clus>
<clus scale="  103.677">  2  5  1 -1</clus>
<clus scale="   38.893">  2  5  1 -1</clus>
</clustering>
</event>
<event>
10    4  0.2857708E-005  0.9978783E+02  0.7546771E-02  0.1286976E+00
         21   -1    0    0  501  502  0.00000000000E+00  0.00000000000E+00  0.58378857387E+02  0.58378857387E+02  0.00000000000E+00 0.  1.
          2   -1    0    0  503    0 -0.00000000000E+00 -0.00000000000E+00 -0.39616319101E+03  0.39616319101E+03  0.00000000000E+00 0. -1.
         24    2    1    2    0    0 -0.38261785081E+02 -0.22466655301E+02 -0.67108137366E+02  0.11329163429E+03  0.79767020137E+02 0.  0.
         23    2    1    2    0    0 -0.20812938090E+01  0.45097690195E+02 -0.59984281589E+02  0.11870431491E+03  0.91948175057E+02 0.  0.
        -11    1    3    3    0    0 -0.11363707532E+02 -0.50748938427E+02 -0.34242147163E+02  0.62266469650E+02  0.00000000000E+00 0.  1.
         12    1    3    3    0    0 -0.26898077549E+02  0.28282283126E+02 -0.32865990202E+02  0.51025164641E+02  0.00000000000E+00 0. -1.
        -13    1    4    4    0    0 -0.44181118011E+02  0.22823923694E+02 -0.49024782934E+02  0.69830738383E+02  0.00000000000E+00 0.  1.
         13    1    4    4    0    0  0.42099824202E+02  0.22273766501E+02 -0.10959498656E+02  0.48873576530E+02  0.00000000000E+00 0. -1.
         21    1    1    2  503  502  0.10958981788E+02 -0.23585860017E+02 -0.17198288328E+03  0.17393821954E+03  0.00000000000E+00 0. -1.
          1    1    1    2  501    0  0.29384097103E+02  0.95482512238E+00 -0.38709031384E+02  0.48607879652E+02  0.00000000000E+00 0. -1.
<scales pt_clust_5="13000.00000" pt_clust_6="13000.00000" pt_clust_7="13000.00000" pt_clust_8="13000.00000" pt_clust_9="26.00754" pt_clust_10="31.73926"></scales>
<clustering>
<clus scale="   26.008">  2  9  1 -1</clus>
<clus scale="   31.739">  1 10  2 -1</clus>
<clus scale="   79.767">  5  6 -1 -1</clus>
<clus scale="   88.690">  2  5  1 -1</clus>
<clus scale="   91.948">  7  8 -1 -1</clus>
<clus scale="   31.739">  1  5  2 -1</clus>
</clustering>
</event>
<event>
10    4  0.2857708E-005  0.2134049E+03  0.7546771E-02  0.1157351E+00
         21   -1    0    0  501  502  0.00000000000E+00  0.00000000000E+00  0.41383391663E+02  0.41383391663E+02  0.00000000000E+00 0. -1.
          2   -1    0    0  503    0 -0.00000000000E+00 -0.00000000000E+00 -0.23554650167E+04  0.23554650167E+04  0.00000000000E+00 0. -1.
         23    2    1    2    0    0 -0.29921298367E+02 -0.10375141775E+03 -0.33707928337E+03  0.36534200640E+03  0.90513521562E+02 0.  0.
         24    2    1    2    0    0 -0.83758302253E+02  0.20418086543E+03 -0.65825151368E+03  0.69882708066E+03  0.79743052307E+02 0.  0.
        -11    1    4    4    0    0 -0.25936218962E+02  0.11711370748E+03 -0.24821250863E+03  0.27567690758E+03  0.00000000000E+00 0.  1.
         12    1    4    4    0    0 -0.57822083291E+02  0.87067157952E+02 -0.41003900505E+03  0.42315017308E+03  0.00000000000E+00 0. -1.
        -13    1    3    3    0    0  0.25629992743E+02 -0.13798253788E+02 -0.12533886567E+03  0.12867447137E+03  0.00000000000E+00 0.  1.
         13    1    3    3    0    0 -0.55551291110E+02 -0.89953163959E+02 -0.21174041770E+03  0.23666753503E+03  0.00000000000E+00 0. -1.
         21    1    1    2  503  502  0.66354541945E+01  0.25804161201E+02 -0.18957041869E+03  0.19143361155E+03  0.00000000000E+00 0. -1.
          1    1    1    2  501    0  0.10704414643E+03 -0.12623360888E+03 -0.11291804092E+04  0.11412457097E+04  0.00000000000E+00 0. -1.
<scales pt_clust_5="13000.00000" pt_clust_6="13000.00000" pt_clust_7="13000.00000" pt_clust_8="13000.00000" pt_clust_9="26.64365" pt_clust_10="197.94633"></scales>
<clustering>
<clus scale="   26.644">  2  9  1 -1</clus>
<clus scale="   79.743">  5  6 -1 -1</clus>
<clus scale="   90.514">  7  8 -1 -1</clus>
<clus scale="  137.615">  2  7  1 -1</clus>
<clus scale="  197.946">  1 10  2 -1</clus>
<clus scale="  197.946">  1  5  2 -1</clus>
</clustering>
</event>
<event>
10    4  0.2857708E-005  0.1229825E+03  0.7546771E-02  0.1241430E+00
         -1   -1    0    0    0  501 -0.00000000000E+00  0.00000000000E+00  0.13770548844E+03  0.13770548844E+03  0.00000000000E+00 0.  1.
         21   -1    0    0  503  502  0.00000000000E+00 -0.00000000000E+00 -0.39923348620E+03  0.39923348620E+03  0.00000000000E+00 0. -1.
         24    2    1    2    0    0  0.37640351738E+02  0.17210482062E+02  0.77814664248E+02  0.12448913205E+03  0.87917149953E+02 0.  0.
         23    2    1    2    0    0 -0.54485384513E+02 -0.19162589557E+01 -0.22818806742E+03  0.25416739212E+03  0.97769831383E+02 0.  0.
        -13    1    3    3    0    0  0.62497869622E+02 -0.63107788528E+01  0.47212133348E+02  0.78579864929E+02  0.00000000000E+00 0.  1.
         14    1    3    3    0    0 -0.24857517885E+02  0.23521260915E+02  0.30602530900E+02  0.45909267125E+02  0.00000000000E+00 0. -1.
        -11    1    4    4    0    0 -0.34846556510E+02  0.16401166140E+02 -0.22363709118E+03  0.22692912837E+03  0.00000000000E+00 0. -1.
         11    1    4    4    0    0 -0.19638828003E+02 -0.18317425096E+02 -0.45509762468E+01  0.27238263753E+02  0.00000000000E+00 0.  1.
         21    1    1    2  503  501  0.49255047436E+02 -0.18278891768E+01 -0.87875548660E+01  0.50066176180E+02  0.00000000000E+00 0.  1.
         -2    1    1    2    0  502 -0.32410014660E+02 -0.13466333930E+02 -0.10236703972E+03  0.10821627428E+03  0.00000000000E+00 0.  1.
<scales pt_clust_5="13000.00000" pt_clust_6="13000.00000" pt_clust_7="13000.00000" pt_clust_8="13000.00000" pt_clust_9="46.11993" pt_clust_10="35.09631"></scales>
<clustering>
<clus scale="   35.096">  2 10  1 -1</clus>
<clus scale="   46.120">  1  9  2 -1</clus>
<clus scale="   87.917">  5  6 -1 -1</clus>
<clus scale="   97.770">  7  8 -1 -1</clus>
<clus scale="  115.305">  1  5  2 -1</clus>
<clus scale="   35.096">  2  5  1 -1</clus>
</clustering>
</event>
<event>
10    4  0.2857708E-005  0.4948383E+03  0.7546771E-02  0.1059988E+00
         21   -1    0    0  501  502  0.00000000000E+00  0.00000000000E+00  0.44257480747E+03  0.44257480747E+03  0.00000000000E+00 0. -1.
          2   -1    0    0  503    0 -0.00000000000E+00 -0.00000000000E+00 -0.11938127635E+04  0.11938127635E+04  0.00000000000E+00 0. -1.
         23    2    1    2    0    0 -0.74932616043E+02 -0.60079448720E+02 -0.38738783720E+02  0.13878409848E+03  0.92389910271E+02 0.  0.
         24    2    1    2    0    0  0.38271575801E+03  0.25481783377E+03 -0.94012481551E+02  0.47608097619E+03  0.80070402566E+02 0.  0.
        -11    1    4    4    0    0  0.14195668623E+03  0.85156304902E+02  0.42344976782E+01  0.16559356267E+03  0.00000000000E+00 0.  1.
         12    1    4    4    0    0  0.24075907178E+03  0.16966152887E+03 -0.98246979229E+02  0.31048741352E+03  0.00000000000E+00 0. -1.
        -13    1    3    3    0    0 -0.31218809764E+02 -0.59398066544E+02 -0.60139338297E+02  0.90108181666E+02  0.00000000000E+00 0.  1.
         13    1    3    3    0    0 -0.43713806279E+02 -0.68138217590E+00  0.21400554577E+02  0.48675916809E+02  0.00000000000E+00 0. -1.
         21    1    1    2  503  502  0.68113761836E+02  0.18515425181E+03 -0.39640496740E+03  0.44278491358E+03  0.00000000000E+00 0. -1.
          1    1    1    2  501    0 -0.37589690380E+03 -0.37989263686E+03 -0.22208172340E+03  0.57873758276E+03  0.00000000000E+00 0. -1.
<scales pt_clust_5="13000.00000" pt_clust_6="13000.00000" pt_clust_7="13000.00000" pt_clust_8="13000.00000" pt_clust_9="167.11629" pt_clust_10="488.31741"></scales>
<clustering>
<clus scale="   80.070">  5  6 -1 -1</clus>
<clus scale="   92.390">  7  8 -1 -1</clus>
<clus scale="  133.268">  2  7  1 -1</clus>
<clus scale="  167.116">  2  9  1 -1</clus>
<clus scale="  488.317">  1 10  2 -1</clus>
<clus scale="  488.317">  1  5  2 -1</clus>
</clustering>
</event>
<event>
10    4  0.2857708E-005  0.1271733E+03  0.7546771E-02  0.1236213E+00
         21   -1    0    0  501  502  0.00000000000E+00  0.00000000000E+00  0.46854598777E+02  0.46854598777E+02  0.00000000000E+00 0. -1.
          2   -1    0    0  503    0 -0.00000000000E+00 -0.00000000000E+00 -0.79476547628E+03  0.79476547628E+03  0.00000000000E+00 0. -1.
         23    2    1    2    0    0  0.48627233810E+02  0.64189298918E+02 -0.25548121928E+03  0.28311128050E+03  0.91632252915E+02 0.  0.
         24    2    1    2    0    0 -0.64558069525E+02 -0.80563682949E+02 -0.12337980691E+03  0.17762351748E+03  0.75294660220E+02 0.  0.
        -13    1    4    4    0    0 -0.31050897193E+02 -0.64900943625E+02 -0.12072954493E+03  0.14054150177E+03  0.00000000000E+00 0.  1.
         14    1    4    4    0    0 -0.33507172333E+02 -0.15662739324E+02 -0.26502619818E+01  0.37082015714E+02  0.00000000000E+00 0. -1.
        -13    1    3    3    0    0  0.68616829218E+01  0.50615805019E+02 -0.22223730350E+03  0.22803171156E+03  0.00000000000E+00 0.  1.
         13    1    3    3    0    0  0.41765550888E+02  0.13573493898E+02 -0.33243915784E+02  0.55079568937E+02  0.00000000000E+00 0. -1.
         21    1    1    2  503  502 -0.22024697505E+02 -0.24801917679E+01 -0.21901377730E+02  0.31159412668E+02  0.00000000000E+00 0. -1.
          1    1    1    2  501    0  0.37955533221E+02  0.18854575799E+02 -0.34714847358E+03  0.34972586441E+03  0.00000000000E+00 0. -1.
<scales pt_clust_5="13000.00000" pt_clust_6="13000.00000" pt_clust_7="13000.00000" pt_clust_8="13000.00000" pt_clust_9="22.16390" pt_clust_10="41.74562"></scales>
<clustering>
<clus scale="   22.164">  1  9  2 -1</clus>
<clus scale="   41.746">  1 10  2 -1</clus>
<clus scale="   75.295">  5  6 -1 -1</clus>
<clus scale="   91.632">  7  8 -1 -1</clus>
<clus scale="  115.956">  1  5  2 -1</clus>
<clus scale="   22.164">  1  5  2 -1</clus>
</clustering>
</event>
<event>
10    4  0.2857708E-005  0.1321585E+03  0.7546771E-02  0.1225818E+00
         21   -1    0    0  501  502  0.00000000000E+00  0.00000000000E+00  0.28479315180E+03  0.28479315180E+03  0.00000000000E+00 0. -1.
          2   -1    0    0  503    0 -0.00000000000E+00 -0.00000000000E+00 -0.17998741574E+03  0.17998741574E+03  0.00000000000E+00 0. -1.
         23    2    1    2    0    0  0.74996131360E+02  0.36409026339E+02 -0.87327930470E+02  0.15018577937E+03  0.89328405159E+02 0.  0.
         24    2    1    2    0    0 -0.13548469186E+03 -0.30126864580E+02  0.11948012610E+03  0.20109823644E+03  0.83073885596E+02 0.  0.
        -13    1    4    4    0    0 -0.65261228715E+02 -0.41221895651E+02  0.10194838980E+03  0.12787394902E+03  0.00000000000E+00 0.  1.
         14    1    4    4    0    0 -0.70223463145E+02  0.11095031071E+02  0.17531736299E+02  0.73224287421E+02  0.00000000000E+00 0. -1.
        -13    1    3    3    0    0  0.54502665500E+01  0.36236073037E+02  0.23290197353E+01  0.36717607868E+02  0.00000000000E+00 0.  1.
         13    1    3    3    0    0  0.69545864810E+02  0.17295330191E+00 -0.89656950205E+02  0.11346817151E+03  0.00000000000E+00 0. -1.
         21    1    1    2  503  502  0.12712231898E+02 -0.23945375854E+02  0.31017672070E+01  0.27287411464E+02  0.00000000000E+00 0.  1.
          1    1    1    2  501    0  0.47776328603E+02  0.17663214095E+02  0.69551773226E+02  0.86209140269E+02  0.00000000000E+00 0. -1.
<scales pt_clust_5="13000.00000" pt_clust_6="13000.00000" pt_clust_7="13000.00000" pt_clust_8="13000.00000" pt_clust_9="27.11055" pt_clust_10="51.13384"></scales>
<clustering>
<clus scale="   27.111">  2  9  1 -1</clus>
<clus scale="   51.134">  1 10  2 -1</clus>
<clus scale="   83.074">  5  6 -1 -1</clus>
<clus scale="   89.328">  7  8 -1 -1</clus>
<clus scale="  128.014">  1  5  2 -1</clus>
<clus scale="   51.134">  1  5  2 -1</clus>
</clustering>
</event>
<event>
10    4  0.2857708E-005  0.1060000E+03  0.7546771E-02  0.1272615E+00
          2   -1    0    0  503    0 -0.00000000000E+00  0.00000000000E+00  0.96694158395E+02  0.96694158395E+02  0.00000000000E+00 0. -1.
         21   -1    0    0  501  502  0.00000000000E+00 -0.00000000000E+00 -0.30714842918E+03  0.30714842918E+03  0.00000000000E+00 0. -1.
         24    2    1    2    0    0 -0.42584483201E+01 -0.74626517724E+02  0.13759536211E+02  0.11077558045E+03  0.80589409086E+02 0.  0.
         23    2    1    2    0    0  0.32981724723E+02  0.13108800670E+02 -0.15217007745E+03  0.18079520174E+03  0.90947994365E+02 0.  0.
        -13    1    3    3    0    0 -0.31306385389E+02 -0.44968186096E+02 -0.19997779184E+02  0.58327855259E+02  0.00000000000E+00 0.  1.
         14    1    3    3    0    0  0.27047937068E+02 -0.29658331629E+02  0.33757315396E+02  0.52447725188E+02  0.00000000000E+00 0. -1.
        -13    1    4    4    0    0 -0.26939745831E+02 -0.40654196329E+01 -0.84534138520E+02  0.88816091546E+02  0.00000000000E+00 0.  1.
         13    1    4    4    0    0  0.59921470554E+02  0.17174220303E+02 -0.67635938929E+02  0.91979110190E+02  0.00000000000E+00 0. -1.
         21    1    1    2  503  502 -0.32969065924E+02  0.22380450522E+02 -0.14198785516E+02  0.42301883925E+02  0.00000000000E+00 0. -1.
          1    1    1    2  501    0  0.42457895207E+01  0.39137266533E+02 -0.57844944033E+02  0.69969921470E+02  0.00000000000E+00 0. -1.
<scales pt_clust_5="13000.00000" pt_clust_6="13000.00000" pt_clust_7="13000.00000" pt_clust_8="13000.00000" pt_clust_9="42.18640" pt_clust_10="39.36689"></scales>
<clustering>
<clus scale="   39.367">  2 10  1 -1</clus>
<clus scale="   42.186">  1  9  2 -1</clus>
<clus scale="   80.589">  5  6 -1 -1</clus>
<clus scale="   90.948">  7  8 -1 -1</clus>
<clus scale="   97.258">  1  5  2 -1</clus>
<clus scale="   39.367">  2  5  1 -1</clus>
</clustering>
</event>
<event>
10    4  0.2857708E-005  0.2168088E+03  0.7546771E-02  0.1169998E+00
          2   -1    0    0  503    0 -0.00000000000E+00  0.00000000000E+00  0.18144203454E+03  0.18144203454E+03  0.00000000000E+00 0. -1.
         21   -1    0    0  501  502  0.00000000000E+00 -0.00000000000E+00 -0.52387727870E+03  0.52387727870E+03  0.00000000000E+00 0.  1.
         23    2    1    2    0    0  0.32997370662E+02 -0.65296103968E+01  0.11442514123E+02  0.99259799692E+02  0.92682870169E+02 0.  0.
         24    2    1    2    0    0 -0.17096471635E+03  0.13049968362E+03 -0.23974920256E+03  0.33366455552E+03  0.87139278316E+02 0.  0.
        -11    1    4    4    0    0 -0.16362061395E+03  0.14261787148E+03 -0.23117889314E+03  0.31710446734E+03  0.00000000000E+00 0.  1.
         12    1    4    4    0    0 -0.73441023962E+01 -0.12118187861E+02 -0.85703094162E+01  0.16560088180E+02  0.00000000000E+00 0. -1.
        -13    1    3    3    0    0  0.44924092892E+02 -0.31784455935E+02 -0.18742957404E+02  0.58135395530E+02  0.00000000000E+00 0.  1.
         13    1    3    3    0    0 -0.11926722230E+02  0.25254845538E+02  0.30185471527E+02  0.41124404161E+02  0.00000000000E+00 0. -1.
         21    1    1    2  503  502 -0.11144358323E+02 -0.17798828321E+02  0.31929558574E+02  0.38216380294E+02  0.00000000000E+00 0. -1.
          1    1    1    2  501    0  0.14911170401E+03 -0.10617124490E+03 -0.14605811430E+03  0.23417857773E+03  0.00000000000E+00 0. -1.
<scales pt_clust_5="13000.00000" pt_clust_6="13000.00000" pt_clust_7="13000.00000" pt_clust_8="13000.00000" pt_clust_9="20.99988" pt_clust_10="198.52668"></scales>
<clustering>
<clus scale="   21.000">  1  9  2 -1</clus>
<clus scale="   87.139">  5  6 -1 -1</clus>
<clus scale="   92.683">  7  8 -1 -1</clus>
<clus scale="   97.951">  1  7  2 -1</clus>
<clus scale="  198.527">  2 10  1 -1</clus>
<clus scale="  198.527">  2  5  1 -1</clus>
</clustering>
</event>
<event>
10    4  0.2857708E-005  0.1154291E+03  0.7546771E-02  0.1254766E+00
          4   -1    0    0  503    0 -0.00000000000E+00  0.00000000000E+00  0.65186485313E+03  0.65186485313E+03  0.00000000000E+00 0. -1.
         21   -1    0    0  501  502  0.00000000000E+00 -0.00000000000E+00 -0.10743636892E+03  0.10743636892E+03  0.00000000000E+00 0. -1.
         23    2    1    2    0    0 -0.53310081494E+02  0.13986652755E+02  0.30274292621E+03  0.32109571340E+03  0.91714701923E+02 0.  0.
         24    2    1    2    0    0  0.22223667440E+02 -0.10436200576E+03  0.12344708316E+03  0.18195327293E+03  0.80513921453E+02 0.  0.
        -13    1    4    4    0    0  0.19946010423E+02 -0.17757785945E+02 -0.48526134054E+01  0.27142773446E+02  0.00000000000E+00 0.  1.
         14    1    4    4    0    0  0.22776570170E+01 -0.86604219817E+02  0.12829969656E+03  0.15481049948E+03  0.00000000000E+00 0. -1.
        -13    1    3    3    0    0 -0.18057632974E+02 -0.39025491918E+02  0.13471940149E+03  0.14141564364E+03  0.00000000000E+00 0. -1.
         13    1    3    3    0    0 -0.35252448520E+02  0.53012144673E+02  0.16802352471E+03  0.17968006975E+03  0.00000000000E+00 0.  1.
         21    1    1    2  503  502 -0.13915145224E+02  0.25460229969E+02  0.16293273993E+03  0.16549601904E+03  0.00000000000E+00 0.  1.
          3    1    1    2  501    0  0.45001559279E+02  0.64915123038E+02 -0.44694265084E+02  0.90756216690E+02  0.00000000000E+00 0. -1.
<scales pt_clust_5="13000.00000" pt_clust_6="13000.00000" pt_clust_7="13000.00000" pt_clust_8="13000.00000" pt_clust_9="29.01473" pt_clust_10="79.61128"></scales>
<clustering>
<clus scale="   29.015">  1  9  2 -1</clus>
<clus scale="   79.611">  2 10  1 -1</clus>
<clus scale="   80.514">  5  6 -1 -1</clus>
<clus scale="   91.715">  7  8 -1 -1</clus>
<clus scale="  106.746">  2  5  1 -1</clus>
<clus scale="   79.611">  2  5  1 -1</clus>
</clustering>
</event>
<event>
10    4  0.2857708E-005  0.1330643E+03  0.7546771E-02  0.1235144E+00
          2   -1    0    0  503    0 -0.00000000000E+00  0.00000000000E+00  0.64524950357E+03  0.64524950357E+03  0.00000000000E+00 0. -1.
         21   -1    0    0  501  502  0.00000000000E+00 -0.00000000000E+00 -0.63911471285E+02  0.63911471285E+02  0.00000000000E+00 0. -1.
         24    2    1    2    0    0  0.56765243737E+02 -0.51435661991E+02  0.14973605834E+03  0.18652179094E+03  0.80632320498E+02 0.  0.
         23    2    1    2    0    0  0.53544498367E+02 -0.23256351067E+02  0.59879273267E+02  0.12257436641E+03  0.89616275103E+02 0.  0.
        -11    1    3    3    0    0 -0.17952298193E+02 -0.11126260112E+02  0.10853480769E+02  0.23746088505E+02  0.00000000000E+00 0.  1.
         12    1    3    3    0    0  0.74717541930E+02 -0.40309401879E+02  0.13888257757E+03  0.16277570244E+03  0.00000000000E+00 0. -1.
        -11    1    4    4    0    0  0.20692611423E+02 -0.48240121019E+02  0.33716854487E+01  0.52599065640E+02  0.00000000000E+00 0. -1.
         11    1    4    4    0    0  0.32851886943E+02  0.24983769952E+02  0.56507587818E+02  0.69975300769E+02  0.00000000000E+00 0.  1.
         21    1    1    2  503  502 -0.89747270479E+02  0.85370945892E+02  0.32746812468E+03  0.35011161598E+03  0.00000000000E+00 0. -1.
          1    1    1    2  501    0 -0.20562471625E+02 -0.10678932834E+02  0.44254576005E+02  0.49953201531E+02  0.00000000000E+00 0. -1.
<scales pt_clust_5="13000.00000" pt_clust_6="13000.00000" pt_clust_7="13000.00000" pt_clust_8="13000.00000" pt_clust_9="105.85155" pt_clust_10="23.17014"></scales>
<clustering>
<clus scale="   23.170">  2 10  1 -1</clus>
<clus scale="   80.632">  5  6 -1 -1</clus>
<clus scale="   89.616">  7  8 -1 -1</clus>
<clus scale="  103.465">  2  7  1 -1</clus>
<clus scale="  105.852">  1  9  2 -1</clus>
<clus scale="   23.170">  2  5  1 -1</clus>
</clustering>
</event>
<event>
10    4  0.2857708E-005  0.2056647E+03  0.7546771E-02  0.1146358E+00
         21   -1    0    0  501  502  0.00000000000E+00  0.00000000000E+00  0.13910779641E+03  0.13910779641E+03  0.00000000000E+00 0. -1.
          2   -1    0    0  503    0 -0.00000000000E+00 -0.00000000000E+00 -0.89715428919E+03  0.89715428919E+03  0.00000000000E+00 0. -1.
         24    2    1    2    0    0 -0.38170164923E+02 -0.19826923906E+03 -0.22606236556E+03  0.31332088719E+03  0.79360774798E+02 0.  0.
         23    2    1    2    0    0  0.84037769397E+02  0.12895494777E+03 -0.59807013946E+02  0.19009341137E+03  0.94164222978E+02 0.  0.
        -11    1    3    3    0    0  0.19435364704E+02 -0.17392918967E+02 -0.18089453778E+02  0.31740752502E+02  0.00000000000E+00 0.  1.
         12    1    3    3    0    0 -0.57605529626E+02 -0.18087632009E+03 -0.20797291178E+03  0.28158013468E+03  0.00000000000E+00 0. -1.
        -11    1    4    4    0    0  0.51133791556E+02  0.15013448037E+02  0.73580258636E+01  0.53797851309E+02  0.00000000000E+00 0. -1.
         11    1    4    4    0    0  0.32903977840E+02  0.11394149974E+03 -0.67165039809E+02  0.13629556006E+03  0.00000000000E+00 0.  1.
         21    1    1    2  503  502  0.22353861640E+02 -0.51240065505E+02 -0.32868323891E+03  0.33340352576E+03  0.00000000000E+00 0. -1.
          1    1    1    2  501    0 -0.68221466114E+02  0.12055435679E+03 -0.14349387436E+03  0.19944426128E+03  0.00000000000E+00 0. -1.
<scales pt_clust_5="13000.00000" pt_clust_6="13000.00000" pt_clust_7="13000.00000" pt_clust_8="13000.00000" pt_clust_9="55.90384" pt_clust_10="121.68979"></scales>
<clustering>
<clus scale="   55.904">  2  9  1 -1</clus>
<clus scale="   79.361">  5  6 -1 -1</clus>
<clus scale="   94.164">  7  8 -1 -1</clus>
<clus scale="  121.690">  1 10  2 -1</clus>
<clus scale="  199.322">  2  5  1 -1</clus>
<clus scale="  121.690">  1  5  2 -1</clus>
</clustering>
</event>
<event>
10    4  0.2857708E-005  0.1653673E+03  0.7546771E-02  0.1184036E+00
          2   -1    0    0  503    0 -0.00000000000E+00  0.00000000000E+00  0.58156249863E+03  0.58156249863E+03  0.00000000000E+00 0. -1.
         21   -1    0    0  501  502  0.00000000000E+00 -0.00000000000E+00 -0.39123869336E+03  0.39123869336E+03  0.00000000000E+00 0. -1.
         24    2    1    2    0    0  0.23845281329E+01 -0.11377785857E+03  0.13283247364E+03  0.19274007624E+03  0.80951737851E+02 0.  0.
         23    2    1    2    0    0  0.14412122998E+03  0.52905454594E+02 -0.17398684810E+03  0.24880179163E+03  0.89783028184E+02 0.  0.
        -13    1    3    3    0    0  0.36698736721E+02 -0.45456913781E+02  0.33342243071E+02  0.67266882345E+02  0.00000000000E+00 0.  1.
         14    1    3    3    0    0 -0.34314208588E+02 -0.68320944790E+02  0.99490230571E+02  0.12547319390E+03  0.00000000000E+00 0. -1.
        -13    1    4    4    0    0  0.11921213015E+03  0.18190290697E+02 -0.77688395448E+02  0.14345001024E+03  0.00000000000E+00 0. -1.
         13    1    4    4    0    0  0.24909099828E+02  0.34715163896E+02 -0.96298452651E+02  0.10535178139E+03  0.00000000000E+00 0.  1.
         21    1    1    2  503  502 -0.76009130385E+02 -0.37484523161E+02  0.35105168916E+03  0.36113676889E+03  0.00000000000E+00 0. -1.
          1    1    1    2  501    0 -0.70496627729E+02  0.98356927138E+02 -0.11957350944E+03  0.17012255522E+03  0.00000000000E+00 0. -1.
<scales pt_clust_5="13000.00000" pt_clust_6="13000.00000" pt_clust_7="13000.00000" pt_clust_8="13000.00000" pt_clust_9="84.74950" pt_clust_10="122.91812"></scales>
<clustering>
<clus scale="   80.952">  5  6 -1 -1</clus>
<clus scale="   84.749">  1  9  2 -1</clus>
<clus scale="   89.783">  7  8 -1 -1</clus>
<clus scale="  122.918">  2 10  1 -1</clus>
<clus scale="  160.744">  1  5  2 -1</clus>
<clus scale="  122.918">  2  5  1 -1</clus>
</clustering>
</event>
<event>
10    4  0.2857708E-005  0.1194792E+03  0.7546771E-02  0.1246865E+00
         21   -1    0    0  501  502  0.00000000000E+00  0.00000000000E+00  0.63810153630E+02  0.63810153630E+02  0.00000000000E+00 0.  1.
          2   -1    0    0  503    0 -0.00000000000E+00 -0.00000000000E+00 -0.82080055144E+03  0.82080055144E+03  0.00000000000E+00 0. -1.
         23    2    1    2    0    0  0.89513174017E+02 -0.26064435095E+02 -0.25318767808E+03  0.28458049627E+03  0.90499145998E+02 0.  0.
         24    2    1    2    0    0 -0.43961989727E+02 -0.90777734160E+01 -0.14983899155E+01  0.92903357285E+02  0.81324818547E+02 0.  0.
        -11    1    4    4    0    0  0.17552771039E+02  0.11137423654E+02  0.15532376815E+02  0.25949888368E+02  0.00000000000E+00 0.  1.
         12    1    4    4    0    0 -0.61514760765E+02 -0.20215197070E+02 -0.17030766731E+02  0.66953468917E+02  0.00000000000E+00 0. -1.
        -13    1    3    3    0    0  0.52960569131E+01 -0.37388205775E+02 -0.12663996303E+03  0.13214993903E+03  0.00000000000E+00 0.  1.
         13    1    3    3    0    0  0.84217117104E+02  0.11323770680E+02 -0.12654771505E+03  0.15243055724E+03  0.00000000000E+00 0. -1.
         21    1    1    2  503  502 -0.18543219556E+01  0.24626230278E+02 -0.19324695171E+03  0.19481856706E+03  0.00000000000E+00 0. -1.
          1    1    1    2  501    0 -0.43696862334E+02  0.10515978233E+02 -0.30905737811E+03  0.31230828446E+03  0.00000000000E+00 0. -1.
<scales pt_clust_5="13000.00000" pt_clust_6="13000.00000" pt_clust_7="13000.00000" pt_clust_8="13000.00000" pt_clust_9="24.69595" pt_clust_10="50.06921"></scales>
<clustering>
<clus scale="   24.696">  2  9  1 -1</clus>
<clus scale="   50.069">  1 10  2 -1</clus>
<clus scale="   81.325">  5  6 -1 -1</clus>
<clus scale="   90.499">  7  8 -1 -1</clus>
<clus scale="  112.689">  1  5  2 -1</clus>
<clus scale="   50.069">  1  5  2 -1</clus>
</clustering>
</event>
<event>
10    4  0.2857708E-005  0.1070951E+03  0.7546771E-02  0.1271129E+00
          2   -1    0    0  503    0 -0.00000000000E+00  0.00000000000E+00  0.46503424801E+03  0.46503424801E+03  0.00000000000E+00 0. -1.
         21   -1    0    0  501  502  0.00000000000E+00 -0.00000000000E+00 -0.49709575385E+02  0.49709575385E+02  0.00000000000E+00 0.  1.
         24    2    1    2    0    0 -0.27893075777E+02  0.43991294224E+02  0.19156324985E+03  0.21399333629E+03  0.79896255479E+02 0.  0.
         23    2    1    2    0    0  0.31042812572E+02 -0.52205148833E+02  0.12270888328E+03  0.16486746548E+03  0.91841043984E+02 0.  0.
        -13    1    3    3    0    0 -0.52196987049E+02  0.15132979050E+02  0.84412934747E+02  0.10039460177E+03  0.00000000000E+00 0.  1.
         14    1    3    3    0    0  0.24303911273E+02  0.28858315174E+02  0.10715031510E+03  0.11359873452E+03  0.00000000000E+00 0. -1.
        -13    1    4    4    0    0 -0.30637107841E+02 -0.24380499185E+02  0.26627606629E+02  0.47350507412E+02  0.00000000000E+00 0. -1.
         13    1    4    4    0    0  0.61679920413E+02 -0.27824649648E+02  0.96081276648E+02  0.11751695806E+03  0.00000000000E+00 0.  1.
         21    1    1    2  503  502  0.30296173828E+02 -0.27688095458E+02  0.37512974833E+02  0.55603165913E+02  0.00000000000E+00 0.  1.
          1    1    1    2  501    0 -0.33445910623E+02  0.35901950067E+02  0.63539564663E+02  0.80279855715E+02  0.00000000000E+00 0. -1.
<scales pt_clust_5="13000.00000" pt_clust_6="13000.00000" pt_clust_7="13000.00000" pt_clust_8="13000.00000" pt_clust_9="41.04252" pt_clust_10="40.65204"></scales>
<clustering>
<clus scale="   41.043">  2  9  1 -1</clus>
<clus scale="   40.652">  2 10  1 -1</clus>
<clus scale="   79.896">  5  6 -1 -1</clus>
<clus scale="   91.841">  7  8 -1 -1</clus>
<clus scale="   97.046">  1  5  2 -1</clus>
<clus scale="   41.043">  2  5  1 -1</clus>
</clustering>
</event>
<event>
10    4  0.2857708E-005  0.3620625E+03  0.7546771E-02  0.1106262E+00
          4   -1    0    0  502    0 -0.00000000000E+00  0.00000000000E+00  0.94352608496E+03  0.94352608496E+03  0.00000000000E+00 0. -1.
         21   -1    0    0  503  502  0.00000000000E+00 -0.00000000000E+00 -0.20530447218E+03  0.20530447218E+03  0.00000000000E+00 0. -1.
         23    2    1    2    0    0 -0.19704879311E+02 -0.18255937722E+02  0.25525196760E+03  0.27359060515E+03  0.94745399545E+02 0.  0.
         24    2    1    2    0    0 -0.26927419189E+03  0.16658275075E+03  0.91226904738E+02  0.33830578468E+03  0.76616268087E+02 0.  0.
        -13    1    4    4    0    0 -0.57218538822E+02  0.23352265320E+01  0.10738588502E+02  0.58264326572E+02  0.00000000000E+00 0.  1.
         14    1    4    4    0    0 -0.21205565307E+03  0.16424752422E+03  0.80488316236E+02  0.28004145811E+03  0.00000000000E+00 0. -1.
        -13    1    3    3    0    0 -0.18937399114E+02 -0.56569067632E+02  0.16862853554E+03  0.17886941465E+03  0.00000000000E+00 0. -1.
         13    1    3    3    0    0 -0.76748019665E+00  0.38313129910E+02  0.86623432057E+02  0.94721190505E+02  0.00000000000E+00 0.  1.
         21    1    1    2  503  501  0.79882717032E+02 -0.12462611302E+03  0.22073612401E+03  0.26577688569E+03  0.00000000000E+00 0. -1.
          3    1    1    2  501    0  0.20909635417E+03 -0.23700700003E+02  0.17100661644E+03  0.27115728162E+03  0.00000000000E+00 0. -1.
<scales pt_clust_5="13000.00000" pt_clust_6="13000.00000" pt_clust_7="13000.00000" pt_clust_8="13000.00000" pt_clust_9="146.55672" pt_clust_10="146.55672"></scales>
<clustering>
<clus scale="   76.616">  5  6 -1 -1</clus>
<clus scale="   94.745">  7  8 -1 -1</clus>
<clus scale="   98.480">  1  7  2 -1</clus>
<clus scale="  146.557">  9 10 -1 -1</clus>
<clus scale="  328.075">  1  5  2 -1</clus>
<clus scale="  362.063">  2  5  1 -1</clus>
</clustering>
</event>
<event>
10    4  0.2857708E-005  0.1696290E+03  0.7546771E-02  0.1180323E+00
         21   -1    0    0  501  502  0.00000000000E+00  0.00000000000E+00  0.28359682979E+03  0.28359682979E+03  0.00000000000E+00 0. -1.
          2   -1    0    0  503    0 -0.00000000000E+00 -0.00000000000E+00 -0.45479371135E+03  0.45479371135E+03  0.00000000000E+00 0. -1.
         23    2    1    2    0    0 -0.13342787733E+03 -0.24719429996E+02 -0.18419873634E+03  0.24658669658E+03  0.91987911130E+02 0.  0.
         24    2    1    2    0    0  0.65365981289E+02  0.96943066808E+02  0.60085426772E+02  0.15219113242E+03  0.76689064180E+02 0.  0.
        -11    1    4    4    0    0  0.34755363462E+01  0.24740458117E+02  0.50837202149E+02  0.56644423760E+02  0.00000000000E+00 0.  1.
         12    1    4    4    0    0  0.61890444943E+02  0.72202608691E+02  0.92482246226E+01  0.95546708660E+02  0.00000000000E+00 0. -1.
        -13    1    3    3    0    0 -0.10591704134E+03 -0.41494493165E+02 -0.18156548268E+03  0.21425740854E+03  0.00000000000E+00 0. -1.
         13    1    3    3    0    0 -0.27510835984E+02  0.16775063169E+02 -0.26332536588E+01  0.32329288048E+02  0.00000000000E+00 0.  1.
         21    1    1    2  503  502 -0.50595788265E+02  0.97819399508E+00 -0.15516253287E+03  0.16320631808E+03  0.00000000000E+00 0. -1.
          1    1    1    2  501    0  0.11865768430E+03 -0.73201830807E+02  0.10807896088E+03  0.17640639405E+03  0.00000000000E+00 0. -1.
<scales pt_clust_5="13000.00000" pt_clust_6="13000.00000" pt_clust_7="13000.00000" pt_clust_8="13000.00000" pt_clust_9="50.60524" pt_clust_10="134.41776"></scales>
<clustering>
<clus scale="   50.605">  2  9  1 -1</clus>
<clus scale="   76.689">  5  6 -1 -1</clus>
<clus scale="   91.988">  7  8 -1 -1</clus>
<clus scale="  134.418">  1 10  2 -1</clus>
<clus scale="  161.844">  1  5  2 -1</clus>
<clus scale="  134.418">  1  5  2 -1</clus>
</clustering>
</event>
<event>
10    4  0.2857708E-005  0.1020286E+03  0.7546771E-02  0.1281181E+00
         21   -1    0    0  503  502  0.00000000000E+00  0.00000000000E+00  0.22811944328E+03  0.22811944328E+03  0.00000000000E+00 0. -1.
         -3   -1    0    0    0  501 -0.00000000000E+00 -0.00000000000E+00 -0.11980394186E+03  0.11980394186E+03  0.00000000000E+00 0.  1.
         23    2    1    2    0    0  0.41962324798E+02  0.15379153663E+02 -0.65707789527E+02  0.12073471814E+03  0.90895563643E+02 0.  0.
         24    2    1    2    0    0 -0.48259258072E+02 -0.24709989175E+02  0.10713819891E+03  0.14436672530E+03  0.80147477530E+02 0.  0.
        -13    1    4    4    0    0 -0.84566370658E+01  0.27737005780E+02  0.46828222907E+02  0.55079385079E+02  0.00000000000E+00 0.  1.
         14    1    4    4    0    0 -0.39802621006E+02 -0.52446994955E+02  0.60309976004E+02  0.89287340225E+02  0.00000000000E+00 0. -1.
        -13    1    3    3    0    0 -0.13312151015E+02  0.37819441763E+02 -0.36889780631E+02  0.54482836333E+02  0.00000000000E+00 0.  1.
         13    1    3    3    0    0  0.55274475812E+02 -0.22440288099E+02 -0.28818008896E+02  0.66251881807E+02  0.00000000000E+00 0. -1.
         21    1    1    2  503  501 -0.14997080500E+02  0.18052793395E+02  0.21012874396E+02  0.31501693023E+02  0.00000000000E+00 0.  1.
         -4    1    1    2    0  502  0.21294013774E+02 -0.87219578835E+01  0.45872217648E+02  0.51320248673E+02  0.00000000000E+00 0.  1.
<scales pt_clust_5="13000.00000" pt_clust_6="13000.00000" pt_clust_7="13000.00000" pt_clust_8="13000.00000" pt_clust_9="20.55888" pt_clust_10="23.01103"></scales>
<clustering>
<clus scale="   23.011">  1 10  2 -1</clus>
<clus scale="   20.559">  1  9  2 -1</clus>
<clus scale="   80.147">  5  6 -1 -1</clus>
<clus scale="   90.896">  7  8 -1 -1</clus>
<clus scale="   92.582">  1  5  2 -1</clus>
<clus scale="   23.011">  1  5  2 -1</clus>
</clustering>
</event>
<event>
10    4  0.2857708E-005  0.3332178E+03  0.7546771E-02  0.1070011E+00
         21   -1    0    0  501  502  0.00000000000E+00  0.00000000000E+00  0.85704009789E+03  0.85704009789E+03  0.00000000000E+00 0. -1.
          2   -1    0    0  503    0 -0.00000000000E+00 -0.00000000000E+00 -0.44680540977E+03  0.44680540977E+03  0.00000000000E+00 0. -1.
         23    2    1    2    0    0 -0.11865573513E+03  0.32331278322E+03 -0.27844534419E+03  0.45252561198E+03  0.92936970713E+02 0.  0.
         24    2    1    2    0    0  0.82602646212E+02 -0.23796637786E+03  0.43646319980E+03  0.51072727720E+03  0.83012244541E+02 0.  0.
        -11    1    4    4    0    0  0.96084644133E+02 -0.17662210376E+03  0.30948498827E+03  0.36906447179E+03  0.00000000000E+00 0.  1.
         12    1    4    4    0    0 -0.13481997921E+02 -0.61344274106E+02  0.12697821153E+03  0.14166280541E+03  0.00000000000E+00 0. -1.
        -13    1    3    3    0    0  0.81881032670E+01  0.42070168990E+02 -0.11071592175E+02  0.44266514514E+02  0.00000000000E+00 0.  1.
         13    1    3    3    0    0 -0.12684383840E+03  0.28124261423E+03 -0.26737375201E+03  0.40825909746E+03  0.00000000000E+00 0. -1.
         21    1    1    2  503  502 -0.94587502016E+01 -0.18831717863E+02 -0.35783524519E+02  0.41527848247E+02  0.00000000000E+00 0. -1.
          1    1    1    2  501    0  0.45511839119E+02 -0.66514687493E+02  0.28800035702E+03  0.29906477024E+03  0.00000000000E+00 0. -1.
<scales pt_clust_5="13000.00000" pt_clust_6="13000.00000" pt_clust_7="13000.00000" pt_clust_8="13000.00000" pt_clust_9="21.07372" pt_clust_10="80.73351"></scales>
<clustering>
<clus scale="   21.074">  2  9  1 -1</clus>
<clus scale="   80.734">  1 10  2 -1</clus>
<clus scale="   83.012">  5  6 -1 -1</clus>
<clus scale="   92.937">  7  8 -1 -1</clus>
<clus scale="  330.587">  1  5  2 -1</clus>
<clus scale="   80.734">  1  5  2 -1</clus>
</clustering>
</event>
<event>
10    4  0.2857708E-005  0.1969043E+03  0.7546771E-02  0.1170059E+00
         21   -1    0    0  501  502  0.00000000000E+00  0.00000000000E+00  0.33481151037E+03  0.33481151037E+03  0.00000000000E+00 0.  1.
          2   -1    0    0  503    0 -0.00000000000E+00 -0.00000000000E+00 -0.46486316900E+03  0.46486316900E+03  0.00000000000E+00 0. -1.
         24    2    1    2    0    0  0.13543973327E+02  0.14032812718E+03 -0.81182891907E+02  0.18130213231E+03  0.80027362522E+02 0.  0.
         23    2    1    2    0    0  0.87179597243E+02 -0.31023423316E+02  0.17841871728E+03  0.22117019835E+03  0.92305379009E+02 0.  0.
        -11    1    3    3    0    0 -0.20784351833E+02  0.10917043765E+03 -0.36651339254E+02  0.11701920529E+03  0.00000000000E+00 0.  1.
         12    1    3    3    0    0  0.34328325160E+02  0.31157689530E+02 -0.44531552653E+02  0.64282927025E+02  0.00000000000E+00 0. -1.
        -13    1    4    4    0    0  0.89358345273E+02  0.39746536596E+01  0.15514738750E+03  0.17908496193E+03  0.00000000000E+00 0.  1.
         13    1    4    4    0    0 -0.21787480300E+01 -0.34998076975E+02  0.23271329778E+02  0.42085236421E+02  0.00000000000E+00 0. -1.
         21    1    1    2  503  502 -0.10051960203E+03 -0.20291015055E+03 -0.19294038022E+03  0.29749405020E+03  0.00000000000E+00 0.  1.
          1    1    1    2  501    0 -0.20396854122E+00  0.93605446683E+02 -0.34347103787E+02  0.99708298503E+02  0.00000000000E+00 0. -1.
<scales pt_clust_5="13000.00000" pt_clust_6="13000.00000" pt_clust_7="13000.00000" pt_clust_8="13000.00000" pt_clust_9="179.90812" pt_clust_10="93.60572"></scales>
<clustering>
<clus scale="   80.027">  5  6 -1 -1</clus>
<clus scale="   92.305">  7  8 -1 -1</clus>
<clus scale="   93.606">  1 10  2 -1</clus>
<clus scale="  130.577">  1  7  2 -1</clus>
<clus scale="  179.908">  1  9  2 -1</clus>
<clus scale="   93.606">  1  5  2 -1</clus>
</clustering>
</event>
<event>
10    4  0.2857708E-005  0.9651438E+02  0.7546771E-02  0.1292557E+00
          2   -1    0    0  503    0 -0.00000000000E+00  0.00000000000E+00  0.28157423012E+03  0.28157423012E+03  0.00000000000E+00 0. -1.
         21   -1    0    0  501  502  0.00000000000E+00 -0.00000000000E+00 -0.98232895108E+02  0.98232895108E+02  0.00000000000E+00 0.  1.
         24    2    1    2    0    0 -0.20068876603E+02 -0.34419212131E+02  0.14714797472E+03  0.17216154500E+03  0.79997682108E+02 0.  0.
         23    2    1    2    0    0  0.26653046865E+02 -0.21328230499E+02 -0.23293775678E+02  0.98118029275E+02  0.88990276772E+02 0.  0.
        -11    1    3    3    0    0 -0.19101894189E+00 -0.58089090100E+02  0.88386666784E+02  0.10576663813E+03  0.00000000000E+00 0.  1.
         12    1    3    3    0    0 -0.19877857661E+02  0.23669877969E+02  0.58761307933E+02  0.66394906870E+02  0.00000000000E+00 0. -1.
        -11    1    4    4    0    0  0.46462843354E+02 -0.10987654917E+02  0.18114185496E+02  0.51065135752E+02  0.00000000000E+00 0.  1.
         11    1    4    4    0    0 -0.19809796490E+02 -0.10340575582E+02 -0.41407961174E+02  0.47052893523E+02  0.00000000000E+00 0. -1.
         21    1    1    2  503  502 -0.28746365903E+02  0.27819194317E+02  0.62000746433E+02  0.73785863710E+02  0.00000000000E+00 0. -1.
          1    1    1    2  501    0  0.22162195642E+02  0.27928248314E+02 -0.25136104568E+01  0.35741687244E+02  0.00000000000E+00 0. -1.
<scales pt_clust_5="13000.00000" pt_clust_6="13000.00000" pt_clust_7="13000.00000" pt_clust_8="13000.00000" pt_clust_9="40.35035" pt_clust_10="35.65319"></scales>
<clustering>
<clus scale="   35.653">  2 10  1 -1</clus>
<clus scale="   40.350">  1  9  2 -1</clus>
<clus scale="   79.998">  5  6 -1 -1</clus>
<clus scale="   88.291">  1  5  2 -1</clus>
<clus scale="   88.990">  7  8 -1 -1</clus>
<clus scale="   35.653">  2  5  1 -1</clus>
</clustering>
</event>
<event>
10    4  0.2857708E-005  0.4885883E+03  0.7546771E-02  0.1066326E+00
         21   -1    0    0  503  502  0.00000000000E+00  0.00000000000E+00  0.37646409708E+03  0.37646409708E+03  0.00000000000E+00 0.  1.
         -1   -1    0    0    0  501 -0.00000000000E+00 -0.00000000000E+00 -0.20418367090E+04  0.20418367090E+04  0.00000000000E+00 0.  1.
         24    2    1    2    0    0  0.61813734963E+02  0.53991149386E+02 -0.17424037166E+02  0.11737207705E+03  0.82076947783E+02 0.  0.
         23    2    1    2    0    0 -0.38111584978E+03 -0.24710917814E+03 -0.34648915220E+02  0.46515778857E+03  0.94122176277E+02 0.  0.
        -11    1    3    3    0    0  0.23392190942E+02 -0.33222480105E+01 -0.38546342968E+02  0.45211198669E+02  0.00000000000E+00 0.  1.
         12    1    3    3    0    0  0.38421544021E+02  0.57313397397E+02  0.21122305802E+02  0.72160878379E+02  0.00000000000E+00 0. -1.
        -11    1    4    4    0    0 -0.25975519546E+03 -0.19087671736E+03  0.14465896563E+02  0.32267002489E+03  0.00000000000E+00 0.  1.
         11    1    4    4    0    0 -0.12136065432E+03 -0.56232460777E+02 -0.49114811782E+02  0.14248776368E+03  0.00000000000E+00 0. -1.
         21    1    1    2  503  501 -0.16208175393E+03 -0.85005118172E+02 -0.96290817850E+03  0.98014719572E+03  0.00000000000E+00 0.  1.
         -2    1    1    2    0  502  0.48138386874E+03  0.27812314692E+03 -0.65039148103E+03  0.85562374472E+03  0.00000000000E+00 0.  1.
<scales pt_clust_5="13000.00000" pt_clust_6="13000.00000" pt_clust_7="13000.00000" pt_clust_8="13000.00000" pt_clust_9="144.05224" pt_clust_10="479.43694"></scales>
<clustering>
<clus scale="   82.077">  5  6 -1 -1</clus>
<clus scale="   94.122">  7  8 -1 -1</clus>
<clus scale="  116.072">  2  5  1 -1</clus>
<clus scale="  144.052">  2  9  1 -1</clus>
<clus scale="  479.437">  1 10  2 -1</clus>
<clus scale="  479.437">  1  5  2 -1</clus>
</clustering>
</event>
<event>
10    4  0.2857708E-005  0.1483313E+03  0.7546771E-02  0.1204445E+00
          2   -1    0    0  503    0 -0.00000000000E+00  0.00000000000E+00  0.48777330957E+03  0.48777330957E+03  0.00000000000E+00 0. -1.
         21   -1    0    0  501  502  0.00000000000E+00 -0.00000000000E+00 -0.23644570371E+03  0.23644570371E+03  0.00000000000E+00 0.  1.
         24    2    1    2    0    0 -0.11699632193E+03  0.66584588714E+02  0.61570728330E+02  0.16866991251E+03  0.80851332695E+02 0.  0.
         23    2    1    2    0    0  0.13211104288E+03 -0.63415379671E+02 -0.10195428485E+03  0.20036208626E+03  0.90969507966E+02 0.  0.
        -11    1    3    3    0    0 -0.20375774643E+02 -0.88861424963E+01 -0.12427209874E+02  0.25467062375E+02  0.00000000000E+00 0.  1.
         12    1    3    3    0    0 -0.96620547290E+02  0.75470731211E+02  0.73997938204E+02  0.14320285013E+03  0.00000000000E+00 0. -1.
        -13    1    4    4    0    0  0.39613476417E+02 -0.58365767705E+02 -0.76996910777E+02  0.10442372634E+03  0.00000000000E+00 0.  1.
         13    1    4    4    0    0  0.92497566463E+02 -0.50496119657E+01 -0.24957374076E+02  0.95938359916E+02  0.00000000000E+00 0. -1.
         21    1    1    2  503  502  0.48850593752E+02 -0.11308011982E+02  0.28610171455E+03  0.29046246352E+03  0.00000000000E+00 0.  1.
          1    1    1    2  501    0 -0.63965314698E+02  0.81388029383E+01  0.56094478323E+01  0.64724551004E+02  0.00000000000E+00 0. -1.
<scales pt_clust_5="13000.00000" pt_clust_6="13000.00000" pt_clust_7="13000.00000" pt_clust_8="13000.00000" pt_clust_9="50.14231" pt_clust_10="55.69388"></scales>
<clustering>
<clus scale="   50.142">  1  9  2 -1</clus>
<clus scale="   55.694">  2 10  1 -1</clus>
<clus scale="   80.851">  5  6 -1 -1</clus>
<clus scale="   90.970">  7  8 -1 -1</clus>
<clus scale="  142.350">  1  5  2 -1</clus>
<clus scale="   55.694">  2  5  1 -1</clus>
</clustering>
</event>
<event>
10    4  0.2857708E-005  0.3571177E+03  0.7546771E-02  0.1059731E+00
         21   -1    0    0  503  502  0.00000000000E+00  0.00000000000E+00  0.63758942887E+02  0.63758942887E+02  0.00000000000E+00 0. -1.
         -1   -1    0    0    0  501 -0.00000000000E+00 -0.00000000000E+00 -0.21358335641E+04  0.21358335641E+04  0.00000000000E+00 0.  1.
         24    2    1    2    0    0  0.10744964722E+03  0.91758559799E+02 -0.46996038187E+03  0.49742247814E+03  0.81248392311E+02 0.  0.
         23    2    1    2    0    0  0.19601901353E+03 -0.14331563330E+01 -0.51891807209E+03  0.56217808202E+03  0.91338506459E+02 0.  0.
        -11    1    3    3    0    0  0.36938218966E+02  0.24501343379E+02 -0.52354409897E+02  0.68598338780E+02  0.00000000000E+00 0.  1.
         12    1    3    3    0    0  0.70511428251E+02  0.67257216420E+02 -0.41760597197E+03  0.42882413936E+03  0.00000000000E+00 0. -1.
        -13    1    4    4    0    0  0.12349838330E+02  0.24045641181E+02 -0.37043052578E+02  0.45857377933E+02  0.00000000000E+00 0.  1.
         13    1    4    4    0    0  0.18366917520E+03 -0.25478797514E+02 -0.48187501951E+03  0.51632070409E+03  0.00000000000E+00 0. -1.
         21    1    1    2  503  501 -0.71644004143E+02  0.46369017091E+02 -0.29642335677E+03  0.30846354001E+03  0.00000000000E+00 0. -1.
         -2    1    1    2    0  502 -0.23182465660E+03 -0.13669442056E+03 -0.78677281047E+03  0.83152840680E+03  0.00000000000E+00 0.  1.
<scales pt_clust_5="13000.00000" pt_clust_6="13000.00000" pt_clust_7="13000.00000" pt_clust_8="13000.00000" pt_clust_9="85.34020" pt_clust_10="287.94475"></scales>
<clustering>
<clus scale="   81.248">  5  6 -1 -1</clus>
<clus scale="   85.340">  2  9  1 -1</clus>
<clus scale="   91.339">  7  8 -1 -1</clus>
<clus scale="  140.799">  5  7 -1 -1</clus>
<clus scale="  287.945">  1 10  2 -1</clus>
<clus scale="  287.945">  1  5  2 -1</clus>
</clustering>
</event>
<event>
10    4  0.2857708E-005  0.1025808E+03  0.7546771E-02  0.1281047E+00
         -1   -1    0    0    0  501 -0.00000000000E+00  0.00000000000E+00  0.29500354800E+03  0.29500354800E+03  0.00000000000E+00 0.  1.
         21   -1    0    0  503  502  0.00000000000E+00 -0.00000000000E+00 -0.15908633883E+03  0.15908633883E+03  0.00000000000E+00 0. -1.
         24    2    1    2    0    0 -0.69206265161E+02 -0.74687643219E+01  0.97478028987E+02  0.14376891231E+03  0.79512542619E+02 0.  0.
         23    2    1    2    0    0  0.17339442354E+02  0.23183476559E+02 -0.98753062031E+02  0.13818293002E+03  0.92218355241E+02 0.  0.
        -11    1    3    3    0    0 -0.75003668496E+02 -0.32317648248E+01  0.10769613227E+03  0.13128004988E+03  0.00000000000E+00 0.  1.
         12    1    3    3    0    0  0.57974033355E+01 -0.42369994971E+01 -0.10218103279E+02  0.12488862430E+02  0.00000000000E+00 0. -1.
        -11    1    4    4    0    0  0.14360039085E+02  0.57568881047E+02 -0.45706011719E+02  0.74896103335E+02  0.00000000000E+00 0.  1.
         11    1    4    4    0    0  0.29794032695E+01 -0.34385404488E+02 -0.53047050312E+02  0.63286826690E+02  0.00000000000E+00 0. -1.
         21    1    1    2  503  501  0.31062927672E+02 -0.14372822402E+02  0.14566706753E+03  0.14963414738E+03  0.00000000000E+00 0. -1.
         -2    1    1    2    0  502  0.20803895134E+02 -0.13418898347E+01 -0.84748253218E+01  0.22503897114E+02  0.00000000000E+00 0.  1.
<scales pt_clust_5="13000.00000" pt_clust_6="13000.00000" pt_clust_7="13000.00000" pt_clust_8="13000.00000" pt_clust_9="34.49569" pt_clust_10="20.84713"></scales>
<clustering>
<clus scale="   20.847">  2 10  1 -1</clus>
<clus scale="   34.496">  1  9  2 -1</clus>
<clus scale="   79.513">  5  6 -1 -1</clus>
<clus scale="   91.328">  1  5  2 -1</clus>
<clus scale="   92.218">  7  8 -1 -1</clus>
<clus scale="   20.847">  2  5  1 -1</clus>
</clustering>
</event>
<event>
10    4  0.2857708E-005  0.1250467E+03  0.7546771E-02  0.1238740E+00
          2   -1    0    0  503    0 -0.00000000000E+00  0.00000000000E+00  0.13847467185E+04  0.13847467185E+04  0.00000000000E+00 0. -1.
         21   -1    0    0  501  502  0.00000000000E+00 -0.00000000000E+00 -0.27116807531E+02  0.27116807531E+02  0.00000000000E+00 0. -1.
         24    2    1    2    0    0 -0.89667801467E+02  0.55832525794E+02  0.57949953539E+03  0.59428827487E+03  0.78748057646E+02 0.  0.
         23    2    1    2    0    0  0.37381221409E+02 -0.56943272848E+02  0.31464256665E+03  0.33475010161E+03  0.91748535377E+02 0.  0.
        -11    1    3    3    0    0 -0.70846567460E+02  0.50201057793E+01  0.23322579963E+03  0.24380055619E+03  0.00000000000E+00 0.  1.
         12    1    3    3    0    0 -0.18821234007E+02  0.50812420015E+02  0.34627373575E+03  0.35048771869E+03  0.00000000000E+00 0. -1.
        -13    1    4    4    0    0  0.34549756269E+02  0.27644360720E+01  0.36809254321E+02  0.50559360842E+02  0.00000000000E+00 0. -1.
         13    1    4    4    0    0  0.28314651397E+01 -0.59707708920E+02  0.27783331233E+03  0.28419074077E+03  0.00000000000E+00 0.  1.
         21    1    1    2  503  502  0.61063654956E+02  0.42273212404E+02  0.39875950729E+03  0.40561673918E+03  0.00000000000E+00 0. -1.
          1    1    1    2  501    0 -0.87770748979E+01 -0.41162465349E+02  0.64728301593E+02  0.77208410322E+02  0.00000000000E+00 0. -1.
<scales pt_clust_5="13000.00000" pt_clust_6="13000.00000" pt_clust_7="13000.00000" pt_clust_8="13000.00000" pt_clust_9="69.39727" pt_clust_10="42.08783"></scales>
<clustering>
<clus scale="   42.088">  2 10  1 -1</clus>
<clus scale="   69.397">  1  9  2 -1</clus>
<clus scale="   78.748">  5  6 -1 -1</clus>
<clus scale="   91.749">  7  8 -1 -1</clus>
<clus scale="  115.845">  1  5  2 -1</clus>
<clus scale="   42.088">  2  5  1 -1</clus>
</clustering>
</event>
<event>
10    4  0.2857708E-005  0.2383789E+03  0.7546771E-02  0.1120878E+00
          2   -1    0    0  503    0 -0.00000000000E+00  0.00000000000E+00  0.13173754205E+04  0.13173754205E+04  0.00000000000E+00 0. -1.
         21   -1    0    0  501  502  0.00000000000E+00 -0.00000000000E+00 -0.58934893462E+02  0.58934893462E+02  0.00000000000E+00 0. -1.
         24    2    1    2    0    0  0.87281446167E+02  0.12724804620E+02  0.89512847595E+02  0.14960142682E+03  0.81166899189E+02 0.  0.
         23    2    1    2    0    0  0.76791269207E+02 -0.21316671309E+02  0.18472225508E+03  0.22184188877E+03  0.93489104114E+02 0.  0.
        -13    1    3    3    0    0  0.98840491229E+00 -0.25395742082E+02  0.16380607940E+02  0.30236484198E+02  0.00000000000E+00 0.  1.
         14    1    3    3    0    0  0.86293041255E+02  0.38120546702E+02  0.73132239654E+02  0.11936494262E+03  0.00000000000E+00 0. -1.
        -11    1    4    4    0    0  0.27412679420E+00  0.28592008081E+02  0.66881213184E+02  0.72737024607E+02  0.00000000000E+00 0.  1.
         11    1    4    4    0    0  0.76517142413E+02 -0.49908679390E+02  0.11784104190E+03  0.14910486416E+03  0.00000000000E+00 0. -1.
         21    1    1    2  503  502 -0.65832409598E+02  0.35593914988E+02  0.19089260458E+03  0.20503858032E+03  0.00000000000E+00 0.  1.
          1    1    1    2  501    0 -0.98240305776E+02 -0.27002048299E+02  0.79331281981E+03  0.79982841808E+03  0.00000000000E+00 0. -1.
<scales pt_clust_5="13000.00000" pt_clust_6="13000.00000" pt_clust_7="13000.00000" pt_clust_8="13000.00000" pt_clust_9="74.83871" pt_clust_10="145.09629"></scales>
<clustering>
<clus scale="   74.839">  1  9  2 -1</clus>
<clus scale="   81.167">  5  6 -1 -1</clus>
<clus scale="   93.489">  7  8 -1 -1</clus>
<clus scale="  105.563">  5  7 -1 -1</clus>
<clus scale="  145.096">  2 10  1 -1</clus>
<clus scale="  145.096">  2  5  1 -1</clus>
</clustering>
</event>
<event>
10    4  0.2857708E-005  0.1598077E+03  0.7546771E-02  0.1190800E+00
          2   -1    0    0  503    0 -0.00000000000E+00  0.00000000000E+00  0.72987318633E+03  0.72987318633E+03  0.00000000000E+00 0. -1.
         21   -1    0    0  501  502  0.00000000000E+00 -0.00000000000E+00 -0.25886655233E+03  0.25886655233E+03  0.00000000000E+00 0. -1.
         23    2    1    2    0    0  0.13908274822E+03 -0.52133326329E+02  0.51611548677E+03  0.54505728067E+03  0.93007252202E+02 0.  0.
         24    2    1    2    0    0 -0.14070227986E+03  0.13205701047E+03 -0.14894320833E+03  0.25695939070E+03  0.81288766712E+02 0.  0.
        -13    1    4    4    0    0 -0.11080614259E+03  0.62174756241E+02 -0.61689475124E+02  0.14124196575E+03  0.00000000000E+00 0.  1.
         14    1    4    4    0    0 -0.29896137269E+02  0.69882254224E+02 -0.87253733202E+02  0.11571742495E+03  0.00000000000E+00 0. -1.
        -11    1    3    3    0    0  0.70947534847E+02 -0.72151393829E+02  0.25189786307E+03  0.27146253839E+03  0.00000000000E+00 0.  1.
         11    1    3    3    0    0  0.68135213373E+02  0.20018067500E+02  0.26421762370E+03  0.27359474228E+03  0.00000000000E+00 0. -1.
         21    1    1    2  503  502 -0.28485632970E+02  0.35924069452E+00  0.96558255333E+02  0.10067302028E+03  0.00000000000E+00 0. -1.
          1    1    1    2  501    0  0.30105164606E+02 -0.80282924830E+02  0.72761002280E+01  0.86050047006E+02  0.00000000000E+00 0. -1.
<scales pt_clust_5="13000.00000" pt_clust_6="13000.00000" pt_clust_7="13000.00000" pt_clust_8="13000.00000" pt_clust_9="28.48790" pt_clust_10="85.00033"></scales>
<clustering>
<clus scale="   28.488">  1  9  2 -1</clus>
<clus scale="   81.289">  5  6 -1 -1</clus>
<clus scale="   85.000">  2 10  1 -1</clus>
<clus scale="   93.007">  7  8 -1 -1</clus>
<clus scale="  153.284">  2  5  1 -1</clus>
<clus scale="   85.000">  2  5  1 -1</clus>
</clustering>
</event>
<event>
10    4  0.2857708E-005  0.1023898E+03  0.7546771E-02  0.1279768E+00
         21   -1    0    0  501  502  0.00000000000E+00  0.00000000000E+00  0.24971190394E+03  0.24971190394E+03  0.00000000000E+00 0.  1.
          2   -1    0    0  503    0 -0.00000000000E+00 -0.00000000000E+00 -0.13172147519E+03  0.13172147519E+03  0.00000000000E+00 0. -1.
         24    2    1    2    0    0 -0.65700075233E+00  0.23115738845E+02 -0.48046968730E+02  0.96983414463E+02  0.81009273817E+02 0.  0.
         23    2    1    2    0    0 -0.18408646039E+02 -0.81917325468E+02  0.13474430766E+03  0.18274731893E+03  0.90505401322E+02 0.  0.
        -13    1    3    3    0    0 -0.40048242535E+02  0.14781914795E+02 -0.33164235220E+02  0.54057684309E+02  0.00000000000E+00 0.  1.
         14    1    3    3    0    0  0.39391241783E+02  0.83338240506E+01 -0.14882733510E+02  0.42925730154E+02  0.00000000000E+00 0. -1.
        -11    1    4    4    0    0 -0.54512744788E+02 -0.37279891476E+02  0.71783520589E+02  0.97541291159E+02  0.00000000000E+00 0.  1.
         11    1    4    4    0    0  0.36104098749E+02 -0.44637433992E+02  0.62960787076E+02  0.85206027774E+02  0.00000000000E+00 0. -1.
         21    1    1    2  503  502  0.17095859621E+02  0.22737662670E+02 -0.22939192496E+02  0.36544168786E+02  0.00000000000E+00 0. -1.
          1    1    1    2  501    0  0.19697871696E+01  0.36063923953E+02  0.54232282313E+02  0.65158476941E+02  0.00000000000E+00 0. -1.
<scales pt_clust_5="13000.00000" pt_clust_6="13000.00000" pt_clust_7="13000.00000" pt_clust_8="13000.00000" pt_clust_9="28.44767" pt_clust_10="37.39350"></scales>
<clustering>
<clus scale="   28.448">  2  9  1 -1</clus>
<clus scale="   37.393">  1 10  2 -1</clus>
<clus scale="   81.009">  5  6 -1 -1</clus>
<clus scale="   90.505">  7  8 -1 -1</clus>
<clus scale="   94.101">  2  5  1 -1</clus>
<clus scale="   37.393">  1  5  2 -1</clus>
</clustering>
</event>
<event>
10    4  0.2857708E-005  0.2724452E+03  0.7546771E-02  0.1114584E+00
         21   -1    0    0  501  502  0.00000000000E+00  0.00000000000E+00  0.14659994533E+03  0.14659994533E+03  0.00000000000E+00 0. -1.
          2   -1    0    0  503    0 -0.00000000000E+00 -0.00000000000E+00 -0.11510515613E+04  0.11510515613E+04  0.00000000000E+00 0. -1.
         23    2    1    2    0    0 -0.97186903236E+02  0.14346215228E+03 -0.31945021291E+03  0.37439519824E+03  0.89981346052E+02 0.  0.
         24    2    1    2    0    0  0.12280364341E+03 -0.32131988922E+03 -0.32677518249E+03  0.48113407539E+03  0.79879738115E+02 0.  0.
        -13    1    4    4    0    0  0.42225498727E+02 -0.97150723426E+02 -0.15377629955E+03  0.18673083866E+03  0.00000000000E+00 0.  1.
         14    1    4    4    0    0  0.80578144683E+02 -0.22416916579E+03 -0.17299888295E+03  0.29440323672E+03  0.00000000000E+00 0. -1.
        -13    1    3    3    0    0 -0.10005977249E+03  0.71126171021E+02 -0.20656325949E+03  0.24028997159E+03  0.00000000000E+00 0. -1.
         13    1    3    3    0    0  0.28728692517E+01  0.72335981256E+02 -0.11288695343E+03  0.13410522665E+03  0.00000000000E+00 0.  1.
         21    1    1    2  503  502  0.95713154946E+01 -0.26644003717E+02 -0.13257643427E+03  0.13556557062E+03  0.00000000000E+00 0.  1.
          1    1    1    2  501    0 -0.35188055668E+02  0.20450174066E+03 -0.22564978628E+03  0.30655666236E+03  0.00000000000E+00 0. -1.
<scales pt_clust_5="13000.00000" pt_clust_6="13000.00000" pt_clust_7="13000.00000" pt_clust_8="13000.00000" pt_clust_9="28.31101" pt_clust_10="260.47187"></scales>
<clustering>
<clus scale="   28.311">  2  9  1 -1</clus>
<clus scale="   79.880">  5  6 -1 -1</clus>
<clus scale="   89.981">  7  8 -1 -1</clus>
<clus scale="  187.014">  2  7  1 -1</clus>
<clus scale="  260.472">  1 10  2 -1</clus>
<clus scale="  260.472">  1  5  2 -1</clus>
</clustering>
</event>
<event>
10    4  0.2857708E-005  0.1499813E+03  0.7546771E-02  0.1228012E+00
          4   -1    0    0  503    0 -0.00000000000E+00  0.00000000000E+00  0.16130225592E+03  0.16130225592E+03  0.00000000000E+00 0. -1.
         21   -1    0    0  501  502  0.00000000000E+00 -0.00000000000E+00 -0.66539267905E+03  0.66539267905E+03  0.00000000000E+00 0. -1.
         24    2    1    2    0    0 -0.57399702066E+02 -0.21018141202E+02  0.12740618488E+02  0.10232068363E+03  0.81059921548E+02 0.  0.
         23    2    1    2    0    0  0.47922513915E+02  0.10631891594E+03 -0.27456672330E+03  0.31191176901E+03  0.91114142043E+02 0.  0.
        -11    1    3    3    0    0 -0.30470159343E+01 -0.42563680508E+02  0.97770516011E+01  0.43778327315E+02  0.00000000000E+00 0.  1.
         12    1    3    3    0    0 -0.54352686132E+02  0.21545539306E+02  0.29635668871E+01  0.58542356311E+02  0.00000000000E+00 0. -1.
        -13    1    4    4    0    0 -0.15266051737E+02  0.52726632043E+02 -0.57146707490E+02  0.79239486616E+02  0.00000000000E+00 0. -1.
         13    1    4    4    0    0  0.63188565652E+02  0.53592283898E+02 -0.21742001581E+03  0.23267228240E+03  0.00000000000E+00 0.  1.
         21    1    1    2  503  502  0.56459962531E+02  0.25885129457E+02  0.60387758387E+02  0.86628220916E+02  0.00000000000E+00 0. -1.
          3    1    1    2  501    0 -0.46982774379E+02 -0.11118590420E+03 -0.30265207670E+03  0.32583426142E+03  0.00000000000E+00 0. -1.
<scales pt_clust_5="13000.00000" pt_clust_6="13000.00000" pt_clust_7="13000.00000" pt_clust_8="13000.00000" pt_clust_9="62.11093" pt_clust_10="119.13267"></scales>
<clustering>
<clus scale="   62.111">  1  9  2 -1</clus>
<clus scale="   81.060">  5  6 -1 -1</clus>
<clus scale="   83.686">  1  5  2 -1</clus>
<clus scale="   91.114">  7  8 -1 -1</clus>
<clus scale="  119.133">  2 10  1 -1</clus>
<clus scale="  119.133">  2  5  1 -1</clus>
</clustering>
</event>
<event>
10    4  0.2857708E-005  0.1526686E+03  0.7546771E-02  0.1224759E+00
         21   -1    0    0  503  502  0.00000000000E+00  0.00000000000E+00  0.28020150704E+03  0.28020150704E+03  0.00000000000E+00 0.  1.
         -1   -1    0    0    0  501 -0.00000000000E+00 -0.00000000000E+00 -0.28476798314E+03  0.28476798314E+03  0.00000000000E+00 0.  1.
         24    2    1    2    0    0 -0.27037819194E+02 -0.55741565636E+01  0.12250359165E+03  0.14933005693E+03  0.80809783102E+02 0.  0.
         23    2    1    2    0    0  0.15849339806E+02  0.13498675188E+03  0.27968351929E+02  0.16609328220E+03  0.91280473972E+02 0.  0.
        -11    1    3    3    0    0 -0.20983268115E+02 -0.42800462478E+02  0.67127239859E+02  0.82330088426E+02  0.00000000000E+00 0.  1.
         12    1    3    3    0    0 -0.60545510796E+01  0.37226305915E+02  0.55376351796E+02  0.66999968500E+02  0.00000000000E+00 0. -1.
        -11    1    4    4    0    0  0.53775300870E+02  0.68843210456E+02  0.18100076549E+02  0.89212013657E+02  0.00000000000E+00 0.  1.
         11    1    4    4    0    0 -0.37925961064E+02  0.66143541419E+02  0.98682753805E+01  0.76881268544E+02  0.00000000000E+00 0. -1.
         21    1    1    2  503  501  0.72832229793E+02 -0.43611987036E+02 -0.41620974567E+02  0.94545463316E+02  0.00000000000E+00 0.  1.
         -2    1    1    2    0  502 -0.61643750405E+02 -0.85800608275E+02 -0.11341744512E+03  0.15500068775E+03  0.00000000000E+00 0.  1.
<scales pt_clust_5="13000.00000" pt_clust_6="13000.00000" pt_clust_7="13000.00000" pt_clust_8="13000.00000" pt_clust_9="84.89134" pt_clust_10="122.37480"></scales>
<clustering>
<clus scale="   80.810">  5  6 -1 -1</clus>
<clus scale="   84.891">  2  9  1 -1</clus>
<clus scale="   84.891">  2  5  1 -1</clus>
<clus scale="   91.280">  7  8 -1 -1</clus>
<clus scale="  122.375">  1 10  2 -1</clus>
<clus scale="  122.375">  1  5  2 -1</clus>
</clustering>
</event>
<event>
10    4  0.2857708E-005  0.9565629E+02  0.7546771E-02  0.1293253E+00
         21   -1    0    0  501  502  0.00000000000E+00  0.00000000000E+00  0.95293593474E+02  0.95293593474E+02  0.00000000000E+00 0. -1.
          4   -1    0    0  503    0 -0.00000000000E+00 -0.00000000000E+00 -0.24901255484E+03  0.24901255484E+03  0.00000000000E+00 0. -1.
         24    2    1    2    0    0  0.29208351892E+02 -0.31381680505E+02 -0.10497061261E+03  0.14104914027E+03  0.83893341612E+02 0.  0.
         23    2    1    2    0    0 -0.18040789115E+02 -0.22526781881E+02  0.41224711492E+01  0.94996433189E+02  0.90412397250E+02 0.  0.
        -11    1    3    3    0    0 -0.28375853975E+02 -0.16095734165E+02 -0.23900936086E+02  0.40441519419E+02  0.00000000000E+00 0.  1.
         12    1    3    3    0    0  0.57584205868E+02 -0.15285946340E+02 -0.81069676528E+02  0.10060762085E+03  0.00000000000E+00 0. -1.
        -13    1    4    4    0    0  0.20927913638E+02  0.22981879065E+02 -0.11395914468E+02  0.33106059886E+02  0.00000000000E+00 0.  1.
         13    1    4    4    0    0 -0.38968702753E+02 -0.45508660946E+02  0.15518385617E+02  0.61890373303E+02  0.00000000000E+00 0. -1.
         21    1    1    2  503  502  0.10726225990E+02  0.21566825001E+02 -0.63391156695E+02  0.67813115337E+02  0.00000000000E+00 0. -1.
          3    1    1    2  501    0 -0.21893788768E+02  0.32341637385E+02  0.10520336793E+02  0.40447459519E+02  0.00000000000E+00 0. -1.
<scales pt_clust_5="13000.00000" pt_clust_6="13000.00000" pt_clust_7="13000.00000" pt_clust_8="13000.00000" pt_clust_9="24.08692" pt_clust_10="40.05840"></scales>
<clustering>
<clus scale="   24.087">  2  9  1 -1</clus>
<clus scale="   40.058">  1 10  2 -1</clus>
<clus scale="   83.893">  5  6 -1 -1</clus>
<clus scale="   89.520">  2  5  1 -1</clus>
<clus scale="   90.412">  7  8 -1 -1</clus>
<clus scale="   40.058">  1  5  2 -1</clus>
</clustering>
</event>
<event>
10    4  0.2857708E-005  0.1917890E+03  0.7546771E-02  0.1183360E+00
         21   -1    0    0  501  502  0.00000000000E+00  0.00000000000E+00  0.15944663392E+03  0.15944663392E+03  0.00000000000E+00 0. -1.
          2   -1    0    0  503    0 -0.00000000000E+00 -0.00000000000E+00 -0.44841593785E+03  0.44841593785E+03  0.00000000000E+00 0. -1.
         24    2    1    2    0    0  0.75414131202E+01 -0.66553702078E+02 -0.47058891379E+02  0.11285796867E+03  0.77692429898E+02 0.  0.
         23    2    1    2    0    0 -0.14041208366E+03 -0.75141086354E+02 -0.54981995242E+02  0.19129958869E+03  0.90613336424E+02 0.  0.
        -13    1    3    3    0    0  0.15930349717E+02 -0.21794290686E+02  0.18721935272E+02  0.32852366870E+02  0.00000000000E+00 0.  1.
         14    1    3    3    0    0 -0.83889365965E+01 -0.44759411392E+02 -0.65780826651E+02  0.80005601805E+02  0.00000000000E+00 0. -1.
        -11    1    4    4    0    0 -0.16088003743E+02 -0.36871544249E+02  0.15785657792E+02  0.43214831154E+02  0.00000000000E+00 0.  1.
         11    1    4    4    0    0 -0.12432407992E+03 -0.38269542105E+02 -0.70767653034E+02  0.14808475754E+03  0.00000000000E+00 0. -1.
         21    1    1    2  503  502  0.18370432702E+02 -0.11514319704E+02 -0.83489457713E+02  0.86258575835E+02  0.00000000000E+00 0. -1.
          1    1    1    2  501    0  0.11450023784E+03  0.15320910814E+03 -0.10343895960E+03  0.21744643856E+03  0.00000000000E+00 0. -1.
<scales pt_clust_5="13000.00000" pt_clust_6="13000.00000" pt_clust_7="13000.00000" pt_clust_8="13000.00000" pt_clust_9="21.68069" pt_clust_10="169.03340"></scales>
<clustering>
<clus scale="   21.681">  2  9  1 -1</clus>
<clus scale="   77.692">  5  6 -1 -1</clus>
<clus scale="   90.613">  7  8 -1 -1</clus>
<clus scale="  104.610">  2  5  1 -1</clus>
<clus scale="  169.033">  1 10  2 -1</clus>
<clus scale="  169.033">  1  5  2 -1</clus>
</clustering>
</event>
<event>
10    4  0.2857708E-005  0.1402704E+03  0.7546771E-02  0.1215135E+00
          2   -1    0    0  503    0 -0.00000000000E+00  0.00000000000E+00  0.21095817930E+04  0.21095817930E+04  0.00000000000E+00 0. -1.
         21   -1    0    0  501  502  0.00000000000E+00 -0.00000000000E+00 -0.75820119516E+02  0.75820119516E+02  0.00000000000E+00 0. -1.
         24    2    1    2    0    0  0.77905799281E+02 -0.10204197673E+03  0.14654442934E+04  0.14732427197E+04  0.80220046055E+02 0.  0.
         23    2    1    2    0    0 -0.15092829249E+03  0.10909771043E+02  0.22349928875E+03  0.28463236235E+03  0.90361922551E+02 0.  0.
        -13    1    3    3    0    0  0.14014067869E+02 -0.34993862570E+02  0.15454443580E+03  0.15907528769E+03  0.00000000000E+00 0.  1.
         14    1    3    3    0    0  0.63891731411E+02 -0.67048114161E+02  0.13108998575E+04  0.13141674321E+04  0.00000000000E+00 0. -1.
        -13    1    4    4    0    0 -0.77756682380E+02  0.48195994149E+02  0.14211269705E+03  0.16901175749E+03  0.00000000000E+00 0.  1.
         13    1    4    4    0    0 -0.73171610115E+02 -0.37286223105E+02  0.81386591693E+02  0.11562060486E+03  0.00000000000E+00 0. -1.
         21    1    1    2  503  502 -0.33852735761E+02  0.67387338630E+01  0.26990484090E+03  0.27210299777E+03  0.00000000000E+00 0.  1.
          1    1    1    2  501    0  0.10687522897E+03  0.84393471826E+02  0.74913250466E+02  0.15542383263E+03  0.00000000000E+00 0. -1.
<scales pt_clust_5="13000.00000" pt_clust_6="13000.00000" pt_clust_7="13000.00000" pt_clust_8="13000.00000" pt_clust_9="34.51693" pt_clust_10="134.78587"></scales>
<clustering>
<clus scale="   34.517">  1  9  2 -1</clus>
<clus scale="   80.220">  5  6 -1 -1</clus>
<clus scale="   90.362">  7  8 -1 -1</clus>
<clus scale="  134.786">  2 10  1 -1</clus>
<clus scale="  133.962">  1  5  2 -1</clus>
<clus scale="  134.786">  2  5  1 -1</clus>
</clustering>
</event>
<event>
10    4  0.2857708E-005  0.3204485E+03  0.7546771E-02  0.1075665E+00
          2   -1    0    0  503    0 -0.00000000000E+00  0.00000000000E+00  0.99053931150E+03  0.99053931150E+03  0.00000000000E+00 0. -1.
         21   -1    0    0  501  502  0.00000000000E+00 -0.00000000000E+00 -0.36514952730E+03  0.36514952730E+03  0.00000000000E+00 0. -1.
         23    2    1    2    0    0 -0.31814581001E+03  0.60335387346E+02  0.74520639546E+03  0.81733836767E+03  0.88613317576E+02 0.  0.
         24    2    1    2    0    0  0.17126581512E+03 -0.16581850305E+03  0.15396775442E+02  0.25719230052E+03  0.95305106728E+02 0.  0.
        -13    1    4    4    0    0  0.57273608205E+02 -0.85738922660E+02 -0.35242040032E+02  0.10896527172E+03  0.00000000000E+00 0.  1.
         14    1    4    4    0    0  0.11399220691E+03 -0.80079580393E+02  0.50638815474E+02  0.14822702880E+03  0.00000000000E+00 0. -1.
        -11    1    3    3    0    0 -0.77446353877E+01  0.21382531929E+02  0.56817068015E+02  0.61199438452E+02  0.00000000000E+00 0.  1.
         11    1    3    3    0    0 -0.31040117462E+03  0.38952855416E+02  0.68838932744E+03  0.75613892922E+03  0.00000000000E+00 0. -1.
         21    1    1    2  503  502 -0.22893047381E+02  0.10254635180E+02  0.20090813400E+02  0.32138605199E+02  0.00000000000E+00 0.  1.
          1    1    1    2  501    0  0.16977304227E+03  0.95228480529E+02 -0.15530420010E+03  0.24901956540E+03  0.00000000000E+00 0. -1.
<scales pt_clust_5="13000.00000" pt_clust_6="13000.00000" pt_clust_7="13000.00000" pt_clust_8="13000.00000" pt_clust_9="25.08484" pt_clust_10="193.93312"></scales>
<clustering>
<clus scale="   25.085">  1  9  2 -1</clus>
<clus scale="   88.613">  7  8 -1 -1</clus>
<clus scale="   95.305">  5  6 -1 -1</clus>
<clus scale="  193.933">  2 10  1 -1</clus>
<clus scale="  318.522">  1  7  2 -1</clus>
<clus scale="  193.933">  2  5  1 -1</clus>
</clustering>
</event>
<event>
10    4  0.2857708E-005  0.3222057E+03  0.7546771E-02  0.1075089E+00
          2   -1    0    0  503    0 -0.00000000000E+00  0.00000000000E+00  0.10312250975E+04  0.10312250975E+04  0.00000000000E+00 0. -1.
         21   -1    0    0  501  502  0.00000000000E+00 -0.00000000000E+00 -0.15991716986E+03  0.15991716986E+03  0.00000000000E+00 0. -1.
         24    2    1    2    0    0 -0.12537560145E+03  0.34030602024E+03  0.49188481579E+03  0.61566325971E+03  0.74587857682E+02 0.  0.
         23    2    1    2    0    0  0.56299562791E+02 -0.24540334520E+03  0.19563144345E+03  0.33127345749E+03  0.89877691145E+02 0.  0.
        -11    1    3    3    0    0 -0.11894725940E+03  0.27702583619E+03  0.36246595681E+03  0.47145873020E+03  0.00000000000E+00 0.  1.
         12    1    3    3    0    0 -0.64283420524E+01  0.63280184053E+02  0.12941885897E+03  0.14420452952E+03  0.00000000000E+00 0. -1.
        -11    1    4    4    0    0  0.43608887930E+02 -0.15302122127E+03  0.17353951724E+03  0.23544254779E+03  0.00000000000E+00 0.  1.
         11    1    4    4    0    0  0.12690674861E+02 -0.92382123936E+02  0.22091926211E+02  0.95830909706E+02  0.00000000000E+00 0. -1.
         21    1    1    2  503  502  0.13863982476E+02  0.21594749633E+02  0.60950982208E+02  0.66132937738E+02  0.00000000000E+00 0. -1.
          1    1    1    2  501    0  0.55212056183E+02 -0.11649742467E+03  0.12284068617E+03  0.17807261239E+03  0.00000000000E+00 0. -1.
<scales pt_clust_5="13000.00000" pt_clust_6="13000.00000" pt_clust_7="13000.00000" pt_clust_8="13000.00000" pt_clust_9="25.66210" pt_clust_10="126.85295"></scales>
<clustering>
<clus scale="   25.662">  1  9  2 -1</clus>
<clus scale="   74.588">  5  6 -1 -1</clus>
<clus scale="   89.878">  7  8 -1 -1</clus>
<clus scale="  126.853">  2 10  1 -1</clus>
<clus scale="  318.280">  1  5  2 -1</clus>
<clus scale="  126.853">  2  5  1 -1</clus>
</clustering>
</event>
<event>
10    4  0.2857708E-005  0.1598667E+03  0.7546771E-02  0.1191355E+00
         -1   -1    0    0    0  501 -0.00000000000E+00  0.00000000000E+00  0.10623979469E+03  0.10623979469E+03  0.00000000000E+00 0.  1.
         21   -1    0    0  503  502  0.00000000000E+00 -0.00000000000E+00 -0.49065342758E+03  0.49065342758E+03  0.00000000000E+00 0.  1.
         23    2    1    2    0    0  0.14784272956E+03 -0.89941014093E+02 -0.14089999397E+03  0.24224851591E+03  0.94258561725E+02 0.  0.
         24    2    1    2    0    0 -0.10188817379E+03 -0.14411323520E+01 -0.13060084927E+03  0.18342469184E+03  0.78770292149E+02 0.  0.
        -13    1    4    4    0    0 -0.47575158251E+02 -0.38492517958E+02 -0.78506611060E+02  0.99540733378E+02  0.00000000000E+00 0.  1.
         14    1    4    4    0    0 -0.54313015540E+02  0.37051385606E+02 -0.52094238213E+02  0.83883958463E+02  0.00000000000E+00 0. -1.
        -11    1    3    3    0    0  0.42962759371E+02 -0.78336071573E+02 -0.46771141299E+02  0.10084581529E+03  0.00000000000E+00 0. -1.
         11    1    3    3    0    0  0.10487997019E+03 -0.11604942520E+02 -0.94128852674E+02  0.14140270062E+03  0.00000000000E+00 0.  1.
         21    1    1    2  503  501 -0.25048926375E+02  0.98098901429E+01  0.39380693622E+01  0.27188068108E+02  0.00000000000E+00 0.  1.
         -2    1    1    2    0  502 -0.20905629390E+02  0.81572256302E+02 -0.11685085901E+03  0.14403194642E+03  0.00000000000E+00 0.  1.
<scales pt_clust_5="13000.00000" pt_clust_6="13000.00000" pt_clust_7="13000.00000" pt_clust_8="13000.00000" pt_clust_9="26.90135" pt_clust_10="86.62666"></scales>
<clustering>
<clus scale="   26.901">  1  9  2 -1</clus>
<clus scale="   78.770">  5  6 -1 -1</clus>
<clus scale="   86.627">  2 10  1 -1</clus>
<clus scale="   94.259">  7  8 -1 -1</clus>
<clus scale="  151.253">  2  5  1 -1</clus>
<clus scale="   86.627">  2  5  1 -1</clus>
</clustering>
</event>
<event>
10    4  0.2857708E-005  0.1329120E+03  0.7546771E-02  0.1247840E+00
         21   -1    0    0  501  502  0.00000000000E+00  0.00000000000E+00  0.25806470388E+02  0.25806470388E+02  0.00000000000E+00 0. -1.
          4   -1    0    0  503    0 -0.00000000000E+00 -0.00000000000E+00 -0.13176655647E+04  0.13176655647E+04  0.00000000000E+00 0. -1.
         24    2    1    2    0    0 -0.95404955904E+01  0.34637722914E+01 -0.28393859523E+03  0.29513926592E+03  0.79893940009E+02 0.  0.
         23    2    1    2    0    0  0.91563052877E+02 -0.85158907727E+01 -0.34783646274E+03  0.37084594255E+03  0.89889906285E+02 0.  0.
        -13    1    3    3    0    0 -0.36102058320E+02 -0.22667661500E+02 -0.13273105377E+03  0.13940844353E+03  0.00000000000E+00 0.  1.
         14    1    3    3    0    0  0.26561562730E+02  0.26131433791E+02 -0.15120754146E+03  0.15573082238E+03  0.00000000000E+00 0. -1.
        -11    1    4    4    0    0  0.52347062991E+02  0.39808013603E+02 -0.16084138004E+03  0.17376663226E+03  0.00000000000E+00 0.  1.
         11    1    4    4    0    0  0.39215989887E+02 -0.48323904375E+02 -0.18699508269E+03  0.19707931030E+03  0.00000000000E+00 0. -1.
         21    1    1    2  503  502  0.18429096218E+02 -0.38082090629E+02 -0.15221372245E+03  0.15798384258E+03  0.00000000000E+00 0. -1.
          3    1    1    2  501    0 -0.10045165351E+03  0.43134209110E+02 -0.50787031389E+03  0.51950298403E+03  0.00000000000E+00 0. -1.
<scales pt_clust_5="13000.00000" pt_clust_6="13000.00000" pt_clust_7="13000.00000" pt_clust_8="13000.00000" pt_clust_9="42.30694" pt_clust_10="97.90510"></scales>
<clustering>
<clus scale="   42.307">  2  9  1 -1</clus>
<clus scale="   79.894">  5  6 -1 -1</clus>
<clus scale="   80.273">  2  5  1 -1</clus>
<clus scale="   89.890">  7  8 -1 -1</clus>
<clus scale="   97.905">  1 10  2 -1</clus>
<clus scale="   97.905">  1  5  2 -1</clus>
</clustering>
</event>
<event>
10    4  0.2857708E-005  0.2324858E+03  0.7546771E-02  0.1126774E+00
          2   -1    0    0  502    0 -0.00000000000E+00  0.00000000000E+00  0.10041589278E+03  0.10041589278E+03  0.00000000000E+00 0. -1.
         21   -1    0    0  503  502  0.00000000000E+00 -0.00000000000E+00 -0.10088746478E+04  0.10088746478E+04  0.00000000000E+00 0. -1.
         23    2    1    2    0    0  0.18001356492E+02 -0.16762854109E+03 -0.27389358287E+03  0.33784160424E+03  0.10342087891E+03 0.  0.
         24    2    1    2    0    0 -0.48726976466E+02  0.27835262471E+03 -0.53404375268E+03  0.60907384674E+03  0.76900709276E+02 0.  0.
        -13    1    4    4    0    0 -0.42345896464E+02  0.55203402315E+02 -0.13159747715E+03  0.14885726911E+03  0.00000000000E+00 0.  1.
         14    1    4    4    0    0 -0.63810800017E+01  0.22314922240E+03 -0.40244627554E+03  0.46021657764E+03  0.00000000000E+00 0. -1.
        -11    1    3    3    0    0  0.21831068430E+02 -0.11264393467E+03 -0.89884448330E+02  0.14575481336E+03  0.00000000000E+00 0.  1.
         11    1    3    3    0    0 -0.38297119382E+01 -0.54984606428E+02 -0.18400913454E+03  0.19208679088E+03  0.00000000000E+00 0. -1.
         21    1    1    2  503  501  0.16453293496E+02 -0.61759774341E+02 -0.89858694177E+02  0.11027041994E+03  0.00000000000E+00 0. -1.
          1    1    1    2  501    0  0.14272326478E+02 -0.48964309278E+02 -0.10662725243E+02  0.52104669616E+02  0.00000000000E+00 0. -1.
<scales pt_clust_5="13000.00000" pt_clust_6="13000.00000" pt_clust_7="13000.00000" pt_clust_8="13000.00000" pt_clust_9="49.39238" pt_clust_10="127.51914"></scales>
<clustering>
<clus scale="   49.392">  9 10 -1 -1</clus>
<clus scale="   76.901">  5  6 -1 -1</clus>
<clus scale="  103.421">  7  8 -1 -1</clus>
<clus scale="  127.519">  2  9  1 -1</clus>
<clus scale="  221.963">  2  5  1 -1</clus>
<clus scale="  127.519">  2  5  1 -1</clus>
</clustering>
</event>
<event>
10    4  0.2857708E-005  0.9690242E+02  0.7546771E-02  0.1290991E+00
         21   -1    0    0  501  502  0.00000000000E+00  0.00000000000E+00  0.10815307335E+03  0.10815307335E+03  0.00000000000E+00 0.  1.
          4   -1    0    0  503    0 -0.00000000000E+00 -0.00000000000E+00 -0.35619229809E+03  0.35619229809E+03  0.00000000000E+00 0. -1.
         24    2    1    2    0    0  0.23292244362E+02 -0.97885210044E+01 -0.17103508668E+03  0.19217129462E+03  0.83895541062E+02 0.  0.
         23    2    1    2    0    0 -0.30491616949E+02 -0.23630522456E+02  0.17230982971E+02  0.10072369269E+03  0.91434212409E+02 0.  0.
        -11    1    3    3    0    0 -0.12810488273E+01 -0.44789394897E+02 -0.84467824732E+02  0.95616653342E+02  0.00000000000E+00 0.  1.
         12    1    3    3    0    0  0.24573293190E+02  0.35000873893E+02 -0.86567261946E+02  0.96554641278E+02  0.00000000000E+00 0. -1.
        -13    1    4    4    0    0 -0.52649310077E+02 -0.31802233962E+02  0.35362614588E+02  0.70949604981E+02  0.00000000000E+00 0.  1.
         13    1    4    4    0    0  0.22157693128E+02  0.81717115062E+01 -0.18131631617E+02  0.29774087707E+02  0.00000000000E+00 0. -1.
         21    1    1    2  503  502 -0.10066462994E+02 -0.50406123736E+02 -0.60674844193E+02  0.79520737579E+02  0.00000000000E+00 0.  1.
          3    1    1    2  501    0  0.17265835580E+02  0.83825167196E+02 -0.33560276842E+02  0.91929646553E+02  0.00000000000E+00 0. -1.
<scales pt_clust_5="13000.00000" pt_clust_6="13000.00000" pt_clust_7="13000.00000" pt_clust_8="13000.00000" pt_clust_9="51.40147" pt_clust_10="74.31195"></scales>
<clustering>
<clus scale="   51.401">  2  9  1 -1</clus>
<clus scale="   74.312">  1 10  2 -1</clus>
<clus scale="   83.896">  5  6 -1 -1</clus>
<clus scale="   89.824">  2  5  1 -1</clus>
<clus scale="   91.434">  7  8 -1 -1</clus>
<clus scale="   74.312">  1  5  2 -1</clus>
</clustering>
</event>
<event>
10    4  0.2857708E-005  0.1572538E+03  0.7546771E-02  0.1193208E+00
         21   -1    0    0  503  502  0.00000000000E+00  0.00000000000E+00  0.10659186615E+03  0.10659186615E+03  0.00000000000E+00 0. -1.
         -1   -1    0    0    0  501 -0.00000000000E+00 -0.00000000000E+00 -0.10002508801E+04  0.10002508801E+04  0.00000000000E+00 0.  1.
         23    2    1    2    0    0  0.18859849327E+01 -0.10688278029E+03 -0.44381960252E+03  0.46525402444E+03  0.89766263265E+02 0.  0.
         24    2    1    2    0    0  0.13304149589E+03  0.12926229273E+03 -0.13159860278E+03  0.24152158345E+03  0.81275476430E+02 0.  0.
        -13    1    4    4    0    0  0.74588366179E+02  0.27702047813E+02 -0.82057661004E+02  0.11429911440E+03  0.00000000000E+00 0.  1.
         14    1    4    4    0    0  0.58453129714E+02  0.10156024492E+03 -0.49540941777E+02  0.12722246906E+03  0.00000000000E+00 0. -1.
        -13    1    3    3    0    0  0.32822129115E+02 -0.33843536796E+02 -0.79744611198E+02  0.92638437798E+02  0.00000000000E+00 0. -1.
         13    1    3    3    0    0 -0.30936144183E+02 -0.73039243497E+02 -0.36407499132E+03  0.37261558664E+03  0.00000000000E+00 0.  1.
         21    1    1    2  503  501 -0.14754860031E+02 -0.30043967849E+02 -0.26718563982E+03  0.26927404633E+03  0.00000000000E+00 0. -1.
         -2    1    1    2    0  502 -0.12017262079E+03  0.76644554108E+01 -0.51055168874E+02  0.13079309207E+03  0.00000000000E+00 0.  1.
<scales pt_clust_5="13000.00000" pt_clust_6="13000.00000" pt_clust_7="13000.00000" pt_clust_8="13000.00000" pt_clust_9="33.47157" pt_clust_10="122.06868"></scales>
<clustering>
<clus scale="   33.472">  2  9  1 -1</clus>
<clus scale="   81.275">  5  6 -1 -1</clus>
<clus scale="   89.766">  7  8 -1 -1</clus>
<clus scale="  122.069">  1 10  2 -1</clus>
<clus scale="  152.566">  1  5  2 -1</clus>
<clus scale="  122.069">  1  5  2 -1</clus>
</clustering>
</event>
<event>
10    4  0.2857708E-005  0.1397891E+03  0.7546771E-02  0.1221830E+00
         21   -1    0    0  501  502  0.00000000000E+00  0.00000000000E+00  0.16597635560E+03  0.16597635560E+03  0.00000000000E+00 0. -1.
          2   -1    0    0  503    0 -0.00000000000E+00 -0.00000000000E+00 -0.54710795281E+03  0.54710795281E+03  0.00000000000E+00 0. -1.
         23    2    1    2    0    0 -0.84758830592E+02  0.14731969651E+02 -0.17918774915E+03  0.21819858161E+03  0.90007117935E+02 0.  0.
         24    2    1    2    0    0 -0.95569429897E+02 -0.24070983202E+02  0.53025712483E+02  0.13784805703E+03  0.80482497973E+02 0.  0.
        -11    1    4    4    0    0 -0.21592510886E+02  0.28836757274E+02  0.19117298860E+02  0.40783160889E+02  0.00000000000E+00 0.  1.
         12    1    4    4    0    0 -0.73976919011E+02 -0.52907740476E+02  0.33908413623E+02  0.97064896142E+02  0.00000000000E+00 0. -1.
        -13    1    3    3    0    0  0.16560634057E+02  0.11236194858E+02 -0.14149624408E+02  0.24509560301E+02  0.00000000000E+00 0.  1.
         13    1    3    3    0    0 -0.10131946465E+03  0.34957747933E+01 -0.16503812474E+03  0.19368902131E+03  0.00000000000E+00 0. -1.
         21    1    1    2  503  502  0.17868638297E+02 -0.34300420851E+02 -0.15843667968E+03  0.16308889777E+03  0.00000000000E+00 0.  1.
          1    1    1    2  501    0  0.16245962219E+03  0.43639434401E+02 -0.96532880861E+02  0.19394877201E+03  0.00000000000E+00 0. -1.
<scales pt_clust_5="13000.00000" pt_clust_6="13000.00000" pt_clust_7="13000.00000" pt_clust_8="13000.00000" pt_clust_9="38.67567" pt_clust_10="114.29598"></scales>
<clustering>
<clus scale="   38.676">  2  9  1 -1</clus>
<clus scale="   80.482">  5  6 -1 -1</clus>
<clus scale="   90.007">  7  8 -1 -1</clus>
<clus scale="  117.560">  2  7  1 -1</clus>
<clus scale="  114.296">  1 10  2 -1</clus>
<clus scale="  114.296">  1  5  2 -1</clus>
</clustering>
</event>
<event>
10    4  0.2857708E-005  0.1163538E+03  0.7546771E-02  0.1254042E+00
         21   -1    0    0  501  502  0.00000000000E+00  0.00000000000E+00  0.90251506028E+02  0.90251506028E+02  0.00000000000E+00 0.  1.
          2   -1    0    0  503    0 -0.00000000000E+00 -0.00000000000E+00 -0.36325015228E+03  0.36325015228E+03  0.00000000000E+00 0. -1.
         23    2    1    2    0    0  0.51528088605E+02  0.46936120250E+02 -0.19213592422E+03  0.22487607956E+03  0.93781098743E+02 0.  0.
         24    2    1    2    0    0 -0.30052290210E+02 -0.37838544771E+02  0.12195810190E+02  0.94441347882E+02  0.80221784986E+02 0.  0.
        -13    1    4    4    0    0 -0.57727229482E+02 -0.28920672179E+02  0.78466817164E+01  0.65041592207E+02  0.00000000000E+00 0.  1.
         14    1    4    4    0    0  0.27674939272E+02 -0.89178725924E+01  0.43491284732E+01  0.29399755675E+02  0.00000000000E+00 0. -1.
        -11    1    3    3    0    0  0.29866828434E+02 -0.25150753877E+02 -0.44808184191E+02  0.59433670859E+02  0.00000000000E+00 0. -1.
         11    1    3    3    0    0  0.21661260171E+02  0.72086874126E+02 -0.14732774003E+03  0.16544240870E+03  0.00000000000E+00 0.  1.
         21    1    1    2  503  502 -0.10066662771E+02  0.20747184407E+02 -0.99030264442E+02  0.10167977496E+03  0.00000000000E+00 0.  1.
          1    1    1    2  501    0 -0.11409135625E+02 -0.29844759886E+02  0.59717322213E+01  0.32504455911E+02  0.00000000000E+00 0. -1.
<scales pt_clust_5="13000.00000" pt_clust_6="13000.00000" pt_clust_7="13000.00000" pt_clust_8="13000.00000" pt_clust_9="23.06043" pt_clust_10="31.16619"></scales>
<clustering>
<clus scale="   23.060">  2  9  1 -1</clus>
<clus scale="   31.166">  1 10  2 -1</clus>
<clus scale="   80.222">  5  6 -1 -1</clus>
<clus scale="   93.781">  7  8 -1 -1</clus>
<clus scale="  105.730">  1  5  2 -1</clus>
<clus scale="   31.166">  1  5  2 -1</clus>
</clustering>
</event>
<event>
10    4  0.2857708E-005  0.2781361E+03  0.7546771E-02  0.1097621E+00
         -1   -1    0    0    0  501 -0.00000000000E+00  0.00000000000E+00  0.53967344363E+03  0.53967344363E+03  0.00000000000E+00 0.  1.
         21   -1    0    0  503  502  0.00000000000E+00 -0.00000000000E+00 -0.43458543060E+03  0.43458543060E+03  0.00000000000E+00 0. -1.
         24    2    1    2    0    0 -0.29573434705E+03  0.81430225827E+02  0.25890284845E+03  0.40948674161E+03  0.80987782504E+02 0.  0.
         23    2    1    2    0    0  0.18630927996E+03 -0.10941903419E+03 -0.99996018140E+02  0.25850857472E+03  0.10071646697E+03 0.  0.
        -11    1    3    3    0    0 -0.13093223599E+03  0.73221959149E+02  0.99172989675E+02  0.17983322163E+03  0.00000000000E+00 0.  1.
         12    1    3    3    0    0 -0.16480211107E+03  0.82082666779E+01  0.15972985878E+03  0.22965351998E+03  0.00000000000E+00 0. -1.
        -11    1    4    4    0    0  0.87864226354E+02 -0.84319252496E+00 -0.60619720382E+02  0.10675009951E+03  0.00000000000E+00 0.  1.
         11    1    4    4    0    0  0.98445053603E+02 -0.10857584167E+03 -0.39376297758E+02  0.15175847521E+03  0.00000000000E+00 0. -1.
         21    1    1    2  503  501  0.74453237070E+02  0.76095078301E+02  0.97073625834E+02  0.14407301720E+03  0.00000000000E+00 0.  1.
         -2    1    1    2    0  502  0.34971830027E+02 -0.48106269938E+02 -0.15089244312E+03  0.16219054070E+03  0.00000000000E+00 0.  1.
<scales pt_clust_5="13000.00000" pt_clust_6="13000.00000" pt_clust_7="13000.00000" pt_clust_8="13000.00000" pt_clust_9="105.73723" pt_clust_10="59.47472"></scales>
<clustering>
<clus scale="   59.475">  2 10  1 -1</clus>
<clus scale="   80.988">  5  6 -1 -1</clus>
<clus scale="  100.716">  7  8 -1 -1</clus>
<clus scale="  105.737">  1  9  2 -1</clus>
<clus scale="  271.615">  1  5  2 -1</clus>
<clus scale="   59.475">  2  5  1 -1</clus>
</clustering>
</event>
<event>
10    4  0.2857708E-005  0.1301337E+03  0.7546771E-02  0.1240320E+00
         21   -1    0    0  501  502  0.00000000000E+00  0.00000000000E+00  0.20934996097E+03  0.20934996097E+03  0.00000000000E+00 0. -1.
          2   -1    0    0  503    0 -0.00000000000E+00 -0.00000000000E+00 -0.64475868093E+03  0.64475868093E+03  0.00000000000E+00 0. -1.
         24    2    1    2    0    0 -0.15049260344E+02  0.64914936244E+02 -0.15524639883E+03  0.18669404525E+03  0.79453086768E+02 0.  0.
         23    2    1    2    0    0 -0.99910182136E+02 -0.25932903946E+02 -0.36369009783E+03  0.38568479665E+03  0.76339472819E+02 0.  0.
        -13    1    3    3    0    0 -0.33640124478E+02  0.17657120585E+00 -0.73065194037E+02  0.80437626345E+02  0.00000000000E+00 0.  1.
         14    1    3    3    0    0  0.18590864133E+02  0.64738365038E+02 -0.82181204798E+02  0.10625641891E+03  0.00000000000E+00 0. -1.
        -13    1    4    4    0    0 -0.27906989823E+02 -0.24390952828E+02 -0.41929018499E+02  0.55962141248E+02  0.00000000000E+00 0.  1.
         13    1    4    4    0    0 -0.72003192313E+02 -0.15419511178E+01 -0.32176107933E+03  0.32972265541E+03  0.00000000000E+00 0. -1.
         21    1    1    2  503  502  0.10798026920E+02 -0.20100762307E+02 -0.82072768640E+02  0.85185546796E+02  0.00000000000E+00 0. -1.
          1    1    1    2  501    0  0.10416141556E+03 -0.18881269991E+02  0.16560054534E+03  0.19654425320E+03  0.00000000000E+00 0. -1.
<scales pt_clust_5="13000.00000" pt_clust_6="13000.00000" pt_clust_7="13000.00000" pt_clust_8="13000.00000" pt_clust_9="22.81749" pt_clust_10="105.39004"></scales>
<clustering>
<clus scale="   22.817">  2  9  1 -1</clus>
<clus scale="   76.339">  7  8 -1 -1</clus>
<clus scale="   79.453">  5  6 -1 -1</clus>
<clus scale="   99.536">  2  5  1 -1</clus>
<clus scale="  105.390">  1 10  2 -1</clus>
<clus scale="  105.390">  1  5  2 -1</clus>
</clustering>
</event>
<event>
10    4  0.2857708E-005  0.1553557E+03  0.7546771E-02  0.1213291E+00
         21   -1    0    0  501  502  0.00000000000E+00  0.00000000000E+00  0.19066796952E+03  0.19066796952E+03  0.00000000000E+00 0. -1.
          2   -1    0    0  503    0 -0.00000000000E+00 -0.00000000000E+00 -0.98553707023E+03  0.98553707023E+03  0.00000000000E+00 0. -1.
         24    2    1    2    0    0 -0.38906338569E+02 -0.50631644880E+02 -0.43100599521E+01  0.10262733828E+03  0.80227970817E+02 0.  0.
         23    2    1    2    0    0  0.11489870239E+03  0.21242275806E+02  0.18054405701E+02  0.14613347604E+03  0.85884138020E+02 0.  0.
        -11    1    3    3    0    0 -0.41573249450E+02 -0.43714826080E+02  0.30106134558E+02  0.67421809729E+02  0.00000000000E+00 0.  1.
         12    1    3    3    0    0  0.26669108811E+01 -0.69168188004E+01 -0.34416194510E+02  0.35205528551E+02  0.00000000000E+00 0. -1.
        -11    1    4    4    0    0  0.67992736907E+02  0.14442898482E+02  0.52863667237E+02  0.87327984647E+02  0.00000000000E+00 0. -1.
         11    1    4    4    0    0  0.46905965482E+02  0.67993773243E+01 -0.34809261536E+02  0.58805491397E+02  0.00000000000E+00 0.  1.
         21    1    1    2  503  502  0.89080532307E+02 -0.65280252077E+02 -0.69934374479E+03  0.70801025835E+03  0.00000000000E+00 0. -1.
          1    1    1    2  501    0 -0.16507289613E+03  0.94669621151E+02 -0.10926970167E+03  0.21943396708E+03  0.00000000000E+00 0. -1.
<scales pt_clust_5="13000.00000" pt_clust_6="13000.00000" pt_clust_7="13000.00000" pt_clust_8="13000.00000" pt_clust_9="119.49204" pt_clust_10="129.45781"></scales>
<clustering>
<clus scale="   80.228">  5  6 -1 -1</clus>
<clus scale="   85.884">  7  8 -1 -1</clus>
<clus scale="  102.537">  2  5  1 -1</clus>
<clus scale="  119.492">  2  9  1 -1</clus>
<clus scale="  129.458">  1 10  2 -1</clus>
<clus scale="  129.458">  1  5  2 -1</clus>
</clustering>
</event>
<event>
10    4  0.2857708E-005  0.1342741E+03  0.7546771E-02  0.1222465E+00
          2   -1    0    0  503    0 -0.00000000000E+00  0.00000000000E+00  0.87833631165E+03  0.87833631165E+03  0.00000000000E+00 0. -1.
         21   -1    0    0  501  502  0.00000000000E+00 -0.00000000000E+00 -0.69032163949E+02  0.69032163949E+02  0.00000000000E+00 0.  1.
         23    2    1    2    0    0  0.50859888873E+02 -0.10175457963E+01  0.47883405944E+03  0.49025660836E+03  0.92096264109E+02 0.  0.
         24    2    1    2    0    0 -0.99753467152E+02 -0.41749572396E+02  0.12326167974E+03  0.18567104295E+03  0.87100594110E+02 0.  0.
        -11    1    4    4    0    0 -0.74162460754E+02 -0.66062149077E+02  0.68987818095E+02  0.12092806610E+03  0.00000000000E+00 0.  1.
         12    1    4    4    0    0 -0.25591006398E+02  0.24312576681E+02  0.54273861649E+02  0.64742976852E+02  0.00000000000E+00 0. -1.
        -13    1    3    3    0    0  0.62243732085E+02  0.32075635787E+02  0.30498651833E+03  0.31292156358E+03  0.00000000000E+00 0. -1.
         13    1    3    3    0    0 -0.11383843212E+02 -0.33093181583E+02  0.17384754111E+03  0.17733504477E+03  0.00000000000E+00 0.  1.
         21    1    1    2  503  502  0.70975646824E+02  0.82641047426E+01  0.21772288680E+03  0.22914862711E+03  0.00000000000E+00 0. -1.
          1    1    1    2  501    0 -0.22082068546E+02  0.34503013450E+02 -0.10514478286E+02  0.42292197176E+02  0.00000000000E+00 0. -1.
<scales pt_clust_5="13000.00000" pt_clust_6="13000.00000" pt_clust_7="13000.00000" pt_clust_8="13000.00000" pt_clust_9="69.22660" pt_clust_10="40.96432"></scales>
<clustering>
<clus scale="   40.964">  2 10  1 -1</clus>
<clus scale="   69.227">  1  9  2 -1</clus>
<clus scale="   87.101">  5  6 -1 -1</clus>
<clus scale="   92.096">  7  8 -1 -1</clus>
<clus scale="  130.898">  2  5  1 -1</clus>
<clus scale="   40.964">  2  5  1 -1</clus>
</clustering>
</event>
<event>
10    4  0.2857708E-005  0.3133940E+03  0.7546771E-02  0.1079037E+00
         21   -1    0    0  501  502  0.00000000000E+00  0.00000000000E+00  0.18766800969E+03  0.18766800969E+03  0.00000000000E+00 0.  1.
          2   -1    0    0  503    0 -0.00000000000E+00 -0.00000000000E+00 -0.16217732751E+04  0.16217732751E+04  0.00000000000E+00 0. -1.
         23    2    1    2    0    0  0.22741315522E+03  0.75368260811E+02 -0.37625093607E+03  0.45500141872E+03  0.89802039170E+02 0.  0.
         24    2    1    2    0    0 -0.44570427583E+03 -0.15011047162E+03 -0.32455086567E+03  0.57703729907E+03  0.80332589389E+02 0.  0.
        -13    1    4    4    0    0 -0.35513413430E+03 -0.84392967093E+02 -0.24142049539E+03  0.43763715774E+03  0.00000000000E+00 0.  1.
         14    1    4    4    0    0 -0.90570141533E+02 -0.65717504523E+02 -0.83130370286E+02  0.13940014133E+03  0.00000000000E+00 0. -1.
        -13    1    3    3    0    0  0.34063427085E+02  0.49822215171E+02 -0.10101091077E+03  0.11766806824E+03  0.00000000000E+00 0.  1.
         13    1    3    3    0    0  0.19334972813E+03  0.25546045640E+02 -0.27524002530E+03  0.33733335048E+03  0.00000000000E+00 0. -1.
         21    1    1    2  503  502  0.24586957932E+02 -0.25193973058E+02 -0.58549565147E+02  0.68317687005E+02  0.00000000000E+00 0.  1.
          1    1    1    2  501    0  0.19370416269E+03  0.99936183863E+02 -0.67475389850E+03  0.70908487999E+03  0.00000000000E+00 0. -1.
<scales pt_clust_5="13000.00000" pt_clust_6="13000.00000" pt_clust_7="13000.00000" pt_clust_8="13000.00000" pt_clust_9="35.20305" pt_clust_10="223.03888"></scales>
<clustering>
<clus scale="   35.203">  2  9  1 -1</clus>
<clus scale="   80.333">  5  6 -1 -1</clus>
<clus scale="   89.802">  7  8 -1 -1</clus>
<clus scale="  223.039">  1 10  2 -1</clus>
<clus scale="  310.813">  1  5  2 -1</clus>
<clus scale="  223.039">  1  5  2 -1</clus>
</clustering>
</event>
<event>
10    4  0.2857708E-005  0.9157096E+02  0.7546771E-02  0.1305847E+00
         21   -1    0    0  503  502  0.00000000000E+00  0.00000000000E+00  0.27030588395E+03  0.27030588395E+03  0.00000000000E+00 0. -1.
         -1   -1    0    0    0  501 -0.00000000000E+00 -0.00000000000E+00 -0.83322793347E+02  0.83322793347E+02  0.00000000000E+00 0.  1.
         23    2    1    2    0    0  0.14413679345E+02 -0.51321307261E+01  0.20459227330E+02  0.94061259568E+02  0.90525397820E+02 0.  0.
         24    2    1    2    0    0  0.20747772467E+02 -0.37425851772E+02  0.15633008563E+03  0.18061749308E+03  0.79702062018E+02 0.  0.
        -13    1    4    4    0    0  0.45788788139E+02 -0.44048013408E+02  0.97986118832E+02  0.11678236206E+03  0.00000000000E+00 0.  1.
         14    1    4    4    0    0 -0.25041015672E+02  0.66221616356E+01  0.58343966801E+02  0.63835131023E+02  0.00000000000E+00 0. -1.
        -11    1    3    3    0    0  0.30005693627E+02  0.30972480077E+02  0.31278442051E+02  0.53272667563E+02  0.00000000000E+00 0.  1.
         11    1    3    3    0    0 -0.15592014281E+02 -0.36104610803E+02 -0.10819214721E+02  0.40788592005E+02  0.00000000000E+00 0. -1.
         21    1    1    2  503  501 -0.10393828772E+02  0.17751977182E+02 -0.22871780380E+02  0.30761708473E+02  0.00000000000E+00 0.  1.
         -2    1    1    2    0  502 -0.24767623040E+02  0.24806005317E+02  0.33065558021E+02  0.48188216174E+02  0.00000000000E+00 0.  1.
<scales pt_clust_5="13000.00000" pt_clust_6="13000.00000" pt_clust_7="13000.00000" pt_clust_8="13000.00000" pt_clust_9="20.57096" pt_clust_10="37.72397"></scales>
<clustering>
<clus scale="   20.571">  2  9  1 -1</clus>
<clus scale="   37.724">  1 10  2 -1</clus>
<clus scale="   79.702">  5  6 -1 -1</clus>
<clus scale="   80.888">  1  5  2 -1</clus>
<clus scale="   90.525">  7  8 -1 -1</clus>
<clus scale="   37.724">  1  5  2 -1</clus>
</clustering>
</event>
<event>
10    4  0.2857708E-005  0.1132969E+03  0.7546771E-02  0.1258343E+00
          2   -1    0    0  503    0 -0.00000000000E+00  0.00000000000E+00  0.68624587709E+03  0.68624587709E+03  0.00000000000E+00 0. -1.
         21   -1    0    0  501  502  0.00000000000E+00 -0.00000000000E+00 -0.93519132276E+02  0.93519132276E+02  0.00000000000E+00 0.  1.
         24    2    1    2    0    0 -0.53976628686E+02  0.78628094082E+01  0.21667942066E+03  0.23750911350E+03  0.80531406565E+02 0.  0.
         23    2    1    2    0    0  0.12137058225E+03  0.25875582762E+02  0.63559517880E+01  0.15394403784E+03  0.90873564061E+02 0.  0.
        -11    1    3    3    0    0 -0.71739589068E+02  0.12578280782E+02  0.13104914841E+03  0.14992885342E+03  0.00000000000E+00 0.  1.
         12    1    3    3    0    0  0.17762960381E+02 -0.47154713741E+01  0.85630272242E+02  0.87580260082E+02  0.00000000000E+00 0. -1.
        -13    1    4    4    0    0  0.48301435848E+02  0.12807042934E+02  0.47611542001E+02  0.69021069142E+02  0.00000000000E+00 0. -1.
         13    1    4    4    0    0  0.73069146402E+02  0.13068539828E+02 -0.41255590213E+02  0.84922968701E+02  0.00000000000E+00 0.  1.
         21    1    1    2  503  502 -0.37929582892E+01 -0.52254455244E+02  0.17365851139E+03  0.18138961713E+03  0.00000000000E+00 0. -1.
          1    1    1    2  501    0 -0.63600995274E+02  0.18516063074E+02  0.19603286098E+03  0.20692224089E+03  0.00000000000E+00 0. -1.
<scales pt_clust_5="13000.00000" pt_clust_6="13000.00000" pt_clust_7="13000.00000" pt_clust_8="13000.00000" pt_clust_9="52.39193" pt_clust_10="65.13968"></scales>
<clustering>
<clus scale="   52.392">  1  9  2 -1</clus>
<clus scale="   65.140">  2 10  1 -1</clus>
<clus scale="   80.531">  5  6 -1 -1</clus>
<clus scale="   90.874">  7  8 -1 -1</clus>
<clus scale="  105.183">  1  5  2 -1</clus>
<clus scale="   65.140">  2  5  1 -1</clus>
</clustering>
</event>
<event>
10    4  0.2857708E-005  0.1655307E+03  0.7546771E-02  0.1208162E+00
          2   -1    0    0  503    0 -0.00000000000E+00  0.00000000000E+00  0.49993151696E+03  0.49993151696E+03  0.00000000000E+00 0. -1.
         21   -1    0    0  501  502  0.00000000000E+00 -0.00000000000E+00 -0.14129222726E+03  0.14129222726E+03  0.00000000000E+00 0. -1.
         24    2    1    2    0    0  0.17946579226E+02  0.47325960613E+02 -0.48463776235E+02  0.10699510494E+03  0.80854119375E+02 0.  0.
         23    2    1    2    0    0  0.12253871107E+03  0.19785900860E+02  0.15369419751E+03  0.21706292610E+03  0.89928804933E+02 0.  0.
        -11    1    3    3    0    0  0.22159123285E+02 -0.17682879507E+02 -0.52815504744E+01  0.28837575277E+02  0.00000000000E+00 0.  1.
         12    1    3    3    0    0 -0.42125440596E+01  0.65008840120E+02 -0.43182225761E+02  0.78157529662E+02  0.00000000000E+00 0. -1.
        -11    1    4    4    0    0  0.17257494705E+02  0.10569553825E+02  0.93029769998E+02  0.95205434180E+02  0.00000000000E+00 0.  1.
         11    1    4    4    0    0  0.10528121637E+03  0.92163470347E+01  0.60664427510E+02  0.12185749192E+03  0.00000000000E+00 0. -1.
         21    1    1    2  503  502  0.12059098054E+02 -0.29994650841E+02  0.59049090220E+02  0.67319358143E+02  0.00000000000E+00 0. -1.
          1    1    1    2  501    0 -0.15254438835E+03 -0.37117210631E+02  0.19435977821E+03  0.24984635504E+03  0.00000000000E+00 0. -1.
<scales pt_clust_5="13000.00000" pt_clust_6="13000.00000" pt_clust_7="13000.00000" pt_clust_8="13000.00000" pt_clust_9="32.32802" pt_clust_10="138.97206"></scales>
<clustering>
<clus scale="   32.328">  1  9  2 -1</clus>
<clus scale="   80.854">  5  6 -1 -1</clus>
<clus scale="   89.929">  7  8 -1 -1</clus>
<clus scale="   94.566">  1  5  2 -1</clus>
<clus scale="  138.972">  2 10  1 -1</clus>
<clus scale="  138.972">  2  5  1 -1</clus>
</clustering>
</event>
<event>
10    4  0.2857708E-005  0.2463945E+03  0.7546771E-02  0.1131315E+00
          2   -1    0    0  503    0 -0.00000000000E+00  0.00000000000E+00  0.24115033321E+03  0.24115033321E+03  0.00000000000E+00 0. -1.
         21   -1    0    0  501  502  0.00000000000E+00 -0.00000000000E+00 -0.87932450946E+03  0.87932450946E+03  0.00000000000E+00 0.  1.
         23    2    1    2    0    0  0.12896123053E+03 -0.32342499461E+02 -0.31348640863E+03  0.35333606017E+03  0.94316524368E+02 0.  0.
         24    2    1    2    0    0  0.14354804756E+03  0.80820653218E+02 -0.46406251756E+02  0.18821901268E+03  0.78325197669E+02 0.  0.
        -13    1    4    4    0    0  0.29734282770E+02  0.16433314290E+02 -0.46334222789E+02  0.57454691643E+02  0.00000000000E+00 0.  1.
         14    1    4    4    0    0  0.11381376479E+03  0.64387338928E+02 -0.72028967452E-01  0.13076432104E+03  0.00000000000E+00 0. -1.
        -13    1    3    3    0    0  0.11638633666E+03  0.68407861801E+01 -0.26644106372E+03  0.29083228182E+03  0.00000000000E+00 0.  1.
         13    1    3    3    0    0  0.12574893876E+02 -0.39183285641E+02 -0.47045344913E+02  0.62503778347E+02  0.00000000000E+00 0. -1.
         21    1    1    2  503  502  0.21311635083E+02 -0.45314953320E+02  0.92884053922E+02  0.10552288025E+03  0.00000000000E+00 0. -1.
          1    1    1    2  501    0 -0.29382091318E+03 -0.31632004363E+01 -0.37116556978E+03  0.47339688956E+03  0.00000000000E+00 0. -1.
<scales pt_clust_5="13000.00000" pt_clust_6="13000.00000" pt_clust_7="13000.00000" pt_clust_8="13000.00000" pt_clust_9="50.07625" pt_clust_10="233.61384"></scales>
<clustering>
<clus scale="   50.076">  1  9  2 -1</clus>
<clus scale="   78.325">  5  6 -1 -1</clus>
<clus scale="   94.317">  7  8 -1 -1</clus>
<clus scale="  166.749">  1  7  2 -1</clus>
<clus scale="  233.614">  2 10  1 -1</clus>
<clus scale="  233.614">  2  5  1 -1</clus>
</clustering>
</event>
<event>
10    4  0.2857708E-005  0.1434857E+03  0.7546771E-02  0.1236246E+00
          2   -1    0    0  503    0 -0.00000000000E+00  0.00000000000E+00  0.21249025868E+03  0.21249025868E+03  0.00000000000E+00 0. -1.
         21   -1    0    0  501  502  0.00000000000E+00 -0.00000000000E+00 -0.36605475983E+03  0.36605475983E+03  0.00000000000E+00 0. -1.
         24    2    1    2    0    0  0.13278944332E+01 -0.22162165468E+01  0.65758698061E+02  0.10408355859E+03  0.80638116790E+02 0.  0.
         23    2    1    2    0    0 -0.99842560180E+02 -0.19217706630E+02 -0.89345620550E+02  0.16610940332E+03  0.96290377959E+02 0.  0.
        -11    1    3    3    0    0  0.12118722348E+02  0.34687025029E+02  0.13370067356E+02  0.39100023502E+02  0.00000000000E+00 0.  1.
         12    1    3    3    0    0 -0.10790827915E+02 -0.36903241576E+02  0.52388630705E+02  0.64983535092E+02  0.00000000000E+00 0. -1.
        -13    1    4    4    0    0 -0.84571276706E+02 -0.50291672538E+02 -0.40885847782E+02  0.10655142289E+03  0.00000000000E+00 0. -1.
         13    1    4    4    0    0 -0.15271283474E+02  0.31073965908E+02 -0.48459772768E+02  0.59557980430E+02  0.00000000000E+00 0.  1.
         21    1    1    2  503  502  0.49856678037E+02 -0.10011211313E+03  0.15189755150E+02  0.11286652384E+03  0.00000000000E+00 0. -1.
          1    1    1    2  501    0  0.48657987710E+02  0.12154603631E+03 -0.14516733381E+03  0.19548553276E+03  0.00000000000E+00 0. -1.
<scales pt_clust_5="13000.00000" pt_clust_6="13000.00000" pt_clust_7="13000.00000" pt_clust_8="13000.00000" pt_clust_9="113.13258" pt_clust_10="106.37811"></scales>
<clustering>
<clus scale="   80.638">  5  6 -1 -1</clus>
<clus scale="   80.679">  1  5  2 -1</clus>
<clus scale="   96.290">  7  8 -1 -1</clus>
<clus scale="  113.133">  1  9  2 -1</clus>
<clus scale="  106.378">  2 10  1 -1</clus>
<clus scale="  106.378">  2  5  1 -1</clus>
</clustering>
</event>
<event>
10    4  0.2857708E-005  0.2228599E+03  0.7546771E-02  0.1132542E+00
         21   -1    0    0  503  502  0.00000000000E+00  0.00000000000E+00  0.30388369486E+03  0.30388369486E+03  0.00000000000E+00 0. -1.
         -1   -1    0    0    0  501 -0.00000000000E+00 -0.00000000000E+00 -0.39842408428E+03  0.39842408428E+03  0.00000000000E+00 0.  1.
         24    2    1    2    0    0  0.92194899014E+02  0.16736126256E+03 -0.18493016480E+03  0.27770573837E+03  0.80072589933E+02 0.  0.
         23    2    1    2    0    0 -0.73007900814E+02 -0.16597433051E+03  0.10567059906E+03  0.22869333228E+03  0.90866565665E+02 0.  0.
        -11    1    3    3    0    0  0.68465284531E+02  0.88377773545E+02 -0.15249811656E+03  0.18908675680E+03  0.00000000000E+00 0.  1.
         12    1    3    3    0    0  0.23729614482E+02  0.78983489016E+02 -0.32432048237E+02  0.88618981564E+02  0.00000000000E+00 0. -1.
        -13    1    4    4    0    0 -0.68836794252E+02 -0.65457557745E+02  0.21193838999E+02  0.97326126607E+02  0.00000000000E+00 0.  1.
         13    1    4    4    0    0 -0.41711065622E+01 -0.10051677276E+03  0.84476760058E+02  0.13136720567E+03  0.00000000000E+00 0. -1.
         21    1    1    2  503  501  0.43570312560E+02  0.10812208267E+02 -0.88178474580E+02  0.98948063970E+02  0.00000000000E+00 0.  1.
         -2    1    1    2    0  502 -0.62757310759E+02 -0.12199140322E+02  0.72897650908E+02  0.96960644523E+02  0.00000000000E+00 0.  1.
<scales pt_clust_5="13000.00000" pt_clust_6="13000.00000" pt_clust_7="13000.00000" pt_clust_8="13000.00000" pt_clust_9="44.89183" pt_clust_10="62.16270"></scales>
<clustering>
<clus scale="   44.892">  2  9  1 -1</clus>
<clus scale="   62.163">  1 10  2 -1</clus>
<clus scale="   80.073">  5  6 -1 -1</clus>
<clus scale="   90.867">  7  8 -1 -1</clus>
<clus scale="  218.681">  2  5  1 -1</clus>
<clus scale="   62.163">  1  5  2 -1</clus>
</clustering>
</event>
<event>
10    4  0.2857708E-005  0.2571704E+03  0.7546771E-02  0.1146167E+00
         -3   -1    0    0    0  501 -0.00000000000E+00  0.00000000000E+00  0.10684844148E+03  0.10684844148E+03  0.00000000000E+00 0.  1.
         21   -1    0    0  501  502  0.00000000000E+00 -0.00000000000E+00 -0.11888250696E+04  0.11888250696E+04  0.00000000000E+00 0.  1.
         23    2    1    2    0    0  0.51838091796E+02 -0.20229951233E+02 -0.55623390498E+02  0.11654202391E+03  0.85974665333E+02 0.  0.
         24    2    1    2    0    0 -0.22312379738E+02  0.24828412638E+03 -0.84271641772E+03  0.88280066057E+03  0.83804510128E+02 0.  0.
        -13    1    4    4    0    0  0.34275977339E+01  0.20903398402E+03 -0.75382332237E+03  0.78227652160E+03  0.00000000000E+00 0.  1.
         14    1    4    4    0    0 -0.25739977472E+02  0.39250142361E+02 -0.88893095349E+02  0.10052413897E+03  0.00000000000E+00 0. -1.
        -11    1    3    3    0    0  0.69448260984E+02  0.71298975243E+01 -0.39796819030E+02  0.80359711282E+02  0.00000000000E+00 0.  1.
         11    1    3    3    0    0 -0.17610169188E+02 -0.27359848757E+02 -0.15826571468E+02  0.36182312630E+02  0.00000000000E+00 0. -1.
         21    1    1    2  503  502 -0.74923421781E+01 -0.10836220133E+03 -0.66187652150E+02  0.12719790551E+03  0.00000000000E+00 0. -1.
         -4    1    1    2    0  503 -0.22033369879E+02 -0.11969197381E+03 -0.11744916773E+03  0.16913292106E+03  0.00000000000E+00 0.  1.
<scales pt_clust_5="13000.00000" pt_clust_6="13000.00000" pt_clust_7="13000.00000" pt_clust_8="13000.00000" pt_clust_9="32.84881" pt_clust_10="245.60639"></scales>
<clustering>
<clus scale="   32.849">  9 10 -1 -1</clus>
<clus scale="   83.805">  5  6 -1 -1</clus>
<clus scale="   85.975">  7  8 -1 -1</clus>
<clus scale="  102.411">  1  7  2 -1</clus>
<clus scale="  245.606">  2  9  1 -1</clus>
<clus scale="  245.606">  2  5  1 -1</clus>
</clustering>
</event>
<event>
10    4  0.2857708E-005  0.2721581E+03  0.7546771E-02  0.1114497E+00
         21   -1    0    0  503  502  0.00000000000E+00  0.00000000000E+00  0.17988467383E+03  0.17988467383E+03  0.00000000000E+00 0.  1.
         -1   -1    0    0    0  501 -0.00000000000E+00 -0.00000000000E+00 -0.88537944918E+03  0.88537944918E+03  0.00000000000E+00 0.  1.
         23    2    1    2    0    0 -0.24333454692E+01 -0.16497479003E+03 -0.19721377476E+03  0.27592395405E+03  0.10009072359E+03 0.  0.
         24    2    1    2    0    0  0.20923309342E+03 -0.44543160982E+02 -0.36467946705E+03  0.43056698728E+03  0.81450821188E+02 0.  0.
        -13    1    4    4    0    0  0.14593426754E+03 -0.51316082232E+02 -0.31078794741E+03  0.34715889588E+03  0.00000000000E+00 0.  1.
         14    1    4    4    0    0  0.63298825886E+02  0.67729212499E+01 -0.53891519644E+02  0.83408091396E+02  0.00000000000E+00 0. -1.
        -11    1    3    3    0    0  0.19053241959E+02 -0.15470395293E+03 -0.19812544534E+03  0.25209131514E+03  0.00000000000E+00 0.  1.
         11    1    3    3    0    0 -0.21486587428E+02 -0.10270837098E+02  0.91167057425E+00  0.23832638907E+02  0.00000000000E+00 0. -1.
         21    1    1    2  503  501  0.17669829014E+02  0.20761919743E+02 -0.38604927360E+02  0.47261195343E+02  0.00000000000E+00 0. -1.
         -2    1    1    2    0  502 -0.22446957697E+03  0.18875603126E+03 -0.10499660618E+03  0.31151198634E+03  0.00000000000E+00 0.  1.
<scales pt_clust_5="13000.00000" pt_clust_6="13000.00000" pt_clust_7="13000.00000" pt_clust_8="13000.00000" pt_clust_9="27.26317" pt_clust_10="259.68403"></scales>
<clustering>
<clus scale="   27.263">  2  9  1 -1</clus>
<clus scale="   81.451">  5  6 -1 -1</clus>
<clus scale="  100.091">  7  8 -1 -1</clus>
<clus scale="  188.020">  2  7  1 -1</clus>
<clus scale="  259.684">  1 10  2 -1</clus>
<clus scale="  259.684">  1  5  2 -1</clus>
</clustering>
</event>
<event>
10    4  0.2857708E-005  0.1056644E+03  0.7546771E-02  0.1276237E+00
         21   -1    0    0  501  502  0.00000000000E+00  0.00000000000E+00  0.27412079270E+02  0.27412079270E+02  0.00000000000E+00 0.  1.
          2   -1    0    0  503    0 -0.00000000000E+00 -0.00000000000E+00 -0.72132512143E+03  0.72132512143E+03  0.00000000000E+00 0. -1.
         24    2    1    2    0    0  0.45908006868E+02  0.31886584750E+02 -0.32220310196E+03  0.33638341241E+03  0.78833126641E+02 0.  0.
         23    2    1    2    0    0 -0.35089496752E+01 -0.42127319162E+02 -0.21765544026E+03  0.24114630351E+03  0.94818907779E+02 0.  0.
        -11    1    3    3    0    0  0.61385429062E+02  0.55402749464E+00 -0.21785427458E+03  0.22633816028E+03  0.00000000000E+00 0.  1.
         12    1    3    3    0    0 -0.15477422194E+02  0.31332557255E+02 -0.10434882738E+03  0.11004525213E+03  0.00000000000E+00 0. -1.
        -11    1    4    4    0    0 -0.37091515850E+02 -0.30155875347E+02 -0.47845268302E+02  0.67633771630E+02  0.00000000000E+00 0.  1.
         11    1    4    4    0    0  0.33582566175E+02 -0.11971443816E+02 -0.16981017196E+03  0.17351253188E+03  0.00000000000E+00 0. -1.
         21    1    1    2  503  502  0.86622001507E+01  0.20657615984E+02 -0.51923527738E+02  0.56549301873E+02  0.00000000000E+00 0. -1.
          1    1    1    2  501    0 -0.51061257344E+02 -0.10416881571E+02 -0.10213097220E+03  0.11465818290E+03  0.00000000000E+00 0. -1.
<scales pt_clust_5="13000.00000" pt_clust_6="13000.00000" pt_clust_7="13000.00000" pt_clust_8="13000.00000" pt_clust_9="22.40024" pt_clust_10="49.18184"></scales>
<clustering>
<clus scale="   22.400">  1  9  2 -1</clus>
<clus scale="   49.182">  1 10  2 -1</clus>
<clus scale="   78.833">  5  6 -1 -1</clus>
<clus scale="   91.591">  2  5  1 -1</clus>
<clus scale="   94.819">  7  8 -1 -1</clus>
<clus scale="   22.400">  1  5  2 -1</clus>
</clustering>
</event>
<event>
10    4  0.2857708E-005  0.1668896E+03  0.7546771E-02  0.1182265E+00
          2   -1    0    0  503    0 -0.00000000000E+00  0.00000000000E+00  0.74553119239E+03  0.74553119239E+03  0.00000000000E+00 0. -1.
         21   -1    0    0  501  502  0.00000000000E+00 -0.00000000000E+00 -0.29560100067E+03  0.29560100067E+03  0.00000000000E+00 0. -1.
         23    2    1    2    0    0  0.91874026697E+02  0.10706579147E+03  0.57334842255E+03  0.59750981810E+03  0.91573187083E+02 0.  0.
         24    2    1    2    0    0 -0.87615833920E+02 -0.10081613414E+03  0.88404542892E+02  0.18072443510E+03  0.83699050059E+02 0.  0.
        -13    1    4    4    0    0 -0.99385873915E+02 -0.10449172533E+03  0.75126538430E+02  0.16260402631E+03  0.00000000000E+00 0.  1.
         14    1    4    4    0    0  0.11770039995E+02  0.36755911894E+01  0.13278004462E+02  0.18120408786E+02  0.00000000000E+00 0. -1.
        -11    1    3    3    0    0  0.75940316673E+02  0.20824186260E+02  0.22864139019E+03  0.24182113998E+03  0.00000000000E+00 0.  1.
         11    1    3    3    0    0  0.15933710024E+02  0.86241605214E+02  0.34470703236E+03  0.35568867812E+03  0.00000000000E+00 0. -1.
         21    1    1    2  503  502 -0.31471020706E+02  0.36853818298E+01  0.14416434763E+02  0.34811503483E+02  0.00000000000E+00 0.  1.
          1    1    1    2  501    0  0.27212827929E+02 -0.99350391659E+01 -0.22623920848E+03  0.22808643638E+03  0.00000000000E+00 0. -1.
<scales pt_clust_5="13000.00000" pt_clust_6="13000.00000" pt_clust_7="13000.00000" pt_clust_8="13000.00000" pt_clust_9="27.50474" pt_clust_10="28.96969"></scales>
<clustering>
<clus scale="   28.970">  2 10  1 -1</clus>
<clus scale="   27.505">  2  9  1 -1</clus>
<clus scale="   83.699">  5  6 -1 -1</clus>
<clus scale="   91.573">  7  8 -1 -1</clus>
<clus scale="  162.702">  2  5  1 -1</clus>
<clus scale="   28.970">  2  5  1 -1</clus>
</clustering>
</event>
<event>
10    4  0.2857708E-005  0.1525256E+03  0.7546771E-02  0.1225433E+00
          2   -1    0    0  503    0 -0.00000000000E+00  0.00000000000E+00  0.80920306811E+03  0.80920306811E+03  0.00000000000E+00 0. -1.
         21   -1    0    0  501  502  0.00000000000E+00 -0.00000000000E+00 -0.10853772188E+03  0.10853772188E+03  0.00000000000E+00 0.  1.
         24    2    1    2    0    0  0.22993593347E+02  0.15614227967E+02  0.34112875047E+01  0.84248223336E+02  0.79458270827E+02 0.  0.
         23    2    1    2    0    0  0.10698040063E+03 -0.53033132510E+02  0.38797252000E+02  0.15470280786E+03  0.90390335394E+02 0.  0.
        -13    1    3    3    0    0  0.13008837289E+02  0.36736418618E+02 -0.25878855620E+02  0.46781507765E+02  0.00000000000E+00 0.  1.
         14    1    3    3    0    0  0.99847560574E+01 -0.21122190651E+02  0.29290143125E+02  0.37466715571E+02  0.00000000000E+00 0. -1.
        -11    1    4    4    0    0 -0.46151809183E+01 -0.28427232992E+02  0.27583193772E+02  0.39877813997E+02  0.00000000000E+00 0. -1.
         11    1    4    4    0    0  0.11159558155E+03 -0.24605899519E+02  0.11214058227E+02  0.11482499386E+03  0.00000000000E+00 0.  1.
         21    1    1    2  503  502  0.48187480483E-01 -0.20833541796E+02  0.12039749196E+03  0.12218672127E+03  0.00000000000E+00 0.  1.
          1    1    1    2  501    0 -0.13002218146E+03  0.58252446339E+02  0.53805931477E+03  0.55660303753E+03  0.00000000000E+00 0. -1.
<scales pt_clust_5="13000.00000" pt_clust_6="13000.00000" pt_clust_7="13000.00000" pt_clust_8="13000.00000" pt_clust_9="20.83360" pt_clust_10="122.85621"></scales>
<clustering>
<clus scale="   20.834">  1  9  2 -1</clus>
<clus scale="   79.458">  5  6 -1 -1</clus>
<clus scale="   83.944">  1  5  2 -1</clus>
<clus scale="   90.390">  7  8 -1 -1</clus>
<clus scale="  122.856">  2 10  1 -1</clus>
<clus scale="  122.856">  2  5  1 -1</clus>
</clustering>
</event>
<event>
10    4  0.2857708E-005  0.1098120E+03  0.7546771E-02  0.1265810E+00
          2   -1    0    0  503    0 -0.00000000000E+00  0.00000000000E+00  0.78950908519E+03  0.78950908519E+03  0.00000000000E+00 0. -1.
         21   -1    0    0  501  502  0.00000000000E+00 -0.00000000000E+00 -0.37580485550E+02  0.37580485550E+02  0.00000000000E+00 0.  1.
         24    2    1    2    0    0  0.20223386474E+02  0.25657492067E+02  0.49656894135E+03  0.50411747962E+03  0.80538360329E+02 0.  0.
         23    2    1    2    0    0 -0.48224581747E+02 -0.51715657298E+02  0.11654069344E+03  0.16482534626E+03  0.92658200115E+02 0.  0.
        -13    1    3    3    0    0 -0.31205935153E+02  0.56543511431E+01  0.17664992594E+03  0.17947417199E+03  0.00000000000E+00 0.  1.
         14    1    3    3    0    0  0.51429321627E+02  0.20003140924E+02  0.31991901541E+03  0.32464330763E+03  0.00000000000E+00 0. -1.
        -13    1    4    4    0    0 -0.19575711348E+02 -0.43864126292E+02  0.37406332735E+01  0.48179480979E+02  0.00000000000E+00 0.  1.
         13    1    4    4    0    0 -0.28648870399E+02 -0.78515310065E+01  0.11280006016E+03  0.11664586528E+03  0.00000000000E+00 0. -1.
         21    1    1    2  503  502  0.86503715058E+01  0.33922847809E+02  0.13139481532E+03  0.13597862341E+03  0.00000000000E+00 0. -1.
          1    1    1    2  501    0  0.19350823767E+02 -0.78646825777E+01  0.74241495327E+01  0.22168121454E+02  0.00000000000E+00 0. -1.
<scales pt_clust_5="13000.00000" pt_clust_6="13000.00000" pt_clust_7="13000.00000" pt_clust_8="13000.00000" pt_clust_9="34.82839" pt_clust_10="20.88798"></scales>
<clustering>
<clus scale="   20.888">  2 10  1 -1</clus>
<clus scale="   34.828">  1  9  2 -1</clus>
<clus scale="   80.538">  5  6 -1 -1</clus>
<clus scale="   92.658">  7  8 -1 -1</clus>
<clus scale="   99.798">  1  5  2 -1</clus>
<clus scale="   20.888">  2  5  1 -1</clus>
</clustering>
</event>
<event>
10    4  0.2857708E-005  0.9609967E+02  0.7546771E-02  0.1307013E+00
         21   -1    0    0  501  502  0.00000000000E+00  0.00000000000E+00  0.69396076137E+02  0.69396076137E+02  0.00000000000E+00 0. -1.
          2   -1    0    0  503    0 -0.00000000000E+00 -0.00000000000E+00 -0.30737692809E+03  0.30737692809E+03  0.00000000000E+00 0. -1.
         24    2    1    2    0    0  0.32446460799E+02 -0.19886281461E+02 -0.16249399178E+03  0.17665857612E+03  0.57928560670E+02 0.  0.
         23    2    1    2    0    0 -0.28538813002E+02  0.10750367605E+02 -0.39287348639E+02  0.10183802466E+03  0.88867616444E+02 0.  0.
        -13    1    3    3    0    0  0.43267448816E+02 -0.78926772610E+01 -0.69324091969E+02  0.82098697972E+02  0.00000000000E+00 0.  1.
         14    1    3    3    0    0 -0.10820988017E+02 -0.11993604200E+02 -0.93169899815E+02  0.94559878146E+02  0.00000000000E+00 0. -1.
        -13    1    4    4    0    0 -0.58658620019E+01  0.48587224004E+02 -0.13603925649E+02  0.50795604795E+02  0.00000000000E+00 0.  1.
         13    1    4    4    0    0 -0.22672951000E+02 -0.37836856399E+02 -0.25683422990E+02  0.51042419865E+02  0.00000000000E+00 0. -1.
         21    1    1    2  503  502 -0.38059417532E+02 -0.12719904193E+01 -0.47451983309E+02  0.60842649043E+02  0.00000000000E+00 0. -1.
          1    1    1    2  501    0  0.34151769735E+02  0.10407904275E+02  0.11252471784E+02  0.37433754402E+02  0.00000000000E+00 0. -1.
<scales pt_clust_5="13000.00000" pt_clust_6="13000.00000" pt_clust_7="13000.00000" pt_clust_8="13000.00000" pt_clust_9="32.98526" pt_clust_10="35.70249"></scales>
<clustering>
<clus scale="   35.702">  1 10  2 -1</clus>
<clus scale="   32.985">  1  9  2 -1</clus>
<clus scale="   57.929">  5  6 -1 -1</clus>
<clus scale="   68.508">  2  5  1 -1</clus>
<clus scale="   88.868">  7  8 -1 -1</clus>
<clus scale="   35.702">  1  5  2 -1</clus>
</clustering>
</event>
<event>
10    4  0.2857708E-005  0.1082139E+03  0.7546771E-02  0.1268177E+00
         -1   -1    0    0    0  501 -0.00000000000E+00  0.00000000000E+00  0.45442450726E+03  0.45442450726E+03  0.00000000000E+00 0.  1.
         21   -1    0    0  503  502  0.00000000000E+00 -0.00000000000E+00 -0.35834497548E+03  0.35834497548E+03  0.00000000000E+00 0.  1.
         24    2    1    2    0    0 -0.27368245215E+02 -0.25891456530E+02  0.30048300474E+03  0.31353686605E+03  0.81215404127E+02 0.  0.
         23    2    1    2    0    0  0.38002681246E+02 -0.12234524520E+02 -0.51415939324E+02  0.11235789210E+03  0.91579526795E+02 0.  0.
        -11    1    3    3    0    0 -0.27190688046E+02  0.22685582095E+02  0.18321251629E+03  0.18660330993E+03  0.00000000000E+00 0.  1.
         12    1    3    3    0    0 -0.17755716871E+00 -0.48577038625E+02  0.11727048846E+03  0.12693355613E+03  0.00000000000E+00 0. -1.
        -11    1    4    4    0    0  0.64999110720E+02 -0.68497258788E+01 -0.15617669279E+02  0.67199067945E+02  0.00000000000E+00 0. -1.
         11    1    4    4    0    0 -0.26996429473E+02 -0.53847986409E+01 -0.35798270044E+02  0.45158824153E+02  0.00000000000E+00 0.  1.
         21    1    1    2  503  501 -0.23301926730E+02 -0.15098075614E+02  0.11246553683E+03  0.11584225762E+03  0.00000000000E+00 0.  1.
         -2    1    1    2    0  502  0.12667490699E+02  0.53224056664E+02 -0.26545307047E+03  0.27103246696E+03  0.00000000000E+00 0.  1.
<scales pt_clust_5="13000.00000" pt_clust_6="13000.00000" pt_clust_7="13000.00000" pt_clust_8="13000.00000" pt_clust_9="27.76566" pt_clust_10="54.54632"></scales>
<clustering>
<clus scale="   27.766">  1  9  2 -1</clus>
<clus scale="   54.546">  2 10  1 -1</clus>
<clus scale="   81.215">  5  6 -1 -1</clus>
<clus scale="   91.580">  7  8 -1 -1</clus>
<clus scale="   99.596">  1  5  2 -1</clus>
<clus scale="   54.546">  2  5  1 -1</clus>
</clustering>
</event>
<event>
10    4  0.2857708E-005  0.1153612E+03  0.7546771E-02  0.1253970E+00
         -1   -1    0    0    0  501 -0.00000000000E+00  0.00000000000E+00  0.23804443881E+03  0.23804443881E+03  0.00000000000E+00 0.  1.
         21   -1    0    0  503  502  0.00000000000E+00 -0.00000000000E+00 -0.22337580937E+03  0.22337580937E+03  0.00000000000E+00 0. -1.
         23    2    1    2    0    0  0.51660464574E+02  0.66488401489E+02  0.11546099823E+02  0.12506846704E+03  0.91756732142E+02 0.  0.
         24    2    1    2    0    0 -0.55440939858E+02 -0.25453851014E+02 -0.63362293153E+02  0.12103552880E+03  0.83145791800E+02 0.  0.
        -13    1    4    4    0    0 -0.53336306430E+01 -0.45828347607E+02 -0.15106831793E+02  0.48547929174E+02  0.00000000000E+00 0.  1.
         14    1    4    4    0    0 -0.50107309215E+02  0.20374496593E+02 -0.48255461360E+02  0.72487599624E+02  0.00000000000E+00 0. -1.
        -11    1    3    3    0    0 -0.10247388275E+02  0.40218407439E+02  0.34539394028E+02  0.53995360941E+02  0.00000000000E+00 0. -1.
         11    1    3    3    0    0  0.61907852849E+02  0.26269994050E+02 -0.22993294204E+02  0.71073106096E+02  0.00000000000E+00 0.  1.
         21    1    1    2  503  501 -0.20598989719E+02  0.11722846051E+01  0.13203105699E+03  0.13363342635E+03  0.00000000000E+00 0. -1.
         -2    1    1    2    0  502  0.24379465003E+02 -0.42206835080E+02 -0.65546234222E+02  0.81682825992E+02  0.00000000000E+00 0.  1.
<scales pt_clust_5="13000.00000" pt_clust_6="13000.00000" pt_clust_7="13000.00000" pt_clust_8="13000.00000" pt_clust_9="20.63232" pt_clust_10="47.89225"></scales>
<clustering>
<clus scale="   20.632">  1  9  2 -1</clus>
<clus scale="   47.892">  2 10  1 -1</clus>
<clus scale="   83.146">  5  6 -1 -1</clus>
<clus scale="   91.757">  7  8 -1 -1</clus>
<clus scale="  108.638">  2  5  1 -1</clus>
<clus scale="   47.892">  2  5  1 -1</clus>
</clustering>
</event>
<event>
10    4  0.2857708E-005  0.1821502E+03  0.7546771E-02  0.1167078E+00
          2   -1    0    0  503    0 -0.00000000000E+00  0.00000000000E+00  0.97100539168E+03  0.97100539168E+03  0.00000000000E+00 0. -1.
         21   -1    0    0  501  502  0.00000000000E+00 -0.00000000000E+00 -0.83894576028E+02  0.83894576028E+02  0.00000000000E+00 0. -1.
         24    2    1    2    0    0 -0.32451352807E+02 -0.17947239768E+03  0.35217896598E+03  0.40465862176E+03  0.80343912396E+02 0.  0.
         23    2    1    2    0    0 -0.21839621160E+02  0.13671733702E+03  0.31662420296E+03  0.35757406242E+03  0.91867975505E+02 0.  0.
        -13    1    3    3    0    0 -0.85292689772E+01 -0.88433479824E+02  0.91637884754E+02  0.12763514683E+03  0.00000000000E+00 0.  1.
         14    1    3    3    0    0 -0.23922083830E+02 -0.91038917859E+02  0.26054108122E+03  0.27702347494E+03  0.00000000000E+00 0. -1.
        -11    1    4    4    0    0 -0.31582665346E+02  0.43104829516E+02  0.20358867516E+03  0.21048477316E+03  0.00000000000E+00 0. -1.
         11    1    4    4    0    0  0.97430441860E+01  0.93612507501E+02  0.11303552779E+03  0.14708928926E+03  0.00000000000E+00 0.  1.
         21    1    1    2  503  502  0.26499225594E+02  0.36722143517E+02  0.24767842106E+03  0.25178428275E+03  0.00000000000E+00 0. -1.
          1    1    1    2  501    0  0.27791748373E+02  0.60329171486E+01 -0.29370774343E+02  0.40883000776E+02  0.00000000000E+00 0. -1.
<scales pt_clust_5="13000.00000" pt_clust_6="13000.00000" pt_clust_7="13000.00000" pt_clust_8="13000.00000" pt_clust_9="46.18240" pt_clust_10="28.43901"></scales>
<clustering>
<clus scale="   28.439">  2 10  1 -1</clus>
<clus scale="   46.182">  1  9  2 -1</clus>
<clus scale="   80.344">  5  6 -1 -1</clus>
<clus scale="   91.868">  7  8 -1 -1</clus>
<clus scale="  176.619">  1  5  2 -1</clus>
<clus scale="   28.439">  2  5  1 -1</clus>
</clustering>
</event>
<event>
10    4  0.2857708E-005  0.1655743E+03  0.7546771E-02  0.1197990E+00
          2   -1    0    0  503    0 -0.00000000000E+00  0.00000000000E+00  0.95403773351E+03  0.95403773351E+03  0.00000000000E+00 0. -1.
         21   -1    0    0  501  502  0.00000000000E+00 -0.00000000000E+00 -0.15038439596E+03  0.15038439596E+03  0.00000000000E+00 0. -1.
         24    2    1    2    0    0  0.41913737150E+02  0.87866815644E+02  0.46025554314E+02  0.13366061500E+03  0.79179982946E+02 0.  0.
         23    2    1    2    0    0  0.77687430386E+02 -0.10429867052E+03  0.58109572160E+00  0.15905149548E+03  0.91561405784E+02 0.  0.
        -13    1    3    3    0    0  0.21069941414E+02 -0.10767116325E+01  0.36042944055E+02  0.41763567320E+02  0.00000000000E+00 0.  1.
         14    1    3    3    0    0  0.20843795736E+02  0.88943527276E+02  0.99826102596E+01  0.91897047682E+02  0.00000000000E+00 0. -1.
        -11    1    4    4    0    0  0.30735325383E+02  0.22952576650E+01  0.25425586482E+02  0.39954835528E+02  0.00000000000E+00 0.  1.
         11    1    4    4    0    0  0.46952105003E+02 -0.10659392818E+03 -0.24844490760E+02  0.11909665995E+03  0.00000000000E+00 0. -1.
         21    1    1    2  503  502  0.30547337027E+02 -0.95411732102E+02  0.34236403618E+03  0.35672071946E+03  0.00000000000E+00 0. -1.
          1    1    1    2  501    0 -0.15014850456E+03  0.11184358697E+03  0.41468265134E+03  0.45498929953E+03  0.00000000000E+00 0. -1.
<scales pt_clust_5="13000.00000" pt_clust_6="13000.00000" pt_clust_7="13000.00000" pt_clust_8="13000.00000" pt_clust_9="100.18253" pt_clust_10="137.95430"></scales>
<clustering>
<clus scale="   79.180">  5  6 -1 -1</clus>
<clus scale="   91.561">  7  8 -1 -1</clus>
<clus scale="  100.183">  1  9  2 -1</clus>
<clus scale="  117.716">  1  5  2 -1</clus>
<clus scale="  137.954">  2 10  1 -1</clus>
<clus scale="  137.954">  2  5  1 -1</clus>
</clustering>
</event>
<event>
10    4  0.2857708E-005  0.2272364E+03  0.7546771E-02  0.1128770E+00
         21   -1    0    0  501  502  0.00000000000E+00  0.00000000000E+00  0.47448023683E+03  0.47448023683E+03  0.00000000000E+00 0.  1.
          2   -1    0    0  503    0 -0.00000000000E+00 -0.00000000000E+00 -0.59464674479E+03  0.59464674479E+03  0.00000000000E+00 0. -1.
         24    2    1    2    0    0  0.65345395803E+02 -0.85019332935E+02 -0.35313443876E+03  0.37846659940E+03  0.83873281211E+02 0.  0.
         23    2    1    2    0    0 -0.42026960158E+02  0.25498256627E+03  0.34282380539E+03  0.43693730869E+03  0.81263003285E+02 0.  0.
        -13    1    3    3    0    0 -0.18560927690E+02 -0.20951821618E+02 -0.47746410856E+02  0.55346243011E+02  0.00000000000E+00 0.  1.
         14    1    3    3    0    0  0.83906323493E+02 -0.64067511317E+02 -0.30538802790E+03  0.32312035639E+03  0.00000000000E+00 0. -1.
        -13    1    4    4    0    0  0.19150507018E+02  0.10547543793E+03  0.11033423480E+03  0.15383579978E+03  0.00000000000E+00 0.  1.
         13    1    4    4    0    0 -0.61177467176E+02  0.14950712835E+03  0.23248957058E+03  0.28310150891E+03  0.00000000000E+00 0. -1.
         21    1    1    2  503  502  0.18691046947E+02 -0.12395269525E+03 -0.13705980221E+03  0.18573910541E+03  0.00000000000E+00 0. -1.
          1    1    1    2  501    0 -0.42009482591E+02 -0.46010538084E+02  0.27203927624E+02  0.67983968114E+02  0.00000000000E+00 0. -1.
<scales pt_clust_5="13000.00000" pt_clust_6="13000.00000" pt_clust_7="13000.00000" pt_clust_8="13000.00000" pt_clust_9="127.62074" pt_clust_10="62.30382"></scales>
<clustering>
<clus scale="   62.304">  1 10  2 -1</clus>
<clus scale="   81.263">  7  8 -1 -1</clus>
<clus scale="   83.873">  5  6 -1 -1</clus>
<clus scale="  127.621">  2  9  1 -1</clus>
<clus scale="  226.286">  1  7  2 -1</clus>
<clus scale="   62.304">  1  5  2 -1</clus>
</clustering>
</event>
<event>
10    4  0.2857708E-005  0.1911278E+03  0.7546771E-02  0.1158698E+00
         21   -1    0    0  503  502  0.00000000000E+00  0.00000000000E+00  0.30876709220E+03  0.30876709220E+03  0.00000000000E+00 0.  1.
         -3   -1    0    0    0  501 -0.00000000000E+00 -0.00000000000E+00 -0.31667368432E+03  0.31667368432E+03  0.00000000000E+00 0.  1.
         24    2    1    2    0    0 -0.18741051170E+02  0.11556906163E+03 -0.69982466136E+02  0.15846149869E+03  0.80653989342E+02 0.  0.
         23    2    1    2    0    0  0.10907990134E+02 -0.18969983121E+03  0.10231698386E+03  0.23484321584E+03  0.92615120948E+02 0.  0.
        -11    1    3    3    0    0 -0.29584574642E+02  0.37095605994E+02 -0.63093006786E+02  0.78943388236E+02  0.00000000000E+00 0.  1.
         12    1    3    3    0    0  0.10843523472E+02  0.78473455636E+02 -0.68894593500E+01  0.79518110458E+02  0.00000000000E+00 0. -1.
        -11    1    4    4    0    0  0.13076035748E+02 -0.13830998996E+03  0.11669687075E+03  0.18143537604E+03  0.00000000000E+00 0.  1.
         11    1    4    4    0    0 -0.21680456135E+01 -0.51389841251E+02 -0.14379886889E+02  0.53407839804E+02  0.00000000000E+00 0. -1.
         21    1    1    2  503  501 -0.76770034949E+02  0.11122585507E+03 -0.35017194837E+02  0.13961028987E+03  0.00000000000E+00 0. -1.
         -4    1    1    2    0  502  0.84603095985E+02 -0.37095085490E+02 -0.52239150051E+01  0.92525772116E+02  0.00000000000E+00 0.  1.
<scales pt_clust_5="13000.00000" pt_clust_6="13000.00000" pt_clust_7="13000.00000" pt_clust_8="13000.00000" pt_clust_9="120.02810" pt_clust_10="92.37823"></scales>
<clustering>
<clus scale="   80.654">  5  6 -1 -1</clus>
<clus scale="   92.378">  1 10  2 -1</clus>
<clus scale="   92.615">  7  8 -1 -1</clus>
<clus scale="  120.028">  2  9  1 -1</clus>
<clus scale="  185.627">  2  5  1 -1</clus>
<clus scale="   92.378">  1  5  2 -1</clus>
</clustering>
</event>
<event>
10    4  0.2857708E-005  0.1519181E+03  0.7546771E-02  0.1210157E+00
          2   -1    0    0  503    0 -0.00000000000E+00  0.00000000000E+00  0.33856373389E+03  0.33856373389E+03  0.00000000000E+00 0. -1.
         21   -1    0    0  501  502  0.00000000000E+00 -0.00000000000E+00 -0.21573522849E+03  0.21573522849E+03  0.00000000000E+00 0. -1.
         23    2    1    2    0    0  0.15035955784E+02 -0.57017827765E+02  0.55159165785E+02  0.12028573544E+03  0.89157231512E+02 0.  0.
         24    2    1    2    0    0 -0.11064839432E+03  0.80289947808E+02  0.83889220135E+02  0.17950635931E+03  0.80595216327E+02 0.  0.
        -13    1    4    4    0    0 -0.24017248833E+02  0.65896734812E+02  0.28675163477E+02  0.75772507553E+02  0.00000000000E+00 0.  1.
         14    1    4    4    0    0 -0.86631145485E+02  0.14393212996E+02  0.55214056658E+02  0.10373385176E+03  0.00000000000E+00 0. -1.
        -11    1    3    3    0    0 -0.10085597073E+02 -0.58127251502E+02 -0.72989935800E+00  0.59000249055E+02  0.00000000000E+00 0.  1.
         11    1    3    3    0    0  0.25121552857E+02  0.11094237365E+01  0.55889065143E+02  0.61285486386E+02  0.00000000000E+00 0. -1.
         21    1    1    2  503  502 -0.38343935387E+02 -0.56232298807E+02  0.65256838808E+02  0.94290953019E+02  0.00000000000E+00 0. -1.
          1    1    1    2  501    0  0.13395637392E+03  0.32960178764E+02 -0.81476719331E+02  0.16021591460E+03  0.00000000000E+00 0. -1.
<scales pt_clust_5="13000.00000" pt_clust_6="13000.00000" pt_clust_7="13000.00000" pt_clust_8="13000.00000" pt_clust_9="68.06121" pt_clust_10="128.77707"></scales>
<clustering>
<clus scale="   68.061">  1  9  2 -1</clus>
<clus scale="   80.595">  5  6 -1 -1</clus>
<clus scale="   89.157">  7  8 -1 -1</clus>
<clus scale="  117.223">  1  7  2 -1</clus>
<clus scale="  128.777">  2 10  1 -1</clus>
<clus scale="  128.777">  2  5  1 -1</clus>
</clustering>
</event>
<event>
10    4  0.2857708E-005  0.9202266E+02  0.7546771E-02  0.1305641E+00
         21   -1    0    0  503  502  0.00000000000E+00  0.00000000000E+00  0.46110245262E+02  0.46110245262E+02  0.00000000000E+00 0. -1.
         -1   -1    0    0    0  501 -0.00000000000E+00 -0.00000000000E+00 -0.49823931156E+03  0.49823931156E+03  0.00000000000E+00 0.  1.
         23    2    1    2    0    0  0.14261809874E+02 -0.28948323264E+02 -0.22176048694E+03  0.24213309774E+03  0.91702338110E+02 0.  0.
         24    2    1    2    0    0 -0.14783967906E+02 -0.33052362941E+02 -0.47976643832E+02  0.99770701472E+02  0.79632971286E+02 0.  0.
        -11    1    4    4    0    0  0.24664081771E+02  0.95558173793E+01 -0.27613999486E+02  0.38238247122E+02  0.00000000000E+00 0.  1.
         12    1    4    4    0    0 -0.39448049677E+02 -0.42608180320E+02 -0.20362644346E+02  0.61532454350E+02  0.00000000000E+00 0. -1.
        -13    1    3    3    0    0 -0.32107012875E+02 -0.25253461273E+02 -0.15808323297E+03  0.16327555276E+03  0.00000000000E+00 0. -1.
         13    1    3    3    0    0  0.46368822749E+02 -0.36948619909E+01 -0.63677253968E+02  0.78857544986E+02  0.00000000000E+00 0.  1.
         21    1    1    2  503  501 -0.21170632225E+02  0.35729097231E+02 -0.14923020040E+03  0.15490131300E+03  0.00000000000E+00 0.  1.
         -2    1    1    2    0  502  0.21692790258E+02  0.26271588974E+02 -0.33161735130E+02  0.47544444609E+02  0.00000000000E+00 0.  1.
<scales pt_clust_5="13000.00000" pt_clust_6="13000.00000" pt_clust_7="13000.00000" pt_clust_8="13000.00000" pt_clust_9="42.43564" pt_clust_10="34.07013"></scales>
<clustering>
<clus scale="   34.070">  1 10  2 -1</clus>
<clus scale="   42.436">  2  9  1 -1</clus>
<clus scale="   79.633">  5  6 -1 -1</clus>
<clus scale="   80.002">  1  5  2 -1</clus>
<clus scale="   91.702">  7  8 -1 -1</clus>
<clus scale="   34.070">  1  5  2 -1</clus>
</clustering>
</event>
<event>
10    4  0.2857708E-005  0.2091405E+03  0.7546771E-02  0.1143298E+00
          2   -1    0    0  503    0 -0.00000000000E+00  0.00000000000E+00  0.44863227382E+03  0.44863227382E+03  0.00000000000E+00 0. -1.
         21   -1    0    0  501  502  0.00000000000E+00 -0.00000000000E+00 -0.26641594296E+03  0.26641594296E+03  0.00000000000E+00 0. -1.
         23    2    1    2    0    0  0.82997520753E+02  0.18659395548E+03  0.26966610287E+03  0.35090108106E+03  0.93305246288E+02 0.  0.
         24    2    1    2    0    0 -0.61709254568E+02 -0.18270890211E+03 -0.28049180156E+02  0.21103013825E+03  0.80971524214E+02 0.  0.
        -11    1    4    4    0    0  0.19026047108E+02 -0.53456358599E+02 -0.62848792681E+01  0.57088286457E+02  0.00000000000E+00 0.  1.
         12    1    4    4    0    0 -0.80735301676E+02 -0.12925254351E+03 -0.21764300888E+02  0.15394185179E+03  0.00000000000E+00 0. -1.
        -11    1    3    3    0    0  0.47376196917E+02  0.13916180821E+03  0.11951691286E+03  0.18945924458E+03  0.00000000000E+00 0. -1.
         11    1    3    3    0    0  0.35621323835E+02  0.47432147265E+02  0.15014919001E+03  0.16144183648E+03  0.00000000000E+00 0.  1.
         21    1    1    2  503  502 -0.65284496040E+01 -0.25954768328E+02  0.41168022579E+02  0.49102716180E+02  0.00000000000E+00 0.  1.
          1    1    1    2  501    0 -0.14759816580E+02  0.22069714958E+02 -0.10056861443E+03  0.10401428129E+03  0.00000000000E+00 0. -1.
<scales pt_clust_5="13000.00000" pt_clust_6="13000.00000" pt_clust_7="13000.00000" pt_clust_8="13000.00000" pt_clust_9="26.33720" pt_clust_10="26.55041"></scales>
<clustering>
<clus scale="   26.550">  2 10  1 -1</clus>
<clus scale="   26.337">  1  9  2 -1</clus>
<clus scale="   80.972">  5  6 -1 -1</clus>
<clus scale="   93.305">  7  8 -1 -1</clus>
<clus scale="  203.937">  2  5  1 -1</clus>
<clus scale="   26.550">  2  5  1 -1</clus>
</clustering>
</event>
<event>
10    4  0.2857708E-005  0.2404581E+03  0.7546771E-02  0.1120006E+00
         -1   -1    0    0    0  501 -0.00000000000E+00  0.00000000000E+00  0.18606012030E+03  0.18606012030E+03  0.00000000000E+00 0.  1.
         21   -1    0    0  503  502  0.00000000000E+00 -0.00000000000E+00 -0.63330489813E+03  0.63330489813E+03  0.00000000000E+00 0.  1.
         24    2    1    2    0    0  0.18064828659E+03 -0.12677690699E+03 -0.90051859098E+02  0.25285699489E+03  0.84386817375E+02 0.  0.
         23    2    1    2    0    0 -0.24641114233E+03  0.38234038567E+02 -0.27831175863E+03  0.38501589066E+03  0.92733533863E+02 0.  0.
        -13    1    3    3    0    0  0.15676492556E+03 -0.10001741029E+03 -0.38245227084E+02  0.18984578384E+03  0.00000000000E+00 0.  1.
         14    1    3    3    0    0  0.23883361021E+02 -0.26759496707E+02 -0.51806632014E+02  0.63011211053E+02  0.00000000000E+00 0. -1.
        -11    1    4    4    0    0 -0.19032381537E+03 -0.44762246613E+01 -0.23435711228E+03  0.30193782036E+03  0.00000000000E+00 0.  1.
         11    1    4    4    0    0 -0.56087326960E+02  0.42710263228E+02 -0.43954646349E+02  0.83078070309E+02  0.00000000000E+00 0. -1.
         21    1    1    2  503  501 -0.22108099519E+02 -0.14470095897E+02 -0.38740778034E+01  0.26705059791E+02  0.00000000000E+00 0. -1.
         -2    1    1    2    0  502  0.87870955261E+02  0.10301296432E+03 -0.75007082293E+02  0.15478707307E+03  0.00000000000E+00 0.  1.
<scales pt_clust_5="13000.00000" pt_clust_6="13000.00000" pt_clust_7="13000.00000" pt_clust_8="13000.00000" pt_clust_9="26.42256" pt_clust_10="129.61887"></scales>
<clustering>
<clus scale="   26.423">  1  9  2 -1</clus>
<clus scale="   84.387">  5  6 -1 -1</clus>
<clus scale="   92.734">  7  8 -1 -1</clus>
<clus scale="  129.619">  2 10  1 -1</clus>
<clus scale="  237.364">  1  5  2 -1</clus>
<clus scale="  129.619">  2  5  1 -1</clus>
</clustering>
</event>
<event>
10    4  0.2857708E-005  0.1207048E+03  0.7546771E-02  0.1245059E+00
         21   -1    0    0  503  502  0.00000000000E+00  0.00000000000E+00  0.32070994224E+03  0.32070994224E+03  0.00000000000E+00 0.  1.
          2   -1    0    0  502    0 -0.00000000000E+00 -0.00000000000E+00 -0.95656435455E+02  0.95656435455E+02  0.00000000000E+00 0. -1.
         24    2    1    2    0    0 -0.70614354452E+02  0.18546787450E+02  0.33691436061E+02  0.11359211262E+03  0.80235184343E+02 0.  0.
         23    2    1    2    0    0  0.98873328164E+02  0.57325346541E+02  0.11795904314E+03  0.18745418293E+03  0.90347133107E+02 0.  0.
        -11    1    3    3    0    0 -0.17272016670E+02  0.13632050460E+02  0.52414788713E+02  0.56845979941E+02  0.00000000000E+00 0.  1.
         12    1    3    3    0    0 -0.53342337782E+02  0.49147369901E+01 -0.18723352652E+02  0.56746132681E+02  0.00000000000E+00 0. -1.
        -11    1    4    4    0    0  0.10710966047E+03  0.22954590602E+02  0.97301850191E+02  0.14651635624E+03  0.00000000000E+00 0. -1.
         11    1    4    4    0    0 -0.82363323019E+01  0.34370755939E+02  0.20657192952E+02  0.40937826692E+02  0.00000000000E+00 0.  1.
         21    1    1    2  503  501 -0.23859736551E+02 -0.16618752787E+02  0.18807230473E+02  0.34629205745E+02  0.00000000000E+00 0.  1.
          1    1    1    2  501    0 -0.43992371611E+01 -0.59253381204E+02  0.54595797105E+02  0.80690876394E+02  0.00000000000E+00 0. -1.
<scales pt_clust_5="13000.00000" pt_clust_6="13000.00000" pt_clust_7="13000.00000" pt_clust_8="13000.00000" pt_clust_9="25.75619" pt_clust_10="88.94221"></scales>
<clustering>
<clus scale="   25.756">  9 10 -1 -1</clus>
<clus scale="   80.235">  5  6 -1 -1</clus>
<clus scale="   88.942">  1  9  2 -1</clus>
<clus scale="   90.347">  7  8 -1 -1</clus>
<clus scale="  113.335">  2  5  1 -1</clus>
<clus scale="   88.942">  1  5  2 -1</clus>
</clustering>
</event>
<event>
10    4  0.2857708E-005  0.1030285E+03  0.7546771E-02  0.1278576E+00
          2   -1    0    0  503    0 -0.00000000000E+00  0.00000000000E+00  0.13853063041E+04  0.13853063041E+04  0.00000000000E+00 0. -1.
         21   -1    0    0  501  502  0.00000000000E+00 -0.00000000000E+00 -0.29781791009E+02  0.29781791009E+02  0.00000000000E+00 0. -1.
         24    2    1    2    0    0  0.44228679429E+02  0.11007274066E+02  0.77834465053E+03  0.78370989043E+03  0.79394339770E+02 0.  0.
         23    2    1    2    0    0  0.10447740314E+02 -0.99088801504E+02  0.25204955282E+03  0.28539055366E+03  0.89392646107E+02 0.  0.
        -13    1    3    3    0    0  0.26533657199E+02  0.15233603445E+02  0.88758598972E+02  0.93883899204E+02  0.00000000000E+00 0.  1.
         14    1    3    3    0    0  0.17695022230E+02 -0.42263293791E+01  0.68958605155E+03  0.68982599123E+03  0.00000000000E+00 0. -1.
        -13    1    4    4    0    0 -0.15324895246E+02 -0.25834253156E+02  0.16916470337E+03  0.17181082014E+03  0.00000000000E+00 0.  1.
         13    1    4    4    0    0  0.25772635559E+02 -0.73254548348E+02  0.82884849447E+02  0.11357973351E+03  0.00000000000E+00 0. -1.
         21    1    1    2  503  502 -0.49712060052E+01  0.26702359492E+02  0.16738659492E+03  0.16957594478E+03  0.00000000000E+00 0.  1.
          1    1    1    2  501    0 -0.49705213738E+02  0.61379167946E+02  0.15774371482E+03  0.17641170623E+03  0.00000000000E+00 0. -1.
<scales pt_clust_5="13000.00000" pt_clust_6="13000.00000" pt_clust_7="13000.00000" pt_clust_8="13000.00000" pt_clust_9="27.16117" pt_clust_10="82.27913"></scales>
<clustering>
<clus scale="   27.161">  1  9  2 -1</clus>
<clus scale="   79.394">  5  6 -1 -1</clus>
<clus scale="   82.279">  2 10  1 -1</clus>
<clus scale="   89.393">  7  8 -1 -1</clus>
<clus scale="   94.484">  1  5  2 -1</clus>
<clus scale="   82.279">  2  5  1 -1</clus>
</clustering>
</event>
<event>
10    4  0.2857708E-005  0.1720634E+03  0.7546771E-02  0.1192549E+00
          2   -1    0    0  503    0 -0.00000000000E+00  0.00000000000E+00  0.97884932252E+03  0.97884932252E+03  0.00000000000E+00 0. -1.
         21   -1    0    0  501  502  0.00000000000E+00 -0.00000000000E+00 -0.63091981661E+02  0.63091981661E+02  0.00000000000E+00 0. -1.
         23    2    1    2    0    0  0.58370877389E+02 -0.44524533713E+02  0.13108409036E+03  0.17797696426E+03  0.95410521595E+02 0.  0.
         24    2    1    2    0    0  0.12697929185E+03  0.49010149058E+02  0.43271473546E+03  0.46072046807E+03  0.80595112453E+02 0.  0.
        -13    1    4    4    0    0  0.30116104821E+02  0.52752795241E+02  0.18485961210E+03  0.19458394939E+03  0.00000000000E+00 0.  1.
         14    1    4    4    0    0  0.96863187026E+02 -0.37426461823E+01  0.24785512336E+03  0.26613651868E+03  0.00000000000E+00 0. -1.
        -13    1    3    3    0    0  0.50349195051E+02  0.93612620106E+01  0.21390941379E+02  0.55499973350E+02  0.00000000000E+00 0. -1.
         13    1    3    3    0    0  0.80216823381E+01 -0.53885795723E+02  0.10969314898E+03  0.12247699091E+03  0.00000000000E+00 0.  1.
         21    1    1    2  503  502 -0.21356018174E+02  0.67886478946E+01  0.99452428802E+02  0.10194582310E+03  0.00000000000E+00 0. -1.
          1    1    1    2  501    0 -0.16399415106E+03 -0.11274263240E+02  0.25250608624E+03  0.30129804875E+03  0.00000000000E+00 0. -1.
<scales pt_clust_5="13000.00000" pt_clust_6="13000.00000" pt_clust_7="13000.00000" pt_clust_8="13000.00000" pt_clust_9="22.40904" pt_clust_10="152.02054"></scales>
<clustering>
<clus scale="   22.409">  1  9  2 -1</clus>
<clus scale="   80.595">  5  6 -1 -1</clus>
<clus scale="   95.411">  7  8 -1 -1</clus>
<clus scale="  118.166">  1  7  2 -1</clus>
<clus scale="  152.021">  2 10  1 -1</clus>
<clus scale="  152.021">  2  5  1 -1</clus>
</clustering>
</event>
<event>
10    4  0.2857708E-005  0.1443858E+03  0.7546771E-02  0.1208760E+00
         21   -1    0    0  503  502  0.00000000000E+00  0.00000000000E+00  0.31466121478E+02  0.31466121478E+02  0.00000000000E+00 0.  1.
         -3   -1    0    0    0  501 -0.00000000000E+00 -0.00000000000E+00 -0.11749660386E+04  0.11749660386E+04  0.00000000000E+00 0.  1.
         23    2    1    2    0    0 -0.12547439244E+03  0.37556963024E+02 -0.66758196537E+03  0.68591534546E+03  0.87520466318E+02 0.  0.
         24    2    1    2    0    0  0.99464645994E+02 -0.35312763466E+02 -0.24966659619E+03  0.28297930596E+03  0.81262976076E+02 0.  0.
        -13    1    4    4    0    0  0.52173409154E+02  0.20601081083E+01 -0.42812170687E+02  0.67521778909E+02  0.00000000000E+00 0.  1.
         14    1    4    4    0    0  0.47291236841E+02 -0.37372871574E+02 -0.20685442550E+03  0.21545752705E+03  0.00000000000E+00 0. -1.
        -11    1    3    3    0    0 -0.57894755412E+01  0.34030702906E+02 -0.98510911328E+02  0.10438393755E+03  0.00000000000E+00 0. -1.
         11    1    3    3    0    0 -0.11968491690E+03  0.35262601184E+01 -0.56907105404E+03  0.58153140791E+03  0.00000000000E+00 0.  1.
         21    1    1    2  503  501  0.32914133265E+02  0.26811654635E+02 -0.13626608596E+03  0.14272579016E+03  0.00000000000E+00 0. -1.
         -4    1    1    2    0  502 -0.69043868205E+01 -0.29055854194E+02 -0.89985269646E+02  0.94811718545E+02  0.00000000000E+00 0.  1.
<scales pt_clust_5="13000.00000" pt_clust_6="13000.00000" pt_clust_7="13000.00000" pt_clust_8="13000.00000" pt_clust_9="39.86838" pt_clust_10="29.86493"></scales>
<clustering>
<clus scale="   29.865">  1 10  2 -1</clus>
<clus scale="   39.868">  2  9  1 -1</clus>
<clus scale="   81.263">  5  6 -1 -1</clus>
<clus scale="   87.520">  7  8 -1 -1</clus>
<clus scale="  140.681">  1  5  2 -1</clus>
<clus scale="   29.865">  1  5  2 -1</clus>
</clustering>
</event>
<event>
10    4  0.2857708E-005  0.9750767E+02  0.7546771E-02  0.1292134E+00
          2   -1    0    0  503    0 -0.00000000000E+00  0.00000000000E+00  0.56109231349E+03  0.56109231349E+03  0.00000000000E+00 0. -1.
         21   -1    0    0  501  502  0.00000000000E+00 -0.00000000000E+00 -0.59194414783E+02  0.59194414783E+02  0.00000000000E+00 0. -1.
         23    2    1    2    0    0  0.77204421352E+01  0.33971362061E+02  0.11301103623E+03  0.15107679975E+03  0.94016203099E+02 0.  0.
         24    2    1    2    0    0 -0.35944816798E+02 -0.92839436252E+01  0.44681316535E+02  0.10076402721E+03  0.82333150478E+02 0.  0.
        -13    1    4    4    0    0  0.26944990295E+02 -0.26729740250E+01  0.13062135538E+02  0.30063211354E+02  0.00000000000E+00 0.  1.
         14    1    4    4    0    0 -0.62889807093E+02 -0.66109696002E+01  0.31619180996E+02  0.70700815852E+02  0.00000000000E+00 0. -1.
        -13    1    3    3    0    0  0.31322665240E+02 -0.16598067714E+02  0.76705004045E+02  0.84500076066E+02  0.00000000000E+00 0.  1.
         13    1    3    3    0    0 -0.23602223105E+02  0.50569429776E+02  0.36306032190E+02  0.66576723686E+02  0.00000000000E+00 0. -1.
         21    1    1    2  503  502 -0.33145694042E+02 -0.10510088219E+02  0.26489203397E+03  0.26716453479E+03  0.00000000000E+00 0. -1.
          1    1    1    2  501    0  0.61370068705E+02 -0.14177330218E+02  0.79313511963E+02  0.10128136652E+03  0.00000000000E+00 0. -1.
<scales pt_clust_5="13000.00000" pt_clust_6="13000.00000" pt_clust_7="13000.00000" pt_clust_8="13000.00000" pt_clust_9="34.77210" pt_clust_10="54.09906"></scales>
<clustering>
<clus scale="   34.772">  1  9  2 -1</clus>
<clus scale="   54.099">  2 10  1 -1</clus>
<clus scale="   82.333">  5  6 -1 -1</clus>
<clus scale="   86.299">  2  5  1 -1</clus>
<clus scale="   94.016">  7  8 -1 -1</clus>
<clus scale="   54.099">  2  5  1 -1</clus>
</clustering>
</event>
<event>
10    4  0.2857708E-005  0.1103602E+03  0.7546771E-02  0.1265566E+00
          2   -1    0    0  503    0 -0.00000000000E+00  0.00000000000E+00  0.22974125048E+03  0.22974125048E+03  0.00000000000E+00 0. -1.
         21   -1    0    0  501  502  0.00000000000E+00 -0.00000000000E+00 -0.32575251871E+03  0.32575251871E+03  0.00000000000E+00 0.  1.
         23    2    1    2    0    0 -0.57697009356E+02  0.48811068681E+02  0.16656659768E+03  0.20583214879E+03  0.94397969784E+02 0.  0.
         24    2    1    2    0    0  0.47717791043E+02 -0.83768060021E+02 -0.19820790989E+03  0.23467149022E+03  0.80562133286E+02 0.  0.
        -11    1    4    4    0    0  0.14461160910E+02 -0.85924687955E+02 -0.10967790996E+03  0.14007648307E+03  0.00000000000E+00 0.  1.
         12    1    4    4    0    0  0.33256630133E+02  0.21566279334E+01 -0.88529999924E+02  0.94595007154E+02  0.00000000000E+00 0. -1.
        -13    1    3    3    0    0 -0.12443615816E+02 -0.27564940609E+02  0.59522538691E+02  0.66765276436E+02  0.00000000000E+00 0.  1.
         13    1    3    3    0    0 -0.45253393540E+02  0.76376009291E+02  0.10704405899E+03  0.13906687236E+03  0.00000000000E+00 0. -1.
         21    1    1    2  503  502  0.19578348276E+02 -0.16863771934E+02  0.65259608174E+01  0.26651204281E+02  0.00000000000E+00 0. -1.
          1    1    1    2  501    0 -0.95991299634E+01  0.51820763273E+02 -0.70895916849E+02  0.88338925894E+02  0.00000000000E+00 0. -1.
<scales pt_clust_5="13000.00000" pt_clust_6="13000.00000" pt_clust_7="13000.00000" pt_clust_8="13000.00000" pt_clust_9="25.83986" pt_clust_10="51.88217"></scales>
<clustering>
<clus scale="   25.840">  1  9  2 -1</clus>
<clus scale="   51.882">  2 10  1 -1</clus>
<clus scale="   80.562">  5  6 -1 -1</clus>
<clus scale="   94.398">  7  8 -1 -1</clus>
<clus scale="   98.786">  2  5  1 -1</clus>
<clus scale="   51.882">  2  5  1 -1</clus>
</clustering>
</event>
<event>
10    4  0.2857708E-005  0.1065295E+03  0.7546771E-02  0.1271432E+00
          2   -1    0    0  503    0 -0.00000000000E+00  0.00000000000E+00  0.51254514403E+03  0.51254514403E+03  0.00000000000E+00 0. -1.
         21   -1    0    0  501  502  0.00000000000E+00 -0.00000000000E+00 -0.85365335063E+02  0.85365335063E+02  0.00000000000E+00 0. -1.
         23    2    1    2    0    0  0.73608140423E+02 -0.37707094072E+02  0.25254896526E+03  0.28053491368E+03  0.89882560396E+02 0.  0.
         24    2    1    2    0    0 -0.63790377187E+02 -0.23751655858E+02  0.65998083557E+02  0.12380831555E+03  0.79620340290E+02 0.  0.
        -13    1    4    4    0    0 -0.43838311471E+02  0.20616003097E+02  0.97032974808E+01  0.49406185021E+02  0.00000000000E+00 0.  1.
         14    1    4    4    0    0 -0.19952065716E+02 -0.44367658955E+02  0.56294786076E+02  0.74402130526E+02  0.00000000000E+00 0. -1.
        -13    1    3    3    0    0  0.40766877130E+02 -0.40361414882E+01  0.21890655499E+03  0.22270677701E+03  0.00000000000E+00 0. -1.
         13    1    3    3    0    0  0.32841263292E+02 -0.33670952584E+02  0.33642410269E+02  0.57828136675E+02  0.00000000000E+00 0.  1.
         21    1    1    2  503  502 -0.36289106225E+02  0.12850477838E+02  0.12897555817E+03  0.13459839752E+03  0.00000000000E+00 0. -1.
          1    1    1    2  501    0  0.26471342990E+02  0.48608272092E+02 -0.20342798012E+02  0.58968852341E+02  0.00000000000E+00 0. -1.
<scales pt_clust_5="13000.00000" pt_clust_6="13000.00000" pt_clust_7="13000.00000" pt_clust_8="13000.00000" pt_clust_9="38.49719" pt_clust_10="55.07473"></scales>
<clustering>
<clus scale="   38.497">  1  9  2 -1</clus>
<clus scale="   55.075">  2 10  1 -1</clus>
<clus scale="   79.620">  5  6 -1 -1</clus>
<clus scale="   89.883">  7  8 -1 -1</clus>
<clus scale="   98.026">  2  5  1 -1</clus>
<clus scale="   55.075">  2  5  1 -1</clus>
</clustering>
</event>
<event>
10    4  0.2857708E-005  0.1254327E+03  0.7546771E-02  0.1237589E+00
         -3   -1    0    0    0  501 -0.00000000000E+00  0.00000000000E+00  0.62885682245E+03  0.62885682245E+03  0.00000000000E+00 0.  1.
         21   -1    0    0  503  502  0.00000000000E+00 -0.00000000000E+00 -0.13738038534E+03  0.13738038534E+03  0.00000000000E+00 0.  1.
         24    2    1    2    0    0  0.76286173525E+02  0.73722924536E+02  0.32377316963E+03  0.35003143187E+03  0.80238943489E+02 0.  0.
         23    2    1    2    0    0 -0.13551787213E+02 -0.49331666747E+02  0.92813479764E+02  0.13998741671E+03  0.91459666140E+02 0.  0.
        -13    1    3    3    0    0  0.16938280180E+02  0.71640132238E+02  0.17658564699E+03  0.19131571970E+03  0.00000000000E+00 0.  1.
         14    1    3    3    0    0  0.59347893345E+02  0.20827922986E+01  0.14718752265E+03  0.15871571217E+03  0.00000000000E+00 0. -1.
        -13    1    4    4    0    0  0.99523400104E+01  0.23302060501E+02  0.96944271934E+01  0.27129633501E+02  0.00000000000E+00 0.  1.
         13    1    4    4    0    0 -0.23504127224E+02 -0.72633727248E+02  0.83119052570E+02  0.11285778321E+03  0.00000000000E+00 0. -1.
         21    1    1    2  503  501 -0.30495483315E+02  0.38392495630E+02  0.15901861507E+03  0.16640576361E+03  0.00000000000E+00 0.  1.
         -4    1    1    2    0  502 -0.32238902997E+02 -0.62783753420E+02 -0.84128827353E+02  0.10981259560E+03  0.00000000000E+00 0.  1.
<scales pt_clust_5="13000.00000" pt_clust_6="13000.00000" pt_clust_7="13000.00000" pt_clust_8="13000.00000" pt_clust_9="49.03018" pt_clust_10="70.03092"></scales>
<clustering>
<clus scale="   49.030">  1  9  2 -1</clus>
<clus scale="   70.031">  2 10  1 -1</clus>
<clus scale="   80.239">  5  6 -1 -1</clus>
<clus scale="   91.460">  7  8 -1 -1</clus>
<clus scale="  117.502">  1  5  2 -1</clus>
<clus scale="   70.031">  2  5  1 -1</clus>
</clustering>
</event>
<event>
10    4  0.2857708E-005  0.2118948E+03  0.7546771E-02  0.1140297E+00
         21   -1    0    0  501  502  0.00000000000E+00  0.00000000000E+00  0.51111198167E+03  0.51111198167E+03  0.00000000000E+00 0. -1.
          2   -1    0    0  503    0 -0.00000000000E+00 -0.00000000000E+00 -0.20762503977E+03  0.20762503977E+03  0.00000000000E+00 0. -1.
         24    2    1    2    0    0  0.12462345775E+03 -0.13856430742E+03  0.14383864015E+03  0.24918432135E+03  0.81683523990E+02 0.  0.
         23    2    1    2    0    0 -0.19849681451E+03  0.98064834993E+02  0.14592955264E+03  0.27832390663E+03  0.84563972439E+02 0.  0.
        -13    1    3    3    0    0  0.12205919185E+02 -0.40045386968E+02  0.18015474854E+00  0.41864662142E+02  0.00000000000E+00 0.  1.
         14    1    3    3    0    0  0.11241753856E+03 -0.98518920457E+02  0.14365848540E+03  0.20731965921E+03  0.00000000000E+00 0. -1.
        -13    1    4    4    0    0 -0.17152929198E+03  0.66936955233E+02  0.14922964509E+03  0.23700704833E+03  0.00000000000E+00 0. -1.
         13    1    4    4    0    0 -0.26967522533E+02  0.31127879760E+02 -0.33000924499E+01  0.41316858304E+02  0.00000000000E+00 0.  1.
         21    1    1    2  503  502 -0.25790778534E+02  0.74003518342E+02 -0.19870940557E+02  0.80848866801E+02  0.00000000000E+00 0. -1.
          1    1    1    2  501    0  0.99664135298E+02 -0.33504045911E+02  0.33589689670E+02  0.11037992666E+03  0.00000000000E+00 0. -1.
<scales pt_clust_5="13000.00000" pt_clust_6="13000.00000" pt_clust_7="13000.00000" pt_clust_8="13000.00000" pt_clust_9="78.36890" pt_clust_10="94.63504"></scales>
<clustering>
<clus scale="   78.369">  2  9  1 -1</clus>
<clus scale="   81.684">  5  6 -1 -1</clus>
<clus scale="   84.564">  7  8 -1 -1</clus>
<clus scale="   94.635">  1 10  2 -1</clus>
<clus scale="  210.762">  2  5  1 -1</clus>
<clus scale="   94.635">  1  5  2 -1</clus>
</clustering>
</event>
<event>
10    4  0.2857708E-005  0.1407193E+03  0.7546771E-02  0.1231745E+00
          2   -1    0    0  503    0 -0.00000000000E+00  0.00000000000E+00  0.90357848020E+03  0.90357848020E+03  0.00000000000E+00 0. -1.
         21   -1    0    0  501  502  0.00000000000E+00 -0.00000000000E+00 -0.79383646086E+02  0.79383646086E+02  0.00000000000E+00 0.  1.
         24    2    1    2    0    0  0.43602413223E+02  0.21926111413E+02  0.40279194376E+02  0.10208619492E+03  0.80107758010E+02 0.  0.
         23    2    1    2    0    0 -0.33842616840E+02 -0.87217140151E+02  0.22841065021E+03  0.26391084483E+03  0.93409617497E+02 0.  0.
        -13    1    3    3    0    0  0.62397263813E+02  0.30323582133E+02  0.42536197878E+02  0.81377308229E+02  0.00000000000E+00 0.  1.
         14    1    3    3    0    0 -0.18794850590E+02 -0.83974707205E+01 -0.22570035018E+01  0.20708886692E+02  0.00000000000E+00 0. -1.
        -11    1    4    4    0    0 -0.53879021229E+02 -0.60370659867E+02  0.87949061429E+02  0.11950984440E+03  0.00000000000E+00 0.  1.
         11    1    4    4    0    0  0.20036404389E+02 -0.26846480284E+02  0.14046158878E+03  0.14440100044E+03  0.00000000000E+00 0. -1.
         21    1    1    2  503  502  0.11729668423E+03  0.43273013817E+02  0.37379765623E+03  0.39415194235E+03  0.00000000000E+00 0.  1.
          1    1    1    2  501    0 -0.12705648061E+03  0.22018014921E+02  0.18170733330E+03  0.22281314418E+03  0.00000000000E+00 0. -1.
<scales pt_clust_5="13000.00000" pt_clust_6="13000.00000" pt_clust_7="13000.00000" pt_clust_8="13000.00000" pt_clust_9="105.24532" pt_clust_10="119.62910"></scales>
<clustering>
<clus scale="   80.108">  5  6 -1 -1</clus>
<clus scale="   93.410">  7  8 -1 -1</clus>
<clus scale="   93.804">  1  5  2 -1</clus>
<clus scale="  119.629">  2 10  1 -1</clus>
<clus scale="  105.245">  1  9  2 -1</clus>
<clus scale="  119.629">  2  5  1 -1</clus>
</clustering>
</event>
<event>
10    4  0.2857708E-005  0.1558840E+03  0.7546771E-02  0.1195257E+00
         21   -1    0    0  501  502  0.00000000000E+00  0.00000000000E+00  0.15473092686E+03  0.15473092686E+03  0.00000000000E+00 0. -1.
          2   -1    0    0  503    0 -0.00000000000E+00 -0.00000000000E+00 -0.30819752275E+03  0.30819752275E+03  0.00000000000E+00 0. -1.
         24    2    1    2    0    0 -0.55253364960E+02  0.78274437250E+02 -0.47095800466E+02  0.13385277852E+03  0.80738652639E+02 0.  0.
         23    2    1    2    0    0  0.93930887542E+02 -0.13061049741E+03 -0.16492706077E+02  0.18587599379E+03  0.91628391052E+02 0.  0.
        -11    1    3    3    0    0 -0.13626444775E+02  0.29114140954E+02 -0.60081266260E+02  0.68140089199E+02  0.00000000000E+00 0.  1.
         12    1    3    3    0    0 -0.41626920185E+02  0.49160296296E+02  0.12985465793E+02  0.65712689321E+02  0.00000000000E+00 0. -1.
        -13    1    4    4    0    0  0.39355308050E+02 -0.83216358228E+01 -0.31543732338E+02  0.51118459917E+02  0.00000000000E+00 0.  1.
         13    1    4    4    0    0  0.54575579492E+02 -0.12228886158E+03  0.15051026261E+02  0.13475753387E+03  0.00000000000E+00 0. -1.
         21    1    1    2  503  502 -0.63990999962E-01  0.66468380607E+02 -0.36532798285E+02  0.75846523097E+02  0.00000000000E+00 0. -1.
          1    1    1    2  501    0 -0.38613531582E+02 -0.14132320450E+02 -0.53345291066E+02  0.67353154206E+02  0.00000000000E+00 0. -1.
<scales pt_clust_5="13000.00000" pt_clust_6="13000.00000" pt_clust_7="13000.00000" pt_clust_8="13000.00000" pt_clust_9="64.79705" pt_clust_10="41.11848"></scales>
<clustering>
<clus scale="   41.118">  1 10  2 -1</clus>
<clus scale="   64.797">  2  9  1 -1</clus>
<clus scale="   80.739">  5  6 -1 -1</clus>
<clus scale="   91.628">  7  8 -1 -1</clus>
<clus scale="  149.742">  2  5  1 -1</clus>
<clus scale="   41.118">  1  5  2 -1</clus>
</clustering>
</event>
<event>
10    4  0.2857708E-005  0.9979062E+02  0.7546771E-02  0.1288584E+00
         21   -1    0    0  501  502  0.00000000000E+00  0.00000000000E+00  0.12324998646E+02  0.12324998646E+02  0.00000000000E+00 0. -1.
          2   -1    0    0  503    0 -0.00000000000E+00 -0.00000000000E+00 -0.12132724114E+04  0.12132724114E+04  0.00000000000E+00 0. -1.
         24    2    1    2    0    0 -0.24939022989E+02 -0.15739246654E+02 -0.43201229253E+03  0.43953773126E+03  0.75426239167E+02 0.  0.
         23    2    1    2    0    0  0.39143690492E+02  0.48145947249E+02 -0.49177807644E+03  0.50392452960E+03  0.90796444421E+02 0.  0.
        -11    1    3    3    0    0 -0.85480865826E+01 -0.45881436288E+02 -0.24658125997E+03  0.25095914757E+03  0.00000000000E+00 0.  1.
         12    1    3    3    0    0 -0.16390936406E+02  0.30142189634E+02 -0.18543103256E+03  0.18857858369E+03  0.00000000000E+00 0. -1.
        -13    1    4    4    0    0  0.63184505462E+02  0.10218032946E+02 -0.25376219124E+03  0.26170964757E+03  0.00000000000E+00 0. -1.
         13    1    4    4    0    0 -0.24040814969E+02  0.37927914303E+02 -0.23801588520E+03  0.24221488203E+03  0.00000000000E+00 0.  1.
         21    1    1    2  503  502  0.11130617011E+02 -0.19949190473E+02 -0.89659425636E+02  0.92523907402E+02  0.00000000000E+00 0. -1.
          1    1    1    2  501    0 -0.25335284515E+02 -0.12457510122E+02 -0.18749761817E+03  0.18961124181E+03  0.00000000000E+00 0. -1.
<scales pt_clust_5="13000.00000" pt_clust_6="13000.00000" pt_clust_7="13000.00000" pt_clust_8="13000.00000" pt_clust_9="22.84427" pt_clust_10="28.20430"></scales>
<clustering>
<clus scale="   22.844">  1  9  2 -1</clus>
<clus scale="   28.204">  1 10  2 -1</clus>
<clus scale="   75.426">  5  6 -1 -1</clus>
<clus scale="   86.042">  2  5  1 -1</clus>
<clus scale="   90.796">  7  8 -1 -1</clus>
<clus scale="   22.844">  1  5  2 -1</clus>
</clustering>
</event>
<event>
10    4  0.2857708E-005  0.1751370E+03  0.7546771E-02  0.1198381E+00
          2   -1    0    0  503    0 -0.00000000000E+00  0.00000000000E+00  0.53998432245E+03  0.53998432245E+03  0.00000000000E+00 0. -1.
         21   -1    0    0  501  502  0.00000000000E+00 -0.00000000000E+00 -0.14073549237E+03  0.14073549237E+03  0.00000000000E+00 0. -1.
         23    2    1    2    0    0 -0.26672708341E+01  0.33228335131E+02  0.40728570311E+02  0.10754786896E+03  0.93789610770E+02 0.  0.
         24    2    1    2    0    0  0.99875944792E+02  0.28888097604E+02  0.18594053658E+03  0.22858319486E+03  0.82865356414E+02 0.  0.
        -13    1    4    4    0    0  0.57417475147E+02 -0.24194212195E+02  0.66309337395E+02  0.90989310261E+02  0.00000000000E+00 0.  1.
         14    1    4    4    0    0  0.42458469645E+02  0.53082309800E+02  0.11963119919E+03  0.13759388459E+03  0.00000000000E+00 0. -1.
        -11    1    3    3    0    0  0.23224243374E+02 -0.14017893766E+02 -0.14190989586E+02  0.30614555547E+02  0.00000000000E+00 0. -1.
         11    1    3    3    0    0 -0.25891514208E+02  0.47246228897E+02  0.54919559897E+02  0.76933313410E+02  0.00000000000E+00 0.  1.
         21    1    1    2  503  502  0.81914646011E+02 -0.29298449137E+02  0.13188242294E+03  0.15799171444E+03  0.00000000000E+00 0. -1.
          1    1    1    2  501    0 -0.17912331997E+03 -0.32817983598E+02  0.40697300250E+02  0.18659703656E+03  0.00000000000E+00 0. -1.
<scales pt_clust_5="13000.00000" pt_clust_6="13000.00000" pt_clust_7="13000.00000" pt_clust_8="13000.00000" pt_clust_9="86.99660" pt_clust_10="154.29288"></scales>
<clustering>
<clus scale="   82.865">  5  6 -1 -1</clus>
<clus scale="   86.997">  1  9  2 -1</clus>
<clus scale="   93.790">  7  8 -1 -1</clus>
<clus scale="   98.625">  1  7  2 -1</clus>
<clus scale="  154.293">  2 10  1 -1</clus>
<clus scale="  154.293">  2  5  1 -1</clus>
</clustering>
</event>
<event>
10    4  0.2857708E-005  0.1652084E+03  0.7546771E-02  0.1204595E+00
         -3   -1    0    0    0  501 -0.00000000000E+00  0.00000000000E+00  0.11948630085E+03  0.11948630085E+03  0.00000000000E+00 0.  1.
         21   -1    0    0  503  502  0.00000000000E+00 -0.00000000000E+00 -0.13497918578E+04  0.13497918578E+04  0.00000000000E+00 0.  1.
         23    2    1    2    0    0 -0.55846578025E+02 -0.37143204087E+00 -0.27524449430E+02  0.11045782334E+03  0.91237915262E+02 0.  0.
         24    2    1    2    0    0 -0.66920858133E+02 -0.91466346043E+02 -0.56221388172E+02  0.14948044179E+03  0.79618240855E+02 0.  0.
        -11    1    4    4    0    0 -0.19391495198E+02 -0.74403217157E+02 -0.61837256676E+02  0.98669727488E+02  0.00000000000E+00 0.  1.
         12    1    4    4    0    0 -0.47529362935E+02 -0.17063128886E+02  0.56158685047E+01  0.50810714297E+02  0.00000000000E+00 0. -1.
        -13    1    3    3    0    0 -0.34976132076E+02 -0.13353929485E+01 -0.61389400440E+02  0.70666622784E+02  0.00000000000E+00 0. -1.
         13    1    3    3    0    0 -0.20870445949E+02  0.96396090764E+00  0.33864951009E+02  0.39791200555E+02  0.00000000000E+00 0.  1.
         21    1    1    2  503  501  0.20725198009E+02 -0.15352756485E+02  0.20492078920E+02  0.32941861858E+02  0.00000000000E+00 0. -1.
         -4    1    1    2    0  502  0.10204223815E+03  0.10719053457E+03 -0.11670517982E+04  0.11763980316E+04  0.00000000000E+00 0.  1.
<scales pt_clust_5="13000.00000" pt_clust_6="13000.00000" pt_clust_7="13000.00000" pt_clust_8="13000.00000" pt_clust_9="25.79227" pt_clust_10="144.75757"></scales>
<clustering>
<clus scale="   25.792">  1  9  2 -1</clus>
<clus scale="   79.618">  5  6 -1 -1</clus>
<clus scale="   91.238">  7  8 -1 -1</clus>
<clus scale="  102.697">  1  7  2 -1</clus>
<clus scale="  144.758">  2 10  1 -1</clus>
<clus scale="  144.758">  2  5  1 -1</clus>
</clustering>
</event>
<event>
10    4  0.2857708E-005  0.1279604E+03  0.7546771E-02  0.1234085E+00
         21   -1    0    0  501  502  0.00000000000E+00  0.00000000000E+00  0.71345410697E+02  0.71345410697E+02  0.00000000000E+00 0. -1.
          2   -1    0    0  503    0 -0.00000000000E+00 -0.00000000000E+00 -0.85527217191E+03  0.85527217191E+03  0.00000000000E+00 0. -1.
         23    2    1    2    0    0 -0.88680801959E+02 -0.53980945568E+02 -0.51941807639E+03  0.53760545220E+03  0.91903520242E+02 0.  0.
         24    2    1    2    0    0 -0.46032687562E+01  0.56215088742E+02  0.51599823735E+00  0.96904934398E+02  0.78797041639E+02 0.  0.
        -11    1    4    4    0    0  0.26821919750E+01  0.52228251245E+02 -0.33356379524E+02  0.62029286928E+02  0.00000000000E+00 0.  1.
         12    1    4    4    0    0 -0.72854607312E+01  0.39868374970E+01  0.33872377761E+02  0.34875647470E+02  0.00000000000E+00 0. -1.
        -11    1    3    3    0    0 -0.22447339194E+02  0.89936722886E+01 -0.24888395929E+02  0.34701605583E+02  0.00000000000E+00 0.  1.
         11    1    3    3    0    0 -0.66233462765E+02 -0.62974617857E+02 -0.49452968046E+03  0.50290384661E+03  0.00000000000E+00 0. -1.
         21    1    1    2  503  502  0.35926052689E+02 -0.33613248843E+02 -0.16841244833E+03  0.17545165862E+03  0.00000000000E+00 0. -1.
          1    1    1    2  501    0  0.57358018026E+02  0.31379105669E+02 -0.96612234740E+02  0.11665553740E+03  0.00000000000E+00 0. -1.
<scales pt_clust_5="13000.00000" pt_clust_6="13000.00000" pt_clust_7="13000.00000" pt_clust_8="13000.00000" pt_clust_9="49.19890" pt_clust_10="68.17234"></scales>
<clustering>
<clus scale="   49.199">  2  9  1 -1</clus>
<clus scale="   68.172">  1 10  2 -1</clus>
<clus scale="   78.797">  5  6 -1 -1</clus>
<clus scale="   91.904">  7  8 -1 -1</clus>
<clus scale="  118.897">  1  5  2 -1</clus>
<clus scale="   68.172">  1  5  2 -1</clus>
</clustering>
</event>
<event>
10    4  0.2857708E-005  0.1371971E+03  0.7546771E-02  0.1219617E+00
         -1   -1    0    0    0  501 -0.00000000000E+00  0.00000000000E+00  0.11104660678E+03  0.11104660678E+03  0.00000000000E+00 0.  1.
         21   -1    0    0  503  502  0.00000000000E+00 -0.00000000000E+00 -0.48581280009E+03  0.48581280009E+03  0.00000000000E+00 0.  1.
         24    2    1    2    0    0 -0.75529635494E+02  0.94550219631E+02 -0.35060935901E+02  0.15053500551E+03  0.82383546824E+02 0.  0.
         23    2    1    2    0    0  0.60159543938E+02 -0.21023443056E+02 -0.22224081091E+03  0.24918985763E+03  0.92970163098E+02 0.  0.
        -11    1    3    3    0    0 -0.92941964281E+02  0.72152353656E+02 -0.23993485103E+02  0.12008271395E+03  0.00000000000E+00 0.  1.
         12    1    3    3    0    0  0.17412328787E+02  0.22397865975E+02 -0.11067450798E+02  0.30452291558E+02  0.00000000000E+00 0. -1.
        -13    1    4    4    0    0  0.22586634790E+02 -0.52766552744E+02 -0.15919749305E+03  0.16922856423E+03  0.00000000000E+00 0.  1.
         13    1    4    4    0    0  0.37572909148E+02  0.31743109688E+02 -0.63043317864E+02  0.79961293397E+02  0.00000000000E+00 0. -1.
         21    1    1    2  503  501 -0.20618266813E+02 -0.26815355891E+02  0.25582538933E+02  0.42410405990E+02  0.00000000000E+00 0.  1.
         -2    1    1    2    0  502  0.35988358369E+02 -0.46711420684E+02 -0.14304698543E+03  0.15472413775E+03  0.00000000000E+00 0.  1.
<scales pt_clust_5="13000.00000" pt_clust_6="13000.00000" pt_clust_7="13000.00000" pt_clust_8="13000.00000" pt_clust_9="33.82567" pt_clust_10="59.67467"></scales>
<clustering>
<clus scale="   33.826">  1  9  2 -1</clus>
<clus scale="   59.675">  2 10  1 -1</clus>
<clus scale="   82.384">  5  6 -1 -1</clus>
<clus scale="   92.970">  7  8 -1 -1</clus>
<clus scale="  130.256">  1  5  2 -1</clus>
<clus scale="   59.675">  2  5  1 -1</clus>
</clustering>
</event>
<event>
10    4  0.2857708E-005  0.1471420E+03  0.7546771E-02  0.1206124E+00
         21   -1    0    0  501  502  0.00000000000E+00  0.00000000000E+00  0.19840832082E+03  0.19840832082E+03  0.00000000000E+00 0. -1.
          2   -1    0    0  503    0 -0.00000000000E+00 -0.00000000000E+00 -0.98313909701E+03  0.98313909701E+03  0.00000000000E+00 0. -1.
         24    2    1    2    0    0 -0.15853273911E+03  0.69741029467E+01 -0.78828392516E+03  0.80822751878E+03  0.81602132080E+02 0.  0.
         23    2    1    2    0    0  0.86578871887E+02 -0.20229559240E+02  0.11369730744E+03  0.17134409534E+03  0.92339510311E+02 0.  0.
        -11    1    3    3    0    0 -0.60670884483E+02 -0.22732135396E+02 -0.17780778236E+03  0.18924405848E+03  0.00000000000E+00 0.  1.
         12    1    3    3    0    0 -0.97861854627E+02  0.29706238343E+02 -0.61047614281E+03  0.61898346030E+03  0.00000000000E+00 0. -1.
        -13    1    4    4    0    0  0.10339491490E+03 -0.24826416656E+01  0.87075072279E+02  0.13519889108E+03  0.00000000000E+00 0.  1.
         13    1    4    4    0    0 -0.16816043013E+02 -0.17746917575E+02  0.26622235163E+02  0.36145204262E+02  0.00000000000E+00 0. -1.
         21    1    1    2  503  502  0.45276802059E+02  0.10389260658E+02 -0.14825798885E+03  0.15536523678E+03  0.00000000000E+00 0.  1.
          1    1    1    2  501    0  0.26677065164E+02  0.28661956352E+01  0.38113830379E+02  0.46610566928E+02  0.00000000000E+00 0. -1.
<scales pt_clust_5="13000.00000" pt_clust_6="13000.00000" pt_clust_7="13000.00000" pt_clust_8="13000.00000" pt_clust_9="47.06026" pt_clust_10="26.83060"></scales>
<clustering>
<clus scale="   26.831">  1 10  2 -1</clus>
<clus scale="   47.060">  2  9  1 -1</clus>
<clus scale="   81.602">  5  6 -1 -1</clus>
<clus scale="   92.340">  7  8 -1 -1</clus>
<clus scale="  140.652">  2  5  1 -1</clus>
<clus scale="   26.831">  1  5  2 -1</clus>
</clustering>
</event>
<event>
10    4  0.2857708E-005  0.1727243E+03  0.7546771E-02  0.1201797E+00
          2   -1    0    0  503    0 -0.00000000000E+00  0.00000000000E+00  0.12403097065E+04  0.12403097065E+04  0.00000000000E+00 0. -1.
         21   -1    0    0  501  502  0.00000000000E+00 -0.00000000000E+00 -0.72481815636E+02  0.72481815636E+02  0.00000000000E+00 0. -1.
         24    2    1    2    0    0  0.13126513132E+03  0.37123863377E+02  0.12617170387E+03  0.20218267083E+03  0.79685742747E+02 0.  0.
         23    2    1    2    0    0  0.21687993078E+02 -0.12623562810E+02  0.88325068742E+02  0.13105400591E+03  0.93509953020E+02 0.  0.
        -13    1    3    3    0    0  0.10592650666E+03  0.20194264774E+02  0.13272792934E+03  0.17101150946E+03  0.00000000000E+00 0.  1.
         14    1    3    3    0    0  0.25338624662E+02  0.16929598603E+02 -0.65562254757E+01  0.31171161369E+02  0.00000000000E+00 0. -1.
        -11    1    4    4    0    0  0.26302641054E+02  0.26515240073E+02  0.34887883626E+01  0.37510778808E+02  0.00000000000E+00 0.  1.
         11    1    4    4    0    0 -0.46146479759E+01 -0.39138802883E+02  0.84836280379E+02  0.93543227097E+02  0.00000000000E+00 0. -1.
         21    1    1    2  503  502 -0.14507046034E+03 -0.58171474137E+02  0.91363638421E+03  0.92690927356E+03  0.00000000000E+00 0.  1.
          1    1    1    2  501    0 -0.78826640574E+01  0.33671173570E+02  0.39694734038E+02  0.52645571823E+02  0.00000000000E+00 0. -1.
<scales pt_clust_5="13000.00000" pt_clust_6="13000.00000" pt_clust_7="13000.00000" pt_clust_8="13000.00000" pt_clust_9="153.24451" pt_clust_10="34.58156"></scales>
<clustering>
<clus scale="   34.582">  2 10  1 -1</clus>
<clus scale="   79.686">  5  6 -1 -1</clus>
<clus scale="   93.510">  7  8 -1 -1</clus>
<clus scale="   95.464">  2  7  1 -1</clus>
<clus scale="  153.245">  1  9  2 -1</clus>
<clus scale="   34.582">  2  5  1 -1</clus>
</clustering>
</event>
<event>
10    4  0.2857708E-005  0.2253195E+03  0.7546771E-02  0.1149664E+00
         21   -1    0    0  501  502  0.00000000000E+00  0.00000000000E+00  0.14958703692E+03  0.14958703692E+03  0.00000000000E+00 0.  1.
          2   -1    0    0  503    0 -0.00000000000E+00 -0.00000000000E+00 -0.87865551367E+03  0.87865551367E+03  0.00000000000E+00 0. -1.
         23    2    1    2    0    0 -0.10034417155E+03  0.33901413164E+02 -0.18646652092E+03  0.23664722955E+03  0.10006942217E+03 0.  0.
         24    2    1    2    0    0  0.21919477851E+03 -0.92213729436E+02 -0.56203760877E+02  0.25743394064E+03  0.81016345485E+02 0.  0.
        -13    1    4    4    0    0  0.22368971759E+03 -0.96431506534E+02 -0.49960928754E+02  0.24866085259E+03  0.00000000000E+00 0.  1.
         14    1    4    4    0    0 -0.44949390852E+01  0.42177770981E+01 -0.62428321224E+01  0.87730880503E+01  0.00000000000E+00 0. -1.
        -11    1    3    3    0    0 -0.10975645200E+03  0.85246533703E+01 -0.11039643968E+03  0.15590549178E+03  0.00000000000E+00 0. -1.
         11    1    3    3    0    0  0.94122804487E+01  0.25376759794E+02 -0.76070081231E+02  0.80741737777E+02  0.00000000000E+00 0.  1.
         21    1    1    2  503  502  0.16596528128E+02 -0.29512472315E+02 -0.22059469306E+03  0.22317806651E+03  0.00000000000E+00 0.  1.
          1    1    1    2  501    0 -0.13544713508E+03  0.87824788586E+02 -0.26580350190E+03  0.31098331389E+03  0.00000000000E+00 0. -1.
<scales pt_clust_5="13000.00000" pt_clust_6="13000.00000" pt_clust_7="13000.00000" pt_clust_8="13000.00000" pt_clust_9="33.85898" pt_clust_10="210.25050"></scales>
<clustering>
<clus scale="   33.859">  2  9  1 -1</clus>
<clus scale="   81.016">  5  6 -1 -1</clus>
<clus scale="  100.069">  7  8 -1 -1</clus>
<clus scale="  140.120">  2  7  1 -1</clus>
<clus scale="  210.251">  1 10  2 -1</clus>
<clus scale="  210.251">  1  5  2 -1</clus>
</clustering>
</event>
<event>
10    4  0.2857708E-005  0.1173399E+03  0.7546771E-02  0.1250602E+00
         21   -1    0    0  503  502  0.00000000000E+00  0.00000000000E+00  0.45461751038E+03  0.45461751038E+03  0.00000000000E+00 0.  1.
         -1   -1    0    0    0  501 -0.00000000000E+00 -0.00000000000E+00 -0.16204322524E+03  0.16204322524E+03  0.00000000000E+00 0.  1.
         23    2    1    2    0    0  0.71119303534E+02  0.18533369135E+02 -0.87689222234E+02  0.14511617013E+03  0.89262881591E+02 0.  0.
         24    2    1    2    0    0 -0.78747372152E+02 -0.31960508041E+02  0.51145565953E+02  0.12737380764E+03  0.79909919669E+02 0.  0.
        -13    1    4    4    0    0 -0.42330424680E+01  0.21464159597E+02  0.22339175275E+02  0.31267675765E+02  0.00000000000E+00 0.  1.
         14    1    4    4    0    0 -0.74514329684E+02 -0.53424667639E+02  0.28806390678E+02  0.96106131878E+02  0.00000000000E+00 0. -1.
        -11    1    3    3    0    0  0.18372894819E+01  0.39958857651E+02 -0.15816312637E+02  0.43014435749E+02  0.00000000000E+00 0.  1.
         11    1    3    3    0    0  0.69282014052E+02 -0.21425488515E+02 -0.71872909596E+02  0.10210173438E+03  0.00000000000E+00 0. -1.
         21    1    1    2  503  501 -0.38743279846E+02  0.31278960398E+02  0.19110416389E+03  0.19748472486E+03  0.00000000000E+00 0.  1.
         -2    1    1    2    0  502  0.46371348464E+02 -0.17851821493E+02  0.13801377752E+03  0.14668603299E+03  0.00000000000E+00 0.  1.
<scales pt_clust_5="13000.00000" pt_clust_6="13000.00000" pt_clust_7="13000.00000" pt_clust_8="13000.00000" pt_clust_9="22.46589" pt_clust_10="49.68893"></scales>
<clustering>
<clus scale="   49.689">  1 10  2 -1</clus>
<clus scale="   22.466">  1  9  2 -1</clus>
<clus scale="   79.910">  5  6 -1 -1</clus>
<clus scale="   89.263">  7  8 -1 -1</clus>
<clus scale="  110.392">  1  5  2 -1</clus>
<clus scale="   49.689">  1  5  2 -1</clus>
</clustering>
</event>
<event>
10    4  0.2857708E-005  0.3074950E+03  0.7546771E-02  0.1124519E+00
         -1   -1    0    0    0  501 -0.00000000000E+00  0.00000000000E+00  0.36369737223E+03  0.36369737223E+03  0.00000000000E+00 0.  1.
         21   -1    0    0  503  502  0.00000000000E+00 -0.00000000000E+00 -0.44378705903E+03  0.44378705903E+03  0.00000000000E+00 0.  1.
         23    2    1    2    0    0  0.25118289723E+02  0.20688416302E+02 -0.44353472079E+01  0.10222808503E+03  0.96808935622E+02 0.  0.
         24    2    1    2    0    0  0.22732313520E+03 -0.14976164370E+03 -0.37112953826E+02  0.28539458410E+03  0.77255029417E+02 0.  0.
        -13    1    4    4    0    0  0.22306070290E+03 -0.13015397481E+03 -0.20011595891E+02  0.25903011081E+03  0.00000000000E+00 0.  1.
         14    1    4    4    0    0  0.42624322985E+01 -0.19607668890E+02 -0.17101357935E+02  0.26364473285E+02  0.00000000000E+00 0. -1.
        -11    1    3    3    0    0  0.44102730887E+02  0.36760455690E+02 -0.31484851347E+02  0.65480362236E+02  0.00000000000E+00 0. -1.
         11    1    3    3    0    0 -0.18984441163E+02 -0.16072039388E+02  0.27049504139E+02  0.36747722794E+02  0.00000000000E+00 0.  1.
         21    1    1    2  503  501  0.15125234719E+02 -0.49540413517E+02  0.63883411265E+02  0.82244243152E+02  0.00000000000E+00 0.  1.
         -2    1    1    2    0  502 -0.26756665964E+03  0.17861364091E+03 -0.10242479703E+03  0.33761751898E+03  0.00000000000E+00 0.  1.
<scales pt_clust_5="13000.00000" pt_clust_6="13000.00000" pt_clust_7="13000.00000" pt_clust_8="13000.00000" pt_clust_9="51.79793" pt_clust_10="297.63206"></scales>
<clustering>
<clus scale="   51.798">  1  9  2 -1</clus>
<clus scale="   77.255">  5  6 -1 -1</clus>
<clus scale="   96.809">  7  8 -1 -1</clus>
<clus scale="  101.439">  1  7  2 -1</clus>
<clus scale="  297.632">  2 10  1 -1</clus>
<clus scale="  297.632">  2  5  1 -1</clus>
</clustering>
</event>
<event>
10    4  0.2857708E-005  0.1261277E+03  0.7546771E-02  0.1235250E+00
         21   -1    0    0  501  502  0.00000000000E+00  0.00000000000E+00  0.17988719397E+03  0.17988719397E+03  0.00000000000E+00 0.  1.
          2   -1    0    0  503    0 -0.00000000000E+00 -0.00000000000E+00 -0.51291471003E+03  0.51291471003E+03  0.00000000000E+00 0. -1.
         24    2    1    2    0    0  0.91686936271E+02  0.49918544006E+02 -0.92283038717E+02  0.16139411947E+03  0.81446591365E+02 0.  0.
         23    2    1    2    0    0 -0.70866855667E+02 -0.10594492560E+02  0.11641886217E+03  0.16288965841E+03  0.88573894814E+02 0.  0.
        -11    1    3    3    0    0  0.10286830296E+03  0.53772912523E+02 -0.94102557988E+02  0.14942792675E+03  0.00000000000E+00 0.  1.
         12    1    3    3    0    0 -0.11181366686E+02 -0.38543685170E+01  0.18195192708E+01  0.11966192711E+02  0.00000000000E+00 0. -1.
        -11    1    4    4    0    0 -0.18449619322E+02  0.36801370248E+02  0.58425384807E+02  0.71472056744E+02  0.00000000000E+00 0.  1.
         11    1    4    4    0    0 -0.52417236345E+02 -0.47395862808E+02  0.57993477364E+02  0.91417601665E+02  0.00000000000E+00 0. -1.
         21    1    1    2  503  502 -0.38014420156E+02  0.56198200656E+00 -0.87835204631E+02  0.95710162136E+02  0.00000000000E+00 0.  1.
          1    1    1    2  501    0  0.17194339552E+02 -0.39886033452E+02 -0.26932813488E+03  0.27280796399E+03  0.00000000000E+00 0. -1.
<scales pt_clust_5="13000.00000" pt_clust_6="13000.00000" pt_clust_7="13000.00000" pt_clust_8="13000.00000" pt_clust_9="38.01857" pt_clust_10="40.18804"></scales>
<clustering>
<clus scale="   38.019">  2  9  1 -1</clus>
<clus scale="   40.188">  1 10  2 -1</clus>
<clus scale="   81.447">  5  6 -1 -1</clus>
<clus scale="   88.574">  7  8 -1 -1</clus>
<clus scale="  121.229">  2  5  1 -1</clus>
<clus scale="   40.188">  1  5  2 -1</clus>
</clustering>
</event>
<event>
10    4  0.2857708E-005  0.9475521E+02  0.7546771E-02  0.1298208E+00
         21   -1    0    0  501  502  0.00000000000E+00  0.00000000000E+00  0.97025573897E+02  0.97025573897E+02  0.00000000000E+00 0.  1.
          2   -1    0    0  503    0 -0.00000000000E+00 -0.00000000000E+00 -0.31273196972E+03  0.31273196972E+03  0.00000000000E+00 0. -1.
         24    2    1    2    0    0 -0.20645566066E+02 -0.17117997728E+02 -0.16312938469E+03  0.18337629525E+03  0.79349885103E+02 0.  0.
         23    2    1    2    0    0 -0.33446666710E+02  0.64092616010E+02 -0.18077864361E+02  0.11735107677E+03  0.90652761121E+02 0.  0.
        -11    1    3    3    0    0  0.33886676262E+01  0.20881462362E+02 -0.92964000666E+01  0.23107176220E+02  0.00000000000E+00 0.  1.
         12    1    3    3    0    0 -0.24034233692E+02 -0.37999460090E+02 -0.15383298463E+03  0.16026911903E+03  0.00000000000E+00 0. -1.
        -11    1    4    4    0    0 -0.50078333501E+02  0.48738744038E+02  0.20322684257E+02  0.72775793723E+02  0.00000000000E+00 0.  1.
         11    1    4    4    0    0  0.16631666792E+02  0.15353871972E+02 -0.38400548618E+02  0.44575283049E+02  0.00000000000E+00 0. -1.
         21    1    1    2  503  502  0.32047345742E+01 -0.50960733093E+02 -0.85596714442E+01  0.51773879672E+02  0.00000000000E+00 0. -1.
          1    1    1    2  501    0  0.50887498201E+02  0.39861148114E+01 -0.25939475327E+02  0.57256291922E+02  0.00000000000E+00 0. -1.
<scales pt_clust_5="13000.00000" pt_clust_6="13000.00000" pt_clust_7="13000.00000" pt_clust_8="13000.00000" pt_clust_9="52.62814" pt_clust_10="51.04338"></scales>
<clustering>
<clus scale="   51.043">  1 10  2 -1</clus>
<clus scale="   52.628">  1  9  2 -1</clus>
<clus scale="   79.350">  5  6 -1 -1</clus>
<clus scale="   84.006">  2  5  1 -1</clus>
<clus scale="   90.653">  7  8 -1 -1</clus>
<clus scale="   51.043">  1  5  2 -1</clus>
</clustering>
</event>
<event>
10    4  0.2857708E-005  0.1147290E+03  0.7546771E-02  0.1257007E+00
         21   -1    0    0  501  502  0.00000000000E+00  0.00000000000E+00  0.89840546438E+02  0.89840546438E+02  0.00000000000E+00 0. -1.
          2   -1    0    0  503    0 -0.00000000000E+00 -0.00000000000E+00 -0.80516601090E+03  0.80516601090E+03  0.00000000000E+00 0. -1.
         24    2    1    2    0    0 -0.80237489639E+02 -0.47517609630E+02 -0.12392031859E+03  0.17557254096E+03  0.82301238217E+02 0.  0.
         23    2    1    2    0    0  0.68001324444E+00  0.24470418177E+02 -0.34715067010E+01  0.98650481144E+02  0.95501844419E+02 0.  0.
        -13    1    3    3    0    0 -0.72779955400E+02 -0.64556618967E+02 -0.73793683471E+02  0.12210645634E+03  0.00000000000E+00 0.  1.
         14    1    3    3    0    0 -0.74575342396E+01  0.17039009337E+02 -0.50126635121E+02  0.53466084621E+02  0.00000000000E+00 0. -1.
        -13    1    4    4    0    0  0.27855429340E+02 -0.27971426091E+02 -0.29142079342E+01  0.39583054823E+02  0.00000000000E+00 0. -1.
         13    1    4    4    0    0 -0.27175416096E+02  0.52441844268E+02 -0.55729876688E+00  0.59067426320E+02  0.00000000000E+00 0.  1.
         21    1    1    2  503  502  0.64618078661E+02 -0.57041511540E+02 -0.13214205928E+03  0.15776803846E+03  0.00000000000E+00 0. -1.
          1    1    1    2  501    0  0.14939397734E+02  0.80088702993E+02 -0.45579157988E+03  0.46301549676E+03  0.00000000000E+00 0. -1.
<scales pt_clust_5="13000.00000" pt_clust_6="13000.00000" pt_clust_7="13000.00000" pt_clust_8="13000.00000" pt_clust_9="80.65366" pt_clust_10="81.47019"></scales>
<clustering>
<clus scale="   81.470">  1 10  2 -1</clus>
<clus scale="   80.654">  2  9  1 -1</clus>
<clus scale="   82.301">  5  6 -1 -1</clus>
<clus scale="   95.502">  7  8 -1 -1</clus>
<clus scale="  103.998">  2  5  1 -1</clus>
<clus scale="   81.470">  1  5  2 -1</clus>
</clustering>
</event>
<event>
10    4  0.2857708E-005  0.1664173E+03  0.7546771E-02  0.1206629E+00
         21   -1    0    0  503  502  0.00000000000E+00  0.00000000000E+00  0.73331305886E+03  0.73331305886E+03  0.00000000000E+00 0. -1.
         -3   -1    0    0    0  501 -0.00000000000E+00 -0.00000000000E+00 -0.11969191762E+03  0.11969191762E+03  0.00000000000E+00 0.  1.
         23    2    1    2    0    0  0.35830244474E+02  0.12556921341E+02  0.29179317094E+02  0.10083802432E+03  0.88743404882E+02 0.  0.
         24    2    1    2    0    0  0.11849859209E+03  0.60022212993E+02  0.44222627709E+03  0.46961986465E+03  0.85639679740E+02 0.  0.
        -11    1    4    4    0    0  0.18573162236E+01  0.35409544011E+02  0.65492339746E+02  0.74475042773E+02  0.00000000000E+00 0.  1.
         12    1    4    4    0    0  0.11664127587E+03  0.24612668982E+02  0.37673393734E+03  0.39514482187E+03  0.00000000000E+00 0. -1.
        -11    1    3    3    0    0 -0.71822652249E+01 -0.21525409468E+02 -0.17607698141E+02  0.28722103341E+02  0.00000000000E+00 0. -1.
         11    1    3    3    0    0  0.43012509699E+02  0.34082330809E+02  0.46787015235E+02  0.72115920979E+02  0.00000000000E+00 0.  1.
         21    1    1    2  503  501 -0.16972074181E+02  0.25875175438E+02 -0.28688096858E+02  0.42196953768E+02  0.00000000000E+00 0.  1.
         -4    1    1    2    0  502 -0.13735676239E+03 -0.98454309772E+02  0.17090364392E+03  0.24035013374E+03  0.00000000000E+00 0.  1.
<scales pt_clust_5="13000.00000" pt_clust_6="13000.00000" pt_clust_7="13000.00000" pt_clust_8="13000.00000" pt_clust_9="30.94473" pt_clust_10="142.69046"></scales>
<clustering>
<clus scale="   30.945">  2  9  1 -1</clus>
<clus scale="   85.640">  5  6 -1 -1</clus>
<clus scale="   88.743">  7  8 -1 -1</clus>
<clus scale="   96.173">  2  7  1 -1</clus>
<clus scale="  142.690">  1 10  2 -1</clus>
<clus scale="  142.690">  1  5  2 -1</clus>
</clustering>
</event>
<event>
10    4  0.2857708E-005  0.1197445E+03  0.7546771E-02  0.1249313E+00
         21   -1    0    0  501  502  0.00000000000E+00  0.00000000000E+00  0.71019277214E+02  0.71019277214E+02  0.00000000000E+00 0. -1.
          2   -1    0    0  503    0 -0.00000000000E+00 -0.00000000000E+00 -0.11082226791E+04  0.11082226791E+04  0.00000000000E+00 0. -1.
         24    2    1    2    0    0 -0.65321275662E+02  0.33471719282E+02 -0.41440810597E+03  0.42790247440E+03  0.77325443788E+02 0.  0.
         23    2    1    2    0    0 -0.32052240174E+02  0.58018964891E+02 -0.51497885612E+02  0.12404141217E+03  0.91327396351E+02 0.  0.
        -11    1    3    3    0    0 -0.10436747472E+02  0.46707861000E+02 -0.23487076070E+03  0.23969735962E+03  0.00000000000E+00 0.  1.
         12    1    3    3    0    0 -0.54884528190E+02 -0.13236141719E+02 -0.17953734527E+03  0.18820511478E+03  0.00000000000E+00 0. -1.
        -13    1    4    4    0    0 -0.10992991521E+02  0.42986798662E+02  0.19507264316E+02  0.48469001258E+02  0.00000000000E+00 0. -1.
         13    1    4    4    0    0 -0.21059248653E+02  0.15032166228E+02 -0.71005149928E+02  0.75572410916E+02  0.00000000000E+00 0.  1.
         21    1    1    2  503  502  0.13237968970E+03 -0.58564604327E+01 -0.47753381491E+03  0.49557766773E+03  0.00000000000E+00 0. -1.
          1    1    1    2  501    0 -0.35006173860E+02 -0.85634223740E+02 -0.93763595387E+02  0.13172040200E+03  0.00000000000E+00 0. -1.
<scales pt_clust_5="13000.00000" pt_clust_6="13000.00000" pt_clust_7="13000.00000" pt_clust_8="13000.00000" pt_clust_9="77.44712" pt_clust_10="92.51299"></scales>
<clustering>
<clus scale="   77.325">  5  6 -1 -1</clus>
<clus scale="   91.327">  7  8 -1 -1</clus>
<clus scale="   92.513">  1 10  2 -1</clus>
<clus scale="  106.583">  2  5  1 -1</clus>
<clus scale="   77.447">  2  9  1 -1</clus>
<clus scale="   92.513">  1  5  2 -1</clus>
</clustering>
</event>
<event>
10    4  0.2857708E-005  0.9698552E+02  0.7546771E-02  0.1293536E+00
          2   -1    0    0  503    0 -0.00000000000E+00  0.00000000000E+00  0.32571069427E+03  0.32571069427E+03  0.00000000000E+00 0. -1.
         21   -1    0    0  501  502  0.00000000000E+00 -0.00000000000E+00 -0.85262292146E+02  0.85262292146E+02  0.00000000000E+00 0. -1.
         24    2    1    2    0    0 -0.39815568894E+02 -0.12125318102E+02  0.11568601229E+03  0.14635001189E+03  0.79389984731E+02 0.  0.
         23    2    1    2    0    0  0.29952813906E+02 -0.14309295008E+02  0.66775530814E+02  0.11819561057E+03  0.91702256561E+02 0.  0.
        -13    1    3    3    0    0 -0.82194951639E+01  0.31263572495E+02  0.64669203292E+02  0.72298526404E+02  0.00000000000E+00 0.  1.
         14    1    3    3    0    0 -0.31596073730E+02 -0.43388890597E+02  0.51016808999E+02  0.74051485487E+02  0.00000000000E+00 0. -1.
        -13    1    4    4    0    0 -0.19371532985E+02  0.24999677382E+02  0.36305803932E+02  0.48149263323E+02  0.00000000000E+00 0.  1.
         13    1    4    4    0    0  0.49324346891E+02 -0.39308972390E+02  0.30469726882E+02  0.70046347249E+02  0.00000000000E+00 0. -1.
         21    1    1    2  503  502  0.20993057278E+02  0.94353358661E+00  0.96588650654E+02  0.98848197478E+02  0.00000000000E+00 0.  1.
          1    1    1    2  501    0 -0.11130302290E+02  0.25491079523E+02 -0.38601791639E+02  0.47579166471E+02  0.00000000000E+00 0. -1.
<scales pt_clust_5="13000.00000" pt_clust_6="13000.00000" pt_clust_7="13000.00000" pt_clust_8="13000.00000" pt_clust_9="21.01425" pt_clust_10="27.66941"></scales>
<clustering>
<clus scale="   21.014">  1  9  2 -1</clus>
<clus scale="   27.669">  2 10  1 -1</clus>
<clus scale="   79.390">  5  6 -1 -1</clus>
<clus scale="   85.438">  1  5  2 -1</clus>
<clus scale="   91.702">  7  8 -1 -1</clus>
<clus scale="   27.669">  2  5  1 -1</clus>
</clustering>
</event>
<event>
10    4  0.2857708E-005  0.1912134E+03  0.7546771E-02  0.1160393E+00
          2   -1    0    0  503    0 -0.00000000000E+00  0.00000000000E+00  0.15013293383E+04  0.15013293383E+04  0.00000000000E+00 0. -1.
         21   -1    0    0  501  502  0.00000000000E+00 -0.00000000000E+00 -0.12081615619E+03  0.12081615619E+03  0.00000000000E+00 0.  1.
         24    2    1    2    0    0  0.74732953846E+02 -0.13241299035E+03  0.11560529477E+04  0.11676108377E+04  0.61142751475E+02 0.  0.
         23    2    1    2    0    0 -0.76671657257E+02  0.12588284409E+03  0.47137285946E+02  0.18025772240E+03  0.92443979227E+02 0.  0.
        -11    1    3    3    0    0  0.71171331122E+02 -0.88900378727E+02  0.67079898687E+03  0.68039688160E+03  0.00000000000E+00 0.  1.
         12    1    3    3    0    0  0.35616227248E+01 -0.43512611619E+02  0.48525396083E+03  0.48721395611E+03  0.00000000000E+00 0. -1.
        -13    1    4    4    0    0 -0.31374304985E+02  0.11131901897E+03  0.35192159994E+01  0.11570935952E+03  0.00000000000E+00 0.  1.
         13    1    4    4    0    0 -0.45297352272E+02  0.14563825115E+02  0.43618069947E+02  0.64548362882E+02  0.00000000000E+00 0. -1.
         21    1    1    2  503  502 -0.84178250421E+01 -0.26462322386E+02  0.21864134444E+03  0.22039771275E+03  0.00000000000E+00 0. -1.
          1    1    1    2  501    0  0.10356528453E+02  0.32992468644E+02 -0.41318396026E+02  0.53879221589E+02  0.00000000000E+00 0. -1.
<scales pt_clust_5="13000.00000" pt_clust_6="13000.00000" pt_clust_7="13000.00000" pt_clust_8="13000.00000" pt_clust_9="27.76894" pt_clust_10="34.44372"></scales>
<clustering>
<clus scale="   27.769">  1  9  2 -1</clus>
<clus scale="   34.444">  2 10  1 -1</clus>
<clus scale="   61.143">  5  6 -1 -1</clus>
<clus scale="   92.444">  7  8 -1 -1</clus>
<clus scale="  178.200">  1  5  2 -1</clus>
<clus scale="   34.444">  2  5  1 -1</clus>
</clustering>
</event>
<event>
10    4  0.2857708E-005  0.1305510E+03  0.7546771E-02  0.1246415E+00
          2   -1    0    0  503    0 -0.00000000000E+00  0.00000000000E+00  0.68753469217E+03  0.68753469217E+03  0.00000000000E+00 0. -1.
         21   -1    0    0  501  502  0.00000000000E+00 -0.00000000000E+00 -0.88981125301E+02  0.88981125301E+02  0.00000000000E+00 0. -1.
         24    2    1    2    0    0 -0.33238989031E+02  0.67194846437E+01  0.53693137373E+02  0.10237619551E+03  0.80299131626E+02 0.  0.
         23    2    1    2    0    0 -0.55733154502E+02 -0.63566943850E+02  0.70411474632E+02  0.14280371810E+03  0.91039471006E+02 0.  0.
        -11    1    3    3    0    0 -0.64618155167E+01 -0.26014755988E+02 -0.76427934700E+01  0.27873551638E+02  0.00000000000E+00 0.  1.
         12    1    3    3    0    0 -0.26777173515E+02  0.32734240632E+02  0.61335930843E+02  0.74502643870E+02  0.00000000000E+00 0. -1.
        -11    1    4    4    0    0 -0.34660309916E+02 -0.38200534011E+02 -0.12928153475E+02  0.53176639932E+02  0.00000000000E+00 0. -1.
         11    1    4    4    0    0 -0.21072844586E+02 -0.25366409839E+02  0.83339628107E+02  0.89627078164E+02  0.00000000000E+00 0.  1.
         21    1    1    2  503  502 -0.19550873511E+02  0.10920999696E+03  0.16100573940E+03  0.19552981412E+03  0.00000000000E+00 0. -1.
          1    1    1    2  501    0  0.10852301704E+03 -0.52362537757E+02  0.31344321546E+03  0.33580608974E+03  0.00000000000E+00 0. -1.
<scales pt_clust_5="13000.00000" pt_clust_6="13000.00000" pt_clust_7="13000.00000" pt_clust_8="13000.00000" pt_clust_9="93.57019" pt_clust_10="103.09253"></scales>
<clustering>
<clus scale="   80.299">  5  6 -1 -1</clus>
<clus scale="   87.166">  1  5  2 -1</clus>
<clus scale="   91.039">  7  8 -1 -1</clus>
<clus scale="  103.093">  2 10  1 -1</clus>
<clus scale="   93.570">  1  9  2 -1</clus>
<clus scale="  103.093">  2  5  1 -1</clus>
</clustering>
</event>
<event>
10    4  0.2857708E-005  0.1170068E+03  0.7546771E-02  0.1252430E+00
         21   -1    0    0  501  502  0.00000000000E+00  0.00000000000E+00  0.10252100643E+03  0.10252100643E+03  0.00000000000E+00 0. -1.
          2   -1    0    0  503    0 -0.00000000000E+00 -0.00000000000E+00 -0.66439804907E+03  0.66439804907E+03  0.00000000000E+00 0. -1.
         23    2    1    2    0    0 -0.18381042154E+02 -0.42719896037E+02 -0.25741761242E+03  0.27774035529E+03  0.93343588675E+02 0.  0.
         24    2    1    2    0    0  0.10427480797E+03  0.35576886572E+02 -0.28391507126E+03  0.31510932280E+03  0.80914567243E+02 0.  0.
        -11    1    4    4    0    0  0.63888746256E+02  0.41466515511E+02 -0.94632050474E+02  0.12147620666E+03  0.00000000000E+00 0.  1.
         12    1    4    4    0    0  0.40386061715E+02 -0.58896289391E+01 -0.18928302079E+03  0.19363311615E+03  0.00000000000E+00 0. -1.
        -13    1    3    3    0    0 -0.37611508723E+02  0.13695961498E+02 -0.14593171390E+03  0.15132174355E+03  0.00000000000E+00 0.  1.
         13    1    3    3    0    0  0.19230466570E+02 -0.56415857536E+02 -0.11148589852E+03  0.12641861174E+03  0.00000000000E+00 0. -1.
         21    1    1    2  503  502 -0.37966813098E+02  0.22367205270E+02 -0.82947762119E+02  0.93926045424E+02  0.00000000000E+00 0. -1.
          1    1    1    2  501    0 -0.47926952719E+02 -0.15224195805E+02  0.62403403155E+02  0.80143331975E+02  0.00000000000E+00 0. -1.
<scales pt_clust_5="13000.00000" pt_clust_6="13000.00000" pt_clust_7="13000.00000" pt_clust_8="13000.00000" pt_clust_9="44.06553" pt_clust_10="50.74236"></scales>
<clustering>
<clus scale="   44.066">  2  9  1 -1</clus>
<clus scale="   50.742">  1 10  2 -1</clus>
<clus scale="   80.915">  5  6 -1 -1</clus>
<clus scale="   93.344">  7  8 -1 -1</clus>
<clus scale="  107.353">  1  5  2 -1</clus>
<clus scale="   50.742">  1  5  2 -1</clus>
</clustering>
</event>
<event>
10    4  0.2857708E-005  0.8679261E+02  0.7546771E-02  0.1311866E+00
         21   -1    0    0  501  502  0.00000000000E+00  0.00000000000E+00  0.19131860717E+03  0.19131860717E+03  0.00000000000E+00 0. -1.
          2   -1    0    0  503    0 -0.00000000000E+00 -0.00000000000E+00 -0.17206928709E+03  0.17206928709E+03  0.00000000000E+00 0. -1.
         24    2    1    2    0    0  0.24918384460E+02 -0.13118583396E+02 -0.41097055914E+02  0.94740694057E+02  0.80584167125E+02 0.  0.
         23    2    1    2    0    0  0.14360829446E+02 -0.25513196337E+02  0.11275518273E+03  0.14264369692E+03  0.82318505989E+02 0.  0.
        -13    1    3    3    0    0 -0.65391394228E+01  0.29028967366E+02 -0.27266918708E+02  0.40359957217E+02  0.00000000000E+00 0.  1.
         14    1    3    3    0    0  0.31457523883E+02 -0.42147550762E+02 -0.13830137206E+02  0.54380736840E+02  0.00000000000E+00 0. -1.
        -11    1    4    4    0    0 -0.12763067586E+02 -0.28296768933E+02  0.49380825096E+01  0.31432271396E+02  0.00000000000E+00 0.  1.
         11    1    4    4    0    0  0.27123897031E+02  0.27835725960E+01  0.10781710022E+03  0.11121142552E+03  0.00000000000E+00 0. -1.
         21    1    1    2  503  502  0.33436177228E+02  0.67511945572E+01 -0.80221794425E+01  0.35041574431E+02  0.00000000000E+00 0.  1.
          1    1    1    2  501    0 -0.72715391134E+02  0.31880585176E+02 -0.44386627288E+02  0.90961928854E+02  0.00000000000E+00 0. -1.
<scales pt_clust_5="13000.00000" pt_clust_6="13000.00000" pt_clust_7="13000.00000" pt_clust_8="13000.00000" pt_clust_9="34.11095" pt_clust_10="67.42819"></scales>
<clustering>
<clus scale="   34.111">  2  9  1 -1</clus>
<clus scale="   67.428">  1 10  2 -1</clus>
<clus scale="   80.584">  5  6 -1 -1</clus>
<clus scale="   82.319">  7  8 -1 -1</clus>
<clus scale="   85.149">  2  5  1 -1</clus>
<clus scale="   67.428">  1  5  2 -1</clus>
</clustering>
</event>
<event>
10    4  0.2857708E-005  0.2234947E+03  0.7546771E-02  0.1146595E+00
         21   -1    0    0  503  502  0.00000000000E+00  0.00000000000E+00  0.10203106663E+04  0.10203106663E+04  0.00000000000E+00 0.  1.
         -3   -1    0    0    0  501 -0.00000000000E+00 -0.00000000000E+00 -0.34179401684E+03  0.34179401684E+03  0.00000000000E+00 0.  1.
         24    2    1    2    0    0 -0.12749702413E+03  0.66494370446E+02  0.41932694585E+02  0.17121007105E+03  0.82930965830E+02 0.  0.
         23    2    1    2    0    0  0.20709269454E+03 -0.19905093463E+03 -0.10450003547E+03  0.31924774370E+03  0.92142312378E+02 0.  0.
        -11    1    3    3    0    0 -0.55584957174E+02 -0.11732312271E+01  0.46327157690E+02  0.72368981444E+02  0.00000000000E+00 0.  1.
         12    1    3    3    0    0 -0.71912066951E+02  0.67667601673E+02 -0.43944631057E+01  0.98841089610E+02  0.00000000000E+00 0. -1.
        -13    1    4    4    0    0  0.12713419193E+03 -0.17811728086E+03 -0.71021525623E+02  0.23007156626E+03  0.00000000000E+00 0.  1.
         13    1    4    4    0    0  0.79958502615E+02 -0.20933653769E+02 -0.33478509842E+02  0.89176177435E+02  0.00000000000E+00 0. -1.
         21    1    1    2  503  501  0.70637823990E+02  0.25698458939E+01 -0.28961733219E+02  0.76387749522E+02  0.00000000000E+00 0. -1.
         -4    1    1    2    0  502 -0.15023349441E+03  0.12998671829E+03  0.77004572359E+03  0.79525911890E+03  0.00000000000E+00 0.  1.
<scales pt_clust_5="13000.00000" pt_clust_6="13000.00000" pt_clust_7="13000.00000" pt_clust_8="13000.00000" pt_clust_9="70.68455" pt_clust_10="203.61648"></scales>
<clustering>
<clus scale="   70.685">  2  9  1 -1</clus>
<clus scale="   82.931">  5  6 -1 -1</clus>
<clus scale="   92.142">  7  8 -1 -1</clus>
<clus scale="  154.446">  2  5  1 -1</clus>
<clus scale="  203.616">  1 10  2 -1</clus>
<clus scale="  203.616">  1  5  2 -1</clus>
</clustering>
</event>
<event>
10    4  0.2857708E-005  0.9118521E+02  0.7546771E-02  0.1312316E+00
         21   -1    0    0  503  502  0.00000000000E+00  0.00000000000E+00  0.24462198411E+03  0.24462198411E+03  0.00000000000E+00 0.  1.
         -3   -1    0    0    0  501 -0.00000000000E+00 -0.00000000000E+00 -0.34033067572E+03  0.34033067572E+03  0.00000000000E+00 0.  1.
         24    2    1    2    0    0  0.15028864423E+01 -0.23243540144E+02 -0.98959893388E+01  0.76408460390E+02  0.72095779267E+02 0.  0.
         23    2    1    2    0    0  0.53036904273E+02 -0.32003559504E+02  0.69545128127E+02  0.12993026775E+03  0.90599164434E+02 0.  0.
        -11    1    3    3    0    0  0.24115008448E+02  0.68851504975E+01  0.16845918661E+02  0.30211320815E+02  0.00000000000E+00 0.  1.
         12    1    3    3    0    0 -0.22612122006E+02 -0.30128690642E+02 -0.26741908000E+02  0.46197139575E+02  0.00000000000E+00 0. -1.
        -11    1    4    4    0    0 -0.12920754310E+02 -0.27713214755E+02  0.53958885190E+02  0.62020395476E+02  0.00000000000E+00 0. -1.
         11    1    4    4    0    0  0.65957658582E+02 -0.42903447497E+01  0.15586242936E+02  0.67909872276E+02  0.00000000000E+00 0.  1.
         21    1    1    2  503  501  0.66817464000E+01  0.34652927090E+02 -0.25633059214E+03  0.25874861074E+03  0.00000000000E+00 0.  1.
         -4    1    1    2    0  502 -0.61221537115E+02  0.20594172559E+02  0.10097276174E+03  0.11986532094E+03  0.00000000000E+00 0.  1.
<scales pt_clust_5="13000.00000" pt_clust_6="13000.00000" pt_clust_7="13000.00000" pt_clust_8="13000.00000" pt_clust_9="35.29123" pt_clust_10="65.25270"></scales>
<clustering>
<clus scale="   35.291">  2  9  1 -1</clus>
<clus scale="   65.253">  1 10  2 -1</clus>
<clus scale="   72.096">  5  6 -1 -1</clus>
<clus scale="   72.831">  2  5  1 -1</clus>
<clus scale="   90.599">  7  8 -1 -1</clus>
<clus scale="   65.253">  1  5  2 -1</clus>
</clustering>
</event>
<event>
10    4  0.2857708E-005  0.9813060E+02  0.7546771E-02  0.1290042E+00
         21   -1    0    0  501  502  0.00000000000E+00  0.00000000000E+00  0.12013698339E+03  0.12013698339E+03  0.00000000000E+00 0.  1.
          2   -1    0    0  503    0 -0.00000000000E+00 -0.00000000000E+00 -0.31078610049E+03  0.31078610049E+03  0.00000000000E+00 0. -1.
         24    2    1    2    0    0 -0.30668512016E+02  0.18814391240E+02 -0.23851562096E+03  0.25378642970E+03  0.78887968104E+02 0.  0.
         23    2    1    2    0    0  0.54085799470E+02 -0.29430397962E+02  0.82041929520E+00  0.10905648568E+03  0.90006788369E+02 0.  0.
        -11    1    3    3    0    0 -0.19129427181E+02  0.41608907451E+02 -0.72054977142E+02  0.85376553540E+02  0.00000000000E+00 0.  1.
         12    1    3    3    0    0 -0.11539084835E+02 -0.22794516211E+02 -0.16646064382E+03  0.16840987616E+03  0.00000000000E+00 0. -1.
        -13    1    4    4    0    0  0.34851995154E+02 -0.57990614326E+02 -0.17733091303E+02  0.69943087173E+02  0.00000000000E+00 0.  1.
         13    1    4    4    0    0  0.19233804316E+02  0.28560216364E+02  0.18553510599E+02  0.39113398507E+02  0.00000000000E+00 0. -1.
         21    1    1    2  503  502 -0.18651723696E+02 -0.92794845998E+01  0.51557607857E+01  0.21461069418E+02  0.00000000000E+00 0.  1.
          1    1    1    2  501    0 -0.47655637585E+01  0.19895491322E+02  0.41890323782E+02  0.46619099084E+02  0.00000000000E+00 0. -1.
<scales pt_clust_5="13000.00000" pt_clust_6="13000.00000" pt_clust_7="13000.00000" pt_clust_8="13000.00000" pt_clust_9="20.32952" pt_clust_10="20.45828"></scales>
<clustering>
<clus scale="   20.458">  1 10  2 -1</clus>
<clus scale="   20.330">  1  9  2 -1</clus>
<clus scale="   78.888">  5  6 -1 -1</clus>
<clus scale="   88.044">  2  5  1 -1</clus>
<clus scale="   90.007">  7  8 -1 -1</clus>
<clus scale="   20.458">  1  5  2 -1</clus>
</clustering>
</event>
<event>
10    4  0.2857708E-005  0.1710351E+03  0.7546771E-02  0.1178541E+00
          2   -1    0    0  503    0 -0.00000000000E+00  0.00000000000E+00  0.32941918504E+03  0.32941918504E+03  0.00000000000E+00 0. -1.
         21   -1    0    0  501  502  0.00000000000E+00 -0.00000000000E+00 -0.17581536137E+03  0.17581536137E+03  0.00000000000E+00 0.  1.
         23    2    1    2    0    0  0.30667782682E+02  0.12452162898E+03  0.86865627290E+02  0.17962406439E+03  0.90956134059E+02 0.  0.
         24    2    1    2    0    0  0.24623248725E+02 -0.15432120012E+03  0.69123680042E+01  0.17463498990E+03  0.77641880965E+02 0.  0.
        -13    1    4    4    0    0  0.23984310396E+02 -0.12235366909E+03 -0.27481198448E+02  0.12767491435E+03  0.00000000000E+00 0.  1.
         14    1    4    4    0    0  0.63893832952E+00 -0.31967531031E+02  0.34393566452E+02  0.46960075550E+02  0.00000000000E+00 0. -1.
        -13    1    3    3    0    0 -0.20297179085E+02  0.80426439200E+01 -0.54508916733E+01  0.22502706950E+02  0.00000000000E+00 0.  1.
         13    1    3    3    0    0  0.50964961767E+02  0.11647898506E+03  0.92316518963E+02  0.15712135744E+03  0.00000000000E+00 0. -1.
         21    1    1    2  503  502  0.51402224760E+00  0.69820419625E+02  0.33323900526E+02  0.77366902237E+02  0.00000000000E+00 0. -1.
          1    1    1    2  501    0 -0.55805053655E+02 -0.40020848482E+02  0.26501927846E+02  0.73608589894E+02  0.00000000000E+00 0. -1.
<scales pt_clust_5="13000.00000" pt_clust_6="13000.00000" pt_clust_7="13000.00000" pt_clust_8="13000.00000" pt_clust_9="64.47664" pt_clust_10="68.67224"></scales>
<clustering>
<clus scale="   68.672">  2 10  1 -1</clus>
<clus scale="   64.477">  1  9  2 -1</clus>
<clus scale="   77.642">  5  6 -1 -1</clus>
<clus scale="   90.956">  7  8 -1 -1</clus>
<clus scale="  164.342">  2  5  1 -1</clus>
<clus scale="   68.672">  2  5  1 -1</clus>
</clustering>
</event>
<event>
10    4  0.2857708E-005  0.2858939E+03  0.7546771E-02  0.1134931E+00
         21   -1    0    0  501  502  0.00000000000E+00  0.00000000000E+00  0.48675322713E+03  0.48675322713E+03  0.00000000000E+00 0.  1.
          2   -1    0    0  503    0 -0.00000000000E+00 -0.00000000000E+00 -0.55548971479E+03  0.55548971479E+03  0.00000000000E+00 0. -1.
         23    2    1    2    0    0 -0.17568847389E+03 -0.18704020744E+03 -0.30602205348E+03  0.41260978031E+03  0.10366703688E+03 0.  0.
         24    2    1    2    0    0 -0.67176934307E+02  0.72235619174E+01  0.22244472373E+03  0.24551819938E+03  0.78946885708E+02 0.  0.
        -13    1    4    4    0    0 -0.31898895536E+02  0.42374544097E+02  0.13222530062E+03  0.14246638778E+03  0.00000000000E+00 0.  1.
         14    1    4    4    0    0 -0.35278038771E+02 -0.35150982179E+02  0.90219423114E+02  0.10305181160E+03  0.00000000000E+00 0. -1.
        -13    1    3    3    0    0 -0.12347041105E+03 -0.69005664236E+02 -0.20324344968E+03  0.24761789907E+03  0.00000000000E+00 0. -1.
         13    1    3    3    0    0 -0.52218062834E+02 -0.11803454321E+03 -0.10277860380E+03  0.16499188124E+03  0.00000000000E+00 0.  1.
         21    1    1    2  503  502  0.22258566736E+03  0.20564212509E+03  0.78011395696E+02  0.31291986319E+03  0.00000000000E+00 0.  1.
          1    1    1    2  501    0  0.20279740837E+02 -0.25825479564E+02 -0.63170553611E+02  0.71195099035E+02  0.00000000000E+00 0. -1.
<scales pt_clust_5="13000.00000" pt_clust_6="13000.00000" pt_clust_7="13000.00000" pt_clust_8="13000.00000" pt_clust_9="266.43660" pt_clust_10="32.83633"></scales>
<clustering>
<clus scale="   32.836">  1 10  2 -1</clus>
<clus scale="   78.947">  5  6 -1 -1</clus>
<clus scale="   97.721">  1  5  2 -1</clus>
<clus scale="  103.667">  7  8 -1 -1</clus>
<clus scale="  266.437">  1  9  2 -1</clus>
<clus scale="   32.836">  1  5  2 -1</clus>
</clustering>
</event>
<event>
10    4  0.1221820E-004  0.1052579E+03  0.7546771E-02  0.1271415E+00
         21   -1    0    0  503  502  0.00000000000E+00  0.00000000000E+00  0.80174639838E+03  0.80174639838E+03  0.00000000000E+00 0. -1.
         -3   -1    0    0    0  501 -0.00000000000E+00 -0.00000000000E+00 -0.33286927009E+03  0.33286927009E+03  0.00000000000E+00 0.  1.
         23    2    1    2    0    0  0.10727762702E+02 -0.14039862010E+02 -0.27953703536E+03  0.29292981484E+03  0.85759662260E+02 0.  0.
         24    2    1    2    0    0 -0.23371820002E+02  0.82439583071E+02  0.51434498160E+03  0.52773339508E+03  0.81297289968E+02 0.  0.
        -13    1    4    4    0    0  0.19082563774E+02  0.18222936044E+02  0.45391330254E+02  0.52503261808E+02  0.00000000000E+00 0.  1.
         14    1    4    4    0    0 -0.42454383776E+02  0.64216647027E+02  0.46895365135E+03  0.47523013327E+03  0.00000000000E+00 0. -1.
        -11    1    3    3    0    0  0.37663973417E+02 -0.35507712737E+02 -0.19213344350E+03  0.19898400104E+03  0.00000000000E+00 0.  1.
         11    1    3    3    0    0 -0.26936210715E+02  0.21467850727E+02 -0.87403591854E+02  0.93945813805E+02  0.00000000000E+00 0. -1.
         21    1    1    2  503  501  0.29168290112E+02 -0.32768949441E+02 -0.25958775200E+02  0.50975005693E+02  0.00000000000E+00 0.  1.
         -4    1    1    2    0  502 -0.16524232812E+02 -0.35630771620E+02  0.26002795724E+03  0.26297745284E+03  0.00000000000E+00 0.  1.
<scales pt_clust_5="13000.00000" pt_clust_6="13000.00000" pt_clust_7="13000.00000" pt_clust_8="13000.00000" pt_clust_9="44.23988" pt_clust_10="39.27597"></scales>
<clustering>
<clus scale="   39.276">  1 10  2 -1</clus>
<clus scale="   44.240">  2  9  1 -1</clus>
<clus scale="   81.297">  5  6 -1 -1</clus>
<clus scale="   85.760">  7  8 -1 -1</clus>
<clus scale="  101.655">  1  5  2 -1</clus>
<clus scale="   39.276">  1  5  2 -1</clus>
</clustering>
</event>
<event>
10    4  0.2857708E-005  0.1675018E+03  0.7546771E-02  0.1182473E+00
          2   -1    0    0  503    0 -0.00000000000E+00  0.00000000000E+00  0.28227656579E+03  0.28227656579E+03  0.00000000000E+00 0. -1.
         21   -1    0    0  501  502  0.00000000000E+00 -0.00000000000E+00 -0.23939256122E+03  0.23939256122E+03  0.00000000000E+00 0. -1.
         23    2    1    2    0    0  0.10375164557E+03  0.66633768992E+02  0.15855039752E+03  0.22052822228E+03  0.91049465360E+02 0.  0.
         24    2    1    2    0    0 -0.81832339789E+02 -0.99422136753E+02 -0.79668515234E+02  0.16975721630E+03  0.76740778307E+02 0.  0.
        -13    1    4    4    0    0 -0.91872249979E+02 -0.62237415044E+02 -0.64570349151E+02  0.12838744540E+03  0.00000000000E+00 0.  1.
         14    1    4    4    0    0  0.10039910190E+02 -0.37184721709E+02 -0.15098166083E+02  0.41369770899E+02  0.00000000000E+00 0. -1.
        -13    1    3    3    0    0  0.40013116208E+02  0.42170178963E+02  0.12719903497E+02  0.59507725611E+02  0.00000000000E+00 0.  1.
         13    1    3    3    0    0  0.63738529359E+02  0.24463590029E+02  0.14583049402E+03  0.16102049667E+03  0.00000000000E+00 0. -1.
         21    1    1    2  503  502  0.21144888951E+02  0.26587307649E+02  0.34578978295E+02  0.48473673233E+02  0.00000000000E+00 0. -1.
          1    1    1    2  501    0 -0.43064194729E+02  0.62010601127E+01 -0.70576856011E+02  0.82910015189E+02  0.00000000000E+00 0. -1.
<scales pt_clust_5="13000.00000" pt_clust_6="13000.00000" pt_clust_7="13000.00000" pt_clust_8="13000.00000" pt_clust_9="33.97045" pt_clust_10="43.07590"></scales>
<clustering>
<clus scale="   33.970">  1  9  2 -1</clus>
<clus scale="   43.076">  2 10  1 -1</clus>
<clus scale="   76.741">  5  6 -1 -1</clus>
<clus scale="   91.049">  7  8 -1 -1</clus>
<clus scale="  160.175">  2  5  1 -1</clus>
<clus scale="   43.076">  2  5  1 -1</clus>
</clustering>
</event>
<event>
10    4  0.2857708E-005  0.1140290E+03  0.7546771E-02  0.1257028E+00
         21   -1    0    0  501  502  0.00000000000E+00  0.00000000000E+00  0.34304685784E+03  0.34304685784E+03  0.00000000000E+00 0.  1.
          2   -1    0    0  503    0 -0.00000000000E+00 -0.00000000000E+00 -0.26161808571E+03  0.26161808571E+03  0.00000000000E+00 0. -1.
         23    2    1    2    0    0  0.70182964332E+02 -0.55404926996E+02 -0.13040431033E+03  0.18254569767E+03  0.91226603391E+02 0.  0.
         24    2    1    2    0    0 -0.53276546671E+02  0.48488421818E+01  0.46766163039E+02  0.10760803944E+03  0.80811598493E+02 0.  0.
        -11    1    4    4    0    0 -0.14116728744E+02 -0.28735443339E+02  0.45961438143E+02  0.56013047859E+02  0.00000000000E+00 0.  1.
         12    1    4    4    0    0 -0.39159817927E+02  0.33584285521E+02  0.80472489653E+00  0.51594991581E+02  0.00000000000E+00 0. -1.
        -13    1    3    3    0    0 -0.92488298947E+01 -0.37621632174E+02 -0.73958497233E+02  0.83491241306E+02  0.00000000000E+00 0.  1.
         13    1    3    3    0    0  0.79431794226E+02 -0.17783294822E+02 -0.56445813095E+02  0.99054456360E+02  0.00000000000E+00 0. -1.
         21    1    1    2  503  502 -0.85994360746E+01  0.21400421844E+02 -0.71953705893E+02  0.75559672760E+02  0.00000000000E+00 0.  1.
          1    1    1    2  501    0 -0.83069815860E+01  0.29155662970E+02  0.23702062531E+03  0.23895153368E+03  0.00000000000E+00 0. -1.
<scales pt_clust_5="13000.00000" pt_clust_6="13000.00000" pt_clust_7="13000.00000" pt_clust_8="13000.00000" pt_clust_9="23.06357" pt_clust_10="30.43386"></scales>
<clustering>
<clus scale="   23.064">  2  9  1 -1</clus>
<clus scale="   30.434">  1 10  2 -1</clus>
<clus scale="   80.812">  5  6 -1 -1</clus>
<clus scale="   91.227">  7  8 -1 -1</clus>
<clus scale="  105.881">  1  5  2 -1</clus>
<clus scale="   30.434">  1  5  2 -1</clus>
</clustering>
</event>
<event>
10    4  0.2857708E-005  0.9263614E+02  0.7546771E-02  0.1300546E+00
         -3   -1    0    0    0  501 -0.00000000000E+00  0.00000000000E+00  0.11178954108E+03  0.11178954108E+03  0.00000000000E+00 0.  1.
         21   -1    0    0  503  502  0.00000000000E+00 -0.00000000000E+00 -0.28671695475E+03  0.28671695475E+03  0.00000000000E+00 0.  1.
         24    2    1    2    0    0  0.30632120541E+01  0.24546855933E+02 -0.72078643028E+01  0.89587365428E+02  0.85802163913E+02 0.  0.
         23    2    1    2    0    0  0.40543893112E+02 -0.69229387359E+01 -0.12656804219E+03  0.16198854342E+03  0.92353042977E+02 0.  0.
        -13    1    3    3    0    0  0.37128973556E+02 -0.35873827716E+01  0.14919022799E+02  0.40174708881E+02  0.00000000000E+00 0.  1.
         14    1    3    3    0    0 -0.34065761501E+02  0.28134238705E+02 -0.22126887102E+02  0.49412656546E+02  0.00000000000E+00 0. -1.
        -13    1    4    4    0    0  0.51894291167E+02 -0.32580325689E+02 -0.45837045939E+02  0.76521433978E+02  0.00000000000E+00 0. -1.
         13    1    4    4    0    0 -0.11350398054E+02  0.25657386953E+02 -0.80730996247E+02  0.85467109442E+02  0.00000000000E+00 0.  1.
         21    1    1    2  503  501  0.62523279935E+01 -0.55175978091E+02  0.20505300032E+02  0.59194150835E+02  0.00000000000E+00 0.  1.
         -4    1    1    2    0  502 -0.49859433160E+02  0.37552060894E+02 -0.61656807215E+02  0.87736436150E+02  0.00000000000E+00 0.  1.
<scales pt_clust_5="13000.00000" pt_clust_6="13000.00000" pt_clust_7="13000.00000" pt_clust_8="13000.00000" pt_clust_9="55.52909" pt_clust_10="55.97576"></scales>
<clustering>
<clus scale="   55.529">  1  9  2 -1</clus>
<clus scale="   55.976">  2 10  1 -1</clus>
<clus scale="   85.802">  5  6 -1 -1</clus>
<clus scale="   86.107">  1  5  2 -1</clus>
<clus scale="   92.353">  7  8 -1 -1</clus>
<clus scale="   55.976">  2  5  1 -1</clus>
</clustering>
</event>
<event>
10    4  0.2857708E-005  0.4338726E+03  0.7546771E-02  0.1084464E+00
         21   -1    0    0  503  502  0.00000000000E+00  0.00000000000E+00  0.92078528789E+03  0.92078528789E+03  0.00000000000E+00 0.  1.
         -3   -1    0    0    0  501 -0.00000000000E+00 -0.00000000000E+00 -0.52412774178E+03  0.52412774178E+03  0.00000000000E+00 0.  1.
         23    2    1    2    0    0 -0.22865407387E+02 -0.28390452282E+02 -0.41634304291E+02  0.10947699850E+03  0.94461385074E+02 0.  0.
         24    2    1    2    0    0  0.68596291858E+02 -0.29011665017E+03  0.20863573159E+03  0.37247999262E+03  0.79620063081E+02 0.  0.
        -11    1    4    4    0    0  0.72848488659E+02 -0.29318583277E+03  0.20879546552E+03  0.36723341523E+03  0.00000000000E+00 0.  1.
         12    1    4    4    0    0 -0.42521968010E+01  0.30691825997E+01 -0.15973392687E+00  0.52465773979E+01  0.00000000000E+00 0. -1.
        -11    1    3    3    0    0 -0.49691287944E+01 -0.62017415468E+02 -0.32966967306E+02  0.70410744888E+02  0.00000000000E+00 0.  1.
         11    1    3    3    0    0 -0.17896278592E+02  0.33626963186E+02 -0.86673369853E+01  0.39066253608E+02  0.00000000000E+00 0. -1.
         21    1    1    2  503  501 -0.36390372722E+03 -0.88997796732E+02 -0.45344419506E+02  0.37736275238E+03  0.00000000000E+00 0.  1.
         -4    1    1    2    0  502  0.31817284275E+03  0.40750489919E+03  0.27500053831E+03  0.58559328616E+03  0.00000000000E+00 0.  1.
<scales pt_clust_5="13000.00000" pt_clust_6="13000.00000" pt_clust_7="13000.00000" pt_clust_8="13000.00000" pt_clust_9="13000.00000" pt_clust_10="433.87261"></scales>
<clustering>
<clus scale="   79.620">  5  6 -1 -1</clus>
<clus scale="   94.461">  7  8 -1 -1</clus>
<clus scale="  101.251">  2  7  1 -1</clus>
<clus scale="  312.558">  2  5  1 -1</clus>
<clus scale="  433.873">  1 10  2 -1</clus>
<clus scale="  433.873">  1  5  2 -1</clus>
</clustering>
</event>
<event>
10    4  0.2857708E-005  0.1442599E+03  0.7546771E-02  0.1235167E+00
         21   -1    0    0  501  502  0.00000000000E+00  0.00000000000E+00  0.28850410866E+03  0.28850410866E+03  0.00000000000E+00 0. -1.
          2   -1    0    0  503    0 -0.00000000000E+00 -0.00000000000E+00 -0.38255187444E+03  0.38255187444E+03  0.00000000000E+00 0. -1.
         24    2    1    2    0    0 -0.30275998366E+01  0.11180282635E+02  0.50961196548E+02  0.95697691644E+02  0.80167571697E+02 0.  0.
         23    2    1    2    0    0 -0.92748502738E+01 -0.13716966464E+03 -0.21888852401E+03  0.27424812020E+03  0.91642270511E+02 0.  0.
        -13    1    3    3    0    0 -0.34521039968E+02  0.26843757135E+02  0.17346555566E+02  0.47044579790E+02  0.00000000000E+00 0.  1.
         14    1    3    3    0    0  0.31493440132E+02 -0.15663474500E+02  0.33614640982E+02  0.48653111854E+02  0.00000000000E+00 0. -1.
        -11    1    4    4    0    0 -0.45269013460E+02 -0.59363272648E+02 -0.13520779637E+03  0.15444879384E+03  0.00000000000E+00 0.  1.
         11    1    4    4    0    0  0.35994163186E+02 -0.77806391989E+02 -0.83680727648E+02  0.11979932636E+03  0.00000000000E+00 0. -1.
         21    1    1    2  503  502  0.36334418192E+02  0.18630924617E+02 -0.92806086633E+02  0.10139167132E+03  0.00000000000E+00 0.  1.
          1    1    1    2  501    0 -0.24031968082E+02  0.10735845739E+03  0.16668564831E+03  0.19971849993E+03  0.00000000000E+00 0. -1.
<scales pt_clust_5="13000.00000" pt_clust_6="13000.00000" pt_clust_7="13000.00000" pt_clust_8="13000.00000" pt_clust_9="40.83260" pt_clust_10="111.41185"></scales>
<clustering>
<clus scale="   40.833">  2  9  1 -1</clus>
<clus scale="   80.168">  5  6 -1 -1</clus>
<clus scale="   81.158">  2  5  1 -1</clus>
<clus scale="   91.642">  7  8 -1 -1</clus>
<clus scale="  111.412">  1 10  2 -1</clus>
<clus scale="  111.412">  1  5  2 -1</clus>
</clustering>
</event>
<event>
10    4  0.2857708E-005  0.1462103E+03  0.7546771E-02  0.1224417E+00
         21   -1    0    0  501  502  0.00000000000E+00  0.00000000000E+00  0.33690169982E+02  0.33690169982E+02  0.00000000000E+00 0. -1.
          2   -1    0    0  503    0 -0.00000000000E+00 -0.00000000000E+00 -0.15828634163E+04  0.15828634163E+04  0.00000000000E+00 0. -1.
         23    2    1    2    0    0 -0.32152004428E+02  0.12425317662E+02 -0.17898267886E+03  0.20379638217E+03  0.91159344801E+02 0.  0.
         24    2    1    2    0    0  0.54784859842E+01  0.10955172664E+03 -0.35293860937E+03  0.37800725962E+03  0.79323588713E+02 0.  0.
        -11    1    4    4    0    0 -0.12448583169E+02  0.66751557223E+02 -0.10017589523E+03  0.12102044290E+03  0.00000000000E+00 0.  1.
         12    1    4    4    0    0  0.17927069153E+02  0.42800169413E+02 -0.25276271413E+03  0.25698681672E+03  0.00000000000E+00 0. -1.
        -11    1    3    3    0    0  0.17489235726E+02 -0.27657556335E+02 -0.47902290682E+02  0.58012440401E+02  0.00000000000E+00 0.  1.
         11    1    3    3    0    0 -0.49641240154E+02  0.40082873997E+02 -0.13108038818E+03  0.14578394176E+03  0.00000000000E+00 0. -1.
         21    1    1    2  503  502  0.17537577593E+02  0.31312598273E+02 -0.18476166546E+03  0.18821508564E+03  0.00000000000E+00 0. -1.
          1    1    1    2  501    0  0.91359408509E+01 -0.15328964257E+03 -0.83249029263E+03  0.84653485886E+03  0.00000000000E+00 0. -1.
<scales pt_clust_5="13000.00000" pt_clust_6="13000.00000" pt_clust_7="13000.00000" pt_clust_8="13000.00000" pt_clust_9="35.88935" pt_clust_10="122.82198"></scales>
<clustering>
<clus scale="   35.889">  2  9  1 -1</clus>
<clus scale="   79.324">  5  6 -1 -1</clus>
<clus scale="   91.159">  7  8 -1 -1</clus>
<clus scale="   97.337">  2  7  1 -1</clus>
<clus scale="  122.822">  1 10  2 -1</clus>
<clus scale="  122.822">  1  5  2 -1</clus>
</clustering>
</event>
<event>
10    4  0.2857708E-005  0.1513796E+03  0.7546771E-02  0.1200495E+00
          2   -1    0    0  503    0 -0.00000000000E+00  0.00000000000E+00  0.93734170923E+03  0.93734170923E+03  0.00000000000E+00 0. -1.
         21   -1    0    0  501  502  0.00000000000E+00 -0.00000000000E+00 -0.97462489702E+02  0.97462489702E+02  0.00000000000E+00 0.  1.
         23    2    1    2    0    0 -0.45459484467E+02 -0.10803293881E+03  0.36444851538E+03  0.39336895967E+03  0.90436372509E+02 0.  0.
         24    2    1    2    0    0  0.14545154268E+03  0.12489727704E+03  0.98096218543E+02  0.23003992549E+03  0.80870378686E+02 0.  0.
        -13    1    4    4    0    0  0.13291560016E+03  0.67033454783E+02  0.69327850046E+02  0.16421446836E+03  0.00000000000E+00 0.  1.
         14    1    4    4    0    0  0.12535942515E+02  0.57863822252E+02  0.28768368497E+02  0.65825457130E+02  0.00000000000E+00 0. -1.
        -13    1    3    3    0    0 -0.26231931673E+02 -0.12167156520E+03  0.30582735493E+03  0.33018548581E+03  0.00000000000E+00 0. -1.
         13    1    3    3    0    0 -0.19227552794E+02  0.13638626389E+02  0.58621160449E+02  0.63183473857E+02  0.00000000000E+00 0.  1.
         21    1    1    2  503  502 -0.36757080493E+02  0.55596266252E+02  0.13168071092E+03  0.14758671152E+03  0.00000000000E+00 0. -1.
          1    1    1    2  501    0 -0.63234977717E+02 -0.72460604482E+02  0.24565377468E+03  0.26380860225E+03  0.00000000000E+00 0. -1.
<scales pt_clust_5="13000.00000" pt_clust_6="13000.00000" pt_clust_7="13000.00000" pt_clust_8="13000.00000" pt_clust_9="66.64854" pt_clust_10="92.81036"></scales>
<clustering>
<clus scale="   66.649">  1  9  2 -1</clus>
<clus scale="   80.870">  5  6 -1 -1</clus>
<clus scale="   90.436">  7  8 -1 -1</clus>
<clus scale="   92.810">  2 10  1 -1</clus>
<clus scale="  145.867">  2  5  1 -1</clus>
<clus scale="   92.810">  2  5  1 -1</clus>
</clustering>
</event>
<event>
10    4  0.2857708E-005  0.3405099E+03  0.7546771E-02  0.1066579E+00
         21   -1    0    0  503  502  0.00000000000E+00  0.00000000000E+00  0.93145162833E+03  0.93145162833E+03  0.00000000000E+00 0.  1.
         -3   -1    0    0    0  501 -0.00000000000E+00 -0.00000000000E+00 -0.17241855855E+03  0.17241855855E+03  0.00000000000E+00 0.  1.
         24    2    1    2    0    0  0.69477276191E+02  0.78738884947E+01  0.27158097738E+03  0.29208462152E+03  0.81658489020E+02 0.  0.
         23    2    1    2    0    0  0.17229120104E+03  0.11897238233E+03  0.42641103817E+03  0.48357384912E+03  0.90435658691E+02 0.  0.
        -11    1    3    3    0    0  0.36921131697E+02 -0.36765376947E+02  0.12411305843E+03  0.13460651611E+03  0.00000000000E+00 0.  1.
         12    1    3    3    0    0  0.32556144494E+02  0.44639265442E+02  0.14746791895E+03  0.15747810541E+03  0.00000000000E+00 0. -1.
        -11    1    4    4    0    0  0.49784033230E+02  0.76986685066E+01  0.43996190559E+02  0.66883362992E+02  0.00000000000E+00 0. -1.
         11    1    4    4    0    0  0.12250716781E+03  0.11127371383E+03  0.38241484762E+03  0.41669048613E+03  0.00000000000E+00 0.  1.
         21    1    1    2  503  501 -0.61754264877E+01  0.33474380877E+02 -0.80702695340E+01  0.34982843191E+02  0.00000000000E+00 0.  1.
         -4    1    1    2    0  502 -0.23559305074E+03 -0.16032065170E+03  0.69111323755E+02  0.29322887305E+03  0.00000000000E+00 0.  1.
<scales pt_clust_5="13000.00000" pt_clust_6="13000.00000" pt_clust_7="13000.00000" pt_clust_8="13000.00000" pt_clust_9="34.03924" pt_clust_10="275.74597"></scales>
<clustering>
<clus scale="   34.039">  2  9  1 -1</clus>
<clus scale="   81.658">  5  6 -1 -1</clus>
<clus scale="   90.436">  7  8 -1 -1</clus>
<clus scale="  103.494">  5  7 -1 -1</clus>
<clus scale="  275.746">  1 10  2 -1</clus>
<clus scale="  275.746">  1  5  2 -1</clus>
</clustering>
</event>
<event>
10    4  0.2857708E-005  0.3051309E+03  0.7546771E-02  0.1125609E+00
         21   -1    0    0  501  502  0.00000000000E+00  0.00000000000E+00  0.11512074268E+03  0.11512074268E+03  0.00000000000E+00 0. -1.
          2   -1    0    0  503    0 -0.00000000000E+00 -0.00000000000E+00 -0.13146819731E+04  0.13146819731E+04  0.00000000000E+00 0. -1.
         23    2    1    2    0    0  0.64921037055E+01 -0.41377847652E+02 -0.10557046455E+03  0.14584023072E+03  0.91487574157E+02 0.  0.
         24    2    1    2    0    0 -0.28951596530E+03  0.19332358089E+02 -0.30813492564E+03  0.43077087538E+03  0.80144746811E+02 0.  0.
        -11    1    4    4    0    0 -0.42965541426E+02  0.31496206317E+02 -0.42530771056E+02  0.68168286241E+02  0.00000000000E+00 0.  1.
         12    1    4    4    0    0 -0.24655042388E+03 -0.12163848228E+02 -0.26560415459E+03  0.36260258914E+03  0.00000000000E+00 0. -1.
        -11    1    3    3    0    0 -0.32954668275E+01 -0.64265319341E+02 -0.10212858811E+03  0.12071097664E+03  0.00000000000E+00 0. -1.
         11    1    3    3    0    0  0.97875705331E+01  0.22887471689E+02 -0.34418764351E+01  0.25129254081E+02  0.00000000000E+00 0.  1.
         21    1    1    2  503  502 -0.21148801463E+02 -0.12766458967E+02 -0.81824959514E+02  0.85472675619E+02  0.00000000000E+00 0. -1.
          1    1    1    2  501    0  0.30417266306E+03  0.34811948530E+02 -0.70403088071E+03  0.76771893406E+03  0.00000000000E+00 0. -1.
<scales pt_clust_5="13000.00000" pt_clust_6="13000.00000" pt_clust_7="13000.00000" pt_clust_8="13000.00000" pt_clust_9="24.70333" pt_clust_10="294.41766"></scales>
<clustering>
<clus scale="   24.703">  2  9  1 -1</clus>
<clus scale="   80.145">  5  6 -1 -1</clus>
<clus scale="   91.488">  7  8 -1 -1</clus>
<clus scale="  101.047">  2  7  1 -1</clus>
<clus scale="  294.418">  1 10  2 -1</clus>
<clus scale="  294.418">  1  5  2 -1</clus>
</clustering>
</event>
<event>
10    4  0.2857708E-005  0.1572186E+03  0.7546771E-02  0.1220631E+00
          2   -1    0    0  503    0 -0.00000000000E+00  0.00000000000E+00  0.13938030309E+04  0.13938030309E+04  0.00000000000E+00 0. -1.
         21   -1    0    0  501  502  0.00000000000E+00 -0.00000000000E+00 -0.76864030239E+02  0.76864030239E+02  0.00000000000E+00 0.  1.
         24    2    1    2    0    0  0.21366991883E+02 -0.18676864889E+02 -0.26606304681E+02  0.89060061293E+02  0.80115076262E+02 0.  0.
         23    2    1    2    0    0 -0.94369021956E+02 -0.92972678185E+02  0.57691576686E+03  0.59923095557E+03  0.93255052829E+02 0.  0.
        -11    1    3    3    0    0 -0.15314913576E+01 -0.43416013257E+02  0.38711289823E+01  0.43615150034E+02  0.00000000000E+00 0.  1.
         12    1    3    3    0    0  0.22898483240E+02  0.24739148368E+02 -0.30477433663E+02  0.45444911259E+02  0.00000000000E+00 0. -1.
        -13    1    4    4    0    0 -0.57112157354E+02  0.15649608210E+01  0.26834097198E+03  0.27435583621E+03  0.00000000000E+00 0. -1.
         13    1    4    4    0    0 -0.37256864602E+02 -0.94537639006E+02  0.30857479488E+03  0.32487511937E+03  0.00000000000E+00 0.  1.
         21    1    1    2  503  502 -0.15408596476E+02  0.30368181025E+02  0.12244157984E+03  0.12708891272E+03  0.00000000000E+00 0. -1.
          1    1    1    2  501    0  0.88410626550E+02  0.81281362049E+02  0.64418795861E+03  0.65528713151E+03  0.00000000000E+00 0. -1.
<scales pt_clust_5="13000.00000" pt_clust_6="13000.00000" pt_clust_7="13000.00000" pt_clust_8="13000.00000" pt_clust_9="34.05365" pt_clust_10="126.57493"></scales>
<clustering>
<clus scale="   34.054">  1  9  2 -1</clus>
<clus scale="   80.115">  5  6 -1 -1</clus>
<clus scale="   84.737">  1  5  2 -1</clus>
<clus scale="   93.255">  7  8 -1 -1</clus>
<clus scale="  126.575">  2 10  1 -1</clus>
<clus scale="  126.575">  2  5  1 -1</clus>
</clustering>
</event>
<event>
10    4  0.2857708E-005  0.1849338E+03  0.7546771E-02  0.1181409E+00
         21   -1    0    0  501  502  0.00000000000E+00  0.00000000000E+00  0.25213622554E+03  0.25213622554E+03  0.00000000000E+00 0. -1.
          4   -1    0    0  503    0 -0.00000000000E+00 -0.00000000000E+00 -0.31502410757E+03  0.31502410757E+03  0.00000000000E+00 0. -1.
         23    2    1    2    0    0  0.42589823534E+02  0.63751608281E+02 -0.38885479106E+02  0.12810005731E+03  0.94970435249E+02 0.  0.
         24    2    1    2    0    0  0.55376246620E+02 -0.16559953590E+03  0.57440552597E+01  0.19204868204E+03  0.79749402018E+02 0.  0.
        -11    1    4    4    0    0 -0.13456038470E+02 -0.18148757050E+02  0.17964882261E+02  0.28864846239E+02  0.00000000000E+00 0.  1.
         12    1    4    4    0    0  0.68832285089E+02 -0.14745077885E+03 -0.12220827001E+02  0.16318383580E+03  0.00000000000E+00 0. -1.
        -11    1    3    3    0    0  0.21608285726E+02  0.65210707625E+02  0.14947001249E+02  0.70304816672E+02  0.00000000000E+00 0.  1.
         11    1    3    3    0    0  0.20981537808E+02 -0.14590993444E+01 -0.53832480355E+02  0.57795240641E+02  0.00000000000E+00 0. -1.
         21    1    1    2  503  502  0.21664786088E+02 -0.17498043068E+02 -0.68237122688E+02  0.73701081269E+02  0.00000000000E+00 0. -1.
          3    1    1    2  501    0 -0.11963085624E+03  0.11934597068E+03  0.38490664505E+02  0.17331051248E+03  0.00000000000E+00 0. -1.
<scales pt_clust_5="13000.00000" pt_clust_6="13000.00000" pt_clust_7="13000.00000" pt_clust_8="13000.00000" pt_clust_9="27.84860" pt_clust_10="166.85485"></scales>
<clustering>
<clus scale="   27.849">  2  9  1 -1</clus>
<clus scale="   79.749">  5  6 -1 -1</clus>
<clus scale="   94.970">  7  8 -1 -1</clus>
<clus scale="  121.887">  2  7  1 -1</clus>
<clus scale="  166.855">  1 10  2 -1</clus>
<clus scale="  166.855">  1  5  2 -1</clus>
</clustering>
</event>
<event>
10    4  0.2857708E-005  0.1066545E+03  0.7546771E-02  0.1270684E+00
         21   -1    0    0  503  502  0.00000000000E+00  0.00000000000E+00  0.33521016688E+03  0.33521016688E+03  0.00000000000E+00 0.  1.
         -1   -1    0    0    0  501 -0.00000000000E+00 -0.00000000000E+00 -0.87587067882E+02  0.87587067882E+02  0.00000000000E+00 0.  1.
         23    2    1    2    0    0 -0.57768470989E+02  0.37907201973E+02  0.10039136948E+03  0.15184018486E+03  0.90569655344E+02 0.  0.
         24    2    1    2    0    0  0.32484220254E+02 -0.40620274357E+02  0.17428752041E+03  0.19932469152E+03  0.81541165215E+02 0.  0.
        -13    1    4    4    0    0 -0.11760707921E+02 -0.46833685791E+02  0.62804799964E+02  0.79222164033E+02  0.00000000000E+00 0.  1.
         14    1    4    4    0    0  0.44244928175E+02  0.62134114345E+01  0.11148272044E+03  0.12010252748E+03  0.00000000000E+00 0. -1.
        -11    1    3    3    0    0 -0.63559302784E+02  0.11021297392E+02  0.10570054007E+03  0.12382995654E+03  0.00000000000E+00 0.  1.
         11    1    3    3    0    0  0.57908317956E+01  0.26885904582E+02 -0.53091705838E+01  0.28010228317E+02  0.00000000000E+00 0. -1.
         21    1    1    2  503  501  0.17852990224E+02 -0.28796032211E+02 -0.12173212943E+02  0.36001775573E+02  0.00000000000E+00 0.  1.
         -2    1    1    2    0  502  0.74312605107E+01  0.31509104594E+02 -0.14882577949E+02  0.35630582812E+02  0.00000000000E+00 0.  1.
<scales pt_clust_5="13000.00000" pt_clust_6="13000.00000" pt_clust_7="13000.00000" pt_clust_8="13000.00000" pt_clust_9="33.05336" pt_clust_10="32.37357"></scales>
<clustering>
<clus scale="   32.374">  1 10  2 -1</clus>
<clus scale="   33.053">  2  9  1 -1</clus>
<clus scale="   81.541">  5  6 -1 -1</clus>
<clus scale="   90.570">  7  8 -1 -1</clus>
<clus scale="   99.102">  1  5  2 -1</clus>
<clus scale="   32.374">  1  5  2 -1</clus>
</clustering>
</event>
<event>
10    4  0.2857708E-005  0.9208989E+02  0.7546771E-02  0.1304197E+00
          2   -1    0    0  503    0 -0.00000000000E+00  0.00000000000E+00  0.13380358214E+03  0.13380358214E+03  0.00000000000E+00 0. -1.
         21   -1    0    0  501  502  0.00000000000E+00 -0.00000000000E+00 -0.15953237972E+03  0.15953237972E+03  0.00000000000E+00 0. -1.
         23    2    1    2    0    0  0.32174643542E+02  0.16554752083E+02  0.10024264545E+02  0.97724308870E+02  0.90223539949E+02 0.  0.
         24    2    1    2    0    0  0.13520307379E+02 -0.18211461214E+02 -0.84911466682E+02  0.11875238164E+03  0.79860596923E+02 0.  0.
        -13    1    4    4    0    0  0.35531425652E+02 -0.80234845399E+01 -0.69213975883E+01  0.37077813549E+02  0.00000000000E+00 0.  1.
         14    1    4    4    0    0 -0.22011118273E+02 -0.10187976674E+02 -0.77990069094E+02  0.81674568096E+02  0.00000000000E+00 0. -1.
        -13    1    3    3    0    0  0.25262349802E+02 -0.35276232991E+02 -0.40384133068E+01  0.43576458250E+02  0.00000000000E+00 0. -1.
         13    1    3    3    0    0  0.69122937399E+01  0.51830985074E+02  0.14062677851E+02  0.54147850621E+02  0.00000000000E+00 0.  1.
         21    1    1    2  503  502 -0.16248996575E+02 -0.16757653488E+02  0.12975868078E+02  0.26706216364E+02  0.00000000000E+00 0. -1.
          1    1    1    2  501    0 -0.29445954346E+02  0.18414362619E+02  0.36182536477E+02  0.50153054981E+02  0.00000000000E+00 0. -1.
<scales pt_clust_5="13000.00000" pt_clust_6="13000.00000" pt_clust_7="13000.00000" pt_clust_8="13000.00000" pt_clust_9="23.34200" pt_clust_10="37.59032"></scales>
<clustering>
<clus scale="   23.342">  1  9  2 -1</clus>
<clus scale="   37.590">  2 10  1 -1</clus>
<clus scale="   79.861">  5  6 -1 -1</clus>
<clus scale="   81.963">  2  5  1 -1</clus>
<clus scale="   90.224">  7  8 -1 -1</clus>
<clus scale="   37.590">  2  5  1 -1</clus>
</clustering>
</event>
<event>
10    4  0.2857708E-005  0.3170193E+03  0.7546771E-02  0.1125238E+00
         21   -1    0    0  501  502  0.00000000000E+00  0.00000000000E+00  0.87818451264E+03  0.87818451264E+03  0.00000000000E+00 0. -1.
          2   -1    0    0  503    0 -0.00000000000E+00 -0.00000000000E+00 -0.76498805453E+03  0.76498805453E+03  0.00000000000E+00 0. -1.
         23    2    1    2    0    0  0.11299876094E+02 -0.95432484600E+01 -0.40285124110E+02  0.99456051435E+02  0.89720979440E+02 0.  0.
         24    2    1    2    0    0 -0.34205538302E+03 -0.18994461083E+02  0.67489194327E+03  0.76093355844E+03  0.78600703970E+02 0.  0.
        -13    1    4    4    0    0 -0.14337056738E+03 -0.39935717588E+02  0.24091878812E+03  0.28318164418E+03  0.00000000000E+00 0.  1.
         14    1    4    4    0    0 -0.19868481564E+03  0.20941256505E+02  0.43397315515E+03  0.47775191426E+03  0.00000000000E+00 0. -1.
        -11    1    3    3    0    0 -0.16929214215E+00 -0.49218020151E+02 -0.26612544089E+02  0.55952387530E+02  0.00000000000E+00 0.  1.
         11    1    3    3    0    0  0.11469168236E+02  0.39674771691E+02 -0.13672580021E+02  0.43503663905E+02  0.00000000000E+00 0. -1.
         21    1    1    2  503  502  0.10870035684E+03  0.74629467466E+02 -0.53940060352E+03  0.55528221299E+03  0.00000000000E+00 0. -1.
          1    1    1    2  501    0  0.22205515009E+03 -0.46091757922E+02  0.17990242460E+02  0.22750074429E+03  0.00000000000E+00 0. -1.
<scales pt_clust_5="13000.00000" pt_clust_6="13000.00000" pt_clust_7="13000.00000" pt_clust_8="13000.00000" pt_clust_9="135.40204" pt_clust_10="307.12088"></scales>
<clustering>
<clus scale="   78.601">  5  6 -1 -1</clus>
<clus scale="   89.721">  7  8 -1 -1</clus>
<clus scale="   90.932">  2  7  1 -1</clus>
<clus scale="  135.402">  2  9  1 -1</clus>
<clus scale="  307.121">  1 10  2 -1</clus>
<clus scale="  307.121">  1  5  2 -1</clus>
</clustering>
</event>
<event>
10    4  0.2857708E-005  0.1247520E+03  0.7546771E-02  0.1239069E+00
         21   -1    0    0  501  502  0.00000000000E+00  0.00000000000E+00  0.27106277484E+03  0.27106277484E+03  0.00000000000E+00 0. -1.
          4   -1    0    0  503    0 -0.00000000000E+00 -0.00000000000E+00 -0.24547500761E+03  0.24547500761E+03  0.00000000000E+00 0. -1.
         23    2    1    2    0    0 -0.19870846741E+02  0.66570303913E+02 -0.11630057407E+03  0.16380872634E+03  0.92092450199E+02 0.  0.
         24    2    1    2    0    0 -0.11207627949E+03 -0.26396274706E+02  0.14358262601E+03  0.19995809349E+03  0.78162733566E+02 0.  0.
        -13    1    4    4    0    0 -0.27783078160E+02 -0.29486591273E+02  0.96010676442E+01  0.41635789855E+02  0.00000000000E+00 0.  1.
         14    1    4    4    0    0 -0.84293201331E+02  0.30903165667E+01  0.13398155837E+03  0.15832230364E+03  0.00000000000E+00 0. -1.
        -13    1    3    3    0    0  0.34136878763E+02  0.46112445048E+02 -0.63154287582E+02  0.85323784023E+02  0.00000000000E+00 0.  1.
         13    1    3    3    0    0 -0.54007725504E+02  0.20457858865E+02 -0.53146286487E+02  0.78484942319E+02  0.00000000000E+00 0. -1.
         21    1    1    2  503  502  0.10040901103E+03 -0.58527192284E+02  0.38794778172E+00  0.11622199549E+03  0.00000000000E+00 0. -1.
          3    1    1    2  501    0  0.31538115206E+02  0.18353163077E+02 -0.20822324860E+01  0.36548967124E+02  0.00000000000E+00 0. -1.
<scales pt_clust_5="13000.00000" pt_clust_6="13000.00000" pt_clust_7="13000.00000" pt_clust_8="13000.00000" pt_clust_9="97.22993" pt_clust_10="36.48962"></scales>
<clustering>
<clus scale="   36.490">  1 10  2 -1</clus>
<clus scale="   78.163">  5  6 -1 -1</clus>
<clus scale="   92.092">  7  8 -1 -1</clus>
<clus scale="  115.890">  2  7  1 -1</clus>
<clus scale="   97.230">  2  9  1 -1</clus>
<clus scale="   36.490">  1  5  2 -1</clus>
</clustering>
</event>
<event>
10    4  0.2857708E-005  0.9710418E+02  0.7546771E-02  0.1288873E+00
          2   -1    0    0  503    0 -0.00000000000E+00  0.00000000000E+00  0.61802109133E+03  0.61802109133E+03  0.00000000000E+00 0. -1.
         21   -1    0    0  501  502  0.00000000000E+00 -0.00000000000E+00 -0.14209686056E+03  0.14209686056E+03  0.00000000000E+00 0. -1.
         24    2    1    2    0    0  0.40353964529E+02  0.19194551760E+02  0.47440444324E+03  0.48344386179E+03  0.81618125847E+02 0.  0.
         23    2    1    2    0    0 -0.53532347510E+02  0.31528475589E+02 -0.77371370646E+02  0.13156881823E+03  0.86395994878E+02 0.  0.
        -11    1    3    3    0    0 -0.21174196221E+02  0.14748210334E+02  0.75267567992E+02  0.79567977762E+02  0.00000000000E+00 0.  1.
         12    1    3    3    0    0  0.61528160750E+02  0.44463414254E+01  0.39913687524E+03  0.40387588403E+03  0.00000000000E+00 0. -1.
        -13    1    4    4    0    0 -0.40387900608E+02 -0.18125467831E+02 -0.75789437262E+01  0.44912754176E+02  0.00000000000E+00 0.  1.
         13    1    4    4    0    0 -0.13144446901E+02  0.49653943420E+02 -0.69792426919E+02  0.86656064051E+02  0.00000000000E+00 0. -1.
         21    1    1    2  503  502  0.61878911393E+02 -0.25656894320E+02  0.44883914593E+02  0.80633998354E+02  0.00000000000E+00 0. -1.
          1    1    1    2  501    0 -0.48700528413E+02 -0.25066133029E+02  0.34007243585E+02  0.64471273517E+02  0.00000000000E+00 0. -1.
<scales pt_clust_5="13000.00000" pt_clust_6="13000.00000" pt_clust_7="13000.00000" pt_clust_8="13000.00000" pt_clust_9="62.28048" pt_clust_10="54.77273"></scales>
<clustering>
<clus scale="   54.773">  2 10  1 -1</clus>
<clus scale="   62.280">  2  9  1 -1</clus>
<clus scale="   81.618">  5  6 -1 -1</clus>
<clus scale="   86.396">  7  8 -1 -1</clus>
<clus scale="   92.879">  1  5  2 -1</clus>
<clus scale="   54.773">  2  5  1 -1</clus>
</clustering>
</event>
<event>
10    4  0.2857708E-005  0.1901298E+03  0.7546771E-02  0.1177373E+00
          2   -1    0    0  503    0 -0.00000000000E+00  0.00000000000E+00  0.31349974833E+03  0.31349974833E+03  0.00000000000E+00 0. -1.
         21   -1    0    0  501  502  0.00000000000E+00 -0.00000000000E+00 -0.29998675261E+03  0.29998675261E+03  0.00000000000E+00 0. -1.
         23    2    1    2    0    0  0.71173008568E+02  0.66698984231E+02 -0.14153278380E+03  0.19464829877E+03  0.91334986057E+02 0.  0.
         24    2    1    2    0    0 -0.21450035018E+02  0.79503817159E+02 -0.21090053871E+02  0.11639854524E+03  0.79516476390E+02 0.  0.
        -13    1    4    4    0    0  0.15767926823E+02  0.75068560319E+02 -0.17998287083E+02  0.78789939730E+02  0.00000000000E+00 0.  1.
         14    1    4    4    0    0 -0.37217961841E+02  0.44352568392E+01 -0.30917667882E+01  0.37608605514E+02  0.00000000000E+00 0. -1.
        -13    1    3    3    0    0  0.76859188574E+02  0.18253131101E+02 -0.58318981483E+02  0.98191727067E+02  0.00000000000E+00 0.  1.
         13    1    3    3    0    0 -0.56861800064E+01  0.48445853130E+02 -0.83213802320E+02  0.96456571705E+02  0.00000000000E+00 0. -1.
         21    1    1    2  503  502 -0.26138313503E+02 -0.18693350221E+03  0.17170301039E+03  0.25516518073E+03  0.00000000000E+00 0. -1.
          1    1    1    2  501    0 -0.23584660047E+02  0.40730700821E+02  0.44328230021E+01  0.47274476186E+02  0.00000000000E+00 0. -1.
<scales pt_clust_5="13000.00000" pt_clust_6="13000.00000" pt_clust_7="13000.00000" pt_clust_8="13000.00000" pt_clust_9="166.75514" pt_clust_10="47.06621"></scales>
<clustering>
<clus scale="   47.066">  2 10  1 -1</clus>
<clus scale="   79.516">  5  6 -1 -1</clus>
<clus scale="   91.335">  7  8 -1 -1</clus>
<clus scale="  122.828">  2  5  1 -1</clus>
<clus scale="  166.755">  1  9  2 -1</clus>
<clus scale="   47.066">  2  5  1 -1</clus>
</clustering>
</event>
<event>
10    4  0.2857708E-005  0.9441428E+02  0.7546771E-02  0.1296145E+00
         -1   -1    0    0    0  501 -0.00000000000E+00  0.00000000000E+00  0.10437258172E+03  0.10437258172E+03  0.00000000000E+00 0.  1.
         21   -1    0    0  503  502  0.00000000000E+00 -0.00000000000E+00 -0.45611828869E+03  0.45611828869E+03  0.00000000000E+00 0. -1.
         23    2    1    2    0    0  0.28159305849E+02 -0.49263759461E+02 -0.17680875512E+03  0.20526094097E+03  0.87469157418E+02 0.  0.
         24    2    1    2    0    0 -0.35088540935E+02 -0.24639543328E+02 -0.21611946415E+03  0.23466284656E+03  0.80750950282E+02 0.  0.
        -13    1    4    4    0    0 -0.33557998159E+02  0.23104440976E+02 -0.70707789386E+02  0.81606040910E+02  0.00000000000E+00 0.  1.
         14    1    4    4    0    0 -0.15305427759E+01 -0.47743984304E+02 -0.14541167477E+03  0.15305680565E+03  0.00000000000E+00 0. -1.
        -11    1    3    3    0    0 -0.11436011922E+02 -0.57046376506E+02 -0.69634399241E+02  0.90741506483E+02  0.00000000000E+00 0. -1.
         11    1    3    3    0    0  0.39595317771E+02  0.77826170455E+01 -0.10717435588E+03  0.11451943449E+03  0.00000000000E+00 0.  1.
         21    1    1    2  503  501  0.33188716515E+02  0.51668226638E+02  0.55994947757E+02  0.83105539659E+02  0.00000000000E+00 0.  1.
         -2    1    1    2    0  502 -0.26259481429E+02  0.22235076152E+02 -0.14812435455E+02  0.37461543221E+02  0.00000000000E+00 0.  1.
<scales pt_clust_5="13000.00000" pt_clust_6="13000.00000" pt_clust_7="13000.00000" pt_clust_8="13000.00000" pt_clust_9="61.56102" pt_clust_10="34.40872"></scales>
<clustering>
<clus scale="   34.409">  2 10  1 -1</clus>
<clus scale="   61.561">  1  9  2 -1</clus>
<clus scale="   80.751">  5  6 -1 -1</clus>
<clus scale="   87.469">  7  8 -1 -1</clus>
<clus scale="   88.227">  2  5  1 -1</clus>
<clus scale="   34.409">  2  5  1 -1</clus>
</clustering>
</event>
<event>
10    4  0.2857708E-005  0.2485047E+03  0.7546771E-02  0.1152389E+00
         21   -1    0    0  501  502  0.00000000000E+00  0.00000000000E+00  0.27047731187E+03  0.27047731187E+03  0.00000000000E+00 0. -1.
          2   -1    0    0  503    0 -0.00000000000E+00 -0.00000000000E+00 -0.41405042100E+03  0.41405042100E+03  0.00000000000E+00 0. -1.
         23    2    1    2    0    0  0.17363229254E+02 -0.38758278586E+02 -0.57441895095E+02  0.11589115654E+03  0.91255153072E+02 0.  0.
         24    2    1    2    0    0  0.23265493112E+03  0.26505807194E+02  0.43915065401E+02  0.25162172658E+03  0.80957306832E+02 0.  0.
        -11    1    4    4    0    0  0.30481535835E+02  0.21570091932E+02 -0.16109380645E+02  0.40668231306E+02  0.00000000000E+00 0.  1.
         12    1    4    4    0    0  0.20217339528E+03  0.49357152619E+01  0.60024446046E+02  0.21095349527E+03  0.00000000000E+00 0. -1.
        -13    1    3    3    0    0  0.38751789811E+02 -0.22009514709E+02 -0.72296689299E+02  0.84928977592E+02  0.00000000000E+00 0.  1.
         13    1    3    3    0    0 -0.21388560558E+02 -0.16748763878E+02  0.14854794204E+02  0.30962178945E+02  0.00000000000E+00 0. -1.
         21    1    1    2  503  502 -0.13913132582E+02  0.24057007643E+02 -0.66725460924E+02  0.72281408471E+02  0.00000000000E+00 0. -1.
          1    1    1    2  501    0 -0.23610502779E+03 -0.11804536250E+02 -0.63320818512E+02  0.24473344128E+03  0.00000000000E+00 0. -1.
<scales pt_clust_5="13000.00000" pt_clust_6="13000.00000" pt_clust_7="13000.00000" pt_clust_8="13000.00000" pt_clust_9="27.79055" pt_clust_10="234.94801"></scales>
<clustering>
<clus scale="   27.791">  2  9  1 -1</clus>
<clus scale="   80.957">  5  6 -1 -1</clus>
<clus scale="   91.255">  7  8 -1 -1</clus>
<clus scale="   97.926">  2  7  1 -1</clus>
<clus scale="  234.948">  1 10  2 -1</clus>
<clus scale="  234.948">  1  5  2 -1</clus>
</clustering>
</event>
<event>
10    4  0.2857708E-005  0.3234548E+03  0.7546771E-02  0.1074418E+00
          4   -1    0    0  503    0 -0.00000000000E+00  0.00000000000E+00  0.13698616868E+03  0.13698616868E+03  0.00000000000E+00 0. -1.
         21   -1    0    0  501  502  0.00000000000E+00 -0.00000000000E+00 -0.13743204725E+04  0.13743204725E+04  0.00000000000E+00 0. -1.
         24    2    1    2    0    0  0.32705982959E+03  0.34071125905E+02 -0.39802894965E+03  0.52264889288E+03  0.81276360132E+02 0.  0.
         23    2    1    2    0    0 -0.26487057603E+03 -0.96987918228E+02 -0.69929060303E+03  0.75969753269E+03  0.92573837336E+02 0.  0.
        -13    1    3    3    0    0  0.37757236378E+02  0.30025207889E+02 -0.42706657055E+02  0.64428103841E+02  0.00000000000E+00 0.  1.
         14    1    3    3    0    0  0.28930259321E+03  0.40459180152E+01 -0.35532229259E+03  0.45822078904E+03  0.00000000000E+00 0. -1.
        -13    1    4    4    0    0 -0.17236727452E+03 -0.31293799402E+02 -0.50720732495E+03  0.53660884235E+03  0.00000000000E+00 0.  1.
         13    1    4    4    0    0 -0.92503301511E+02 -0.65694118827E+02 -0.19208327808E+03  0.22308869033E+03  0.00000000000E+00 0. -1.
         21    1    1    2  503  502 -0.51567711228E+01  0.61626676696E+02  0.15124659611E+02  0.63664706843E+02  0.00000000000E+00 0.  1.
          3    1    1    2  501    0 -0.57032482436E+02  0.12901156271E+01 -0.15513941078E+03  0.16529550880E+03  0.00000000000E+00 0. -1.
<scales pt_clust_5="13000.00000" pt_clust_6="13000.00000" pt_clust_7="13000.00000" pt_clust_8="13000.00000" pt_clust_9="61.97320" pt_clust_10="57.04707"></scales>
<clustering>
<clus scale="   57.047">  2 10  1 -1</clus>
<clus scale="   61.973">  1  9  2 -1</clus>
<clus scale="   81.276">  5  6 -1 -1</clus>
<clus scale="   92.574">  7  8 -1 -1</clus>
<clus scale="  320.404">  1  5  2 -1</clus>
<clus scale="   57.047">  2  5  1 -1</clus>
</clustering>
</event>
<event>
10    4  0.2857708E-005  0.1006690E+03  0.7546771E-02  0.1287925E+00
         21   -1    0    0  501  502  0.00000000000E+00  0.00000000000E+00  0.31064328525E+03  0.31064328525E+03  0.00000000000E+00 0. -1.
          4   -1    0    0  503    0 -0.00000000000E+00 -0.00000000000E+00 -0.14400253530E+03  0.14400253530E+03  0.00000000000E+00 0. -1.
         24    2    1    2    0    0  0.34391978301E+02  0.50543720803E+01  0.86529466901E+02  0.12322547599E+03  0.80553177723E+02 0.  0.
         23    2    1    2    0    0  0.68694654320E+00 -0.27830378231E+02  0.16890284393E+03  0.19678920928E+03  0.97071212779E+02 0.  0.
        -13    1    3    3    0    0  0.11318636521E+02 -0.36768635368E+02  0.27491402922E+02  0.47284472231E+02  0.00000000000E+00 0.  1.
         14    1    3    3    0    0  0.23073341781E+02  0.41823007448E+02  0.59038063979E+02  0.75941003755E+02  0.00000000000E+00 0. -1.
        -11    1    4    4    0    0  0.37523162971E+02 -0.19165151867E+02  0.14731668473E+03  0.15322368095E+03  0.00000000000E+00 0. -1.
         11    1    4    4    0    0 -0.36836216428E+02 -0.86652263649E+01  0.21586159203E+02  0.43565528321E+02  0.00000000000E+00 0.  1.
         21    1    1    2  503  502  0.29607973673E+02 -0.26268973484E+01 -0.39475604016E+02  0.49415139453E+02  0.00000000000E+00 0. -1.
          3    1    1    2  501    0 -0.64686898517E+02  0.25402903500E+02 -0.49315956868E+02  0.85215995845E+02  0.00000000000E+00 0. -1.
<scales pt_clust_5="13000.00000" pt_clust_6="13000.00000" pt_clust_7="13000.00000" pt_clust_8="13000.00000" pt_clust_9="29.72428" pt_clust_10="50.54490"></scales>
<clustering>
<clus scale="   29.724">  2  9  1 -1</clus>
<clus scale="   50.545">  1 10  2 -1</clus>
<clus scale="   80.553">  5  6 -1 -1</clus>
<clus scale="   84.854">  2  5  1 -1</clus>
<clus scale="   97.071">  7  8 -1 -1</clus>
<clus scale="   50.545">  1  5  2 -1</clus>
</clustering>
</event>
<event>
10    4  0.2857708E-005  0.1286587E+03  0.7546771E-02  0.1257871E+00
         21   -1    0    0  503  502  0.00000000000E+00  0.00000000000E+00  0.48060981430E+03  0.48060981430E+03  0.00000000000E+00 0. -1.
         -3   -1    0    0    0  501 -0.00000000000E+00 -0.00000000000E+00 -0.12569745329E+03  0.12569745329E+03  0.00000000000E+00 0.  1.
         24    2    1    2    0    0 -0.17775787405E+02  0.33407387810E+01  0.22911548256E+03  0.24028192539E+03  0.70102497558E+02 0.  0.
         23    2    1    2    0    0 -0.72752975853E+02 -0.53733344524E+02  0.17518194358E+03  0.21794335395E+03  0.92899539094E+02 0.  0.
        -13    1    3    3    0    0 -0.31606149160E+01 -0.27091808912E+02  0.41551968677E+02  0.49704342845E+02  0.00000000000E+00 0.  1.
         14    1    3    3    0    0 -0.14615172489E+02  0.30432547693E+02  0.18756351388E+03  0.19057758254E+03  0.00000000000E+00 0. -1.
        -11    1    4    4    0    0  0.21981658396E+02 -0.38618144568E+01  0.25072132904E+02  0.33566631721E+02  0.00000000000E+00 0. -1.
         11    1    4    4    0    0 -0.94734634249E+02 -0.49871530067E+02  0.15010981068E+03  0.18437672223E+03  0.00000000000E+00 0.  1.
         21    1    1    2  503  501  0.21301739403E+01  0.29227487962E+02 -0.49104833033E+02  0.57184511196E+02  0.00000000000E+00 0.  1.
         -4    1    1    2    0  502  0.88398589317E+02  0.21165117781E+02 -0.28023210248E+00  0.90897477050E+02  0.00000000000E+00 0.  1.
<scales pt_clust_5="13000.00000" pt_clust_6="13000.00000" pt_clust_7="13000.00000" pt_clust_8="13000.00000" pt_clust_9="29.30501" pt_clust_10="89.00974"></scales>
<clustering>
<clus scale="   29.305">  2  9  1 -1</clus>
<clus scale="   70.102">  5  6 -1 -1</clus>
<clus scale="   72.497">  2  5  1 -1</clus>
<clus scale="   89.010">  1 10  2 -1</clus>
<clus scale="   92.900">  7  8 -1 -1</clus>
<clus scale="   89.010">  1  5  2 -1</clus>
</clustering>
</event>
<event>
10    4  0.2857708E-005  0.1281181E+03  0.7546771E-02  0.1230556E+00
         21   -1    0    0  503  502  0.00000000000E+00  0.00000000000E+00  0.51769437350E+03  0.51769437350E+03  0.00000000000E+00 0.  1.
         -3   -1    0    0    0  501 -0.00000000000E+00 -0.00000000000E+00 -0.14730703776E+03  0.14730703776E+03  0.00000000000E+00 0.  1.
         23    2    1    2    0    0 -0.64840256062E+02 -0.23012198358E+02 -0.27919666413E+01  0.11463735202E+03  0.91652099381E+02 0.  0.
         24    2    1    2    0    0  0.12289090043E+03  0.21757931863E+02  0.29078469079E+02  0.15694630544E+03  0.90614592741E+02 0.  0.
        -11    1    4    4    0    0  0.72156229830E+02  0.38449226271E+02  0.54024938975E+02  0.97997747603E+02  0.00000000000E+00 0.  1.
         12    1    4    4    0    0  0.50734670603E+02 -0.16691294408E+02 -0.24946469896E+02  0.58948557832E+02  0.00000000000E+00 0. -1.
        -11    1    3    3    0    0  0.99269578483E+00  0.27056318081E+02 -0.15126163823E+02  0.31013394284E+02  0.00000000000E+00 0.  1.
         11    1    3    3    0    0 -0.65832951847E+02 -0.50068516439E+02  0.12334197182E+02  0.83623957736E+02  0.00000000000E+00 0. -1.
         21    1    1    2  503  501 -0.48492429883E+02 -0.43996486485E+02  0.23604431142E+02  0.69601549900E+02  0.00000000000E+00 0.  1.
         -4    1    1    2    0  502 -0.95582144880E+01  0.45250752980E+02  0.32049640217E+03  0.32381620390E+03  0.00000000000E+00 0.  1.
<scales pt_clust_5="13000.00000" pt_clust_6="13000.00000" pt_clust_7="13000.00000" pt_clust_8="13000.00000" pt_clust_9="60.66846" pt_clust_10="46.24922"></scales>
<clustering>
<clus scale="   46.249">  1 10  2 -1</clus>
<clus scale="   60.668">  1  9  2 -1</clus>
<clus scale="   90.615">  5  6 -1 -1</clus>
<clus scale="   91.652">  7  8 -1 -1</clus>
<clus scale="  127.378">  1  5  2 -1</clus>
<clus scale="   46.249">  1  5  2 -1</clus>
</clustering>
</event>
<event>
10    4  0.2857708E-005  0.1929153E+03  0.7546771E-02  0.1156620E+00
         21   -1    0    0  501  502  0.00000000000E+00  0.00000000000E+00  0.23854532172E+03  0.23854532172E+03  0.00000000000E+00 0.  1.
          2   -1    0    0  503    0 -0.00000000000E+00 -0.00000000000E+00 -0.67153045411E+03  0.67153045411E+03  0.00000000000E+00 0. -1.
         23    2    1    2    0    0 -0.12539352481E+03 -0.14106540763E+03 -0.49577023295E+03  0.53832003287E+03  0.91527857077E+02 0.  0.
         24    2    1    2    0    0  0.83346823624E+02  0.12306853483E+03  0.36116766393E+02  0.17455017471E+03  0.84087962295E+02 0.  0.
        -13    1    4    4    0    0  0.11578685491E+02  0.30653182754E+02  0.46715400390E+02  0.57061477410E+02  0.00000000000E+00 0.  1.
         14    1    4    4    0    0  0.71768138133E+02  0.92415352074E+02 -0.10598633997E+02  0.11748869730E+03  0.00000000000E+00 0. -1.
        -13    1    3    3    0    0 -0.31893510069E+02 -0.82523929067E+02 -0.13796751091E+03  0.16389761718E+03  0.00000000000E+00 0.  1.
         13    1    3    3    0    0 -0.93500014738E+02 -0.58541478559E+02 -0.35780272205E+03  0.37442241569E+03  0.00000000000E+00 0. -1.
         21    1    1    2  503  502  0.33004928578E+02 -0.40113523707E+01 -0.80674688916E+02  0.87257215690E+02  0.00000000000E+00 0.  1.
          1    1    1    2  501    0  0.90417726057E+01  0.22008225170E+02  0.10734302308E+03  0.10994835256E+03  0.00000000000E+00 0. -1.
<scales pt_clust_5="13000.00000" pt_clust_6="13000.00000" pt_clust_7="13000.00000" pt_clust_8="13000.00000" pt_clust_9="33.41300" pt_clust_10="23.79318"></scales>
<clustering>
<clus scale="   23.793">  1 10  2 -1</clus>
<clus scale="   33.413">  2  9  1 -1</clus>
<clus scale="   84.088">  5  6 -1 -1</clus>
<clus scale="   91.528">  7  8 -1 -1</clus>
<clus scale="  189.499">  1  5  2 -1</clus>
<clus scale="   23.793">  1  5  2 -1</clus>
</clustering>
</event>
<event>
10    4  0.2857708E-005  0.1049418E+03  0.7546771E-02  0.1273176E+00
         21   -1    0    0  501  502  0.00000000000E+00  0.00000000000E+00  0.13248196494E+03  0.13248196494E+03  0.00000000000E+00 0. -1.
          2   -1    0    0  503    0 -0.00000000000E+00 -0.00000000000E+00 -0.38762358386E+03  0.38762358386E+03  0.00000000000E+00 0. -1.
         24    2    1    2    0    0  0.41950139696E+02  0.77663126806E+01 -0.26879533487E+03  0.28486186856E+03  0.84114340511E+02 0.  0.
         23    2    1    2    0    0  0.26212540617E+01 -0.53451052925E+02  0.42590697432E+02  0.11372907310E+03  0.90865001669E+02 0.  0.
        -11    1    3    3    0    0  0.43335811396E+01  0.37071822708E+02 -0.59772056250E+02  0.70468423232E+02  0.00000000000E+00 0.  1.
         12    1    3    3    0    0  0.37616558556E+02 -0.29305510028E+02 -0.20902327862E+03  0.21439344533E+03  0.00000000000E+00 0. -1.
        -13    1    4    4    0    0 -0.38254833230E+02 -0.48668359300E+02  0.13576432769E+02  0.63374766186E+02  0.00000000000E+00 0.  1.
         13    1    4    4    0    0  0.40876087292E+02 -0.47826936255E+01  0.29014264663E+02  0.50354306912E+02  0.00000000000E+00 0. -1.
         21    1    1    2  503  502  0.16588454265E+02  0.11573872833E+02 -0.45289913701E+02  0.49601488186E+02  0.00000000000E+00 0. -1.
          1    1    1    2  501    0 -0.61159848022E+02  0.34110867412E+02  0.16352932223E+02  0.71913118956E+02  0.00000000000E+00 0. -1.
<scales pt_clust_5="13000.00000" pt_clust_6="13000.00000" pt_clust_7="13000.00000" pt_clust_8="13000.00000" pt_clust_9="20.22700" pt_clust_10="69.32232"></scales>
<clustering>
<clus scale="   20.227">  2  9  1 -1</clus>
<clus scale="   69.322">  1 10  2 -1</clus>
<clus scale="   84.114">  5  6 -1 -1</clus>
<clus scale="   90.865">  7  8 -1 -1</clus>
<clus scale="   99.154">  2  5  1 -1</clus>
<clus scale="   69.322">  1  5  2 -1</clus>
</clustering>
</event>
<event>
10    4  0.2857708E-005  0.1245231E+03  0.7546771E-02  0.1238828E+00
         -3   -1    0    0    0  501 -0.00000000000E+00  0.00000000000E+00  0.19910387230E+03  0.19910387230E+03  0.00000000000E+00 0.  1.
         21   -1    0    0  503  502  0.00000000000E+00 -0.00000000000E+00 -0.15841660639E+03  0.15841660639E+03  0.00000000000E+00 0. -1.
         23    2    1    2    0    0 -0.74347065782E+02 -0.42583178496E+02  0.58896295732E+02  0.13749491464E+03  0.89973688478E+02 0.  0.
         24    2    1    2    0    0  0.67748441456E+02  0.36533919499E+02 -0.80547894163E+02  0.13680304200E+03  0.79388478091E+02 0.  0.
        -13    1    4    4    0    0  0.30607809778E+02  0.26720962279E+02  0.69710914254E+01  0.41224312731E+02  0.00000000000E+00 0.  1.
         14    1    4    4    0    0  0.37140631678E+02  0.98129572208E+01 -0.87518985589E+02  0.95578729272E+02  0.00000000000E+00 0. -1.
        -11    1    3    3    0    0  0.12588830878E+02 -0.16495869708E+02 -0.10484627728E+02  0.23249081679E+02  0.00000000000E+00 0.  1.
         11    1    3    3    0    0 -0.86935896660E+02 -0.26087308788E+02  0.69380923459E+02  0.11424583296E+03  0.00000000000E+00 0. -1.
         21    1    1    2  503  501  0.47398877258E+01 -0.20486646478E+02  0.49301368255E+02  0.53598452696E+02  0.00000000000E+00 0.  1.
         -4    1    1    2    0  502  0.18587366006E+01  0.26535905474E+02  0.13037496088E+02  0.29624069358E+02  0.00000000000E+00 0.  1.
<scales pt_clust_5="13000.00000" pt_clust_6="13000.00000" pt_clust_7="13000.00000" pt_clust_8="13000.00000" pt_clust_9="21.02782" pt_clust_10="23.71312"></scales>
<clustering>
<clus scale="   21.028">  1  9  2 -1</clus>
<clus scale="   23.713">  2 10  1 -1</clus>
<clus scale="   79.388">  5  6 -1 -1</clus>
<clus scale="   89.974">  7  8 -1 -1</clus>
<clus scale="  117.104">  2  5  1 -1</clus>
<clus scale="   23.713">  2  5  1 -1</clus>
</clustering>
</event>
<event>
10    4  0.2857708E-005  0.1356787E+03  0.7546771E-02  0.1221052E+00
         21   -1    0    0  501  502  0.00000000000E+00  0.00000000000E+00  0.58305829024E+03  0.58305829024E+03  0.00000000000E+00 0.  1.
          2   -1    0    0  503    0 -0.00000000000E+00 -0.00000000000E+00 -0.14872050109E+03  0.14872050109E+03  0.00000000000E+00 0. -1.
         24    2    1    2    0    0  0.31101209399E+02 -0.31752961621E+02 -0.60519192819E+02  0.11204172206E+03  0.83157915954E+02 0.  0.
         23    2    1    2    0    0 -0.53486104341E+02  0.14023746521E+03  0.31512149800E+03  0.36065882425E+03  0.90807042682E+02 0.  0.
        -13    1    3    3    0    0  0.44234122473E+02  0.13423967340E+02 -0.21791071104E+02  0.51104904559E+02  0.00000000000E+00 0.  1.
         14    1    3    3    0    0 -0.13132913073E+02 -0.45176928961E+02 -0.38728121714E+02  0.60936817505E+02  0.00000000000E+00 0. -1.
        -13    1    4    4    0    0  0.19568222420E+02  0.25533058931E+02  0.10955535139E+03  0.11418067895E+03  0.00000000000E+00 0. -1.
         13    1    4    4    0    0 -0.73054326761E+02  0.11470440628E+03  0.20556614661E+03  0.24647814530E+03  0.00000000000E+00 0.  1.
         21    1    1    2  503  502 -0.31595966340E+01 -0.71027401064E+02 -0.26450579191E+01  0.71146827646E+02  0.00000000000E+00 0.  1.
          1    1    1    2  501    0  0.25544491575E+02 -0.37457102523E+02  0.18238054188E+03  0.18793141737E+03  0.00000000000E+00 0. -1.
<scales pt_clust_5="13000.00000" pt_clust_6="13000.00000" pt_clust_7="13000.00000" pt_clust_8="13000.00000" pt_clust_9="74.25787" pt_clust_10="45.33824"></scales>
<clustering>
<clus scale="   45.338">  1 10  2 -1</clus>
<clus scale="   74.258">  2  9  1 -1</clus>
<clus scale="   83.158">  5  6 -1 -1</clus>
<clus scale="   90.807">  7  8 -1 -1</clus>
<clus scale="  130.683">  2  5  1 -1</clus>
<clus scale="   45.338">  1  5  2 -1</clus>
</clustering>
</event>
<event>
10    4  0.2857708E-005  0.1115217E+03  0.7546771E-02  0.1264924E+00
          2   -1    0    0  503    0 -0.00000000000E+00  0.00000000000E+00  0.14384174807E+03  0.14384174807E+03  0.00000000000E+00 0. -1.
         21   -1    0    0  501  502  0.00000000000E+00 -0.00000000000E+00 -0.19386284961E+03  0.19386284961E+03  0.00000000000E+00 0. -1.
         24    2    1    2    0    0 -0.35633977352E+02  0.24158108490E+02  0.61347074539E+02  0.10442704692E+03  0.72719667390E+02 0.  0.
         23    2    1    2    0    0  0.23637627788E+02 -0.52442964097E+02 -0.11561588705E+03  0.15812738374E+03  0.91259159635E+02 0.  0.
        -13    1    3    3    0    0 -0.50227857754E+02  0.23176646134E+01  0.59777682849E+02  0.78112615054E+02  0.00000000000E+00 0.  1.
         14    1    3    3    0    0  0.14593880402E+02  0.21840443876E+02  0.15693916899E+01  0.26314431861E+02  0.00000000000E+00 0. -1.
        -13    1    4    4    0    0  0.46128292401E+02 -0.16245729879E+02 -0.18884589403E+02  0.52424906448E+02  0.00000000000E+00 0.  1.
         13    1    4    4    0    0 -0.22490664613E+02 -0.36197234218E+02 -0.96731297651E+02  0.10570247729E+03  0.00000000000E+00 0. -1.
         21    1    1    2  503  502 -0.23975759646E+01  0.45107770070E+02  0.18506661068E+02  0.48815528217E+02  0.00000000000E+00 0.  1.
          1    1    1    2  501    0  0.14393925529E+02 -0.16822914462E+02 -0.14258950091E+02  0.26334638802E+02  0.00000000000E+00 0. -1.
<scales pt_clust_5="13000.00000" pt_clust_6="13000.00000" pt_clust_7="13000.00000" pt_clust_8="13000.00000" pt_clust_9="43.65383" pt_clust_10="22.14036"></scales>
<clustering>
<clus scale="   22.140">  2 10  1 -1</clus>
<clus scale="   43.654">  1  9  2 -1</clus>
<clus scale="   72.720">  5  6 -1 -1</clus>
<clus scale="   91.259">  7  8 -1 -1</clus>
<clus scale="   96.938">  1  5  2 -1</clus>
<clus scale="   22.140">  2  5  1 -1</clus>
</clustering>
</event>
<event>
10    4  0.2857708E-005  0.9426311E+02  0.7546771E-02  0.1296336E+00
         -1   -1    0    0    0  501 -0.00000000000E+00  0.00000000000E+00  0.22296638282E+03  0.22296638282E+03  0.00000000000E+00 0.  1.
         21   -1    0    0  503  502  0.00000000000E+00 -0.00000000000E+00 -0.14135016180E+03  0.14135016180E+03  0.00000000000E+00 0.  1.
         23    2    1    2    0    0  0.52407637512E+01  0.38525038573E+02  0.11295491432E+02  0.99315211937E+02  0.90687810612E+02 0.  0.
         24    2    1    2    0    0 -0.95117408484E+01 -0.13783760577E+02 -0.68491643965E+02  0.11006319869E+03  0.84512349062E+02 0.  0.
        -13    1    4    4    0    0  0.30697721750E+02 -0.28736056275E+02 -0.43092170247E+02  0.60208356459E+02  0.00000000000E+00 0.  1.
         14    1    4    4    0    0 -0.40209462598E+02  0.14952295698E+02 -0.25399473718E+02  0.49854842234E+02  0.00000000000E+00 0. -1.
        -13    1    3    3    0    0 -0.33849009309E+02 -0.52807865527E+01 -0.11787538816E+02  0.36229659247E+02  0.00000000000E+00 0. -1.
         13    1    3    3    0    0  0.39089773060E+02  0.43805825125E+02  0.23083030248E+02  0.63085552690E+02  0.00000000000E+00 0.  1.
         21    1    1    2  503  501  0.20562466775E+02 -0.36587759377E+02  0.57623590654E+02  0.71287848726E+02  0.00000000000E+00 0.  1.
         -2    1    1    2    0  502 -0.16291489678E+02  0.11846481381E+02  0.81188782897E+02  0.83650285267E+02  0.00000000000E+00 0.  1.
<scales pt_clust_5="13000.00000" pt_clust_6="13000.00000" pt_clust_7="13000.00000" pt_clust_8="13000.00000" pt_clust_9="41.07928" pt_clust_10="20.14329"></scales>
<clustering>
<clus scale="   20.143">  2 10  1 -1</clus>
<clus scale="   41.079">  1  9  2 -1</clus>
<clus scale="   84.512">  5  6 -1 -1</clus>
<clus scale="   88.338">  2  5  1 -1</clus>
<clus scale="   90.688">  7  8 -1 -1</clus>
<clus scale="   20.143">  2  5  1 -1</clus>
</clustering>
</event>
<event>
10    4  0.2857708E-005  0.1151171E+03  0.7546771E-02  0.1259847E+00
         21   -1    0    0  501  502  0.00000000000E+00  0.00000000000E+00  0.21609537792E+03  0.21609537792E+03  0.00000000000E+00 0. -1.
          2   -1    0    0  503    0 -0.00000000000E+00 -0.00000000000E+00 -0.27353639382E+03  0.27353639382E+03  0.00000000000E+00 0. -1.
         23    2    1    2    0    0  0.19568848163E+02  0.18279855015E+02 -0.89495526952E+02  0.13047713338E+03  0.91091931988E+02 0.  0.
         24    2    1    2    0    0  0.23258204275E+01  0.73064572012E+01  0.11748856479E+03  0.14422909724E+03  0.83304717023E+02 0.  0.
        -11    1    4    4    0    0  0.38017245532E+02  0.52837502010E+01  0.26980145498E+02  0.46916492037E+02  0.00000000000E+00 0.  1.
         12    1    4    4    0    0 -0.35691425104E+02  0.20227070002E+01  0.90508419290E+02  0.97312605206E+02  0.00000000000E+00 0. -1.
        -13    1    3    3    0    0 -0.35100812027E+02  0.15492734744E+02 -0.24597795023E+02  0.45575688199E+02  0.00000000000E+00 0.  1.
         13    1    3    3    0    0  0.54669660190E+02  0.27871202717E+01 -0.64897731929E+02  0.84901445183E+02  0.00000000000E+00 0. -1.
         21    1    1    2  503  502 -0.31826528376E+02 -0.10625470192E+03 -0.72790665579E+02  0.13267053397E+03  0.00000000000E+00 0. -1.
          1    1    1    2  501    0  0.99318597854E+01  0.80668389704E+02 -0.12643388154E+02  0.82255007144E+02  0.00000000000E+00 0. -1.
<scales pt_clust_5="13000.00000" pt_clust_6="13000.00000" pt_clust_7="13000.00000" pt_clust_8="13000.00000" pt_clust_9="79.44975" pt_clust_10="81.27753"></scales>
<clustering>
<clus scale="   81.278">  1 10  2 -1</clus>
<clus scale="   83.305">  5  6 -1 -1</clus>
<clus scale="   91.092">  7  8 -1 -1</clus>
<clus scale="   97.347">  2  7  1 -1</clus>
<clus scale="   79.450">  2  9  1 -1</clus>
<clus scale="   81.278">  1  5  2 -1</clus>
</clustering>
</event>
<event>
10    4  0.2857708E-005  0.1101170E+03  0.7546771E-02  0.1262339E+00
         -1   -1    0    0    0  501 -0.00000000000E+00  0.00000000000E+00  0.42633650098E+02  0.42633650098E+02  0.00000000000E+00 0.  1.
         21   -1    0    0  503  502  0.00000000000E+00 -0.00000000000E+00 -0.82139941983E+03  0.82139941983E+03  0.00000000000E+00 0.  1.
         24    2    1    2    0    0  0.38721829987E+02  0.64654189687E+02 -0.22323213298E+03  0.24906286247E+03  0.80747630944E+02 0.  0.
         23    2    1    2    0    0 -0.53349987066E+02 -0.63231062165E+02 -0.35726872833E+03  0.37671505140E+03  0.86191051572E+02 0.  0.
        -11    1    3    3    0    0  0.51661072552E+02  0.49307977833E+02 -0.21636699311E+03  0.22784823633E+03  0.00000000000E+00 0.  1.
         12    1    3    3    0    0 -0.12939242565E+02  0.15346211853E+02 -0.68651398759E+01  0.21214626132E+02  0.00000000000E+00 0. -1.
        -11    1    4    4    0    0  0.21224869137E+02 -0.68707673999E+01 -0.38220642498E+02  0.44255169501E+02  0.00000000000E+00 0. -1.
         11    1    4    4    0    0 -0.74574856203E+02 -0.56360294765E+02 -0.31904808583E+03  0.33245988190E+03  0.00000000000E+00 0.  1.
         21    1    1    2  503  501 -0.43858156827E+01 -0.65022529244E+02 -0.87154480301E+02  0.10882586147E+03  0.00000000000E+00 0.  1.
         -2    1    1    2    0  502  0.19013972762E+02  0.63599401722E+02 -0.11111042812E+03  0.12942929458E+03  0.00000000000E+00 0.  1.
<scales pt_clust_5="13000.00000" pt_clust_6="13000.00000" pt_clust_7="13000.00000" pt_clust_8="13000.00000" pt_clust_9="65.17027" pt_clust_10="48.25317"></scales>
<clustering>
<clus scale="   65.170">  1  9  2 -1</clus>
<clus scale="   48.253">  2 10  1 -1</clus>
<clus scale="   80.748">  5  6 -1 -1</clus>
<clus scale="   86.191">  7  8 -1 -1</clus>
<clus scale="  105.911">  1  5  2 -1</clus>
<clus scale="   48.253">  2  5  1 -1</clus>
</clustering>
</event>
<event>
10    4  0.2857708E-005  0.1762207E+03  0.7546771E-02  0.1172621E+00
          2   -1    0    0  503    0 -0.00000000000E+00  0.00000000000E+00  0.21619595968E+04  0.21619595968E+04  0.00000000000E+00 0. -1.
         21   -1    0    0  501  502  0.00000000000E+00 -0.00000000000E+00 -0.27743080533E+03  0.27743080533E+03  0.00000000000E+00 0. -1.
         24    2    1    2    0    0  0.53057202256E+02  0.11627840492E+03  0.13214000828E+04  0.13301166353E+04  0.82318591023E+02 0.  0.
         23    2    1    2    0    0  0.16928257228E+02 -0.12478439200E+03  0.25110499648E+03  0.29532818395E+03  0.91144427137E+02 0.  0.
        -11    1    3    3    0    0  0.31162903583E+02  0.54573306537E+02  0.29445976671E+03  0.30109122631E+03  0.00000000000E+00 0.  1.
         12    1    3    3    0    0  0.21894298673E+02  0.61705098386E+02  0.10269403161E+04  0.10290254090E+04  0.00000000000E+00 0. -1.
        -11    1    4    4    0    0 -0.34280879182E+01 -0.39340638020E+02  0.13056957535E+02  0.41592327738E+02  0.00000000000E+00 0.  1.
         11    1    4    4    0    0  0.20356345146E+02 -0.85443753977E+02  0.23804803894E+03  0.25373585621E+03  0.00000000000E+00 0. -1.
         21    1    1    2  503  502 -0.66722551375E+02  0.64366449219E+02  0.55597887439E+03  0.56365543324E+03  0.00000000000E+00 0. -1.
          1    1    1    2  501    0 -0.32629081092E+01 -0.55860462145E+02 -0.24395516226E+03  0.25029014961E+03  0.00000000000E+00 0. -1.
<scales pt_clust_5="13000.00000" pt_clust_6="13000.00000" pt_clust_7="13000.00000" pt_clust_8="13000.00000" pt_clust_9="88.25874" pt_clust_10="55.95568"></scales>
<clustering>
<clus scale="   55.956">  2 10  1 -1</clus>
<clus scale="   82.319">  5  6 -1 -1</clus>
<clus scale="   88.259">  1  9  2 -1</clus>
<clus scale="   91.144">  7  8 -1 -1</clus>
<clus scale="  171.822">  1  5  2 -1</clus>
<clus scale="   55.956">  2  5  1 -1</clus>
</clustering>
</event>
<event>
10    4  0.2857708E-005  0.1870768E+03  0.7546771E-02  0.1196999E+00
         21   -1    0    0  503  502  0.00000000000E+00  0.00000000000E+00  0.89353874740E+03  0.89353874740E+03  0.00000000000E+00 0.  1.
         -1   -1    0    0    0  501 -0.00000000000E+00 -0.00000000000E+00 -0.76124236299E+02  0.76124236299E+02  0.00000000000E+00 0.  1.
         24    2    1    2    0    0  0.34232464004E+02 -0.15966783521E+02  0.12619683197E+03  0.15268174098E+03  0.77196333220E+02 0.  0.
         23    2    1    2    0    0 -0.11995372626E+03  0.12402722289E+03  0.20711548873E+03  0.28419871131E+03  0.90002407640E+02 0.  0.
        -13    1    3    3    0    0  0.46033521417E+02  0.18348862979E+02  0.76437502705E+02  0.91095870853E+02  0.00000000000E+00 0.  1.
         14    1    3    3    0    0 -0.11801057413E+02 -0.34315646500E+02  0.49759329263E+02  0.61585870128E+02  0.00000000000E+00 0. -1.
        -13    1    4    4    0    0 -0.92641109437E+02  0.12737635111E+03  0.20210434891E+03  0.25622895587E+03  0.00000000000E+00 0.  1.
         13    1    4    4    0    0 -0.27312616819E+02 -0.33491282215E+01  0.50111398260E+01  0.27969755446E+02  0.00000000000E+00 0. -1.
         21    1    1    2  503  501 -0.36295206618E+02 -0.27617144907E+01  0.20088797708E+02  0.41575580378E+02  0.00000000000E+00 0. -1.
         -2    1    1    2    0  502  0.12201646887E+03 -0.10529872488E+03  0.46401339270E+03  0.49120695103E+03  0.00000000000E+00 0.  1.
<scales pt_clust_5="13000.00000" pt_clust_6="13000.00000" pt_clust_7="13000.00000" pt_clust_8="13000.00000" pt_clust_9="36.40012" pt_clust_10="164.00391"></scales>
<clustering>
<clus scale="   36.400">  2  9  1 -1</clus>
<clus scale="   77.196">  5  6 -1 -1</clus>
<clus scale="   83.397">  2  5  1 -1</clus>
<clus scale="   90.002">  7  8 -1 -1</clus>
<clus scale="  164.004">  1 10  2 -1</clus>
<clus scale="  164.004">  1  5  2 -1</clus>
</clustering>
</event>
<event>
10    4  0.2857708E-005  0.8991053E+02  0.7546771E-02  0.1308037E+00
          2   -1    0    0  503    0 -0.00000000000E+00  0.00000000000E+00  0.30466791057E+03  0.30466791057E+03  0.00000000000E+00 0. -1.
         21   -1    0    0  501  502  0.00000000000E+00 -0.00000000000E+00 -0.34361112209E+03  0.34361112209E+03  0.00000000000E+00 0.  1.
         24    2    1    2    0    0  0.38262562915E+01 -0.16261965193E+02  0.95423889896E+02  0.12658952255E+03  0.81486788544E+02 0.  0.
         23    2    1    2    0    0 -0.72703878193E+02 -0.51890393709E+01 -0.78189604744E+02  0.13931617630E+03  0.89345412052E+02 0.  0.
        -11    1    3    3    0    0  0.34126253911E+02  0.13726210227E+02  0.63296639850E+02  0.73208433049E+02  0.00000000000E+00 0.  1.
         12    1    3    3    0    0 -0.30299997619E+02 -0.29988175420E+02  0.32127250046E+02  0.53381089500E+02  0.00000000000E+00 0. -1.
        -13    1    4    4    0    0 -0.93577827345E+02  0.92635896164E-01 -0.66650092132E+02  0.11488713215E+03  0.00000000000E+00 0. -1.
         13    1    4    4    0    0  0.20873949152E+02 -0.52816752670E+01 -0.11539512612E+02  0.24429044151E+02  0.00000000000E+00 0.  1.
         21    1    1    2  503  502 -0.40988358859E+01  0.20968853640E+02  0.15627881026E+03  0.15773255788E+03  0.00000000000E+00 0. -1.
          1    1    1    2  501    0  0.72976457788E+02  0.48215092410E+00 -0.21245630693E+03  0.22464077594E+03  0.00000000000E+00 0. -1.
<scales pt_clust_5="13000.00000" pt_clust_6="13000.00000" pt_clust_7="13000.00000" pt_clust_8="13000.00000" pt_clust_9="21.36570" pt_clust_10="72.81981"></scales>
<clustering>
<clus scale="   21.366">  1  9  2 -1</clus>
<clus scale="   72.820">  2 10  1 -1</clus>
<clus scale="   81.487">  5  6 -1 -1</clus>
<clus scale="   82.106">  1  5  2 -1</clus>
<clus scale="   89.345">  7  8 -1 -1</clus>
<clus scale="   72.820">  2  5  1 -1</clus>
</clustering>
</event>
<event>
10    4  0.2857708E-005  0.1435164E+03  0.7546771E-02  0.1220634E+00
         21   -1    0    0  503  502  0.00000000000E+00  0.00000000000E+00  0.16846889058E+04  0.16846889058E+04  0.00000000000E+00 0.  1.
         -3   -1    0    0    0  501 -0.00000000000E+00 -0.00000000000E+00 -0.85727777839E+02  0.85727777839E+02  0.00000000000E+00 0.  1.
         24    2    1    2    0    0 -0.22082682193E+02  0.87555103391E+02  0.24559788708E+03  0.27400500647E+03  0.81282719252E+02 0.  0.
         23    2    1    2    0    0 -0.13483809553E+03 -0.89738126754E+02  0.68147114426E+03  0.70503409695E+03  0.80224148553E+02 0.  0.
        -13    1    3    3    0    0  0.50939976757E+01  0.87530163581E+02  0.14187825510E+03  0.16678404486E+03  0.00000000000E+00 0.  1.
         14    1    3    3    0    0 -0.27176679869E+02  0.24939809162E-01  0.10371963198E+03  0.10722096161E+03  0.00000000000E+00 0. -1.
        -13    1    4    4    0    0 -0.77707986417E+02 -0.87430509673E+02  0.53841514280E+03  0.55097503679E+03  0.00000000000E+00 0. -1.
         13    1    4    4    0    0 -0.57130109112E+02 -0.23076170806E+01  0.14305600146E+03  0.15405906016E+03  0.00000000000E+00 0.  1.
         21    1    1    2  503  501  0.53648845754E+02 -0.24173234936E+02 -0.40257399255E+02  0.71296578689E+02  0.00000000000E+00 0.  1.
         -4    1    1    2    0  502  0.10327193197E+03  0.26356258299E+02  0.71214949586E+03  0.72008100151E+03  0.00000000000E+00 0.  1.
<scales pt_clust_5="13000.00000" pt_clust_6="13000.00000" pt_clust_7="13000.00000" pt_clust_8="13000.00000" pt_clust_9="58.84338" pt_clust_10="119.00023"></scales>
<clustering>
<clus scale="   58.843">  2  9  1 -1</clus>
<clus scale="   80.224">  7  8 -1 -1</clus>
<clus scale="   81.283">  5  6 -1 -1</clus>
<clus scale="  111.392">  2  5  1 -1</clus>
<clus scale="  119.000">  1 10  2 -1</clus>
<clus scale="  119.000">  1  5  2 -1</clus>
</clustering>
</event>
<event>
10    4  0.2857708E-005  0.1531936E+03  0.7546771E-02  0.1198132E+00
          2   -1    0    0  503    0 -0.00000000000E+00  0.00000000000E+00  0.45213374170E+03  0.45213374170E+03  0.00000000000E+00 0. -1.
         21   -1    0    0  501  502  0.00000000000E+00 -0.00000000000E+00 -0.15348767006E+03  0.15348767006E+03  0.00000000000E+00 0. -1.
         23    2    1    2    0    0 -0.67988015365E+02 -0.68930045301E+02  0.12580825972E+03  0.18275656871E+03  0.90545700140E+02 0.  0.
         24    2    1    2    0    0  0.14337013561E+03 -0.20189665497E+02 -0.25415848013E+02  0.16820164609E+03  0.81750902379E+02 0.  0.
        -13    1    4    4    0    0  0.36462640845E+02  0.29570185687E+02 -0.17191382920E+02  0.49994636769E+02  0.00000000000E+00 0.  1.
         14    1    4    4    0    0  0.10690749476E+03 -0.49759851184E+02 -0.82244650923E+01  0.11820700932E+03  0.00000000000E+00 0. -1.
        -13    1    3    3    0    0 -0.27018882002E+02 -0.10397769387E+02 -0.88887157553E+01  0.30284366605E+02  0.00000000000E+00 0. -1.
         13    1    3    3    0    0 -0.40969133363E+02 -0.58532275915E+02  0.13469697548E+03  0.15247220210E+03  0.00000000000E+00 0.  1.
         21    1    1    2  503  502 -0.10328230107E+03  0.64450987476E+02  0.16241984569E+03  0.20298120547E+03  0.00000000000E+00 0. -1.
          1    1    1    2  501    0  0.27900180831E+02  0.24668723322E+02  0.35833814248E+02  0.51681991489E+02  0.00000000000E+00 0. -1.
<scales pt_clust_5="13000.00000" pt_clust_6="13000.00000" pt_clust_7="13000.00000" pt_clust_8="13000.00000" pt_clust_9="120.36678" pt_clust_10="37.24201"></scales>
<clustering>
<clus scale="   37.242">  2 10  1 -1</clus>
<clus scale="   81.751">  5  6 -1 -1</clus>
<clus scale="   90.546">  7  8 -1 -1</clus>
<clus scale="  120.367">  1  9  2 -1</clus>
<clus scale="  148.165">  2  5  1 -1</clus>
<clus scale="   37.242">  2  5  1 -1</clus>
</clustering>
</event>
<event>
10    4  0.2857708E-005  0.3080958E+03  0.7546771E-02  0.1107315E+00
         21   -1    0    0  501  502  0.00000000000E+00  0.00000000000E+00  0.72094824668E+02  0.72094824668E+02  0.00000000000E+00 0. -1.
          2   -1    0    0  503    0 -0.00000000000E+00 -0.00000000000E+00 -0.26468349180E+04  0.26468349180E+04  0.00000000000E+00 0. -1.
         23    2    1    2    0    0  0.88317251187E+02  0.96256524442E+02 -0.24594272457E+03  0.29417009057E+03  0.94778494702E+02 0.  0.
         24    2    1    2    0    0  0.56171942424E+02 -0.30578169317E+03 -0.10295473337E+04  0.10784588434E+04  0.80299648467E+02 0.  0.
        -13    1    4    4    0    0 -0.96875093537E+01 -0.38574858858E+02 -0.21581786224E+03  0.21945208414E+03  0.00000000000E+00 0.  1.
         14    1    4    4    0    0  0.65859451778E+02 -0.26720683432E+03 -0.81372947147E+03  0.85900675925E+03  0.00000000000E+00 0. -1.
        -11    1    3    3    0    0 -0.78040636114E+01  0.36998069232E+02 -0.22990442033E+02  0.44252920362E+02  0.00000000000E+00 0. -1.
         11    1    3    3    0    0  0.96121314799E+02  0.59258455210E+02 -0.22295228254E+03  0.24991717020E+03  0.00000000000E+00 0.  1.
         21    1    1    2  503  502 -0.34836695014E+02 -0.55764282794E+02 -0.24353368985E+03  0.25225365933E+03  0.00000000000E+00 0. -1.
          1    1    1    2  501    0 -0.10965249860E+03  0.26528945153E+03 -0.10557163452E+04  0.10940471494E+04  0.00000000000E+00 0. -1.
<scales pt_clust_5="13000.00000" pt_clust_6="13000.00000" pt_clust_7="13000.00000" pt_clust_8="13000.00000" pt_clust_9="65.75143" pt_clust_10="297.44764"></scales>
<clustering>
<clus scale="   65.751">  2  9  1 -1</clus>
<clus scale="   80.300">  5  6 -1 -1</clus>
<clus scale="   94.778">  7  8 -1 -1</clus>
<clus scale="  155.569">  2  7  1 -1</clus>
<clus scale="  297.448">  1 10  2 -1</clus>
<clus scale="  297.448">  1  5  2 -1</clus>
</clustering>
</event>
<event>
10    4  0.2857708E-005  0.5465475E+03  0.7546771E-02  0.1052261E+00
         21   -1    0    0  501  502  0.00000000000E+00  0.00000000000E+00  0.12246866467E+03  0.12246866467E+03  0.00000000000E+00 0. -1.
          2   -1    0    0  503    0 -0.00000000000E+00 -0.00000000000E+00 -0.32975828103E+04  0.32975828103E+04  0.00000000000E+00 0. -1.
         23    2    1    2    0    0 -0.79996607573E+02  0.41332009076E+01 -0.38386465506E+03  0.40244937776E+03  0.90536664863E+02 0.  0.
         24    2    1    2    0    0 -0.24414269534E+03 -0.46939743862E+03 -0.13184908635E+04  0.14230359557E+04  0.81691879229E+02 0.  0.
        -13    1    4    4    0    0 -0.49641283172E+01 -0.65644843191E+02 -0.14833665299E+03  0.16228878774E+03  0.00000000000E+00 0.  1.
         14    1    4    4    0    0 -0.23917856703E+03 -0.40375259543E+03 -0.11701542105E+04  0.12607471680E+04  0.00000000000E+00 0. -1.
        -13    1    3    3    0    0  0.59330964554E+01 -0.26789693598E+02 -0.12415517695E+03  0.12715108053E+03  0.00000000000E+00 0.  1.
         13    1    3    3    0    0 -0.85929704029E+02  0.30922894505E+02 -0.25970947811E+03  0.27529829724E+03  0.00000000000E+00 0. -1.
         21    1    1    2  503  502 -0.22244018954E+02  0.30271322486E+02 -0.23041435466E+03  0.23345647169E+03  0.00000000000E+00 0. -1.
          1    1    1    2  501    0  0.34638332187E+03  0.43499291523E+03 -0.12423442725E+04  0.13611096698E+04  0.00000000000E+00 0. -1.
<scales pt_clust_5="13000.00000" pt_clust_6="13000.00000" pt_clust_7="13000.00000" pt_clust_8="13000.00000" pt_clust_9="37.56527" pt_clust_10="540.40781"></scales>
<clustering>
<clus scale="   37.565">  2  9  1 -1</clus>
<clus scale="   81.692">  5  6 -1 -1</clus>
<clus scale="   90.537">  7  8 -1 -1</clus>
<clus scale="  122.984">  2  7  1 -1</clus>
<clus scale="  540.408">  1 10  2 -1</clus>
<clus scale="  540.408">  1  5  2 -1</clus>
</clustering>
</event>
<event>
10    4  0.2857708E-005  0.2220544E+03  0.7546771E-02  0.1134072E+00
         21   -1    0    0  501  502  0.00000000000E+00  0.00000000000E+00  0.15613581740E+03  0.15613581740E+03  0.00000000000E+00 0. -1.
          2   -1    0    0  503    0 -0.00000000000E+00 -0.00000000000E+00 -0.54211560008E+03  0.54211560008E+03  0.00000000000E+00 0. -1.
         24    2    1    2    0    0 -0.15571208869E+03 -0.88556026389E+02 -0.86337569587E+02  0.21448997668E+03  0.80394961301E+02 0.  0.
         23    2    1    2    0    0  0.19212384347E+03  0.10680430140E+03 -0.82177935008E+02  0.25590851103E+03  0.10206479799E+03 0.  0.
        -11    1    3    3    0    0 -0.22621074767E+02 -0.17797114006E+02  0.15393329356E+02  0.32640540425E+02  0.00000000000E+00 0.  1.
         12    1    3    3    0    0 -0.13309101392E+03 -0.70758912383E+02 -0.10173089894E+03  0.18184943626E+03  0.00000000000E+00 0. -1.
        -11    1    4    4    0    0  0.62964587296E+02  0.48941743970E+02 -0.81994078648E+02  0.11438034136E+03  0.00000000000E+00 0.  1.
         11    1    4    4    0    0  0.12915925617E+03  0.57862557435E+02 -0.18385635993E+00  0.14152816967E+03  0.00000000000E+00 0. -1.
         21    1    1    2  503  502  0.36558428752E+01 -0.26199442184E+02 -0.69866042245E+02  0.74706357272E+02  0.00000000000E+00 0. -1.
          1    1    1    2  501    0 -0.40067597653E+02  0.79511671685E+01 -0.14759823584E+03  0.15314657249E+03  0.00000000000E+00 0. -1.
<scales pt_clust_5="13000.00000" pt_clust_6="13000.00000" pt_clust_7="13000.00000" pt_clust_8="13000.00000" pt_clust_9="26.45328" pt_clust_10="38.89996"></scales>
<clustering>
<clus scale="   26.453">  2  9  1 -1</clus>
<clus scale="   38.900">  1 10  2 -1</clus>
<clus scale="   80.395">  5  6 -1 -1</clus>
<clus scale="  102.065">  7  8 -1 -1</clus>
<clus scale="  212.965">  2  5  1 -1</clus>
<clus scale="   38.900">  1  5  2 -1</clus>
</clustering>
</event>
<event>
10    4  0.2857708E-005  0.1117437E+03  0.7546771E-02  0.1260192E+00
          2   -1    0    0  502    0 -0.00000000000E+00  0.00000000000E+00  0.16305991242E+04  0.16305991242E+04  0.00000000000E+00 0. -1.
         21   -1    0    0  503  502  0.00000000000E+00 -0.00000000000E+00 -0.19012969992E+02  0.19012969992E+02  0.00000000000E+00 0. -1.
         24    2    1    2    0    0  0.75065385173E+02  0.10211609620E+02  0.94637435627E+03  0.95290297894E+03  0.81612352279E+02 0.  0.
         23    2    1    2    0    0 -0.37480297149E+02 -0.20758947059E+02  0.22974478092E+03  0.25018119586E+03  0.89287512272E+02 0.  0.
        -11    1    3    3    0    0  0.44832159064E+02 -0.20138261546E+02  0.22725265875E+03  0.23250643641E+03  0.00000000000E+00 0.  1.
         12    1    3    3    0    0  0.30233226108E+02  0.30349871166E+02  0.71912169752E+03  0.72039654252E+03  0.00000000000E+00 0. -1.
        -11    1    4    4    0    0 -0.48393503243E+02  0.20728974965E+02  0.15853387600E+03  0.16704673417E+03  0.00000000000E+00 0.  1.
         11    1    4    4    0    0  0.10913206094E+02 -0.41487922024E+02  0.71210904923E+02  0.83134461694E+02  0.00000000000E+00 0. -1.
         21    1    1    2  503  501  0.29384395355E+02  0.69528641141E+01  0.10162932070E+03  0.10602029917E+03  0.00000000000E+00 0.  1.
          1    1    1    2  501    0 -0.66969483379E+02  0.35944733242E+01  0.33383769629E+03  0.34050762019E+03  0.00000000000E+00 0. -1.
<scales pt_clust_5="13000.00000" pt_clust_6="13000.00000" pt_clust_7="13000.00000" pt_clust_8="13000.00000" pt_clust_9="30.19578" pt_clust_10="61.34439"></scales>
<clustering>
<clus scale="   30.196">  2  9  1 -1</clus>
<clus scale="   61.344">  2 10  1 -1</clus>
<clus scale="   81.612">  5  6 -1 -1</clus>
<clus scale="   89.288">  7  8 -1 -1</clus>
<clus scale="  105.712">  1  5  2 -1</clus>
<clus scale="   30.196">  2  5  1 -1</clus>
</clustering>
</event>
<event>
10    4  0.2857708E-005  0.2728045E+03  0.7546771E-02  0.1113695E+00
          2   -1    0    0  503    0 -0.00000000000E+00  0.00000000000E+00  0.26210546196E+03  0.26210546196E+03  0.00000000000E+00 0. -1.
         21   -1    0    0  501  502  0.00000000000E+00 -0.00000000000E+00 -0.65949305080E+03  0.65949305080E+03  0.00000000000E+00 0.  1.
         24    2    1    2    0    0 -0.16967441475E+01  0.17163561871E+03 -0.19923689626E+03  0.27482970335E+03  0.79839592082E+02 0.  0.
         23    2    1    2    0    0  0.14976285775E+03  0.88776226221E+02  0.37511315180E+02  0.19887649166E+03  0.88513435520E+02 0.  0.
        -11    1    3    3    0    0  0.11671422157E+02  0.17500408871E+03 -0.18720745445E+03  0.25653320284E+03  0.00000000000E+00 0.  1.
         12    1    3    3    0    0 -0.13368166304E+02 -0.33684700047E+01 -0.12029441811E+02  0.18296500507E+02  0.00000000000E+00 0. -1.
        -11    1    4    4    0    0  0.12589227371E+03  0.80311262721E+02  0.63787724711E+02  0.16238114830E+03  0.00000000000E+00 0.  1.
         11    1    4    4    0    0  0.23870584033E+02  0.84649634995E+01 -0.26276409531E+02  0.36495343360E+02  0.00000000000E+00 0. -1.
         21    1    1    2  503  502  0.28978376074E+02  0.81085860006E+01  0.20755778297E+02  0.36555406981E+02  0.00000000000E+00 0.  1.
          1    1    1    2  501    0 -0.17704448967E+03 -0.26852043093E+03 -0.25641778606E+03  0.41133691077E+03  0.00000000000E+00 0. -1.
<scales pt_clust_5="13000.00000" pt_clust_6="13000.00000" pt_clust_7="13000.00000" pt_clust_8="13000.00000" pt_clust_9="30.09145" pt_clust_10="258.04587"></scales>
<clustering>
<clus scale="   30.091">  1  9  2 -1</clus>
<clus scale="   79.840">  5  6 -1 -1</clus>
<clus scale="   88.513">  7  8 -1 -1</clus>
<clus scale="  190.511">  1  5  2 -1</clus>
<clus scale="  258.046">  2 10  1 -1</clus>
<clus scale="  258.046">  2  5  1 -1</clus>
</clustering>
</event>
<event>
10    4  0.2857708E-005  0.1074426E+03  0.7546771E-02  0.1269270E+00
         21   -1    0    0  501  502  0.00000000000E+00  0.00000000000E+00  0.24512966701E+03  0.24512966701E+03  0.00000000000E+00 0. -1.
          4   -1    0    0  503    0 -0.00000000000E+00 -0.00000000000E+00 -0.23829049209E+03  0.23829049209E+03  0.00000000000E+00 0. -1.
         24    2    1    2    0    0  0.38270416880E+02 -0.18066020865E+02 -0.12743545291E+02  0.93233901085E+02  0.82092365339E+02 0.  0.
         23    2    1    2    0    0 -0.43234614805E+02  0.75160195134E+02  0.12058470977E+03  0.17440480161E+03  0.91422512233E+02 0.  0.
        -13    1    3    3    0    0 -0.21263093659E+02  0.94988978063E+01  0.76816040722E+01  0.24522545802E+02  0.00000000000E+00 0.  1.
         14    1    3    3    0    0  0.59533510539E+02 -0.27564918671E+02 -0.20425149363E+02  0.68711355284E+02  0.00000000000E+00 0. -1.
        -13    1    4    4    0    0  0.24736804994E+02  0.41360982847E+02  0.32525474951E+02  0.58142471088E+02  0.00000000000E+00 0.  1.
         13    1    4    4    0    0 -0.67971419798E+02  0.33799212286E+02  0.88059234822E+02  0.11626233052E+03  0.00000000000E+00 0. -1.
         21    1    1    2  503  502 -0.32711332919E+01 -0.24183737182E+02 -0.15232053315E+03  0.15426308138E+03  0.00000000000E+00 0. -1.
          3    1    1    2  501    0  0.82353312167E+01 -0.32910437087E+02  0.51318543586E+02  0.61518375021E+02  0.00000000000E+00 0. -1.
<scales pt_clust_5="13000.00000" pt_clust_6="13000.00000" pt_clust_7="13000.00000" pt_clust_8="13000.00000" pt_clust_9="24.40396" pt_clust_10="35.28933"></scales>
<clustering>
<clus scale="   24.404">  2  9  1 -1</clus>
<clus scale="   35.289">  1 10  2 -1</clus>
<clus scale="   82.092">  5  6 -1 -1</clus>
<clus scale="   91.423">  7  8 -1 -1</clus>
<clus scale="   99.624">  2  5  1 -1</clus>
<clus scale="   35.289">  1  5  2 -1</clus>
</clustering>
</event>
<event>
10    4  0.2857708E-005  0.2280329E+03  0.7546771E-02  0.1128032E+00
          2   -1    0    0  503    0 -0.00000000000E+00  0.00000000000E+00  0.16959045149E+03  0.16959045149E+03  0.00000000000E+00 0. -1.
         21   -1    0    0  501  502  0.00000000000E+00 -0.00000000000E+00 -0.35446444611E+03  0.35446444611E+03  0.00000000000E+00 0.  1.
         24    2    1    2    0    0 -0.45347016819E+02 -0.42019769538E+02 -0.47598616064E+02  0.11307198174E+03  0.81839060582E+02 0.  0.
         23    2    1    2    0    0 -0.16689444072E+02 -0.98902450532E+02  0.70110650184E+01  0.12638084757E+03  0.76568474808E+02 0.  0.
        -13    1    3    3    0    0 -0.42810908749E+02 -0.47327339668E+02 -0.67160104204E+02  0.92645186516E+02  0.00000000000E+00 0.  1.
         14    1    3    3    0    0 -0.25361080700E+01  0.53075701302E+01  0.19561488140E+02  0.20426795223E+02  0.00000000000E+00 0. -1.
        -11    1    4    4    0    0 -0.13842487550E+02 -0.44519354333E+02  0.41085234438E+02  0.62141643531E+02  0.00000000000E+00 0.  1.
         11    1    4    4    0    0 -0.28469565216E+01 -0.54383096199E+02 -0.34074169420E+02  0.64239204037E+02  0.00000000000E+00 0. -1.
         21    1    1    2  503  502  0.11837896150E+03  0.75174751200E+02 -0.13962731139E+03  0.19789039348E+03  0.00000000000E+00 0.  1.
          1    1    1    2  501    0 -0.56342500614E+02  0.65747468870E+02 -0.46591321856E+01  0.86711674825E+02  0.00000000000E+00 0. -1.
<scales pt_clust_5="13000.00000" pt_clust_6="13000.00000" pt_clust_7="13000.00000" pt_clust_8="13000.00000" pt_clust_9="141.47889" pt_clust_10="86.58646"></scales>
<clustering>
<clus scale="   76.568">  7  8 -1 -1</clus>
<clus scale="   81.839">  5  6 -1 -1</clus>
<clus scale="   86.586">  2 10  1 -1</clus>
<clus scale="  104.423">  5  7 -1 -1</clus>
<clus scale="  141.479">  2  9  1 -1</clus>
<clus scale="   86.586">  2  5  1 -1</clus>
</clustering>
</event>
<event>
10    4  0.2857708E-005  0.2509101E+03  0.7546771E-02  0.1145767E+00
          2   -1    0    0  503    0 -0.00000000000E+00  0.00000000000E+00  0.13983752185E+04  0.13983752185E+04  0.00000000000E+00 0. -1.
         21   -1    0    0  501  502  0.00000000000E+00 -0.00000000000E+00 -0.10175449003E+03  0.10175449003E+03  0.00000000000E+00 0. -1.
         24    2    1    2    0    0 -0.65506097022E+02 -0.85974901020E+01  0.64022276938E+03  0.64894116842E+03  0.82912484246E+02 0.  0.
         23    2    1    2    0    0  0.27918983498E+03  0.79935505221E+01  0.31500163226E+03  0.43075998313E+03  0.91199089558E+02 0.  0.
        -11    1    3    3    0    0 -0.84074426170E+02 -0.16357744887E+02  0.50034173340E+03  0.50761987268E+03  0.00000000000E+00 0.  1.
         12    1    3    3    0    0  0.18568329148E+02  0.77602547851E+01  0.13988103598E+03  0.14132129574E+03  0.00000000000E+00 0. -1.
        -11    1    4    4    0    0  0.19981004257E+02  0.14075612465E+02  0.23021071298E+01  0.24549197433E+02  0.00000000000E+00 0.  1.
         11    1    4    4    0    0  0.25920883072E+03 -0.60820619428E+01  0.31269952513E+03  0.40621078570E+03  0.00000000000E+00 0. -1.
         21    1    1    2  503  502 -0.12717222037E+02 -0.20210979006E+02  0.11298915921E+03  0.11548489731E+03  0.00000000000E+00 0. -1.
          1    1    1    2  501    0 -0.20096651592E+03  0.20814918585E+02  0.22840716766E+03  0.30494365970E+03  0.00000000000E+00 0. -1.
<scales pt_clust_5="13000.00000" pt_clust_6="13000.00000" pt_clust_7="13000.00000" pt_clust_8="13000.00000" pt_clust_9="23.87910" pt_clust_10="233.74906"></scales>
<clustering>
<clus scale="   23.879">  1  9  2 -1</clus>
<clus scale="   82.912">  5  6 -1 -1</clus>
<clus scale="   91.199">  7  8 -1 -1</clus>
<clus scale="  111.328">  1  5  2 -1</clus>
<clus scale="  233.749">  2 10  1 -1</clus>
<clus scale="  233.749">  2  5  1 -1</clus>
</clustering>
</event>
<event>
10    4  0.2857708E-005  0.1529461E+03  0.7546771E-02  0.1225423E+00
         21   -1    0    0  503  502  0.00000000000E+00  0.00000000000E+00  0.79538321332E+03  0.79538321332E+03  0.00000000000E+00 0.  1.
         -1   -1    0    0    0  501 -0.00000000000E+00 -0.00000000000E+00 -0.87239615435E+02  0.87239615435E+02  0.00000000000E+00 0.  1.
         24    2    1    2    0    0  0.34441726214E+02  0.94175489670E+00  0.81344871285E+02  0.11857315670E+03  0.79091630399E+02 0.  0.
         23    2    1    2    0    0  0.39650013755E+02 -0.11467304609E+03  0.56146662027E+03  0.58155360716E+03  0.90762333786E+02 0.  0.
        -11    1    3    3    0    0 -0.30950316534E+01 -0.33345968081E+02  0.20424619398E+02  0.39226239761E+02  0.00000000000E+00 0.  1.
         12    1    3    3    0    0  0.37536757868E+02  0.34287722978E+02  0.60920251887E+02  0.79346916942E+02  0.00000000000E+00 0. -1.
        -11    1    4    4    0    0  0.59837193859E+02 -0.11508642321E+03  0.51078849448E+03  0.52700119608E+03  0.00000000000E+00 0.  1.
         11    1    4    4    0    0 -0.20187180104E+02  0.41337712187E+00  0.50678125790E+02  0.54552411081E+02  0.00000000000E+00 0. -1.
         21    1    1    2  503  501 -0.35153574907E+02 -0.12112630041E+02  0.24712847484E+02  0.44645430516E+02  0.00000000000E+00 0.  1.
         -2    1    1    2    0  502 -0.38938165062E+02  0.12584392123E+03  0.40619258847E+02  0.13785063438E+03  0.00000000000E+00 0.  1.
<scales pt_clust_5="13000.00000" pt_clust_6="13000.00000" pt_clust_7="13000.00000" pt_clust_8="13000.00000" pt_clust_9="37.18185" pt_clust_10="123.10448"></scales>
<clustering>
<clus scale="   37.182">  2  9  1 -1</clus>
<clus scale="   79.092">  5  6 -1 -1</clus>
<clus scale="   83.271">  2  5  1 -1</clus>
<clus scale="   90.762">  7  8 -1 -1</clus>
<clus scale="  123.104">  1 10  2 -1</clus>
<clus scale="  123.104">  1  5  2 -1</clus>
</clustering>
</event>
<event>
10    4  0.2857708E-005  0.1053244E+03  0.7546771E-02  0.1281212E+00
          2   -1    0    0  503    0 -0.00000000000E+00  0.00000000000E+00  0.49111668900E+03  0.49111668900E+03  0.00000000000E+00 0. -1.
         21   -1    0    0  501  502  0.00000000000E+00 -0.00000000000E+00 -0.58067157786E+02  0.58067157786E+02  0.00000000000E+00 0.  1.
         24    2    1    2    0    0  0.28351257778E+01  0.76833856154E+02  0.17553545956E+03  0.20248305353E+03  0.65385090155E+02 0.  0.
         23    2    1    2    0    0  0.45987446937E+02 -0.11588173583E+02  0.72534363911E+02  0.12571429854E+03  0.91069862564E+02 0.  0.
        -13    1    3    3    0    0 -0.20042248178E+02  0.33313793553E+01  0.17994922319E+02  0.27140505332E+02  0.00000000000E+00 0.  1.
         14    1    3    3    0    0  0.22877373955E+02  0.73502476799E+02  0.15754053724E+03  0.17534254820E+03  0.00000000000E+00 0. -1.
        -11    1    4    4    0    0  0.19531410681E+02 -0.39808807883E+02  0.95615669907E+00  0.44352355337E+02  0.00000000000E+00 0.  1.
         11    1    4    4    0    0  0.26456036256E+02  0.28220634300E+02  0.71578207212E+02  0.81361943207E+02  0.00000000000E+00 0. -1.
         21    1    1    2  503  502 -0.49704403585E+02 -0.31896974032E+02  0.17712824513E+03  0.18671464836E+03  0.00000000000E+00 0.  1.
          1    1    1    2  501    0  0.88183086971E+00 -0.33348708539E+02  0.78514626022E+01  0.34271846345E+02  0.00000000000E+00 0. -1.
<scales pt_clust_5="13000.00000" pt_clust_6="13000.00000" pt_clust_7="13000.00000" pt_clust_8="13000.00000" pt_clust_9="60.98044" pt_clust_10="33.36037"></scales>
<clustering>
<clus scale="   33.360">  2 10  1 -1</clus>
<clus scale="   60.980">  1  9  2 -1</clus>
<clus scale="   65.385">  5  6 -1 -1</clus>
<clus scale="   84.111">  1  5  2 -1</clus>
<clus scale="   91.070">  7  8 -1 -1</clus>
<clus scale="   33.360">  2  5  1 -1</clus>
</clustering>
</event>
<event>
10    4  0.2857708E-005  0.1373413E+03  0.7546771E-02  0.1219120E+00
         21   -1    0    0  501  502  0.00000000000E+00  0.00000000000E+00  0.36638327898E+03  0.36638327898E+03  0.00000000000E+00 0.  1.
          2   -1    0    0  503    0 -0.00000000000E+00 -0.00000000000E+00 -0.12296028831E+03  0.12296028831E+03  0.00000000000E+00 0. -1.
         24    2    1    2    0    0  0.90819360939E+02  0.76539842062E+02  0.15071385498E+03  0.20818282888E+03  0.80739831635E+02 0.  0.
         23    2    1    2    0    0 -0.91965440374E+02 -0.20884493058E+02  0.12419057923E+03  0.18023051485E+03  0.90365558936E+02 0.  0.
        -11    1    3    3    0    0  0.98896600766E+02  0.75268266870E+02  0.15522178366E+03  0.19884579896E+03  0.00000000000E+00 0.  1.
         12    1    3    3    0    0 -0.80772398276E+01  0.12715751924E+01 -0.45079286815E+01  0.93370299185E+01  0.00000000000E+00 0. -1.
        -13    1    4    4    0    0 -0.96737628631E+02 -0.44527040470E+02  0.10111940725E+03  0.14685353469E+03  0.00000000000E+00 0.  1.
         13    1    4    4    0    0  0.47721882570E+01  0.23642547412E+02  0.23071171972E+02  0.33376980167E+02  0.00000000000E+00 0. -1.
         21    1    1    2  503  502 -0.37404088835E+02 -0.20930226641E+02 -0.65233668688E+01  0.43355444458E+02  0.00000000000E+00 0.  1.
          1    1    1    2  501    0  0.38550168270E+02 -0.34725122363E+02 -0.24958076671E+02  0.57574779096E+02  0.00000000000E+00 0. -1.
<scales pt_clust_5="13000.00000" pt_clust_6="13000.00000" pt_clust_7="13000.00000" pt_clust_8="13000.00000" pt_clust_9="42.86187" pt_clust_10="49.14702"></scales>
<clustering>
<clus scale="   42.862">  2  9  1 -1</clus>
<clus scale="   49.147">  1 10  2 -1</clus>
<clus scale="   80.740">  5  6 -1 -1</clus>
<clus scale="   90.366">  7  8 -1 -1</clus>
<clus scale="  131.208">  2  5  1 -1</clus>
<clus scale="   49.147">  1  5  2 -1</clus>
</clustering>
</event>
<event>
10    4  0.2857708E-005  0.2305838E+03  0.7546771E-02  0.1146094E+00
         21   -1    0    0  501  502  0.00000000000E+00  0.00000000000E+00  0.67825798294E+03  0.67825798294E+03  0.00000000000E+00 0.  1.
          2   -1    0    0  503    0 -0.00000000000E+00 -0.00000000000E+00 -0.26488713078E+03  0.26488713078E+03  0.00000000000E+00 0. -1.
         24    2    1    2    0    0 -0.35436920191E+02  0.10854764893E+03  0.24043867891E+03  0.27786815944E+03  0.79759565641E+02 0.  0.
         23    2    1    2    0    0  0.11363983772E+03 -0.24896597641E+03  0.29886315277E+03  0.41617620992E+03  0.94791262746E+02 0.  0.
        -13    1    3    3    0    0 -0.34893363902E+02  0.10717473433E+03  0.24680972666E+03  0.27132823609E+03  0.00000000000E+00 0.  1.
         14    1    3    3    0    0 -0.54355628943E+00  0.13729146061E+01 -0.63710477528E+01  0.65399233500E+01  0.00000000000E+00 0. -1.
        -13    1    4    4    0    0  0.12368395309E+03 -0.17802097230E+03  0.20758958217E+03  0.30013767084E+03  0.00000000000E+00 0.  1.
         13    1    4    4    0    0 -0.10044115374E+02 -0.70945004109E+02  0.91273570601E+02  0.11603853908E+03  0.00000000000E+00 0. -1.
         21    1    1    2  503  502 -0.54639069695E+02  0.12980856030E+02 -0.10324749905E+03  0.11753287464E+03  0.00000000000E+00 0. -1.
          1    1    1    2  501    0 -0.23563847833E+02  0.12743747145E+03 -0.22683480475E+02  0.13156786971E+03  0.00000000000E+00 0. -1.
<scales pt_clust_5="13000.00000" pt_clust_6="13000.00000" pt_clust_7="13000.00000" pt_clust_8="13000.00000" pt_clust_9="56.15987" pt_clust_10="210.19884"></scales>
<clustering>
<clus scale="   56.160">  2  9  1 -1</clus>
<clus scale="   79.760">  5  6 -1 -1</clus>
<clus scale="   94.791">  7  8 -1 -1</clus>
<clus scale="  142.326">  2  5  1 -1</clus>
<clus scale="  210.199">  1 10  2 -1</clus>
<clus scale="  210.199">  1  5  2 -1</clus>
</clustering>
</event>
<event>
10    4  0.2857708E-005  0.9304261E+02  0.7546771E-02  0.1302614E+00
         21   -1    0    0  501  502  0.00000000000E+00  0.00000000000E+00  0.35821717604E+02  0.35821717604E+02  0.00000000000E+00 0. -1.
          2   -1    0    0  503    0 -0.00000000000E+00 -0.00000000000E+00 -0.75323600355E+03  0.75323600355E+03  0.00000000000E+00 0. -1.
         24    2    1    2    0    0  0.21824549987E+02  0.28952772677E+02 -0.40971221787E+03  0.41836705688E+03  0.76500449561E+02 0.  0.
         23    2    1    2    0    0 -0.22505766609E+02  0.23734667171E+02 -0.17378494650E+03  0.19770412623E+03  0.88407408866E+02 0.  0.
        -11    1    3    3    0    0  0.35808992066E+02 -0.13607964598E+02 -0.14969747496E+03  0.15452117856E+03  0.00000000000E+00 0.  1.
         12    1    3    3    0    0 -0.13984442079E+02  0.42560737275E+02 -0.26001474291E+03  0.26384587832E+03  0.00000000000E+00 0. -1.
        -11    1    4    4    0    0 -0.37687380831E+02 -0.21178638550E+02 -0.11030683384E+03  0.11847561351E+03  0.00000000000E+00 0.  1.
         11    1    4    4    0    0  0.15181614222E+02  0.44913305721E+02 -0.63478112663E+02  0.79228512724E+02  0.00000000000E+00 0. -1.
         21    1    1    2  503  502  0.15264594696E+02 -0.13261164420E+02 -0.12910062072E+03  0.13067454458E+03  0.00000000000E+00 0. -1.
          1    1    1    2  501    0 -0.14583378074E+02 -0.39426275427E+02 -0.48165008625E+01  0.42311993462E+02  0.00000000000E+00 0. -1.
<scales pt_clust_5="13000.00000" pt_clust_6="13000.00000" pt_clust_7="13000.00000" pt_clust_8="13000.00000" pt_clust_9="20.22044" pt_clust_10="42.31299"></scales>
<clustering>
<clus scale="   20.220">  2  9  1 -1</clus>
<clus scale="   42.313">  1 10  2 -1</clus>
<clus scale="   76.500">  5  6 -1 -1</clus>
<clus scale="   81.813">  2  5  1 -1</clus>
<clus scale="   88.407">  7  8 -1 -1</clus>
<clus scale="   42.313">  1  5  2 -1</clus>
</clustering>
</event>
<event>
10    4  0.2857708E-005  0.1133836E+03  0.7546771E-02  0.1258482E+00
          2   -1    0    0  503    0 -0.00000000000E+00  0.00000000000E+00  0.30672772468E+03  0.30672772468E+03  0.00000000000E+00 0. -1.
         21   -1    0    0  501  502  0.00000000000E+00 -0.00000000000E+00 -0.13289890215E+03  0.13289890215E+03  0.00000000000E+00 0. -1.
         23    2    1    2    0    0 -0.68817746438E+01 -0.65481856723E+02  0.16720458941E+03  0.20161768764E+03  0.91417092857E+02 0.  0.
         24    2    1    2    0    0  0.31631161046E+02  0.82886124920E+02  0.33494782125E+02  0.12428203356E+03  0.80333575694E+02 0.  0.
        -13    1    4    4    0    0 -0.25769231309E+02  0.32909225798E+02  0.22238305047E+02  0.47345671780E+02  0.00000000000E+00 0.  1.
         14    1    4    4    0    0  0.57400392355E+02  0.49976899122E+02  0.11256477078E+02  0.76936361784E+02  0.00000000000E+00 0. -1.
        -13    1    3    3    0    0 -0.48886768903E+02 -0.40472669901E+02  0.87009851399E+02  0.10769710963E+03  0.00000000000E+00 0.  1.
         13    1    3    3    0    0  0.42004994259E+02 -0.25009186823E+02  0.80194738009E+02  0.93920578004E+02  0.00000000000E+00 0. -1.
         21    1    1    2  503  502  0.18162083746E+02  0.86209117790E+01  0.31111330616E+02  0.37041818241E+02  0.00000000000E+00 0. -1.
          1    1    1    2  501    0 -0.42911470148E+02 -0.26025179976E+02 -0.57981879617E+02  0.76685087383E+02  0.00000000000E+00 0. -1.
<scales pt_clust_5="13000.00000" pt_clust_6="13000.00000" pt_clust_7="13000.00000" pt_clust_8="13000.00000" pt_clust_9="20.10426" pt_clust_10="49.50078"></scales>
<clustering>
<clus scale="   20.104">  1  9  2 -1</clus>
<clus scale="   49.501">  2 10  1 -1</clus>
<clus scale="   80.334">  5  6 -1 -1</clus>
<clus scale="   91.417">  7  8 -1 -1</clus>
<clus scale="  104.653">  2  5  1 -1</clus>
<clus scale="   49.501">  2  5  1 -1</clus>
</clustering>
</event>
<event>
10    4  0.2857708E-005  0.1111878E+03  0.7546771E-02  0.1262323E+00
          2   -1    0    0  503    0 -0.00000000000E+00  0.00000000000E+00  0.11615994798E+04  0.11615994798E+04  0.00000000000E+00 0. -1.
         21   -1    0    0  501  502  0.00000000000E+00 -0.00000000000E+00 -0.49240701534E+02  0.49240701534E+02  0.00000000000E+00 0.  1.
         23    2    1    2    0    0  0.58139502336E+02 -0.46937765430E+01  0.46897681844E+03  0.48162030392E+03  0.92825791877E+02 0.  0.
         24    2    1    2    0    0 -0.66580987477E+02  0.11676398162E+03  0.15021043144E+03  0.21788737891E+03  0.82733795259E+02 0.  0.
        -13    1    4    4    0    0 -0.76868240450E+02  0.56648543255E+02  0.10529594025E+03  0.14214435929E+03  0.00000000000E+00 0.  1.
         14    1    4    4    0    0  0.10287252974E+02  0.60115438361E+02  0.44914491191E+02  0.75743019626E+02  0.00000000000E+00 0. -1.
        -11    1    3    3    0    0  0.19501708556E+02 -0.47047480570E+02  0.25887607887E+03  0.26383821989E+03  0.00000000000E+00 0. -1.
         11    1    3    3    0    0  0.38637793780E+02  0.42353704027E+02  0.21010073957E+03  0.21778208402E+03  0.00000000000E+00 0.  1.
         21    1    1    2  503  502 -0.24897254331E+02 -0.29248753793E+02  0.23598122008E+03  0.23908680245E+03  0.00000000000E+00 0. -1.
          1    1    1    2  501    0  0.33338739472E+02 -0.82821451280E+02  0.25719030828E+03  0.27224569604E+03  0.00000000000E+00 0. -1.
<scales pt_clust_5="13000.00000" pt_clust_6="13000.00000" pt_clust_7="13000.00000" pt_clust_8="13000.00000" pt_clust_9="38.41045" pt_clust_10="94.89095"></scales>
<clustering>
<clus scale="   38.410">  1  9  2 -1</clus>
<clus scale="   82.734">  5  6 -1 -1</clus>
<clus scale="   92.826">  7  8 -1 -1</clus>
<clus scale="   94.891">  2 10  1 -1</clus>
<clus scale="  102.912">  2  5  1 -1</clus>
<clus scale="   94.891">  2  5  1 -1</clus>
</clustering>
</event>
<event>
10    4  0.2857708E-005  0.1395039E+03  0.7546771E-02  0.1215560E+00
         21   -1    0    0  503  502  0.00000000000E+00  0.00000000000E+00  0.10433429932E+03  0.10433429932E+03  0.00000000000E+00 0.  1.
         -3   -1    0    0    0  501 -0.00000000000E+00 -0.00000000000E+00 -0.43432449875E+03  0.43432449875E+03  0.00000000000E+00 0.  1.
         24    2    1    2    0    0  0.85679650094E+02  0.96078022855E+02 -0.31073106782E+03  0.34670635171E+03  0.84139817494E+02 0.  0.
         23    2    1    2    0    0 -0.40660327309E+02 -0.66206565915E+02  0.12900924920E+02  0.12053449114E+03  0.91244496286E+02 0.  0.
        -13    1    3    3    0    0  0.10075465016E+03  0.67182816152E+02 -0.23961184366E+03  0.26847507507E+03  0.00000000000E+00 0.  1.
         14    1    3    3    0    0 -0.15075000071E+02  0.28895206703E+02 -0.71119224165E+02  0.78231276632E+02  0.00000000000E+00 0. -1.
        -13    1    4    4    0    0 -0.25871994014E+02 -0.88841179358E+02  0.65627910871E+01  0.92764138819E+02  0.00000000000E+00 0. -1.
         13    1    4    4    0    0 -0.14788333294E+02  0.22634613443E+02  0.63381338327E+01  0.27770352317E+02  0.00000000000E+00 0.  1.
         21    1    1    2  503  501 -0.97844568592E+01 -0.18292764978E+02 -0.26881717578E+02  0.33955670904E+02  0.00000000000E+00 0.  1.
         -4    1    1    2    0  502 -0.35234865926E+02 -0.11578691961E+02 -0.52783389489E+01  0.37462284319E+02  0.00000000000E+00 0.  1.
<scales pt_clust_5="13000.00000" pt_clust_6="13000.00000" pt_clust_7="13000.00000" pt_clust_8="13000.00000" pt_clust_9="20.74514" pt_clust_10="37.89012"></scales>
<clustering>
<clus scale="   20.745">  2  9  1 -1</clus>
<clus scale="   37.890">  1 10  2 -1</clus>
<clus scale="   84.140">  5  6 -1 -1</clus>
<clus scale="   91.244">  7  8 -1 -1</clus>
<clus scale="  134.964">  2  5  1 -1</clus>
<clus scale="   37.890">  1  5  2 -1</clus>
</clustering>
</event>
<event>
10    4  0.2857708E-005  0.1264613E+03  0.7546771E-02  0.1236148E+00
         21   -1    0    0  501  502  0.00000000000E+00  0.00000000000E+00  0.30303721025E+02  0.30303721025E+02  0.00000000000E+00 0.  1.
          2   -1    0    0  503    0 -0.00000000000E+00 -0.00000000000E+00 -0.13525540848E+04  0.13525540848E+04  0.00000000000E+00 0. -1.
         24    2    1    2    0    0  0.10313912640E+03  0.17490767126E+02 -0.74144836326E+03  0.75300059232E+03  0.79502266142E+02 0.  0.
         23    2    1    2    0    0 -0.40573784833E+02 -0.47671990391E+02 -0.25094313480E+03  0.27433755219E+03  0.91486528829E+02 0.  0.
        -13    1    3    3    0    0  0.51447655527E+02  0.47510525069E+02 -0.34112688030E+03  0.34824080708E+03  0.00000000000E+00 0.  1.
         14    1    3    3    0    0  0.51691470873E+02 -0.30019757944E+02 -0.40032148296E+03  0.40475978524E+03  0.00000000000E+00 0. -1.
        -13    1    4    4    0    0 -0.21747405808E+02 -0.73802406797E+02 -0.15337644002E+03  0.17159276576E+03  0.00000000000E+00 0.  1.
         13    1    4    4    0    0 -0.18826379025E+02  0.26130416407E+02 -0.97566694783E+02  0.10274478644E+03  0.00000000000E+00 0. -1.
         21    1    1    2  503  502  0.99985028590E+01 -0.20063549940E+02 -0.18159487747E+03  0.18297326477E+03  0.00000000000E+00 0. -1.
          1    1    1    2  501    0 -0.72563844426E+02  0.50244773206E+02 -0.14826398827E+03  0.17254639657E+03  0.00000000000E+00 0. -1.
<scales pt_clust_5="13000.00000" pt_clust_6="13000.00000" pt_clust_7="13000.00000" pt_clust_8="13000.00000" pt_clust_9="22.41687" pt_clust_10="85.58181"></scales>
<clustering>
<clus scale="   22.417">  2  9  1 -1</clus>
<clus scale="   79.502">  5  6 -1 -1</clus>
<clus scale="   85.582">  1 10  2 -1</clus>
<clus scale="   91.487">  7  8 -1 -1</clus>
<clus scale="  118.082">  2  5  1 -1</clus>
<clus scale="   85.582">  1  5  2 -1</clus>
</clustering>
</event>
<event>
10    4  0.2857708E-005  0.1710061E+03  0.7546771E-02  0.1178208E+00
         21   -1    0    0  501  502  0.00000000000E+00  0.00000000000E+00  0.12970676938E+03  0.12970676938E+03  0.00000000000E+00 0. -1.
          2   -1    0    0  503    0 -0.00000000000E+00 -0.00000000000E+00 -0.11579383122E+04  0.11579383122E+04  0.00000000000E+00 0. -1.
         24    2    1    2    0    0 -0.12679947949E+03 -0.10008387401E+03 -0.89564526120E+03  0.91365310504E+03  0.80539882048E+02 0.  0.
         23    2    1    2    0    0  0.15510312067E+03  0.49360041125E+01 -0.45095877145E+02  0.18547143890E+03  0.91020186419E+02 0.  0.
        -11    1    3    3    0    0 -0.97148336315E+02 -0.50810747328E+02 -0.40242287335E+03  0.41708955908E+03  0.00000000000E+00 0.  1.
         12    1    3    3    0    0 -0.29651143171E+02 -0.49273126684E+02 -0.49322238785E+03  0.49656354596E+03  0.00000000000E+00 0. -1.
        -11    1    4    4    0    0 -0.91636735395E+00  0.22836126151E+02 -0.51444342275E+01  0.23426343937E+02  0.00000000000E+00 0.  1.
         11    1    4    4    0    0  0.15601948802E+03 -0.17900122039E+02 -0.39951442918E+02  0.16204509496E+03  0.00000000000E+00 0. -1.
         21    1    1    2  503  502  0.32683374379E+01  0.27619561472E+02 -0.10774235536E+03  0.11127415398E+03  0.00000000000E+00 0. -1.
          1    1    1    2  501    0 -0.31571978618E+02  0.67528308428E+02  0.20251950884E+02  0.77246383654E+02  0.00000000000E+00 0. -1.
<scales pt_clust_5="13000.00000" pt_clust_6="13000.00000" pt_clust_7="13000.00000" pt_clust_8="13000.00000" pt_clust_9="27.81227" pt_clust_10="75.18786"></scales>
<clustering>
<clus scale="   27.812">  2  9  1 -1</clus>
<clus scale="   75.188">  1 10  2 -1</clus>
<clus scale="   80.540">  5  6 -1 -1</clus>
<clus scale="   91.020">  7  8 -1 -1</clus>
<clus scale="  165.666">  2  5  1 -1</clus>
<clus scale="   75.188">  1  5  2 -1</clus>
</clustering>
</event>
<event>
10    4  0.2857708E-005  0.1418211E+03  0.7546771E-02  0.1212761E+00
         -3   -1    0    0    0  501 -0.00000000000E+00  0.00000000000E+00  0.99406751455E+02  0.99406751455E+02  0.00000000000E+00 0.  1.
         21   -1    0    0  503  502  0.00000000000E+00 -0.00000000000E+00 -0.64993353271E+03  0.64993353271E+03  0.00000000000E+00 0. -1.
         24    2    1    2    0    0  0.12065402078E+03  0.25811079629E+01 -0.98609187281E+02  0.17578897105E+03  0.81326106979E+02 0.  0.
         23    2    1    2    0    0 -0.12138710017E+03 -0.82010208901E+01 -0.46195086876E+03  0.48615550368E+03  0.90257873781E+02 0.  0.
        -11    1    3    3    0    0  0.80471877885E+02  0.39731951375E+02 -0.50825599893E+02  0.10313870609E+03  0.00000000000E+00 0.  1.
         12    1    3    3    0    0  0.40182142895E+02 -0.37150843412E+02 -0.47783587388E+02  0.72650264951E+02  0.00000000000E+00 0. -1.
        -13    1    4    4    0    0 -0.10089651920E+03  0.26282701231E+02 -0.25751572099E+03  0.27782230747E+03  0.00000000000E+00 0. -1.
         13    1    4    4    0    0 -0.20490580969E+02 -0.34483722122E+02 -0.20443514777E+03  0.20833319621E+03  0.00000000000E+00 0.  1.
         21    1    1    2  503  501 -0.35820949277E+02 -0.34322386166E+01 -0.18203441634E+02  0.40327235913E+02  0.00000000000E+00 0.  1.
         -4    1    1    2    0  502  0.36554028666E+02  0.90521515437E+01  0.28236716423E+02  0.47068573524E+02  0.00000000000E+00 0.  1.
<scales pt_clust_5="13000.00000" pt_clust_6="13000.00000" pt_clust_7="13000.00000" pt_clust_8="13000.00000" pt_clust_9="35.98501" pt_clust_10="22.59955"></scales>
<clustering>
<clus scale="   35.985">  1  9  2 -1</clus>
<clus scale="   22.600">  2 10  1 -1</clus>
<clus scale="   81.326">  5  6 -1 -1</clus>
<clus scale="   90.258">  7  8 -1 -1</clus>
<clus scale="  136.311">  1  5  2 -1</clus>
<clus scale="   22.600">  2  5  1 -1</clus>
</clustering>
</event>
<event>
10    4  0.2857708E-005  0.1892378E+03  0.7546771E-02  0.1160263E+00
          2   -1    0    0  503    0 -0.00000000000E+00  0.00000000000E+00  0.18173947446E+04  0.18173947446E+04  0.00000000000E+00 0. -1.
         21   -1    0    0  501  502  0.00000000000E+00 -0.00000000000E+00 -0.49246194573E+02  0.49246194573E+02  0.00000000000E+00 0. -1.
         23    2    1    2    0    0  0.55982991158E+02 -0.10780161357E+03  0.36520983588E+03  0.39579697888E+03  0.92313276807E+02 0.  0.
         24    2    1    2    0    0 -0.59255313897E+02  0.22053372662E+03  0.75495142227E+03  0.79297619750E+03  0.81934626472E+02 0.  0.
        -13    1    4    4    0    0 -0.58992624397E+01  0.75316807533E+02  0.14250934116E+03  0.16129580004E+03  0.00000000000E+00 0.  1.
         14    1    4    4    0    0 -0.53356051458E+02  0.14521691909E+03  0.61244208112E+03  0.63168039746E+03  0.00000000000E+00 0. -1.
        -13    1    3    3    0    0  0.22409649085E+02 -0.68353067246E+02  0.31691142971E+03  0.32497259646E+03  0.00000000000E+00 0.  1.
         13    1    3    3    0    0  0.33573342073E+02 -0.39448546323E+02  0.48298406178E+02  0.70824382414E+02  0.00000000000E+00 0. -1.
         21    1    1    2  503  502  0.51472125002E+01  0.40997132153E+02  0.20031574764E+03  0.20453277829E+03  0.00000000000E+00 0. -1.
          1    1    1    2  501    0 -0.18748897606E+01 -0.15372924520E+03  0.44767154423E+03  0.47333498450E+03  0.00000000000E+00 0. -1.
<scales pt_clust_5="13000.00000" pt_clust_6="13000.00000" pt_clust_7="13000.00000" pt_clust_8="13000.00000" pt_clust_9="41.31899" pt_clust_10="142.03971"></scales>
<clustering>
<clus scale="   41.319">  1  9  2 -1</clus>
<clus scale="   81.935">  5  6 -1 -1</clus>
<clus scale="   92.313">  7  8 -1 -1</clus>
<clus scale="  142.040">  2 10  1 -1</clus>
<clus scale="  184.398">  2  5  1 -1</clus>
<clus scale="  142.040">  2  5  1 -1</clus>
</clustering>
</event>
<event>
10    4  0.2857708E-005  0.1647735E+03  0.7546771E-02  0.1186504E+00
         21   -1    0    0  501  502  0.00000000000E+00  0.00000000000E+00  0.48484626542E+02  0.48484626542E+02  0.00000000000E+00 0. -1.
          2   -1    0    0  503    0 -0.00000000000E+00 -0.00000000000E+00 -0.10965477845E+04  0.10965477845E+04  0.00000000000E+00 0. -1.
         24    2    1    2    0    0  0.70658040438E+02  0.13828363189E+03 -0.67065497818E+03  0.69302666814E+03  0.79955871996E+02 0.  0.
         23    2    1    2    0    0 -0.66141506223E+02 -0.53618867316E+02 -0.17197705102E+03  0.21613770620E+03  0.99447072284E+02 0.  0.
        -13    1    3    3    0    0  0.20932059949E+02 -0.58628999847E+01 -0.10134829781E+03  0.10365327877E+03  0.00000000000E+00 0.  1.
         14    1    3    3    0    0  0.49725980489E+02  0.14414653187E+03 -0.56930668037E+03  0.58937338938E+03  0.00000000000E+00 0. -1.
        -11    1    4    4    0    0  0.73621841485E+01 -0.22926991077E+02  0.26268136100E+01  0.24222898774E+02  0.00000000000E+00 0. -1.
         11    1    4    4    0    0 -0.73503690372E+02 -0.30691876239E+02 -0.17460386463E+03  0.19191480743E+03  0.00000000000E+00 0.  1.
         21    1    1    2  503  502  0.20820214443E+02 -0.15738726140E+01 -0.84052998041E+02  0.86607533646E+02  0.00000000000E+00 0.  1.
          1    1    1    2  501    0 -0.25336748659E+02 -0.83090891958E+02 -0.12137813075E+03  0.14926050309E+03  0.00000000000E+00 0. -1.
<scales pt_clust_5="13000.00000" pt_clust_6="13000.00000" pt_clust_7="13000.00000" pt_clust_8="13000.00000" pt_clust_9="20.87962" pt_clust_10="86.29989"></scales>
<clustering>
<clus scale="   20.880">  2  9  1 -1</clus>
<clus scale="   79.956">  5  6 -1 -1</clus>
<clus scale="   86.300">  1 10  2 -1</clus>
<clus scale="   99.447">  7  8 -1 -1</clus>
<clus scale="  153.797">  2  5  1 -1</clus>
<clus scale="   86.300">  1  5  2 -1</clus>
</clustering>
</event>
<event>
10    4  0.2857708E-005  0.2492275E+03  0.7546771E-02  0.1148037E+00
         21   -1    0    0  501  502  0.00000000000E+00  0.00000000000E+00  0.61930436514E+02  0.61930436514E+02  0.00000000000E+00 0. -1.
          2   -1    0    0  503    0 -0.00000000000E+00 -0.00000000000E+00 -0.16670026685E+04  0.16670026685E+04  0.00000000000E+00 0. -1.
         23    2    1    2    0    0  0.59340722713E+02  0.12042007479E+02 -0.19502223238E+03  0.22360033786E+03  0.91088466075E+02 0.  0.
         24    2    1    2    0    0 -0.18467615930E+02 -0.23450521401E+03 -0.52039434569E+03  0.57661345625E+03  0.79618180478E+02 0.  0.
        -13    1    4    4    0    0  0.28350444199E+02 -0.10803935960E+03 -0.27050447835E+03  0.29265837373E+03  0.00000000000E+00 0.  1.
         14    1    4    4    0    0 -0.46818060128E+02 -0.12646585441E+03 -0.24988986734E+03  0.28395508252E+03  0.00000000000E+00 0. -1.
        -13    1    3    3    0    0  0.80320138160E+02 -0.67022647656E+01 -0.13337222020E+03  0.15583450859E+03  0.00000000000E+00 0. -1.
         13    1    3    3    0    0 -0.20979415447E+02  0.18744272245E+02 -0.61650012180E+02  0.67765829267E+02  0.00000000000E+00 0.  1.
         21    1    1    2  503  502 -0.21567295809E+02 -0.16090248830E+02 -0.10344838799E+03  0.10689066064E+03  0.00000000000E+00 0.  1.
          1    1    1    2  501    0 -0.19305810974E+02  0.23855345536E+03 -0.78620726596E+03  0.82182865029E+03  0.00000000000E+00 0. -1.
<scales pt_clust_5="13000.00000" pt_clust_6="13000.00000" pt_clust_7="13000.00000" pt_clust_8="13000.00000" pt_clust_9="26.90807" pt_clust_10="236.16806"></scales>
<clustering>
<clus scale="   26.908">  2  9  1 -1</clus>
<clus scale="   79.618">  5  6 -1 -1</clus>
<clus scale="   91.088">  7  8 -1 -1</clus>
<clus scale="  107.617">  2  7  1 -1</clus>
<clus scale="  236.168">  1 10  2 -1</clus>
<clus scale="  236.168">  1  5  2 -1</clus>
</clustering>
</event>
<event>
10    4  0.2857708E-005  0.1648896E+03  0.7546771E-02  0.1183692E+00
         21   -1    0    0  503  502  0.00000000000E+00  0.00000000000E+00  0.10116831388E+04  0.10116831388E+04  0.00000000000E+00 0. -1.
         -1   -1    0    0    0  501 -0.00000000000E+00 -0.00000000000E+00 -0.13601653239E+03  0.13601653239E+03  0.00000000000E+00 0.  1.
         23    2    1    2    0    0  0.63810780162E+02 -0.29991953148E+02 -0.35353277317E+02  0.12079539672E+03  0.91489566253E+02 0.  0.
         24    2    1    2    0    0 -0.10125175166E+03  0.61734938124E+02  0.86391027889E+03  0.87651807102E+03  0.88768457525E+02 0.  0.
        -11    1    4    4    0    0 -0.86997624924E+02  0.55705803906E+02  0.42644320973E+03  0.43877731761E+03  0.00000000000E+00 0.  1.
         12    1    4    4    0    0 -0.14254126738E+02  0.60291342180E+01  0.43746706916E+03  0.43774075341E+03  0.00000000000E+00 0. -1.
        -13    1    3    3    0    0 -0.19332466001E+01 -0.37878114456E+02  0.11554692940E+02  0.39648454271E+02  0.00000000000E+00 0.  1.
         13    1    3    3    0    0  0.65744026762E+02  0.78861613083E+01 -0.46907970257E+02  0.81146942448E+02  0.00000000000E+00 0. -1.
         21    1    1    2  503  501  0.70029620848E+02 -0.39706076947E+02 -0.13002836342E+02  0.81546269661E+02  0.00000000000E+00 0.  1.
         -2    1    1    2    0  502 -0.32588649348E+02  0.79630919707E+01  0.60112441178E+02  0.68839933791E+02  0.00000000000E+00 0.  1.
<scales pt_clust_5="13000.00000" pt_clust_6="13000.00000" pt_clust_7="13000.00000" pt_clust_8="13000.00000" pt_clust_9="79.33579" pt_clust_10="33.54744"></scales>
<clustering>
<clus scale="   33.547">  1 10  2 -1</clus>
<clus scale="   79.336">  2  9  1 -1</clus>
<clus scale="   88.768">  5  6 -1 -1</clus>
<clus scale="   91.490">  7  8 -1 -1</clus>
<clus scale="  163.395">  1  5  2 -1</clus>
<clus scale="   33.547">  1  5  2 -1</clus>
</clustering>
</event>
<event>
10    4  0.2857708E-005  0.2293660E+03  0.7546771E-02  0.1128079E+00
         21   -1    0    0  501  502  0.00000000000E+00  0.00000000000E+00  0.25897084077E+03  0.25897084077E+03  0.00000000000E+00 0. -1.
          2   -1    0    0  503    0 -0.00000000000E+00 -0.00000000000E+00 -0.83538285242E+03  0.83538285242E+03  0.00000000000E+00 0. -1.
         24    2    1    2    0    0 -0.21024891511E+03  0.11085789735E+03 -0.58692178901E+03  0.64227446333E+03  0.10744868598E+03 0.  0.
         23    2    1    2    0    0  0.11085478136E+03 -0.10677217420E+03  0.12597431899E+03  0.22043410423E+03  0.95039915450E+02 0.  0.
        -13    1    3    3    0    0 -0.97223521588E+01  0.46668186914E+02 -0.76571114166E+02  0.90197446338E+02  0.00000000000E+00 0.  1.
         14    1    3    3    0    0 -0.20052656295E+03  0.64189710438E+02 -0.51035067484E+03  0.55207701699E+03  0.00000000000E+00 0. -1.
        -13    1    4    4    0    0  0.36772710791E+02 -0.30402606560E+02  0.10016845269E+03  0.11095165460E+03  0.00000000000E+00 0. -1.
         13    1    4    4    0    0  0.74082070571E+02 -0.76369567636E+02  0.25805866302E+02  0.10948244963E+03  0.00000000000E+00 0.  1.
         21    1    1    2  503  502  0.80902864543E+02  0.58833161426E+02 -0.13043595003E+03  0.16437807468E+03  0.00000000000E+00 0. -1.
          1    1    1    2  501    0  0.18491269205E+02 -0.62918884582E+02  0.14971408395E+02  0.67267050948E+02  0.00000000000E+00 0. -1.
<scales pt_clust_5="13000.00000" pt_clust_6="13000.00000" pt_clust_7="13000.00000" pt_clust_8="13000.00000" pt_clust_9="98.43299" pt_clust_10="65.57982"></scales>
<clustering>
<clus scale="   65.580">  1 10  2 -1</clus>
<clus scale="   95.040">  7  8 -1 -1</clus>
<clus scale="   98.433">  2  9  1 -1</clus>
<clus scale="  107.449">  5  6 -1 -1</clus>
<clus scale="  223.822">  1  7  2 -1</clus>
<clus scale="   65.580">  1  5  2 -1</clus>
</clustering>
</event>
<event>
10    4  0.2857708E-005  0.9164561E+02  0.7546771E-02  0.1305548E+00
          2   -1    0    0  503    0 -0.00000000000E+00  0.00000000000E+00  0.37389148254E+02  0.37389148254E+02  0.00000000000E+00 0. -1.
         21   -1    0    0  501  502  0.00000000000E+00 -0.00000000000E+00 -0.70108925076E+03  0.70108925076E+03  0.00000000000E+00 0. -1.
         23    2    1    2    0    0 -0.22088258940E+02  0.27517777194E+02 -0.91500548406E+02  0.13220326719E+03  0.88657962143E+02 0.  0.
         24    2    1    2    0    0  0.11396931518E+01  0.77989803699E+01 -0.44644634893E+03  0.45323291190E+03  0.77740639018E+02 0.  0.
        -13    1    4    4    0    0 -0.24801853039E+02  0.19989923166E+01 -0.49542768371E+02  0.55440182019E+02  0.00000000000E+00 0.  1.
         14    1    4    4    0    0  0.25941546190E+02  0.57999880532E+01 -0.39690358056E+03  0.39779272988E+03  0.00000000000E+00 0. -1.
        -11    1    3    3    0    0  0.30561948611E+02 -0.83648068878E+01 -0.29092516272E+02  0.43016010975E+02  0.00000000000E+00 0.  1.
         11    1    3    3    0    0 -0.52650207551E+02  0.35882584081E+02 -0.62408032134E+02  0.89187256211E+02  0.00000000000E+00 0. -1.
         21    1    1    2  503  502 -0.71199012275E+01 -0.21046196360E+02  0.11922565388E+01  0.22249873041E+02  0.00000000000E+00 0. -1.
          1    1    1    2  501    0  0.28068467016E+02 -0.14270561204E+02 -0.12694546171E+03  0.13079234689E+03  0.00000000000E+00 0. -1.
<scales pt_clust_5="13000.00000" pt_clust_6="13000.00000" pt_clust_7="13000.00000" pt_clust_8="13000.00000" pt_clust_9="22.21791" pt_clust_10="31.76981"></scales>
<clustering>
<clus scale="   22.218">  1  9  2 -1</clus>
<clus scale="   31.770">  2 10  1 -1</clus>
<clus scale="   77.741">  5  6 -1 -1</clus>
<clus scale="   81.131">  2  5  1 -1</clus>
<clus scale="   88.658">  7  8 -1 -1</clus>
<clus scale="   31.770">  2  5  1 -1</clus>
</clustering>
</event>
<event>
10    4  0.2857708E-005  0.1346608E+03  0.7546771E-02  0.1245473E+00
          2   -1    0    0  503    0 -0.00000000000E+00  0.00000000000E+00  0.39238402833E+03  0.39238402833E+03  0.00000000000E+00 0. -1.
         21   -1    0    0  501  502  0.00000000000E+00 -0.00000000000E+00 -0.11533297041E+03  0.11533297041E+03  0.00000000000E+00 0. -1.
         24    2    1    2    0    0  0.23925988081E+01  0.70893897178E+01  0.18640873145E+02  0.83221859879E+02  0.80761450176E+02 0.  0.
         23    2    1    2    0    0 -0.10146293331E+03 -0.14528105926E+02  0.21300362546E+01  0.13721554901E+03  0.91201848324E+02 0.  0.
        -13    1    3    3    0    0 -0.25501431179E+02  0.33798140260E+02  0.72315448485E+01  0.42952677659E+02  0.00000000000E+00 0.  1.
         14    1    3    3    0    0  0.27894029987E+02 -0.26708750542E+02  0.11409328297E+02  0.40269182220E+02  0.00000000000E+00 0. -1.
        -11    1    4    4    0    0 -0.69853364805E+02 -0.31976945202E+02 -0.35880157023E+02  0.84790348902E+02  0.00000000000E+00 0. -1.
         11    1    4    4    0    0 -0.31609568500E+02  0.17448839276E+02  0.38010193277E+02  0.52425200103E+02  0.00000000000E+00 0.  1.
         21    1    1    2  503  502  0.10785608621E+02 -0.20647090473E+02  0.12160377212E+03  0.12381481774E+03  0.00000000000E+00 0.  1.
          1    1    1    2  501    0  0.88284725876E+02  0.28085806682E+02  0.13467637640E+03  0.16346477211E+03  0.00000000000E+00 0. -1.
<scales pt_clust_5="13000.00000" pt_clust_6="13000.00000" pt_clust_7="13000.00000" pt_clust_8="13000.00000" pt_clust_9="23.29446" pt_clust_10="99.07458"></scales>
<clustering>
<clus scale="   23.294">  1  9  2 -1</clus>
<clus scale="   80.761">  5  6 -1 -1</clus>
<clus scale="   80.946">  1  5  2 -1</clus>
<clus scale="   91.202">  7  8 -1 -1</clus>
<clus scale="   99.075">  2 10  1 -1</clus>
<clus scale="   99.075">  2  5  1 -1</clus>
</clustering>
</event>
<event>
10    4  0.2857708E-005  0.1779291E+03  0.7546771E-02  0.1171384E+00
          2   -1    0    0  503    0 -0.00000000000E+00  0.00000000000E+00  0.10394680238E+04  0.10394680238E+04  0.00000000000E+00 0. -1.
         21   -1    0    0  501  502  0.00000000000E+00 -0.00000000000E+00 -0.80090503675E+02  0.80090503675E+02  0.00000000000E+00 0. -1.
         24    2    1    2    0    0 -0.13326306989E+03 -0.79748068151E+02  0.80508687775E+03  0.82359923474E+03  0.77666070923E+02 0.  0.
         23    2    1    2    0    0  0.96513751339E+02  0.64825716583E+02  0.58590993279E+02  0.15862771098E+03  0.90623222577E+02 0.  0.
        -13    1    3    3    0    0 -0.10751445103E+03 -0.45336809277E+02  0.41307877973E+03  0.42924219471E+03  0.00000000000E+00 0.  1.
         14    1    3    3    0    0 -0.25748618861E+02 -0.34411258874E+02  0.39200809801E+03  0.39435704003E+03  0.00000000000E+00 0. -1.
        -13    1    4    4    0    0  0.55433787346E+02 -0.14578090240E+02  0.30435706332E+02  0.64898056323E+02  0.00000000000E+00 0.  1.
         13    1    4    4    0    0  0.41079963993E+02  0.79403806823E+02  0.28155286946E+02  0.93729654660E+02  0.00000000000E+00 0. -1.
         21    1    1    2  503  502 -0.21409851687E+02  0.21352015497E+02  0.63999341773E+02  0.70782809088E+02  0.00000000000E+00 0. -1.
          1    1    1    2  501    0  0.58159170240E+02 -0.64296639292E+01  0.31700307365E+02  0.66548772703E+02  0.00000000000E+00 0. -1.
<scales pt_clust_5="13000.00000" pt_clust_6="13000.00000" pt_clust_7="13000.00000" pt_clust_8="13000.00000" pt_clust_9="30.23723" pt_clust_10="57.32745"></scales>
<clustering>
<clus scale="   30.237">  1  9  2 -1</clus>
<clus scale="   57.327">  2 10  1 -1</clus>
<clus scale="   77.666">  5  6 -1 -1</clus>
<clus scale="   90.623">  7  8 -1 -1</clus>
<clus scale="  171.692">  1  5  2 -1</clus>
<clus scale="   57.327">  2  5  1 -1</clus>
</clustering>
</event>
<event>
10    4  0.2857708E-005  0.1772251E+03  0.7546771E-02  0.1205274E+00
          2   -1    0    0  503    0 -0.00000000000E+00  0.00000000000E+00  0.10270339924E+03  0.10270339924E+03  0.00000000000E+00 0. -1.
         21   -1    0    0  501  502  0.00000000000E+00 -0.00000000000E+00 -0.57007959054E+03  0.57007959054E+03  0.00000000000E+00 0. -1.
         24    2    1    2    0    0 -0.86549577728E+01 -0.96837578483E+01 -0.14319620254E+03  0.16478403778E+03  0.80498094552E+02 0.  0.
         23    2    1    2    0    0 -0.73244067442E+02 -0.11214108083E+03 -0.12996362415E+03  0.20720885902E+03  0.90025842004E+02 0.  0.
        -11    1    3    3    0    0  0.21065137657E+02 -0.36085126618E+02 -0.73990541301E+02  0.84973387537E+02  0.00000000000E+00 0.  1.
         12    1    3    3    0    0 -0.29720095430E+02  0.26401368770E+02 -0.69205661236E+02  0.79810650244E+02  0.00000000000E+00 0. -1.
        -11    1    4    4    0    0 -0.59808344779E+01 -0.64058048818E+02 -0.15798688413E+02  0.66248038122E+02  0.00000000000E+00 0.  1.
         11    1    4    4    0    0 -0.67263232964E+02 -0.48083032014E+02 -0.11416493574E+03  0.14096082090E+03  0.00000000000E+00 0. -1.
         21    1    1    2  503  502  0.14389317102E+01 -0.24274686375E+02  0.18446959747E+02  0.30522471181E+02  0.00000000000E+00 0. -1.
          1    1    1    2  501    0  0.80460093505E+02  0.14609952505E+03 -0.21266332436E+03  0.27026762180E+03  0.00000000000E+00 0. -1.
<scales pt_clust_5="13000.00000" pt_clust_6="13000.00000" pt_clust_7="13000.00000" pt_clust_8="13000.00000" pt_clust_9="24.31730" pt_clust_10="152.65680"></scales>
<clustering>
<clus scale="   24.317">  1  9  2 -1</clus>
<clus scale="   80.498">  5  6 -1 -1</clus>
<clus scale="   81.984">  1  5  2 -1</clus>
<clus scale="   90.026">  7  8 -1 -1</clus>
<clus scale="  152.657">  2 10  1 -1</clus>
<clus scale="  152.657">  2  5  1 -1</clus>
</clustering>
</event>
<event>
10    4  0.2857708E-005  0.9396102E+02  0.7546771E-02  0.1300522E+00
         21   -1    0    0  503  502  0.00000000000E+00  0.00000000000E+00  0.38231397236E+03  0.38231397236E+03  0.00000000000E+00 0.  1.
         -3   -1    0    0    0  501 -0.00000000000E+00 -0.00000000000E+00 -0.36688916885E+03  0.36688916885E+03  0.00000000000E+00 0.  1.
         24    2    1    2    0    0 -0.17434341809E+02 -0.82190604442E+01 -0.60824367019E+02  0.10266808584E+03  0.80433966696E+02 0.  0.
         23    2    1    2    0    0  0.47757537639E+02 -0.57237624547E+02  0.33715684231E+03  0.35737259751E+03  0.92105966549E+02 0.  0.
        -13    1    3    3    0    0 -0.39667437409E+02 -0.89459401632E+01 -0.30718617500E+01  0.40779550888E+02  0.00000000000E+00 0.  1.
         14    1    3    3    0    0  0.22233095599E+02  0.72687971908E+00 -0.57752505269E+02  0.61888534955E+02  0.00000000000E+00 0. -1.
        -13    1    4    4    0    0  0.45147643995E+02  0.95366780391E+01  0.87436059768E+02  0.98865173515E+02  0.00000000000E+00 0.  1.
         13    1    4    4    0    0  0.26098936441E+01 -0.66774302586E+02  0.24972078254E+03  0.25850742400E+03  0.00000000000E+00 0. -1.
         21    1    1    2  503  501  0.12387526083E+02 -0.19535570776E+02 -0.96380124554E+02  0.99117191935E+02  0.00000000000E+00 0.  1.
         -4    1    1    2    0  502 -0.42710721912E+02  0.84992255767E+02 -0.16452754721E+03  0.19004526592E+03  0.00000000000E+00 0.  1.
<scales pt_clust_5="13000.00000" pt_clust_6="13000.00000" pt_clust_7="13000.00000" pt_clust_8="13000.00000" pt_clust_9="23.13200" pt_clust_10="79.97268"></scales>
<clustering>
<clus scale="   23.132">  2  9  1 -1</clus>
<clus scale="   79.973">  1 10  2 -1</clus>
<clus scale="   80.434">  5  6 -1 -1</clus>
<clus scale="   82.552">  2  5  1 -1</clus>
<clus scale="   92.106">  7  8 -1 -1</clus>
<clus scale="   79.973">  1  5  2 -1</clus>
</clustering>
</event>
<event>
10    4  0.2857708E-005  0.9964042E+02  0.7546771E-02  0.1286045E+00
         21   -1    0    0  501  502  0.00000000000E+00  0.00000000000E+00  0.67598919346E+02  0.67598919346E+02  0.00000000000E+00 0. -1.
          2   -1    0    0  503    0 -0.00000000000E+00 -0.00000000000E+00 -0.65349189967E+03  0.65349189967E+03  0.00000000000E+00 0. -1.
         24    2    1    2    0    0  0.34191033763E+02 -0.53786205503E+02 -0.45838375183E+03  0.46973718284E+03  0.80469710538E+02 0.  0.
         23    2    1    2    0    0 -0.11834840379E+02  0.45244700921E+02 -0.36092333841E+02  0.10804716218E+03  0.90467597986E+02 0.  0.
        -11    1    3    3    0    0  0.60711285479E+02 -0.35618346243E+02 -0.32487145817E+03  0.33240937277E+03  0.00000000000E+00 0.  1.
         12    1    3    3    0    0 -0.26520251716E+02 -0.18167859260E+02 -0.13351229366E+03  0.13732781007E+03  0.00000000000E+00 0. -1.
        -13    1    4    4    0    0 -0.34809925325E+02 -0.14370523389E+02 -0.94617273879E+01  0.38829977193E+02  0.00000000000E+00 0. -1.
         13    1    4    4    0    0  0.22975084946E+02  0.59615224310E+02 -0.26630606453E+02  0.69217184990E+02  0.00000000000E+00 0.  1.
         21    1    1    2  503  502 -0.47255483151E+02  0.15887313109E+02 -0.10334136735E+03  0.11473850971E+03  0.00000000000E+00 0. -1.
          1    1    1    2  501    0  0.24899289767E+02 -0.73458085269E+01  0.11924472694E+02  0.28567964276E+02  0.00000000000E+00 0. -1.
<scales pt_clust_5="13000.00000" pt_clust_6="13000.00000" pt_clust_7="13000.00000" pt_clust_8="13000.00000" pt_clust_9="46.73286" pt_clust_10="25.96027"></scales>
<clustering>
<clus scale="   25.960">  1 10  2 -1</clus>
<clus scale="   46.733">  2  9  1 -1</clus>
<clus scale="   80.470">  5  6 -1 -1</clus>
<clus scale="   90.468">  7  8 -1 -1</clus>
<clus scale="   90.660">  2  5  1 -1</clus>
<clus scale="   25.960">  1  5  2 -1</clus>
</clustering>
</event>
<event>
10    4  0.2857708E-005  0.1419576E+03  0.7546771E-02  0.1213181E+00
         21   -1    0    0  501  502  0.00000000000E+00  0.00000000000E+00  0.85893792723E+02  0.85893792723E+02  0.00000000000E+00 0. -1.
          2   -1    0    0  503    0 -0.00000000000E+00 -0.00000000000E+00 -0.44522716931E+03  0.44522716931E+03  0.00000000000E+00 0. -1.
         23    2    1    2    0    0 -0.11273371645E+03 -0.26753059809E+02 -0.17815546502E+03  0.23138367774E+03  0.91511854823E+02 0.  0.
         24    2    1    2    0    0  0.76174504472E+02  0.37900280219E+02 -0.22676425090E+02  0.11883870072E+03  0.79808709807E+02 0.  0.
        -11    1    4    4    0    0  0.62452526073E+02 -0.55501199542E+01 -0.34771553601E+02  0.71695068060E+02  0.00000000000E+00 0.  1.
         12    1    4    4    0    0  0.13721978400E+02  0.43450400173E+02  0.12095128511E+02  0.47143632657E+02  0.00000000000E+00 0. -1.
        -11    1    3    3    0    0 -0.21247100726E+02  0.66448416185E+01 -0.11069041949E+03  0.11290687391E+03  0.00000000000E+00 0. -1.
         11    1    3    3    0    0 -0.91486615728E+02 -0.33397901427E+02 -0.67465045528E+02  0.11847680383E+03  0.00000000000E+00 0.  1.
         21    1    1    2  503  502 -0.24566872941E+02 -0.72868913113E+01 -0.39982855265E+02  0.47489564603E+02  0.00000000000E+00 0.  1.
          1    1    1    2  501    0  0.61126084922E+02 -0.38603290988E+01 -0.11851863121E+03  0.13340901897E+03  0.00000000000E+00 0. -1.
<scales pt_clust_5="13000.00000" pt_clust_6="13000.00000" pt_clust_7="13000.00000" pt_clust_8="13000.00000" pt_clust_9="25.62479" pt_clust_10="53.77096"></scales>
<clustering>
<clus scale="   25.625">  2  9  1 -1</clus>
<clus scale="   53.771">  1 10  2 -1</clus>
<clus scale="   79.809">  5  6 -1 -1</clus>
<clus scale="   91.512">  7  8 -1 -1</clus>
<clus scale="  134.711">  1  5  2 -1</clus>
<clus scale="   53.771">  1  5  2 -1</clus>
</clustering>
</event>
<event>
10    4  0.2857708E-005  0.1668624E+03  0.7546771E-02  0.1183120E+00
          2   -1    0    0  503    0 -0.00000000000E+00  0.00000000000E+00  0.52189271804E+03  0.52189271804E+03  0.00000000000E+00 0. -1.
         21   -1    0    0  501  502  0.00000000000E+00 -0.00000000000E+00 -0.87340069198E+02  0.87340069198E+02  0.00000000000E+00 0. -1.
         23    2    1    2    0    0  0.73070201229E+02 -0.10996034911E+03  0.35478618175E+03  0.38984707136E+03  0.93150263570E+02 0.  0.
         24    2    1    2    0    0 -0.70407805588E+02  0.10035273731E+03  0.35441838685E+02  0.15040051247E+03  0.79600623418E+02 0.  0.
        -13    1    4    4    0    0  0.15595023688E+02  0.27726156473E+02  0.17823778570E+02  0.36464113853E+02  0.00000000000E+00 0.  1.
         14    1    4    4    0    0 -0.86002829276E+02  0.72626580833E+02  0.17618060115E+02  0.11393639861E+03  0.00000000000E+00 0. -1.
        -13    1    3    3    0    0  0.66692139279E+02 -0.64756624612E+02  0.31772910293E+03  0.33104840238E+03  0.00000000000E+00 0.  1.
         13    1    3    3    0    0  0.63780619497E+01 -0.45203724496E+02  0.37057078821E+02  0.58798668976E+02  0.00000000000E+00 0. -1.
         21    1    1    2  503  502  0.32107650313E+01 -0.20859616629E+02  0.23661100851E+02  0.31706155735E+02  0.00000000000E+00 0. -1.
          1    1    1    2  501    0 -0.58731606725E+01  0.30467228431E+02  0.20663527554E+02  0.37279047675E+02  0.00000000000E+00 0. -1.
<scales pt_clust_5="13000.00000" pt_clust_6="13000.00000" pt_clust_7="13000.00000" pt_clust_8="13000.00000" pt_clust_9="21.10527" pt_clust_10="29.79184"></scales>
<clustering>
<clus scale="   21.105">  1  9  2 -1</clus>
<clus scale="   29.792">  2 10  1 -1</clus>
<clus scale="   79.601">  5  6 -1 -1</clus>
<clus scale="   93.150">  7  8 -1 -1</clus>
<clus scale="  159.695">  2  5  1 -1</clus>
<clus scale="   29.792">  2  5  1 -1</clus>
</clustering>
</event>
<event>
10    4  0.2857708E-005  0.1107745E+03  0.7546771E-02  0.1263694E+00
         21   -1    0    0  501  502  0.00000000000E+00  0.00000000000E+00  0.12024098969E+03  0.12024098969E+03  0.00000000000E+00 0.  1.
          2   -1    0    0  503    0 -0.00000000000E+00 -0.00000000000E+00 -0.52904676846E+03  0.52904676846E+03  0.00000000000E+00 0. -1.
         24    2    1    2    0    0 -0.51457623275E+02  0.52070937635E+02 -0.33699285421E+03  0.35386907684E+03  0.79371721763E+02 0.  0.
         23    2    1    2    0    0  0.51581599522E+02  0.33083355837E+02  0.28262924612E+02  0.11340221498E+03  0.91137805614E+02 0.  0.
        -13    1    3    3    0    0 -0.51104504160E+02  0.60329219414E+02 -0.17928649405E+03  0.19594624775E+03  0.00000000000E+00 0.  1.
         14    1    3    3    0    0 -0.35311911426E+00 -0.82582817795E+01 -0.15770636016E+03  0.15792282909E+03  0.00000000000E+00 0. -1.
        -13    1    4    4    0    0 -0.40719045817E+01  0.28024672581E+02  0.46649406375E+02  0.54572243818E+02  0.00000000000E+00 0.  1.
         13    1    4    4    0    0  0.55653504103E+02  0.50586832554E+01 -0.18386481763E+02  0.58829971162E+02  0.00000000000E+00 0. -1.
         21    1    1    2  503  502 -0.15456608966E+02 -0.43964222401E+02 -0.12365121738E+03  0.13214152705E+03  0.00000000000E+00 0. -1.
          1    1    1    2  501    0  0.15332632719E+02 -0.41190071070E+02  0.23575368209E+02  0.49874939269E+02  0.00000000000E+00 0. -1.
<scales pt_clust_5="13000.00000" pt_clust_6="13000.00000" pt_clust_7="13000.00000" pt_clust_8="13000.00000" pt_clust_9="48.33999" pt_clust_10="43.95124"></scales>
<clustering>
<clus scale="   43.951">  1 10  2 -1</clus>
<clus scale="   48.340">  2  9  1 -1</clus>
<clus scale="   79.372">  5  6 -1 -1</clus>
<clus scale="   91.138">  7  8 -1 -1</clus>
<clus scale="  101.315">  2  5  1 -1</clus>
<clus scale="   43.951">  1  5  2 -1</clus>
</clustering>
</event>
<event>
10    4  0.2857708E-005  0.3508910E+03  0.7546771E-02  0.1062250E+00
         21   -1    0    0  503  502  0.00000000000E+00  0.00000000000E+00  0.23487883207E+03  0.23487883207E+03  0.00000000000E+00 0. -1.
          4   -1    0    0  502    0 -0.00000000000E+00 -0.00000000000E+00 -0.86641508420E+03  0.86641508420E+03  0.00000000000E+00 0. -1.
         24    2    1    2    0    0  0.85037671792E+02 -0.74203818107E+02 -0.30397507167E+03  0.33385647774E+03  0.79509064212E+02 0.  0.
         23    2    1    2    0    0  0.19719397953E+03 -0.22168340958E+02 -0.36283061363E+03  0.42326298946E+03  0.90158766371E+02 0.  0.
        -11    1    3    3    0    0  0.22190850101E+02 -0.21897693976E+01 -0.94644899908E+01  0.24224068383E+02  0.00000000000E+00 0.  1.
         12    1    3    3    0    0  0.62846821691E+02 -0.72014048710E+02 -0.29451058168E+03  0.30963240936E+03  0.00000000000E+00 0. -1.
        -11    1    4    4    0    0  0.11678327121E+03  0.67412580317E+01 -0.28341743335E+03  0.30660922771E+03  0.00000000000E+00 0.  1.
         11    1    4    4    0    0  0.80410708321E+02 -0.28909598990E+02 -0.79413180285E+02  0.11665376175E+03  0.00000000000E+00 0. -1.
         21    1    1    2  503  501 -0.26325676835E+02  0.62717275865E+02 -0.35243119351E+02  0.76606627744E+02  0.00000000000E+00 0. -1.
          3    1    1    2  501    0 -0.25590597449E+03  0.33654883201E+02  0.70512552528E+02  0.26756782132E+03  0.00000000000E+00 0. -1.
<scales pt_clust_5="13000.00000" pt_clust_6="13000.00000" pt_clust_7="13000.00000" pt_clust_8="13000.00000" pt_clust_9="68.01836" pt_clust_10="288.90605"></scales>
<clustering>
<clus scale="   68.018">  1  9  2 -1</clus>
<clus scale="   79.509">  5  6 -1 -1</clus>
<clus scale="   90.159">  7  8 -1 -1</clus>
<clus scale="  118.524">  5  7 -1 -1</clus>
<clus scale="  288.906">  1 10  2 -1</clus>
<clus scale="   68.018">  1  5  2 -1</clus>
</clustering>
</event>
<event>
10    4  0.2857708E-005  0.9757614E+02  0.7546771E-02  0.1292676E+00
         21   -1    0    0  501  502  0.00000000000E+00  0.00000000000E+00  0.88856510356E+02  0.88856510356E+02  0.00000000000E+00 0. -1.
          2   -1    0    0  503    0 -0.00000000000E+00 -0.00000000000E+00 -0.61099705177E+03  0.61099705177E+03  0.00000000000E+00 0. -1.
         24    2    1    2    0    0 -0.28250673921E+02  0.36883602806E+00 -0.29091694513E+03  0.30270143350E+03  0.78722628653E+02 0.  0.
         23    2    1    2    0    0  0.35353526938E+02  0.53563811053E+02 -0.15835635901E+03  0.19402651193E+03  0.91927129677E+02 0.  0.
        -11    1    3    3    0    0  0.15977820054E+02 -0.27126457914E+02 -0.10332234032E+03  0.10801222830E+03  0.00000000000E+00 0.  1.
         12    1    3    3    0    0 -0.44228493975E+02  0.27495293942E+02 -0.18759460481E+03  0.19468920520E+03  0.00000000000E+00 0. -1.
        -11    1    4    4    0    0 -0.29722522706E+02  0.18562439435E+02 -0.31000997717E+02  0.46787331333E+02  0.00000000000E+00 0. -1.
         11    1    4    4    0    0  0.65076049644E+02  0.35001371618E+02 -0.12735536130E+03  0.14723918060E+03  0.00000000000E+00 0.  1.
         21    1    1    2  503  502 -0.37728596844E+02 -0.76053955217E+02 -0.11730195528E+03  0.14480124252E+03  0.00000000000E+00 0.  1.
          1    1    1    2  501    0  0.30625743827E+02  0.22121308136E+02  0.44434718006E+02  0.58324374175E+02  0.00000000000E+00 0. -1.
<scales pt_clust_5="13000.00000" pt_clust_6="13000.00000" pt_clust_7="13000.00000" pt_clust_8="13000.00000" pt_clust_9="72.92072" pt_clust_10="37.77947"></scales>
<clustering>
<clus scale="   37.779">  1 10  2 -1</clus>
<clus scale="   72.921">  1  9  2 -1</clus>
<clus scale="   78.723">  5  6 -1 -1</clus>
<clus scale="   85.251">  2  5  1 -1</clus>
<clus scale="   91.927">  7  8 -1 -1</clus>
<clus scale="   37.779">  1  5  2 -1</clus>
</clustering>
</event>
<event>
10    4  0.2857708E-005  0.1142635E+03  0.7546771E-02  0.1256666E+00
          2   -1    0    0  503    0 -0.00000000000E+00  0.00000000000E+00  0.45257049646E+03  0.45257049646E+03  0.00000000000E+00 0. -1.
         21   -1    0    0  501  502  0.00000000000E+00 -0.00000000000E+00 -0.21481728417E+03  0.21481728417E+03  0.00000000000E+00 0.  1.
         23    2    1    2    0    0 -0.59508420925E+02  0.36394117839E+02  0.11053206602E+03  0.15909927123E+03  0.90716351959E+02 0.  0.
         24    2    1    2    0    0  0.72308899535E+02 -0.10456860422E+03 -0.14684344490E+03  0.21007691274E+03  0.80038378381E+02 0.  0.
        -13    1    4    4    0    0  0.75920452324E+02 -0.94944725519E+02 -0.15497791088E+03  0.19696844632E+03  0.00000000000E+00 0.  1.
         14    1    4    4    0    0 -0.36115527889E+01 -0.96238787031E+01  0.81344659848E+01  0.13108466413E+02  0.00000000000E+00 0. -1.
        -11    1    3    3    0    0 -0.67845368542E+02 -0.47422958563E+01  0.45958357355E+02  0.82083213955E+02  0.00000000000E+00 0.  1.
         11    1    3    3    0    0  0.83369476163E+01  0.41136413695E+02  0.64573708663E+02  0.77016057272E+02  0.00000000000E+00 0. -1.
         21    1    1    2  503  502  0.40467778702E+02  0.18566746470E+02  0.11337505724E+03  0.12180422321E+03  0.00000000000E+00 0. -1.
          1    1    1    2  501    0 -0.53268257312E+02  0.49607739913E+02  0.16068953393E+03  0.17640737346E+03  0.00000000000E+00 0. -1.
<scales pt_clust_5="13000.00000" pt_clust_6="13000.00000" pt_clust_7="13000.00000" pt_clust_8="13000.00000" pt_clust_9="44.52376" pt_clust_10="67.51236"></scales>
<clustering>
<clus scale="   44.524">  1  9  2 -1</clus>
<clus scale="   67.512">  2 10  1 -1</clus>
<clus scale="   80.038">  5  6 -1 -1</clus>
<clus scale="   90.716">  7  8 -1 -1</clus>
<clus scale="  105.985">  2  5  1 -1</clus>
<clus scale="   67.512">  2  5  1 -1</clus>
</clustering>
</event>
<event>
10    4  0.2857708E-005  0.1158532E+03  0.7546771E-02  0.1252704E+00
         21   -1    0    0  501  502  0.00000000000E+00  0.00000000000E+00  0.87765711100E+02  0.87765711100E+02  0.00000000000E+00 0. -1.
          2   -1    0    0  503    0 -0.00000000000E+00 -0.00000000000E+00 -0.48958840072E+03  0.48958840072E+03  0.00000000000E+00 0. -1.
         23    2    1    2    0    0  0.10123738053E+03  0.39913883111E+02 -0.83333682529E+02  0.16431635158E+03  0.90626902571E+02 0.  0.
         24    2    1    2    0    0 -0.47100924289E+02  0.18976089151E+02 -0.31825485972E+02  0.10237679254E+03  0.83003355742E+02 0.  0.
        -13    1    4    4    0    0  0.19237514595E+02 -0.12990063515E+02 -0.11925814377E+02  0.26096911052E+02  0.00000000000E+00 0.  1.
         14    1    4    4    0    0 -0.66338438884E+02  0.31966152666E+02 -0.19899671595E+02  0.76279881485E+02  0.00000000000E+00 0. -1.
        -13    1    3    3    0    0  0.49601397600E+02  0.35785238887E+02 -0.93304800327E+02  0.11156463476E+03  0.00000000000E+00 0.  1.
         13    1    3    3    0    0  0.51635982932E+02  0.41286442245E+01  0.99711177977E+01  0.52751716812E+02  0.00000000000E+00 0. -1.
         21    1    1    2  503  502 -0.25038113077E+02 -0.35871281571E+02 -0.26309248763E+03  0.26670454251E+03  0.00000000000E+00 0.  1.
          1    1    1    2  501    0 -0.29098343167E+02 -0.23018690691E+02 -0.23571033486E+02  0.43956425193E+02  0.00000000000E+00 0. -1.
<scales pt_clust_5="13000.00000" pt_clust_6="13000.00000" pt_clust_7="13000.00000" pt_clust_8="13000.00000" pt_clust_9="44.57325" pt_clust_10="37.10221"></scales>
<clustering>
<clus scale="   37.102">  1 10  2 -1</clus>
<clus scale="   44.573">  2  9  1 -1</clus>
<clus scale="   83.003">  5  6 -1 -1</clus>
<clus scale="   90.627">  7  8 -1 -1</clus>
<clus scale="  109.992">  1  5  2 -1</clus>
<clus scale="   37.102">  1  5  2 -1</clus>
</clustering>
</event>
<event>
10    4  0.2857708E-005  0.9461853E+02  0.7546771E-02  0.1293496E+00
         21   -1    0    0  501  502  0.00000000000E+00  0.00000000000E+00  0.33164124777E+03  0.33164124777E+03  0.00000000000E+00 0.  1.
          2   -1    0    0  503    0 -0.00000000000E+00 -0.00000000000E+00 -0.35748474856E+03  0.35748474856E+03  0.00000000000E+00 0. -1.
         24    2    1    2    0    0  0.51326077492E+02 -0.48346043430E+02 -0.18064487863E+03  0.20891858637E+03  0.77734788931E+02 0.  0.
         23    2    1    2    0    0 -0.45688000429E+02  0.58217619506E+02  0.29119086415E+03  0.31110371693E+03  0.80726196003E+02 0.  0.
        -13    1    3    3    0    0  0.67818618478E+02 -0.19462941398E+02 -0.10776386205E+03  0.12880691389E+03  0.00000000000E+00 0.  1.
         14    1    3    3    0    0 -0.16492540987E+02 -0.28883102032E+02 -0.72881016574E+02  0.80111672484E+02  0.00000000000E+00 0. -1.
        -13    1    4    4    0    0 -0.46933291240E+02 -0.35227728545E+00  0.89271186608E+02  0.10085733828E+03  0.00000000000E+00 0. -1.
         13    1    4    4    0    0  0.12452908111E+01  0.58569896791E+02  0.20191967754E+03  0.21024637866E+03  0.00000000000E+00 0.  1.
         21    1    1    2  503  502 -0.82236571712E+01  0.38784981473E+02 -0.10208555633E+03  0.10951421888E+03  0.00000000000E+00 0. -1.
          1    1    1    2  501    0  0.25855801086E+01 -0.48656557549E+02 -0.34303929977E+02  0.59589474145E+02  0.00000000000E+00 0. -1.
<scales pt_clust_5="13000.00000" pt_clust_6="13000.00000" pt_clust_7="13000.00000" pt_clust_8="13000.00000" pt_clust_9="39.64724" pt_clust_10="41.43537"></scales>
<clustering>
<clus scale="   39.647">  2  9  1 -1</clus>
<clus scale="   41.435">  1 10  2 -1</clus>
<clus scale="   77.735">  5  6 -1 -1</clus>
<clus scale="   80.726">  7  8 -1 -1</clus>
<clus scale="   92.080">  2  5  1 -1</clus>
<clus scale="   41.435">  1  5  2 -1</clus>
</clustering>
</event>
<event>
10    4  0.2857708E-005  0.2221228E+03  0.7546771E-02  0.1167666E+00
         21   -1    0    0  501  502  0.00000000000E+00  0.00000000000E+00  0.95689820872E+03  0.95689820872E+03  0.00000000000E+00 0. -1.
          2   -1    0    0  503    0 -0.00000000000E+00 -0.00000000000E+00 -0.26745927981E+03  0.26745927981E+03  0.00000000000E+00 0. -1.
         23    2    1    2    0    0 -0.21467227176E+02 -0.18944967723E+02  0.82561497499E+02  0.12639660903E+03  0.91323317174E+02 0.  0.
         24    2    1    2    0    0 -0.21603057876E+02 -0.18637840884E+03 -0.17017386407E+03  0.26582617018E+03  0.80627571884E+02 0.  0.
        -11    1    4    4    0    0  0.59797284450E+01 -0.67954127714E+02 -0.17085431898E+02  0.70323769871E+02  0.00000000000E+00 0.  1.
         12    1    4    4    0    0 -0.27582786321E+02 -0.11842428113E+03 -0.15308843217E+03  0.19550240031E+03  0.00000000000E+00 0. -1.
        -13    1    3    3    0    0 -0.47610553405E+02 -0.36154697387E+02  0.71501120477E+02  0.93200521287E+02  0.00000000000E+00 0.  1.
         13    1    3    3    0    0  0.26143326229E+02  0.17209729664E+02  0.11060377021E+02  0.33196087740E+02  0.00000000000E+00 0. -1.
         21    1    1    2  503  502 -0.25862513204E+02  0.85849331557E+01 -0.36587347057E+00  0.27252605929E+02  0.00000000000E+00 0. -1.
          1    1    1    2  501    0  0.68932798256E+02  0.19673844341E+03  0.77741716895E+03  0.80488210339E+03  0.00000000000E+00 0. -1.
<scales pt_clust_5="13000.00000" pt_clust_6="13000.00000" pt_clust_7="13000.00000" pt_clust_8="13000.00000" pt_clust_9="27.25015" pt_clust_10="206.97280"></scales>
<clustering>
<clus scale="   27.250">  2  9  1 -1</clus>
<clus scale="   80.628">  5  6 -1 -1</clus>
<clus scale="   91.323">  7  8 -1 -1</clus>
<clus scale="   96.089">  2  7  1 -1</clus>
<clus scale="  206.973">  1 10  2 -1</clus>
<clus scale="  206.973">  1  5  2 -1</clus>
</clustering>
</event>
<event>
10    4  0.2857708E-005  0.1150104E+03  0.7546771E-02  0.1263682E+00
         -1   -1    0    0    0  501 -0.00000000000E+00  0.00000000000E+00  0.10282224591E+04  0.10282224591E+04  0.00000000000E+00 0.  1.
         21   -1    0    0  503  502  0.00000000000E+00 -0.00000000000E+00 -0.27825777251E+02  0.27825777251E+02  0.00000000000E+00 0.  1.
         24    2    1    2    0    0  0.43577906051E+02  0.19275501268E+02  0.56896124880E+03  0.57643278458E+03  0.79292330322E+02 0.  0.
         23    2    1    2    0    0 -0.26578157327E+02 -0.17298864764E+02  0.13128170568E+03  0.17191837139E+03  0.10637382670E+03 0.  0.
        -13    1    3    3    0    0  0.60154132225E+02  0.33067244076E+02  0.37066279301E+03  0.37696534108E+03  0.00000000000E+00 0.  1.
         14    1    3    3    0    0 -0.16576226173E+02 -0.13791742808E+02  0.19829845580E+03  0.19946744350E+03  0.00000000000E+00 0. -1.
        -13    1    4    4    0    0 -0.59218440820E+02  0.16029580299E+02  0.54420446404E+02  0.82008268879E+02  0.00000000000E+00 0.  1.
         13    1    4    4    0    0  0.32640283493E+02 -0.33328445064E+02  0.76861259272E+02  0.89910102513E+02  0.00000000000E+00 0. -1.
         21    1    1    2  503  501  0.65049480864E+01 -0.30193195226E+02  0.14566919097E+03  0.14890754375E+03  0.00000000000E+00 0.  1.
         -2    1    1    2    0  502 -0.23504696811E+02  0.28216558722E+02  0.15448453636E+03  0.15878953660E+03  0.00000000000E+00 0.  1.
<scales pt_clust_5="13000.00000" pt_clust_6="13000.00000" pt_clust_7="13000.00000" pt_clust_8="13000.00000" pt_clust_9="30.88597" pt_clust_10="31.96039"></scales>
<clustering>
<clus scale="   30.886">  1  9  2 -1</clus>
<clus scale="   31.960">  2 10  1 -1</clus>
<clus scale="   79.292">  5  6 -1 -1</clus>
<clus scale="   90.550">  1  5  2 -1</clus>
<clus scale="  106.374">  7  8 -1 -1</clus>
<clus scale="   31.960">  2  5  1 -1</clus>
</clustering>
</event>
<event>
10    4  0.2857708E-005  0.9928945E+02  0.7546771E-02  0.1284025E+00
         21   -1    0    0  503  502  0.00000000000E+00  0.00000000000E+00  0.10963810335E+03  0.10963810335E+03  0.00000000000E+00 0. -1.
         -1   -1    0    0    0  501 -0.00000000000E+00 -0.00000000000E+00 -0.65163558738E+03  0.65163558738E+03  0.00000000000E+00 0.  1.
         24    2    1    2    0    0 -0.19412417986E+02  0.41642148016E+02 -0.57021386742E+03  0.57796604871E+03  0.82401385853E+02 0.  0.
         23    2    1    2    0    0  0.27568487225E+02 -0.94337424724E+00  0.57340747756E+02  0.10787339742E+03  0.87107962184E+02 0.  0.
        -11    1    3    3    0    0 -0.21440098919E+02  0.66175223541E+02 -0.40562055824E+03  0.41154206992E+03  0.00000000000E+00 0.  1.
         12    1    3    3    0    0  0.20276809337E+01 -0.24533075524E+02 -0.16459330919E+03  0.16642397878E+03  0.00000000000E+00 0. -1.
        -13    1    4    4    0    0  0.60816891665E+01  0.27772923847E+02 -0.11166962062E+02  0.30545429835E+02  0.00000000000E+00 0.  1.
         13    1    4    4    0    0  0.21486798059E+02 -0.28716298094E+02  0.68507709818E+02  0.77327967590E+02  0.00000000000E+00 0. -1.
         21    1    1    2  503  501 -0.21187676510E+02 -0.11334860000E+02 -0.35317739955E+02  0.42716969025E+02  0.00000000000E+00 0. -1.
         -2    1    1    2    0  502  0.13031607270E+02 -0.29363913769E+02  0.61933755985E+01  0.32717275576E+02  0.00000000000E+00 0.  1.
<scales pt_clust_5="13000.00000" pt_clust_6="13000.00000" pt_clust_7="13000.00000" pt_clust_8="13000.00000" pt_clust_9="24.02908" pt_clust_10="32.16813"></scales>
<clustering>
<clus scale="   24.029">  2  9  1 -1</clus>
<clus scale="   32.168">  1 10  2 -1</clus>
<clus scale="   82.401">  5  6 -1 -1</clus>
<clus scale="   87.108">  7  8 -1 -1</clus>
<clus scale="   95.187">  2  5  1 -1</clus>
<clus scale="   32.168">  1  5  2 -1</clus>
</clustering>
</event>
<event>
10    4  0.2857708E-005  0.1061718E+03  0.7546771E-02  0.1272031E+00
         21   -1    0    0  501  502  0.00000000000E+00  0.00000000000E+00  0.44927090868E+02  0.44927090868E+02  0.00000000000E+00 0.  1.
          2   -1    0    0  503    0 -0.00000000000E+00 -0.00000000000E+00 -0.55263018137E+03  0.55263018137E+03  0.00000000000E+00 0. -1.
         23    2    1    2    0    0  0.35088756525E+02 -0.52989899815E+02 -0.31710601654E+03  0.33638706715E+03  0.92525039336E+02 0.  0.
         24    2    1    2    0    0 -0.25600280913E+02  0.22121539324E+02 -0.10820148097E+03  0.14043450610E+03  0.82882767414E+02 0.  0.
        -11    1    4    4    0    0 -0.42640589333E+02  0.17335477183E+02 -0.11306774403E+03  0.12207806259E+03  0.00000000000E+00 0.  1.
         12    1    4    4    0    0  0.17040308420E+02  0.47860621410E+01  0.48662630586E+01  0.18356443501E+02  0.00000000000E+00 0. -1.
        -11    1    3    3    0    0  0.66668490933E+02 -0.34460833841E+02 -0.22870180354E+03  0.24070054361E+03  0.00000000000E+00 0. -1.
         11    1    3    3    0    0 -0.31579734408E+02 -0.18529065973E+02 -0.88404212999E+02  0.95686523540E+02  0.00000000000E+00 0.  1.
         21    1    1    2  503  502 -0.30971456558E+02  0.31700437084E+02 -0.87989691428E+02  0.98520731982E+02  0.00000000000E+00 0.  1.
          1    1    1    2  501    0  0.21482980947E+02 -0.83207659294E+00  0.55940984353E+01  0.22214967007E+02  0.00000000000E+00 0. -1.
<scales pt_clust_5="13000.00000" pt_clust_6="13000.00000" pt_clust_7="13000.00000" pt_clust_8="13000.00000" pt_clust_9="41.74500" pt_clust_10="21.49909"></scales>
<clustering>
<clus scale="   21.499">  1 10  2 -1</clus>
<clus scale="   41.745">  1  9  2 -1</clus>
<clus scale="   82.883">  5  6 -1 -1</clus>
<clus scale="   92.525">  7  8 -1 -1</clus>
<clus scale="   97.883">  1  5  2 -1</clus>
<clus scale="   21.499">  1  5  2 -1</clus>
</clustering>
</event>
<event>
10    4  0.2857708E-005  0.1611088E+03  0.7546771E-02  0.1204241E+00
         -3   -1    0    0    0  501 -0.00000000000E+00  0.00000000000E+00  0.43396729584E+03  0.43396729584E+03  0.00000000000E+00 0.  1.
         21   -1    0    0  503  502  0.00000000000E+00 -0.00000000000E+00 -0.15598139967E+03  0.15598139967E+03  0.00000000000E+00 0.  1.
         24    2    1    2    0    0  0.34718560719E+02  0.74131938372E+02  0.17119702830E+03  0.20564993367E+03  0.79262538280E+02 0.  0.
         23    2    1    2    0    0 -0.14953196315E+03  0.30865475974E+02  0.97283098621E+02  0.20184307648E+03  0.89242034006E+02 0.  0.
        -11    1    3    3    0    0  0.15587733759E+02  0.50425991971E+02  0.16670156537E+03  0.17485757063E+03  0.00000000000E+00 0.  1.
         12    1    3    3    0    0  0.19130826959E+02  0.23705946401E+02  0.44954629364E+01  0.30792363045E+02  0.00000000000E+00 0. -1.
        -11    1    4    4    0    0 -0.24133986085E+02  0.12733194618E+02  0.65879735539E+02  0.71307244262E+02  0.00000000000E+00 0. -1.
         11    1    4    4    0    0 -0.12539797706E+03  0.18132281356E+02  0.31403363082E+02  0.13053583221E+03  0.00000000000E+00 0.  1.
         21    1    1    2  503  501  0.96840578791E+02 -0.64496765704E+02 -0.33116948249E+02  0.12097381017E+03  0.00000000000E+00 0.  1.
         -4    1    1    2    0  502  0.17972823639E+02 -0.40500648643E+02  0.42622717492E+02  0.61481875187E+02  0.00000000000E+00 0.  1.
<scales pt_clust_5="13000.00000" pt_clust_6="13000.00000" pt_clust_7="13000.00000" pt_clust_8="13000.00000" pt_clust_9="134.13394" pt_clust_10="44.30944"></scales>
<clustering>
<clus scale="   44.309">  2 10  1 -1</clus>
<clus scale="   79.263">  5  6 -1 -1</clus>
<clus scale="   89.242">  7  8 -1 -1</clus>
<clus scale="  111.586">  1  5  2 -1</clus>
<clus scale="  134.134">  2  9  1 -1</clus>
<clus scale="   44.309">  2  5  1 -1</clus>
</clustering>
</event>
<event>
10    4  0.2857708E-005  0.2708339E+03  0.7546771E-02  0.1146996E+00
          2   -1    0    0  503    0 -0.00000000000E+00  0.00000000000E+00  0.13746783067E+04  0.13746783067E+04  0.00000000000E+00 0. -1.
         21   -1    0    0  501  502  0.00000000000E+00 -0.00000000000E+00 -0.16552445395E+03  0.16552445395E+03  0.00000000000E+00 0. -1.
         24    2    1    2    0    0 -0.33086710278E+02  0.16218748364E+01  0.16338216502E+02  0.87054317613E+02  0.78829918315E+02 0.  0.
         23    2    1    2    0    0 -0.19677275495E+03 -0.33203921385E+02  0.82259728996E+03  0.85202596083E+03  0.97262114832E+02 0.  0.
        -13    1    3    3    0    0  0.14036650026E+02  0.28057009976E+02  0.80698357219E+01  0.32393604327E+02  0.00000000000E+00 0.  1.
         14    1    3    3    0    0 -0.47123360304E+02 -0.26435135139E+02  0.82683807805E+01  0.54660713286E+02  0.00000000000E+00 0. -1.
        -13    1    4    4    0    0 -0.10153737698E+03 -0.43444475784E+02  0.27917119629E+03  0.30022294755E+03  0.00000000000E+00 0.  1.
         13    1    4    4    0    0 -0.95235377971E+02  0.10240554399E+02  0.54342609368E+03  0.55180301328E+03  0.00000000000E+00 0. -1.
         21    1    1    2  503  502 -0.24212842646E+02 -0.34301129215E+02  0.33345160421E+03  0.33608451551E+03  0.00000000000E+00 0.  1.
          1    1    1    2  501    0  0.25407230787E+03  0.65883175764E+02  0.36766742080E+02  0.26503796672E+03  0.00000000000E+00 0. -1.
<scales pt_clust_5="13000.00000" pt_clust_6="13000.00000" pt_clust_7="13000.00000" pt_clust_8="13000.00000" pt_clust_9="41.98606" pt_clust_10="252.76690"></scales>
<clustering>
<clus scale="   41.986">  1  9  2 -1</clus>
<clus scale="   78.830">  5  6 -1 -1</clus>
<clus scale="   85.965">  1  5  2 -1</clus>
<clus scale="   97.262">  7  8 -1 -1</clus>
<clus scale="  252.767">  2 10  1 -1</clus>
<clus scale="  252.767">  2  5  1 -1</clus>
</clustering>
</event>
<event>
10    4  0.2857708E-005  0.1780603E+03  0.7546771E-02  0.1171456E+00
          2   -1    0    0  503    0 -0.00000000000E+00  0.00000000000E+00  0.91970230579E+03  0.91970230579E+03  0.00000000000E+00 0. -1.
         21   -1    0    0  501  502  0.00000000000E+00 -0.00000000000E+00 -0.14240039790E+03  0.14240039790E+03  0.00000000000E+00 0. -1.
         24    2    1    2    0    0  0.20284776742E+03  0.22349260357E+02  0.50089072350E+03  0.54665072958E+03  0.79301936126E+02 0.  0.
         23    2    1    2    0    0 -0.96243666129E+02  0.61830707320E+01  0.13279902505E+03  0.18888748599E+03  0.93497741555E+02 0.  0.
        -11    1    3    3    0    0  0.16993109298E+03 -0.13195799086E+02  0.39498839963E+03  0.43019360911E+03  0.00000000000E+00 0.  1.
         12    1    3    3    0    0  0.32916674442E+02  0.35545059443E+02  0.10590232387E+03  0.11645712047E+03  0.00000000000E+00 0. -1.
        -13    1    4    4    0    0 -0.87616967519E+02  0.41677676781E+02  0.10515690542E+03  0.14307947616E+03  0.00000000000E+00 0.  1.
         13    1    4    4    0    0 -0.86266986096E+01 -0.35494606049E+02  0.27642119630E+02  0.45808009836E+02  0.00000000000E+00 0. -1.
         21    1    1    2  503  502 -0.24561351280E+02  0.69837788766E+02  0.17897371467E+03  0.19368058049E+03  0.00000000000E+00 0. -1.
          1    1    1    2  501    0 -0.82042750015E+02 -0.98370119855E+02 -0.35361555332E+02  0.13288390763E+03  0.00000000000E+00 0. -1.
<scales pt_clust_5="13000.00000" pt_clust_6="13000.00000" pt_clust_7="13000.00000" pt_clust_8="13000.00000" pt_clust_9="74.03092" pt_clust_10="125.64368"></scales>
<clustering>
<clus scale="   74.031">  1  9  2 -1</clus>
<clus scale="   79.302">  5  6 -1 -1</clus>
<clus scale="   93.498">  7  8 -1 -1</clus>
<clus scale="  125.644">  2 10  1 -1</clus>
<clus scale="  171.033">  1  5  2 -1</clus>
<clus scale="  125.644">  2  5  1 -1</clus>
</clustering>
</event>
<event>
10    4  0.2857708E-005  0.1756659E+03  0.7546771E-02  0.1178764E+00
          2   -1    0    0  503    0 -0.00000000000E+00  0.00000000000E+00  0.14107596249E+04  0.14107596249E+04  0.00000000000E+00 0. -1.
         21   -1    0    0  501  502  0.00000000000E+00 -0.00000000000E+00 -0.14586026030E+03  0.14586026030E+03  0.00000000000E+00 0. -1.
         23    2    1    2    0    0 -0.12155828832E+03  0.30960645985E+01  0.14864352897E+03  0.21048595810E+03  0.86159368477E+02 0.  0.
         24    2    1    2    0    0  0.62506257772E+02  0.12272912956E+03  0.10807319616E+04  0.10924146337E+04  0.80116712049E+02 0.  0.
        -11    1    4    4    0    0  0.37747133898E+02  0.11062731939E+02  0.16796997421E+03  0.17251418026E+03  0.00000000000E+00 0.  1.
         12    1    4    4    0    0  0.24759123874E+02  0.11166639762E+03  0.91276198738E+03  0.91990045341E+03  0.00000000000E+00 0. -1.
        -11    1    3    3    0    0 -0.17115666423E+02  0.33485551906E+02  0.22106499560E+02  0.43622534845E+02  0.00000000000E+00 0. -1.
         11    1    3    3    0    0 -0.10444262190E+03 -0.30389487307E+02  0.12653702941E+03  0.16686342325E+03  0.00000000000E+00 0.  1.
         21    1    1    2  503  502 -0.16582366486E+02  0.15722168214E+02  0.83215228708E+02  0.86295629904E+02  0.00000000000E+00 0. -1.
          1    1    1    2  501    0  0.75634397033E+02 -0.14154736237E+03 -0.47691354648E+02  0.16742366355E+03  0.00000000000E+00 0. -1.
<scales pt_clust_5="13000.00000" pt_clust_6="13000.00000" pt_clust_7="13000.00000" pt_clust_8="13000.00000" pt_clust_9="22.85085" pt_clust_10="156.33246"></scales>
<clustering>
<clus scale="   22.851">  1  9  2 -1</clus>
<clus scale="   80.117">  5  6 -1 -1</clus>
<clus scale="   86.159">  7  8 -1 -1</clus>
<clus scale="  150.924">  1  7  2 -1</clus>
<clus scale="  156.332">  2 10  1 -1</clus>
<clus scale="  156.332">  2  5  1 -1</clus>
</clustering>
</event>
<event>
10    4  0.2857708E-005  0.1045401E+03  0.7546771E-02  0.1277321E+00
         21   -1    0    0  501  502  0.00000000000E+00  0.00000000000E+00  0.31251161216E+03  0.31251161216E+03  0.00000000000E+00 0. -1.
          2   -1    0    0  503    0 -0.00000000000E+00 -0.00000000000E+00 -0.98102695933E+02  0.98102695933E+02  0.00000000000E+00 0. -1.
         24    2    1    2    0    0 -0.32102577299E+02 -0.54740012915E+01  0.44864058860E+02  0.96403150800E+02  0.78868520636E+02 0.  0.
         23    2    1    2    0    0  0.55674966490E+02 -0.37327694481E+02  0.11795286212E+03  0.16423538182E+03  0.92559841668E+02 0.  0.
        -11    1    3    3    0    0 -0.52494053147E+02 -0.85708773066E+01  0.74876631579E+01  0.53713598401E+02  0.00000000000E+00 0.  1.
         12    1    3    3    0    0  0.20391475848E+02  0.30968760151E+01  0.37376395703E+02  0.42689552399E+02  0.00000000000E+00 0. -1.
        -11    1    4    4    0    0  0.41762072384E+02  0.16408432022E+02  0.15068893875E+02  0.47332640893E+02  0.00000000000E+00 0.  1.
         11    1    4    4    0    0  0.13912894106E+02 -0.53736126503E+02  0.10288396825E+03  0.11690274093E+03  0.00000000000E+00 0. -1.
         21    1    1    2  503  502 -0.60620117424E+02  0.11728403094E+01 -0.15674038644E+02  0.62624673079E+02  0.00000000000E+00 0. -1.
          1    1    1    2  501    0  0.37047728233E+02  0.41628855463E+02  0.67266033891E+02  0.87351102396E+02  0.00000000000E+00 0. -1.
<scales pt_clust_5="13000.00000" pt_clust_6="13000.00000" pt_clust_7="13000.00000" pt_clust_8="13000.00000" pt_clust_9="57.17122" pt_clust_10="55.72698"></scales>
<clustering>
<clus scale="   55.727">  1 10  2 -1</clus>
<clus scale="   57.171">  2  9  1 -1</clus>
<clus scale="   78.869">  5  6 -1 -1</clus>
<clus scale="   92.560">  7  8 -1 -1</clus>
<clus scale="   92.637">  2  5  1 -1</clus>
<clus scale="   55.727">  1  5  2 -1</clus>
</clustering>
</event>
<event>
10    4  0.2857708E-005  0.1968759E+03  0.7546771E-02  0.1166996E+00
          2   -1    0    0  503    0 -0.00000000000E+00  0.00000000000E+00  0.21966279279E+03  0.21966279279E+03  0.00000000000E+00 0. -1.
         21   -1    0    0  501  502  0.00000000000E+00 -0.00000000000E+00 -0.46567961300E+03  0.46567961300E+03  0.00000000000E+00 0. -1.
         24    2    1    2    0    0  0.87142074848E+02  0.13025711844E+03 -0.10304370991E+03  0.21523979848E+03  0.10559122400E+03 0.  0.
         23    2    1    2    0    0 -0.84920436225E+02  0.35425265311E+02 -0.10161543249E+03  0.15241963883E+03  0.66630475532E+02 0.  0.
        -13    1    3    3    0    0 -0.98785486819E+01  0.71289354903E+02 -0.60411784285E+02  0.93964575915E+02  0.00000000000E+00 0.  1.
         14    1    3    3    0    0  0.97020623530E+02  0.58967763534E+02 -0.42631925629E+02  0.12127522257E+03  0.00000000000E+00 0. -1.
        -11    1    4    4    0    0 -0.38236283050E+02  0.13486295156E+02 -0.24235540623E+01  0.40617325279E+02  0.00000000000E+00 0.  1.
         11    1    4    4    0    0 -0.46684153175E+02  0.21938970155E+02 -0.99191878428E+02  0.11180231355E+03  0.00000000000E+00 0. -1.
         21    1    1    2  503  502  0.91133145610E+02 -0.18490062103E+03  0.15463287070E+02  0.20671865696E+03  0.00000000000E+00 0. -1.
          1    1    1    2  501    0 -0.93354784234E+02  0.19218237285E+02 -0.56820964876E+02  0.11096431153E+03  0.00000000000E+00 0. -1.
<scales pt_clust_5="13000.00000" pt_clust_6="13000.00000" pt_clust_7="13000.00000" pt_clust_8="13000.00000" pt_clust_9="166.16445" pt_clust_10="95.31241"></scales>
<clustering>
<clus scale="   66.630">  7  8 -1 -1</clus>
<clus scale="   95.312">  2 10  1 -1</clus>
<clus scale="  105.591">  5  6 -1 -1</clus>
<clus scale="  140.141">  2  7  1 -1</clus>
<clus scale="  166.164">  1  9  2 -1</clus>
<clus scale="   95.312">  2  5  1 -1</clus>
</clustering>
</event>
<event>
10    4  0.2857708E-005  0.1127555E+03  0.7546771E-02  0.1260386E+00
         -3   -1    0    0    0  501 -0.00000000000E+00  0.00000000000E+00  0.32180578337E+03  0.32180578337E+03  0.00000000000E+00 0.  1.
         21   -1    0    0  503  502  0.00000000000E+00 -0.00000000000E+00 -0.33349421221E+03  0.33349421221E+03  0.00000000000E+00 0. -1.
         24    2    1    2    0    0  0.10701683652E+02  0.46581699513E+02  0.23687888972E+03  0.25390077544E+03  0.77907731414E+02 0.  0.
         23    2    1    2    0    0  0.26225458408E+02 -0.94903882272E+02 -0.93322885874E+02  0.16334256148E+03  0.90978622895E+02 0.  0.
        -13    1    3    3    0    0 -0.27215324674E+02 -0.46613411064E+01  0.68077574290E+02  0.73463991991E+02  0.00000000000E+00 0.  1.
         14    1    3    3    0    0  0.37917008327E+02  0.51243040619E+02  0.16880131542E+03  0.18043678345E+03  0.00000000000E+00 0. -1.
        -13    1    4    4    0    0  0.28111666805E+02 -0.56439610369E+02 -0.10554004228E+03  0.12294061962E+03  0.00000000000E+00 0. -1.
         13    1    4    4    0    0 -0.18862083971E+01 -0.38464271904E+02  0.12217156404E+02  0.40401941857E+02  0.00000000000E+00 0.  1.
         21    1    1    2  503  501  0.10002172140E+02  0.17876245642E+02  0.34563162422E+02  0.40177304568E+02  0.00000000000E+00 0. -1.
         -4    1    1    2    0  502 -0.46929314201E+02  0.30445937118E+02 -0.18980759510E+03  0.19787935409E+03  0.00000000000E+00 0.  1.
<scales pt_clust_5="13000.00000" pt_clust_6="13000.00000" pt_clust_7="13000.00000" pt_clust_8="13000.00000" pt_clust_9="20.48423" pt_clust_10="55.96003"></scales>
<clustering>
<clus scale="   20.484">  1  9  2 -1</clus>
<clus scale="   55.960">  2 10  1 -1</clus>
<clus scale="   77.908">  5  6 -1 -1</clus>
<clus scale="   90.979">  7  8 -1 -1</clus>
<clus scale="  102.500">  1  5  2 -1</clus>
<clus scale="   55.960">  2  5  1 -1</clus>
</clustering>
</event>
<event>
10    4  0.2857708E-005  0.9861632E+02  0.7546771E-02  0.1291725E+00
         21   -1    0    0  501  502  0.00000000000E+00  0.00000000000E+00  0.34256229386E+03  0.34256229386E+03  0.00000000000E+00 0. -1.
          2   -1    0    0  503    0 -0.00000000000E+00 -0.00000000000E+00 -0.27697207908E+03  0.27697207908E+03  0.00000000000E+00 0. -1.
         23    2    1    2    0    0 -0.31331548973E+02 -0.24808782631E+02 -0.19633124538E+03  0.22244765594E+03  0.96642951443E+02 0.  0.
         24    2    1    2    0    0 -0.55666352110E+02  0.15244947893E+00  0.95651268885E+02  0.13758211524E+03  0.81736816646E+02 0.  0.
        -11    1    4    4    0    0 -0.22943516971E+02  0.39322017285E+02  0.30411249950E+02  0.54749156504E+02  0.00000000000E+00 0.  1.
         12    1    4    4    0    0 -0.32722835139E+02 -0.39169567806E+02  0.65240018935E+02  0.82832958732E+02  0.00000000000E+00 0. -1.
        -13    1    3    3    0    0 -0.38074732470E+02 -0.52331817148E+02 -0.17614007959E+03  0.18765295622E+03  0.00000000000E+00 0. -1.
         13    1    3    3    0    0  0.67431834961E+01  0.27523034517E+02 -0.20191165783E+02  0.34794699716E+02  0.00000000000E+00 0.  1.
         21    1    1    2  503  502  0.37120022010E+02  0.52624189436E+01 -0.34970884536E+02  0.51269404643E+02  0.00000000000E+00 0. -1.
          1    1    1    2  501    0  0.49877879073E+02  0.19393914209E+02  0.20124107581E+03  0.20823519713E+03  0.00000000000E+00 0. -1.
<scales pt_clust_5="13000.00000" pt_clust_6="13000.00000" pt_clust_7="13000.00000" pt_clust_8="13000.00000" pt_clust_9="37.49119" pt_clust_10="54.06170"></scales>
<clustering>
<clus scale="   37.491">  2  9  1 -1</clus>
<clus scale="   54.062">  1 10  2 -1</clus>
<clus scale="   81.737">  5  6 -1 -1</clus>
<clus scale="   84.061">  1  5  2 -1</clus>
<clus scale="   96.643">  7  8 -1 -1</clus>
<clus scale="   54.062">  1  5  2 -1</clus>
</clustering>
</event>
<event>
10    4  0.2857708E-005  0.1972842E+03  0.7546771E-02  0.1175705E+00
         -1   -1    0    0    0  501 -0.00000000000E+00  0.00000000000E+00  0.36505544865E+03  0.36505544865E+03  0.00000000000E+00 0.  1.
         21   -1    0    0  503  502  0.00000000000E+00 -0.00000000000E+00 -0.48261960634E+03  0.48261960634E+03  0.00000000000E+00 0.  1.
         24    2    1    2    0    0 -0.77961385013E+02  0.17518590233E+02 -0.17465956034E+03  0.20838530788E+03  0.80830662291E+02 0.  0.
         23    2    1    2    0    0  0.37513679113E+02 -0.17657423318E+03 -0.21815662613E+03  0.29573610753E+03  0.85333439091E+02 0.  0.
        -13    1    3    3    0    0 -0.58749545910E+02 -0.16400245399E+02 -0.53585078814E+02  0.81190134039E+02  0.00000000000E+00 0.  1.
         14    1    3    3    0    0 -0.19211839102E+02  0.33918835632E+02 -0.12107448152E+03  0.12719517384E+03  0.00000000000E+00 0. -1.
        -13    1    4    4    0    0  0.36290860448E+02 -0.13781711730E+03 -0.10759001037E+03  0.17856705941E+03  0.00000000000E+00 0.  1.
         13    1    4    4    0    0  0.12228186649E+01 -0.38757115878E+02 -0.11056661576E+03  0.11716904812E+03  0.00000000000E+00 0. -1.
         21    1    1    2  503  501 -0.17850604043E+02 -0.12084494854E+02  0.13511677994E+02  0.25441000821E+02  0.00000000000E+00 0. -1.
         -2    1    1    2    0  502  0.58298309943E+02  0.17114013780E+03  0.26174035079E+03  0.31811263876E+03  0.00000000000E+00 0.  1.
<scales pt_clust_5="13000.00000" pt_clust_6="13000.00000" pt_clust_7="13000.00000" pt_clust_8="13000.00000" pt_clust_9="21.55642" pt_clust_10="177.87434"></scales>
<clustering>
<clus scale="   21.556">  1  9  2 -1</clus>
<clus scale="   80.831">  5  6 -1 -1</clus>
<clus scale="   85.333">  7  8 -1 -1</clus>
<clus scale="  114.170">  1  5  2 -1</clus>
<clus scale="  177.874">  2 10  1 -1</clus>
<clus scale="  177.874">  2  5  1 -1</clus>
</clustering>
</event>
<event>
10    4  0.2857708E-005  0.1202841E+03  0.7546771E-02  0.1249334E+00
         -3   -1    0    0    0  501 -0.00000000000E+00  0.00000000000E+00  0.58144367244E+02  0.58144367244E+02  0.00000000000E+00 0.  1.
         21   -1    0    0  503  502  0.00000000000E+00 -0.00000000000E+00 -0.17081469098E+04  0.17081469098E+04  0.00000000000E+00 0. -1.
         23    2    1    2    0    0  0.87462881667E+02 -0.47495595138E+02 -0.34725009783E+03  0.37202695204E+03  0.88970980523E+02 0.  0.
         24    2    1    2    0    0 -0.50965578655E+02 -0.53393698533E+01 -0.12831180924E+04  0.12858903580E+04  0.67052029666E+02 0.  0.
        -11    1    4    4    0    0 -0.15954744570E+02  0.16459772329E+02 -0.12801464998E+03  0.13005086923E+03  0.00000000000E+00 0.  1.
         12    1    4    4    0    0 -0.35010834085E+02 -0.21799142182E+02 -0.11551034424E+04  0.11558394888E+04  0.00000000000E+00 0. -1.
        -13    1    3    3    0    0  0.76959509325E+02 -0.27403250728E+01 -0.28119701376E+03  0.29155108644E+03  0.00000000000E+00 0. -1.
         13    1    3    3    0    0  0.10503372342E+02 -0.44755270065E+02 -0.66053084075E+02  0.80475865605E+02  0.00000000000E+00 0.  1.
         21    1    1    2  503  501 -0.37392477819E+02 -0.12455238084E+02  0.23334360844E+01  0.39481328209E+02  0.00000000000E+00 0. -1.
         -4    1    1    2    0  502  0.89517480716E+00  0.65290203075E+02 -0.21967788449E+02  0.68892638829E+02  0.00000000000E+00 0.  1.
<scales pt_clust_5="13000.00000" pt_clust_6="13000.00000" pt_clust_7="13000.00000" pt_clust_8="13000.00000" pt_clust_9="39.41231" pt_clust_10="61.75225"></scales>
<clustering>
<clus scale="   39.412">  1  9  2 -1</clus>
<clus scale="   61.752">  2 10  1 -1</clus>
<clus scale="   67.052">  5  6 -1 -1</clus>
<clus scale="   88.971">  7  8 -1 -1</clus>
<clus scale="  105.111">  2  5  1 -1</clus>
<clus scale="   61.752">  2  5  1 -1</clus>
</clustering>
</event>
<event>
10    4  0.2857708E-005  0.1087319E+03  0.7546771E-02  0.1268918E+00
         21   -1    0    0  501  502  0.00000000000E+00  0.00000000000E+00  0.47058507753E+02  0.47058507753E+02  0.00000000000E+00 0. -1.
          2   -1    0    0  503    0 -0.00000000000E+00 -0.00000000000E+00 -0.59130784774E+03  0.59130784774E+03  0.00000000000E+00 0. -1.
         24    2    1    2    0    0 -0.17287528246E+01  0.53043043077E+02 -0.24402992192E+03  0.26153014316E+03  0.77658611769E+02 0.  0.
         23    2    1    2    0    0  0.73229775218E+01 -0.30982137166E+02 -0.48745956054E+02  0.10898025379E+03  0.92124962203E+02 0.  0.
        -13    1    3    3    0    0  0.29548407906E+02  0.41996958566E+02 -0.86905982743E+02  0.10094306700E+03  0.00000000000E+00 0.  1.
         14    1    3    3    0    0 -0.31277160730E+02  0.11046084511E+02 -0.15712393918E+03  0.16058707616E+03  0.00000000000E+00 0. -1.
        -11    1    4    4    0    0 -0.16499219081E+02 -0.53039912231E+02 -0.52333292201E+02  0.76316642958E+02  0.00000000000E+00 0.  1.
         11    1    4    4    0    0  0.23822196603E+02  0.22057775065E+02  0.35873361474E+01  0.32663610830E+02  0.00000000000E+00 0. -1.
         21    1    1    2  503  502  0.44689267144E+01  0.31446526092E+02 -0.14300525724E+03  0.14649013246E+03  0.00000000000E+00 0. -1.
          1    1    1    2  501    0 -0.10063151412E+02 -0.53507432003E+02 -0.10846820477E+03  0.12136582608E+03  0.00000000000E+00 0. -1.
<scales pt_clust_5="13000.00000" pt_clust_6="13000.00000" pt_clust_7="13000.00000" pt_clust_8="13000.00000" pt_clust_9="31.76248" pt_clust_10="46.28144"></scales>
<clustering>
<clus scale="   31.762">  2  9  1 -1</clus>
<clus scale="   46.281">  1 10  2 -1</clus>
<clus scale="   77.659">  5  6 -1 -1</clus>
<clus scale="   92.125">  7  8 -1 -1</clus>
<clus scale="   96.781">  2  5  1 -1</clus>
<clus scale="   46.281">  1  5  2 -1</clus>
</clustering>
</event>
<event>
10    4  0.2857708E-005  0.1340680E+03  0.7546771E-02  0.1225119E+00
         21   -1    0    0  501  502  0.00000000000E+00  0.00000000000E+00  0.24950139097E+03  0.24950139097E+03  0.00000000000E+00 0. -1.
          2   -1    0    0  503    0 -0.00000000000E+00 -0.00000000000E+00 -0.54904048489E+03  0.54904048489E+03  0.00000000000E+00 0. -1.
         23    2    1    2    0    0  0.77637737515E+02 -0.73477847373E+02 -0.14201469562E+01  0.14369019191E+03  0.96011676857E+02 0.  0.
         24    2    1    2    0    0 -0.64536990096E+02  0.39263409114E+02  0.14871315589E+03  0.18586556640E+03  0.81998583245E+02 0.  0.
        -13    1    4    4    0    0 -0.41548537464E+02 -0.12908083137E+02  0.10614374070E+03  0.11471439869E+03  0.00000000000E+00 0.  1.
         14    1    4    4    0    0 -0.22988452632E+02  0.52171492251E+02  0.42569415186E+02  0.71151167716E+02  0.00000000000E+00 0. -1.
        -11    1    3    3    0    0  0.97994026134E+02 -0.72926934442E+02  0.52411757460E+01  0.12226461814E+03  0.00000000000E+00 0. -1.
         11    1    3    3    0    0 -0.20356288618E+02 -0.55091293083E+00 -0.66613227022E+01  0.21425573773E+02  0.00000000000E+00 0.  1.
         21    1    1    2  503  502 -0.61101639558E+02 -0.13163491540E+02 -0.12037443689E+03  0.13563440907E+03  0.00000000000E+00 0. -1.
          1    1    1    2  501    0  0.48000892138E+02  0.47377929799E+02 -0.32645766596E+03  0.33335170847E+03  0.00000000000E+00 0. -1.
<scales pt_clust_5="13000.00000" pt_clust_6="13000.00000" pt_clust_7="13000.00000" pt_clust_8="13000.00000" pt_clust_9="62.50350" pt_clust_10="37.06384"></scales>
<clustering>
<clus scale="   62.504">  2  9  1 -1</clus>
<clus scale="   37.064">  1 10  2 -1</clus>
<clus scale="   81.999">  5  6 -1 -1</clus>
<clus scale="   96.012">  7  8 -1 -1</clus>
<clus scale="  124.418">  1  5  2 -1</clus>
<clus scale="   37.064">  1  5  2 -1</clus>
</clustering>
</event>
<event>
10    4  0.2857708E-005  0.1467577E+03  0.7546771E-02  0.1211343E+00
          2   -1    0    0  503    0 -0.00000000000E+00  0.00000000000E+00  0.32984398880E+03  0.32984398880E+03  0.00000000000E+00 0. -1.
         21   -1    0    0  501  502  0.00000000000E+00 -0.00000000000E+00 -0.26436662748E+03  0.26436662748E+03  0.00000000000E+00 0. -1.
         23    2    1    2    0    0  0.97785262582E+02  0.12989417805E+02 -0.82982870970E+02  0.15608386005E+03  0.88007567518E+02 0.  0.
         24    2    1    2    0    0  0.26035941071E+02 -0.12536037945E+03 -0.55195863404E+02  0.16189989740E+03  0.82291545595E+02 0.  0.
        -13    1    4    4    0    0 -0.40133071886E+01 -0.11636012304E+03 -0.58605099133E+02  0.13034700807E+03  0.00000000000E+00 0.  1.
         14    1    4    4    0    0  0.30049248260E+02 -0.90002564088E+01  0.34092357292E+01  0.31552889324E+02  0.00000000000E+00 0. -1.
        -13    1    3    3    0    0  0.52881325589E+01  0.19980531830E+02  0.11520400124E+02  0.23662324847E+02  0.00000000000E+00 0.  1.
         13    1    3    3    0    0  0.92497130023E+02 -0.69911140253E+01 -0.94503271094E+02  0.13242153520E+03  0.00000000000E+00 0. -1.
         21    1    1    2  503  502 -0.45313693942E+02  0.23355581046E+02  0.12182753370E+03  0.13206347714E+03  0.00000000000E+00 0. -1.
          1    1    1    2  501    0 -0.78507509712E+02  0.89015380602E+02  0.81828561985E+02  0.14416338169E+03  0.00000000000E+00 0. -1.
<scales pt_clust_5="13000.00000" pt_clust_6="13000.00000" pt_clust_7="13000.00000" pt_clust_8="13000.00000" pt_clust_9="50.97856" pt_clust_10="121.51513"></scales>
<clustering>
<clus scale="   50.979">  1  9  2 -1</clus>
<clus scale="   82.292">  5  6 -1 -1</clus>
<clus scale="   88.008">  7  8 -1 -1</clus>
<clus scale="  126.780">  1  7  2 -1</clus>
<clus scale="  121.515">  2 10  1 -1</clus>
<clus scale="  121.515">  2  5  1 -1</clus>
</clustering>
</event>
<event>
10    4  0.2857708E-005  0.1051852E+03  0.7546771E-02  0.1274053E+00
          2   -1    0    0  503    0 -0.00000000000E+00  0.00000000000E+00  0.10017298715E+04  0.10017298715E+04  0.00000000000E+00 0. -1.
         21   -1    0    0  501  502  0.00000000000E+00 -0.00000000000E+00 -0.40401093211E+02  0.40401093211E+02  0.00000000000E+00 0.  1.
         24    2    1    2    0    0  0.26275597170E+02 -0.54947771291E+02  0.48897631004E+03  0.49965620988E+03  0.82757668608E+02 0.  0.
         23    2    1    2    0    0 -0.97417798058E+02 -0.80899569269E+01  0.16797597069E+03  0.21519749854E+03  0.92403256792E+02 0.  0.
        -11    1    3    3    0    0 -0.27425879880E+02 -0.33862002654E+02  0.16944621094E+03  0.17495951678E+03  0.00000000000E+00 0.  1.
         12    1    3    3    0    0  0.53701477051E+02 -0.21085768637E+02  0.31953009910E+03  0.32469669309E+03  0.00000000000E+00 0. -1.
        -13    1    4    4    0    0 -0.15606329314E+02 -0.35282312197E+02  0.18836131207E+02  0.42932492444E+02  0.00000000000E+00 0. -1.
         13    1    4    4    0    0 -0.81811468744E+02  0.27192355270E+02  0.14913983948E+03  0.17226500609E+03  0.00000000000E+00 0.  1.
         21    1    1    2  503  502 -0.65610997483E+01  0.20732248412E+02  0.12929901226E+03  0.13111486844E+03  0.00000000000E+00 0.  1.
          1    1    1    2  501    0  0.77703300636E+02  0.42305479806E+02  0.17507748531E+03  0.19616238786E+03  0.00000000000E+00 0. -1.
<scales pt_clust_5="13000.00000" pt_clust_6="13000.00000" pt_clust_7="13000.00000" pt_clust_8="13000.00000" pt_clust_9="21.74567" pt_clust_10="89.47319"></scales>
<clustering>
<clus scale="   21.746">  1  9  2 -1</clus>
<clus scale="   82.758">  5  6 -1 -1</clus>
<clus scale="   89.473">  2 10  1 -1</clus>
<clus scale="   92.403">  7  8 -1 -1</clus>
<clus scale="   96.821">  1  5  2 -1</clus>
<clus scale="   89.473">  2  5  1 -1</clus>
</clustering>
</event>
<event>
10    4  0.2857708E-005  0.1601050E+03  0.7546771E-02  0.1218789E+00
          2   -1    0    0  503    0 -0.00000000000E+00  0.00000000000E+00  0.58285384363E+03  0.58285384363E+03  0.00000000000E+00 0. -1.
         21   -1    0    0  501  502  0.00000000000E+00 -0.00000000000E+00 -0.12842604431E+03  0.12842604431E+03  0.00000000000E+00 0. -1.
         24    2    1    2    0    0 -0.81138435822E+01  0.22178065959E+01  0.68066418697E+02  0.10765193375E+03  0.82976794122E+02 0.  0.
         23    2    1    2    0    0 -0.29060860042E+02 -0.14959897449E+03  0.20205953336E+03  0.26859585845E+03  0.89951617002E+02 0.  0.
        -11    1    3    3    0    0 -0.40908449418E+02 -0.19950442750E+01  0.12201946519E+02  0.42736037887E+02  0.00000000000E+00 0.  1.
         12    1    3    3    0    0  0.32794605836E+02  0.42128508709E+01  0.55864472178E+02  0.64915895866E+02  0.00000000000E+00 0. -1.
        -11    1    4    4    0    0 -0.50585383813E+02 -0.14242940592E+03  0.19036577533E+03  0.24307230435E+03  0.00000000000E+00 0. -1.
         11    1    4    4    0    0  0.21524523771E+02 -0.71695685740E+01  0.11693758028E+02  0.25523554101E+02  0.00000000000E+00 0.  1.
         21    1    1    2  503  502  0.10399719986E+03  0.83475593842E+02  0.20086126500E+03  0.24109923294E+03  0.00000000000E+00 0.  1.
          1    1    1    2  501    0 -0.66822496235E+02  0.63905574055E+02 -0.16559417738E+02  0.93932862802E+02  0.00000000000E+00 0. -1.
<scales pt_clust_5="13000.00000" pt_clust_6="13000.00000" pt_clust_7="13000.00000" pt_clust_8="13000.00000" pt_clust_9="132.44740" pt_clust_10="93.04034"></scales>
<clustering>
<clus scale="   82.977">  5  6 -1 -1</clus>
<clus scale="   83.402">  1  5  2 -1</clus>
<clus scale="   89.952">  7  8 -1 -1</clus>
<clus scale="   93.040">  2 10  1 -1</clus>
<clus scale="  132.447">  1  9  2 -1</clus>
<clus scale="   93.040">  2  5  1 -1</clus>
</clustering>
</event>
<event>
10    4  0.2857708E-005  0.1705350E+03  0.7546771E-02  0.1180162E+00
          2   -1    0    0  503    0 -0.00000000000E+00  0.00000000000E+00  0.41160772773E+03  0.41160772773E+03  0.00000000000E+00 0. -1.
         21   -1    0    0  501  502  0.00000000000E+00 -0.00000000000E+00 -0.37762321491E+03  0.37762321491E+03  0.00000000000E+00 0. -1.
         23    2    1    2    0    0 -0.15381114824E+03 -0.13954976900E+02  0.22349000410E+03  0.28964680165E+03  0.10047326546E+03 0.  0.
         24    2    1    2    0    0  0.13642639788E+03  0.47381137406E+02 -0.29474716001E+03  0.33808171931E+03  0.81032255161E+02 0.  0.
        -13    1    4    4    0    0  0.20609383490E+02 -0.66724710073E+01 -0.11795949660E+03  0.11993211161E+03  0.00000000000E+00 0.  1.
         14    1    4    4    0    0  0.11581701439E+03  0.54053608413E+02 -0.17678766340E+03  0.21814960769E+03  0.00000000000E+00 0. -1.
        -13    1    3    3    0    0 -0.77399062205E+02 -0.50654257842E+02  0.76810164363E+02  0.12023422981E+03  0.00000000000E+00 0.  1.
         13    1    3    3    0    0 -0.76412086036E+02  0.36699280942E+02  0.14667983974E+03  0.16941257185E+03  0.00000000000E+00 0. -1.
         21    1    1    2  503  502  0.18852078213E+02  0.78245480369E+01  0.11685400789E+03  0.11862328424E+03  0.00000000000E+00 0. -1.
          1    1    1    2  501    0 -0.14673278526E+01 -0.41250708542E+02 -0.11612339159E+02  0.42879137433E+02  0.00000000000E+00 0. -1.
<scales pt_clust_5="13000.00000" pt_clust_6="13000.00000" pt_clust_7="13000.00000" pt_clust_8="13000.00000" pt_clust_9="20.41138" pt_clust_10="40.83710"></scales>
<clustering>
<clus scale="   20.411">  1  9  2 -1</clus>
<clus scale="   40.837">  2 10  1 -1</clus>
<clus scale="   81.032">  5  6 -1 -1</clus>
<clus scale="  100.473">  7  8 -1 -1</clus>
<clus scale="  159.855">  2  5  1 -1</clus>
<clus scale="   40.837">  2  5  1 -1</clus>
</clustering>
</event>
<event>
10    4  0.2857708E-005  0.9176668E+02  0.7546771E-02  0.1299649E+00
         21   -1    0    0  501  502  0.00000000000E+00  0.00000000000E+00  0.21999709146E+03  0.21999709146E+03  0.00000000000E+00 0. -1.
          2   -1    0    0  503    0 -0.00000000000E+00 -0.00000000000E+00 -0.17812625095E+03  0.17812625095E+03  0.00000000000E+00 0. -1.
         23    2    1    2    0    0  0.11662097336E+02 -0.81868039368E+01  0.86793796574E+01  0.91390512068E+02  0.89854692654E+02 0.  0.
         24    2    1    2    0    0  0.19478315197E+02 -0.75796718245E+02  0.12470066880E+03  0.17157352700E+03  0.88106021975E+02 0.  0.
        -13    1    4    4    0    0 -0.29653035623E+02 -0.74340354883E+01  0.52096682793E+02  0.60403905199E+02  0.00000000000E+00 0.  1.
         14    1    4    4    0    0  0.49131350820E+02 -0.68362682757E+02  0.72603986003E+02  0.11116962180E+03  0.00000000000E+00 0. -1.
        -13    1    3    3    0    0  0.23028404910E+01 -0.31274645210E+02 -0.31285503980E+02  0.44296605588E+02  0.00000000000E+00 0.  1.
         13    1    3    3    0    0  0.93592568448E+01  0.23087841274E+02  0.39964883638E+02  0.47093906480E+02  0.00000000000E+00 0. -1.
         21    1    1    2  503  502 -0.56505067260E+01  0.27010198327E+02 -0.43182047454E+01  0.27930734544E+02  0.00000000000E+00 0. -1.
          1    1    1    2  501    0 -0.25489905807E+02  0.56973323854E+02 -0.87191003195E+02  0.10722856880E+03  0.00000000000E+00 0. -1.
<scales pt_clust_5="13000.00000" pt_clust_6="13000.00000" pt_clust_7="13000.00000" pt_clust_8="13000.00000" pt_clust_9="27.59491" pt_clust_10="78.67359"></scales>
<clustering>
<clus scale="   27.595">  2  9  1 -1</clus>
<clus scale="   78.674">  1 10  2 -1</clus>
<clus scale="   88.106">  5  6 -1 -1</clus>
<clus scale="   89.855">  7  8 -1 -1</clus>
<clus scale="   90.055">  1  5  2 -1</clus>
<clus scale="   78.674">  1  5  2 -1</clus>
</clustering>
</event>
<event>
10    4  0.2857708E-005  0.9513380E+02  0.7546771E-02  0.1295732E+00
         -1   -1    0    0    0  501 -0.00000000000E+00  0.00000000000E+00  0.57834513846E+02  0.57834513846E+02  0.00000000000E+00 0.  1.
         21   -1    0    0  503  502  0.00000000000E+00 -0.00000000000E+00 -0.35458868371E+03  0.35458868371E+03  0.00000000000E+00 0.  1.
         24    2    1    2    0    0  0.20216818572E+02 -0.16357096195E+02 -0.10951946335E+03  0.13795944109E+03  0.79762272937E+02 0.  0.
         23    2    1    2    0    0 -0.17319632089E+02  0.44610230851E+02 -0.12410468078E+03  0.15985140231E+03  0.88659216525E+02 0.  0.
        -13    1    3    3    0    0  0.25218190338E+02  0.86650354616E+01 -0.12186636897E+01  0.26693165879E+02  0.00000000000E+00 0.  1.
         14    1    3    3    0    0 -0.50013717652E+01 -0.25022131657E+02 -0.10830079966E+03  0.11126627521E+03  0.00000000000E+00 0. -1.
        -11    1    4    4    0    0 -0.36388309527E+02 -0.12761690892E+02 -0.34399950870E+02  0.51675201446E+02  0.00000000000E+00 0. -1.
         11    1    4    4    0    0  0.19068677438E+02  0.57371921744E+02 -0.89704729914E+02  0.10817620086E+03  0.00000000000E+00 0.  1.
         21    1    1    2  503  501  0.46598866179E+01  0.21899272099E+02  0.10878609426E+02  0.24892504992E+02  0.00000000000E+00 0.  1.
         -2    1    1    2    0  502 -0.75570731013E+01 -0.50152406754E+02 -0.74008635163E+02  0.89719849174E+02  0.00000000000E+00 0.  1.
<scales pt_clust_5="13000.00000" pt_clust_6="13000.00000" pt_clust_7="13000.00000" pt_clust_8="13000.00000" pt_clust_9="22.38957" pt_clust_10="46.32456"></scales>
<clustering>
<clus scale="   22.390">  1  9  2 -1</clus>
<clus scale="   46.325">  2 10  1 -1</clus>
<clus scale="   79.762">  5  6 -1 -1</clus>
<clus scale="   86.902">  1  5  2 -1</clus>
<clus scale="   88.659">  7  8 -1 -1</clus>
<clus scale="   46.325">  2  5  1 -1</clus>
</clustering>
</event>
<event>
10    4  0.2857708E-005  0.2770481E+03  0.7546771E-02  0.1097884E+00
         21   -1    0    0  501  502  0.00000000000E+00  0.00000000000E+00  0.40646161256E+03  0.40646161256E+03  0.00000000000E+00 0. -1.
          2   -1    0    0  503    0 -0.00000000000E+00 -0.00000000000E+00 -0.35595483920E+03  0.35595483920E+03  0.00000000000E+00 0. -1.
         24    2    1    2    0    0 -0.23665274880E+02  0.22386554686E+03  0.89734145225E+02  0.25485463181E+03  0.78884968341E+02 0.  0.
         23    2    1    2    0    0 -0.24164389284E+02 -0.29123610317E+03 -0.12543754786E+02  0.30665048069E+03  0.92058601042E+02 0.  0.
        -13    1    3    3    0    0 -0.10920827908E+01  0.15642689618E+03  0.24475055677E+02  0.15833380828E+03  0.00000000000E+00 0.  1.
         14    1    3    3    0    0 -0.22573192089E+02  0.67438650675E+02  0.65259089549E+02  0.96520823529E+02  0.00000000000E+00 0. -1.
        -11    1    4    4    0    0  0.25615601525E+02 -0.11384861540E+03 -0.33019098273E+02  0.12127624301E+03  0.00000000000E+00 0.  1.
         11    1    4    4    0    0 -0.49779990808E+02 -0.17738748777E+03  0.20475343487E+02  0.18537423768E+03  0.00000000000E+00 0. -1.
         21    1    1    2  503  502 -0.37792066766E+02 -0.37625668328E+02 -0.37201227914E+02  0.65022016163E+02  0.00000000000E+00 0. -1.
          1    1    1    2  501    0  0.85621730930E+02  0.10499622464E+03  0.10517610838E+02  0.13588932310E+03  0.00000000000E+00 0. -1.
<scales pt_clust_5="13000.00000" pt_clust_6="13000.00000" pt_clust_7="13000.00000" pt_clust_8="13000.00000" pt_clust_9="53.32852" pt_clust_10="124.57948"></scales>
<clustering>
<clus scale="   53.329">  2  9  1 -1</clus>
<clus scale="   78.885">  5  6 -1 -1</clus>
<clus scale="   92.059">  7  8 -1 -1</clus>
<clus scale="  124.579">  1 10  2 -1</clus>
<clus scale="  272.954">  2  5  1 -1</clus>
<clus scale="  124.579">  1  5  2 -1</clus>
</clustering>
</event>
<event>
10    4  0.2857708E-005  0.1199194E+03  0.7546771E-02  0.1245291E+00
         21   -1    0    0  501  502  0.00000000000E+00  0.00000000000E+00  0.18704923313E+03  0.18704923313E+03  0.00000000000E+00 0.  1.
          2   -1    0    0  503    0 -0.00000000000E+00 -0.00000000000E+00 -0.24776322343E+03  0.24776322343E+03  0.00000000000E+00 0. -1.
         23    2    1    2    0    0 -0.27895400426E+02 -0.82464541179E+02 -0.60170197066E+02  0.14034491538E+03  0.92182909167E+02 0.  0.
         24    2    1    2    0    0  0.54194470706E+02  0.60373119120E+02  0.77467638865E+02  0.14118760439E+03  0.85736517283E+02 0.  0.
        -13    1    4    4    0    0 -0.21258336447E+02  0.19962001922E+02  0.35250555115E+02  0.45749317209E+02  0.00000000000E+00 0.  1.
         14    1    4    4    0    0  0.75452807152E+02  0.40411117198E+02  0.42217083750E+02  0.95438287184E+02  0.00000000000E+00 0. -1.
        -13    1    3    3    0    0 -0.30132850510E+02 -0.54815281670E+02 -0.83339160502E+02  0.10420230063E+03  0.00000000000E+00 0. -1.
         13    1    3    3    0    0  0.22374500844E+01 -0.27649259510E+02  0.23168963435E+02  0.36142614750E+02  0.00000000000E+00 0.  1.
         21    1    1    2  503  502 -0.35819302054E+02  0.42582283339E+02 -0.10454412358E+03  0.11843034674E+03  0.00000000000E+00 0.  1.
          1    1    1    2  501    0  0.95202317738E+01 -0.20490861280E+02  0.26532691474E+02  0.34849590039E+02  0.00000000000E+00 0. -1.
<scales pt_clust_5="13000.00000" pt_clust_6="13000.00000" pt_clust_7="13000.00000" pt_clust_8="13000.00000" pt_clust_9="54.67635" pt_clust_10="22.59447"></scales>
<clustering>
<clus scale="   22.594">  1 10  2 -1</clus>
<clus scale="   54.676">  2  9  1 -1</clus>
<clus scale="   85.737">  5  6 -1 -1</clus>
<clus scale="   92.183">  7  8 -1 -1</clus>
<clus scale="  115.038">  1  5  2 -1</clus>
<clus scale="   22.594">  1  5  2 -1</clus>
</clustering>
</event>
<event>
10    4  0.2857708E-005  0.1008827E+03  0.7546771E-02  0.1282506E+00
         21   -1    0    0  501  502  0.00000000000E+00  0.00000000000E+00  0.14036684747E+03  0.14036684747E+03  0.00000000000E+00 0. -1.
          2   -1    0    0  503    0 -0.00000000000E+00 -0.00000000000E+00 -0.50944040365E+03  0.50944040365E+03  0.00000000000E+00 0. -1.
         23    2    1    2    0    0 -0.45319451195E+01 -0.40273961757E+02 -0.20266335919E+03  0.22502652241E+03  0.89005438629E+02 0.  0.
         24    2    1    2    0    0 -0.71630492822E+02 -0.24054964892E+02 -0.44531637313E+02  0.11899624626E+03  0.80420588558E+02 0.  0.
        -11    1    4    4    0    0 -0.54553710400E+02  0.21351444733E+02 -0.38522612115E+02  0.70114072444E+02  0.00000000000E+00 0.  1.
         12    1    4    4    0    0 -0.17076782422E+02 -0.45406409625E+02 -0.60090251984E+01  0.48882173814E+02  0.00000000000E+00 0. -1.
        -11    1    3    3    0    0 -0.39237469116E+02 -0.45531026799E+02 -0.10167817326E+03  0.11811479290E+03  0.00000000000E+00 0.  1.
         11    1    3    3    0    0  0.34705523996E+02  0.52570650421E+01 -0.10098518593E+03  0.10691172951E+03  0.00000000000E+00 0. -1.
         21    1    1    2  503  502  0.51778696510E+02 -0.21180264458E+02 -0.18724615744E+03  0.19542456470E+03  0.00000000000E+00 0. -1.
          1    1    1    2  501    0  0.24383741432E+02  0.85509191107E+02  0.65367597761E+02  0.11035991776E+03  0.00000000000E+00 0. -1.
<scales pt_clust_5="13000.00000" pt_clust_6="13000.00000" pt_clust_7="13000.00000" pt_clust_8="13000.00000" pt_clust_9="55.94316" pt_clust_10="88.56893"></scales>
<clustering>
<clus scale="   55.943">  2  9  1 -1</clus>
<clus scale="   80.421">  5  6 -1 -1</clus>
<clus scale="   88.569">  1 10  2 -1</clus>
<clus scale="   89.005">  7  8 -1 -1</clus>
<clus scale="   93.396">  1  5  2 -1</clus>
<clus scale="   88.569">  1  5  2 -1</clus>
</clustering>
</event>
<event>
10    4  0.2857708E-005  0.3912447E+03  0.7546771E-02  0.1092225E+00
         21   -1    0    0  501  502  0.00000000000E+00  0.00000000000E+00  0.12140901337E+03  0.12140901337E+03  0.00000000000E+00 0.  1.
          2   -1    0    0  503    0 -0.00000000000E+00 -0.00000000000E+00 -0.20385208877E+04  0.20385208877E+04  0.00000000000E+00 0. -1.
         23    2    1    2    0    0 -0.63010415605E+02  0.59909838560E+02 -0.14010100530E+03  0.18584677857E+03  0.85739326955E+02 0.  0.
         24    2    1    2    0    0  0.39945752512E+03 -0.92528958187E+01 -0.84012530040E+03  0.93382118227E+03  0.80991046550E+02 0.  0.
        -13    1    4    4    0    0  0.32696387517E+03 -0.31185613598E+02 -0.63026995846E+03  0.71071663742E+03  0.00000000000E+00 0.  1.
         14    1    4    4    0    0  0.72493649944E+02  0.21932717779E+02 -0.20985534194E+03  0.22310454485E+03  0.00000000000E+00 0. -1.
        -13    1    3    3    0    0 -0.73127151805E+02  0.14860125786E+02 -0.99427191376E+02  0.12431480223E+03  0.00000000000E+00 0. -1.
         13    1    3    3    0    0  0.10116736201E+02  0.45049712773E+02 -0.40673813923E+02  0.61531976332E+02  0.00000000000E+00 0.  1.
         21    1    1    2  503  502  0.29837865376E+02 -0.67622952163E+02 -0.83968321943E+02  0.11186528040E+03  0.00000000000E+00 0. -1.
          1    1    1    2  501    0 -0.36628497489E+03  0.16966009422E+02 -0.85291724664E+03  0.92839665980E+03  0.00000000000E+00 0. -1.
<scales pt_clust_5="13000.00000" pt_clust_6="13000.00000" pt_clust_7="13000.00000" pt_clust_8="13000.00000" pt_clust_9="73.91320" pt_clust_10="382.77000"></scales>
<clustering>
<clus scale="   73.913">  1  9  2 -1</clus>
<clus scale="   80.991">  5  6 -1 -1</clus>
<clus scale="   85.739">  7  8 -1 -1</clus>
<clus scale="  112.398">  2  7  1 -1</clus>
<clus scale="  382.770">  1 10  2 -1</clus>
<clus scale="   73.913">  1  5  2 -1</clus>
</clustering>
</event>
<event>
10    4  0.2857708E-005  0.4951834E+03  0.7546771E-02  0.1015172E+00
         -3   -1    0    0    0  501 -0.00000000000E+00  0.00000000000E+00  0.61968106037E+03  0.61968106037E+03  0.00000000000E+00 0.  1.
         21   -1    0    0  503  502  0.00000000000E+00 -0.00000000000E+00 -0.12448333408E+04  0.12448333408E+04  0.00000000000E+00 0.  1.
         24    2    1    2    0    0  0.47190045761E+03  0.14185146034E+03  0.17270675933E+03  0.52828671484E+03  0.80295390075E+02 0.  0.
         23    2    1    2    0    0 -0.45704928033E+03  0.44889977453E+02 -0.92325698717E+03  0.10352164402E+04  0.91435545372E+02 0.  0.
        -11    1    3    3    0    0  0.46357736456E+03  0.14358640869E+03  0.15637868744E+03  0.50987775357E+03  0.00000000000E+00 0.  1.
         12    1    3    3    0    0  0.83230930444E+01 -0.17349483478E+01  0.16328071889E+02  0.18408961274E+02  0.00000000000E+00 0. -1.
        -13    1    4    4    0    0 -0.95680912771E+02 -0.83129438548E+01 -0.12743128299E+03  0.15957027915E+03  0.00000000000E+00 0. -1.
         13    1    4    4    0    0 -0.36136836756E+03  0.53202921308E+02 -0.79582570418E+03  0.87564616104E+03  0.00000000000E+00 0.  1.
         21    1    1    2  503  501  0.26609975660E+02 -0.16988062648E+03  0.16714765922E+03  0.23980379071E+03  0.00000000000E+00 0.  1.
         -4    1    1    2    0  502 -0.41461152940E+02 -0.16860811313E+02 -0.41749711780E+02  0.61207455387E+02  0.00000000000E+00 0.  1.
<scales pt_clust_5="13000.00000" pt_clust_6="13000.00000" pt_clust_7="13000.00000" pt_clust_8="13000.00000" pt_clust_9="172.26896" pt_clust_10="44.75840"></scales>
<clustering>
<clus scale="   44.758">  2 10  1 -1</clus>
<clus scale="   80.295">  5  6 -1 -1</clus>
<clus scale="   91.436">  7  8 -1 -1</clus>
<clus scale="  172.269">  1  9  2 -1</clus>
<clus scale="  493.248">  1  5  2 -1</clus>
<clus scale="   44.758">  2  5  1 -1</clus>
</clustering>
</event>
<event>
10    4  0.2857708E-005  0.1047439E+03  0.7546771E-02  0.1275291E+00
         21   -1    0    0  501  502  0.00000000000E+00  0.00000000000E+00  0.61634231664E+02  0.61634231664E+02  0.00000000000E+00 0. -1.
          2   -1    0    0  503    0 -0.00000000000E+00 -0.00000000000E+00 -0.13104946583E+04  0.13104946583E+04  0.00000000000E+00 0. -1.
         23    2    1    2    0    0  0.98320416757E+02 -0.27217178651E+02 -0.61419777277E+03  0.62947123587E+03  0.92668514272E+02 0.  0.
         24    2    1    2    0    0 -0.35694958251E+02  0.92037059763E+02 -0.86529476440E+02  0.15472664372E+03  0.81902585860E+02 0.  0.
        -13    1    4    4    0    0 -0.34771292604E+02  0.11422246492E+02 -0.59200615898E+02  0.69600455652E+02  0.00000000000E+00 0.  1.
         14    1    4    4    0    0 -0.92366564666E+00  0.80614813271E+02 -0.27328860542E+02  0.85126188071E+02  0.00000000000E+00 0. -1.
        -11    1    3    3    0    0  0.97394482283E+02 -0.36497688754E+01 -0.57871639371E+03  0.58686597306E+03  0.00000000000E+00 0.  1.
         11    1    3    3    0    0  0.92593447414E+00 -0.23567409775E+02 -0.35481379067E+02  0.42605262804E+02  0.00000000000E+00 0. -1.
         21    1    1    2  503  502 -0.81608901310E+02  0.38900783915E+02 -0.37039820683E+03  0.38127170809E+03  0.00000000000E+00 0. -1.
          1    1    1    2  501    0  0.18983442804E+02 -0.10372066503E+03 -0.17773497063E+03  0.20665930233E+03  0.00000000000E+00 0. -1.
<scales pt_clust_5="13000.00000" pt_clust_6="13000.00000" pt_clust_7="13000.00000" pt_clust_8="13000.00000" pt_clust_9="90.40622" pt_clust_10="95.74669"></scales>
<clustering>
<clus scale="   81.903">  5  6 -1 -1</clus>
<clus scale="   90.406">  2  9  1 -1</clus>
<clus scale="   92.669">  7  8 -1 -1</clus>
<clus scale="   95.747">  1 10  2 -1</clus>
<clus scale="   95.747">  1  5  2 -1</clus>
<clus scale="   95.747">  1  5  2 -1</clus>
</clustering>
</event>
<event>
10    4  0.2857708E-005  0.9790059E+02  0.7546771E-02  0.1289508E+00
          2   -1    0    0  503    0 -0.00000000000E+00  0.00000000000E+00  0.80071887499E+03  0.80071887499E+03  0.00000000000E+00 0. -1.
         21   -1    0    0  501  502  0.00000000000E+00 -0.00000000000E+00 -0.55289318613E+02  0.55289318613E+02  0.00000000000E+00 0.  1.
         23    2    1    2    0    0 -0.38485857809E+02  0.54607179150E+01  0.31540828531E+03  0.33051819285E+03  0.90823502878E+02 0.  0.
         24    2    1    2    0    0 -0.15199537734E+02 -0.97993773647E+01  0.67201051206E+02  0.10736789017E+03  0.81760802416E+02 0.  0.
        -13    1    4    4    0    0  0.14363200278E+02 -0.35313755842E+02  0.12424095821E+02  0.40096396731E+02  0.00000000000E+00 0.  1.
         14    1    4    4    0    0 -0.29562738011E+02  0.25514378477E+02  0.54776955385E+02  0.67271493436E+02  0.00000000000E+00 0. -1.
        -13    1    3    3    0    0  0.18913256846E+02 -0.22617047954E+02  0.55212699861E+02  0.62591408105E+02  0.00000000000E+00 0.  1.
         13    1    3    3    0    0 -0.57399114655E+02  0.28077765869E+02  0.26019558545E+03  0.26792678475E+03  0.00000000000E+00 0. -1.
         21    1    1    2  503  502 -0.21450901133E+02  0.46994215066E+02  0.31532447288E+03  0.31952796530E+03  0.00000000000E+00 0. -1.
          1    1    1    2  501    0  0.75136296675E+02 -0.42655555616E+02  0.47495746980E+02  0.98594145283E+02  0.00000000000E+00 0. -1.
<scales pt_clust_5="13000.00000" pt_clust_6="13000.00000" pt_clust_7="13000.00000" pt_clust_8="13000.00000" pt_clust_9="51.65847" pt_clust_10="80.20462"></scales>
<clustering>
<clus scale="   51.658">  1  9  2 -1</clus>
<clus scale="   80.205">  2 10  1 -1</clus>
<clus scale="   81.761">  5  6 -1 -1</clus>
<clus scale="   89.557">  2  5  1 -1</clus>
<clus scale="   90.824">  7  8 -1 -1</clus>
<clus scale="   80.205">  2  5  1 -1</clus>
</clustering>
</event>
<event>
10    4  0.2857708E-005  0.1198789E+03  0.7546771E-02  0.1247250E+00
         21   -1    0    0  501  502  0.00000000000E+00  0.00000000000E+00  0.15190220226E+03  0.15190220226E+03  0.00000000000E+00 0.  1.
          2   -1    0    0  503    0 -0.00000000000E+00 -0.00000000000E+00 -0.53228192550E+03  0.53228192550E+03  0.00000000000E+00 0. -1.
         24    2    1    2    0    0  0.65616493502E+02  0.28586163839E+02 -0.35574853427E+03  0.37155336567E+03  0.79826004042E+02 0.  0.
         23    2    1    2    0    0 -0.95501066752E+02  0.55498297657E+01  0.10036608728E+03  0.16646747183E+03  0.92123902122E+02 0.  0.
        -11    1    3    3    0    0  0.32929339315E+02  0.31429278604E+02 -0.67326853543E+02  0.81271435015E+02  0.00000000000E+00 0.  1.
         12    1    3    3    0    0  0.32687154186E+02 -0.28431147654E+01 -0.28842168073E+03  0.29028193066E+03  0.00000000000E+00 0. -1.
        -13    1    4    4    0    0 -0.86593519102E+02  0.36793990986E+02  0.50040638511E+02  0.10656594590E+03  0.00000000000E+00 0. -1.
         13    1    4    4    0    0 -0.89075476497E+01 -0.31244161221E+02  0.50325448768E+02  0.59901525934E+02  0.00000000000E+00 0.  1.
         21    1    1    2  503  502  0.10732244044E+02 -0.25953486874E+02 -0.12191661472E+03  0.12510965385E+03  0.00000000000E+00 0. -1.
          1    1    1    2  501    0  0.19152329206E+02 -0.81825067310E+01 -0.30806615238E+01  0.21053636405E+02  0.00000000000E+00 0. -1.
<scales pt_clust_5="13000.00000" pt_clust_6="13000.00000" pt_clust_7="13000.00000" pt_clust_8="13000.00000" pt_clust_9="28.25165" pt_clust_10="20.82703"></scales>
<clustering>
<clus scale="   20.827">  1 10  2 -1</clus>
<clus scale="   28.252">  2  9  1 -1</clus>
<clus scale="   79.826">  5  6 -1 -1</clus>
<clus scale="   92.124">  7  8 -1 -1</clus>
<clus scale="  110.708">  2  5  1 -1</clus>
<clus scale="   20.827">  1  5  2 -1</clus>
</clustering>
</event>
<event>
10    4  0.2857708E-005  0.9534017E+02  0.7546771E-02  0.1296220E+00
         21   -1    0    0  503  502  0.00000000000E+00  0.00000000000E+00  0.15449284892E+03  0.15449284892E+03  0.00000000000E+00 0.  1.
         -1   -1    0    0    0  501 -0.00000000000E+00 -0.00000000000E+00 -0.54891650052E+03  0.54891650052E+03  0.00000000000E+00 0.  1.
         23    2    1    2    0    0  0.19493111422E+01  0.29724870189E+02 -0.35905239526E+03  0.37150601767E+03  0.90613083475E+02 0.  0.
         24    2    1    2    0    0  0.34310532697E+01 -0.35801175699E+01 -0.51385038765E+02  0.95429439565E+02  0.80260615239E+02 0.  0.
        -13    1    4    4    0    0  0.60249790662E+01  0.35480288020E+02 -0.41739798418E+02  0.55112267080E+02  0.00000000000E+00 0.  1.
         14    1    4    4    0    0 -0.25939257965E+01 -0.39060405590E+02 -0.96452403472E+01  0.40317172485E+02  0.00000000000E+00 0. -1.
        -11    1    3    3    0    0 -0.43657683246E+02  0.75628816203E+01 -0.15123176355E+03  0.15758882191E+03  0.00000000000E+00 0.  1.
         11    1    3    3    0    0  0.45606994388E+02  0.22161988569E+02 -0.20782063171E+03  0.21391719576E+03  0.00000000000E+00 0. -1.
         21    1    1    2  503  501 -0.23637226168E+02  0.70467347584E+01 -0.10593938254E+03  0.10877282613E+03  0.00000000000E+00 0.  1.
         -2    1    1    2    0  502  0.18256861756E+02 -0.33191487377E+02  0.12195316495E+03  0.12770106608E+03  0.00000000000E+00 0.  1.
<scales pt_clust_5="13000.00000" pt_clust_6="13000.00000" pt_clust_7="13000.00000" pt_clust_8="13000.00000" pt_clust_9="24.66526" pt_clust_10="37.76707"></scales>
<clustering>
<clus scale="   24.665">  2  9  1 -1</clus>
<clus scale="   37.767">  1 10  2 -1</clus>
<clus scale="   80.261">  5  6 -1 -1</clus>
<clus scale="   85.562">  1  5  2 -1</clus>
<clus scale="   90.613">  7  8 -1 -1</clus>
<clus scale="   37.767">  1  5  2 -1</clus>
</clustering>
</event>
<event>
10    4  0.2857708E-005  0.1010879E+03  0.7546771E-02  0.1282842E+00
          2   -1    0    0  503    0 -0.00000000000E+00  0.00000000000E+00  0.20062699514E+03  0.20062699514E+03  0.00000000000E+00 0. -1.
         21   -1    0    0  501  502  0.00000000000E+00 -0.00000000000E+00 -0.29816645937E+03  0.29816645937E+03  0.00000000000E+00 0. -1.
         24    2    1    2    0    0  0.10489650185E+02 -0.46338753922E+02  0.14429508900E+03  0.17180561125E+03  0.80242024358E+02 0.  0.
         23    2    1    2    0    0  0.12558619138E+01  0.31474996546E+02 -0.79495985294E+02  0.12434366603E+03  0.90274487020E+02 0.  0.
        -11    1    3    3    0    0  0.94363126376E+01 -0.22496554057E+02 -0.11432064264E+01  0.24422241125E+02  0.00000000000E+00 0.  1.
         12    1    3    3    0    0  0.10533375470E+01 -0.23842199864E+02  0.14543829542E+03  0.14738337013E+03  0.00000000000E+00 0. -1.
        -11    1    4    4    0    0 -0.52273972703E+01 -0.28180101823E+02 -0.56864961355E+01  0.29219515042E+02  0.00000000000E+00 0. -1.
         11    1    4    4    0    0  0.64832591841E+01  0.59655098369E+02 -0.73809489158E+02  0.95124150986E+02  0.00000000000E+00 0.  1.
         21    1    1    2  503  502  0.17200413533E+02  0.29309956939E+02  0.30505112503E+01  0.34120864883E+02  0.00000000000E+00 0.  1.
          1    1    1    2  501    0 -0.28945925632E+02 -0.14446199563E+02 -0.16538907918E+03  0.16852331235E+03  0.00000000000E+00 0. -1.
<scales pt_clust_5="13000.00000" pt_clust_6="13000.00000" pt_clust_7="13000.00000" pt_clust_8="13000.00000" pt_clust_9="30.84537" pt_clust_10="32.35057"></scales>
<clustering>
<clus scale="   32.351">  2 10  1 -1</clus>
<clus scale="   30.845">  2  9  1 -1</clus>
<clus scale="   80.242">  5  6 -1 -1</clus>
<clus scale="   90.274">  7  8 -1 -1</clus>
<clus scale="   92.239">  1  5  2 -1</clus>
<clus scale="   32.351">  2  5  1 -1</clus>
</clustering>
</event>
<event>
10    4  0.2857708E-005  0.1451506E+03  0.7546771E-02  0.1207798E+00
          2   -1    0    0  503    0 -0.00000000000E+00  0.00000000000E+00  0.33714388527E+03  0.33714388527E+03  0.00000000000E+00 0. -1.
         21   -1    0    0  501  502  0.00000000000E+00 -0.00000000000E+00 -0.10134329090E+03  0.10134329090E+03  0.00000000000E+00 0. -1.
         24    2    1    2    0    0 -0.73278545865E+02 -0.71443821127E+02  0.11179092462E+03  0.17180955588E+03  0.80915683297E+02 0.  0.
         23    2    1    2    0    0  0.66004888195E+02  0.11176325735E+03  0.42367874697E+02  0.16210772638E+03  0.87385394594E+02 0.  0.
        -11    1    3    3    0    0  0.12486491830E+02 -0.17892329387E+02  0.10365828894E+01  0.21843132404E+02  0.00000000000E+00 0.  1.
         12    1    3    3    0    0 -0.85765037695E+02 -0.53551491740E+02  0.11075434173E+03  0.14996642348E+03  0.00000000000E+00 0. -1.
        -13    1    4    4    0    0  0.14582615332E+02  0.65520169392E+02 -0.18880178715E+02  0.69728089142E+02  0.00000000000E+00 0. -1.
         13    1    4    4    0    0  0.51422272863E+02  0.46243087955E+02  0.61248053412E+02  0.92379637241E+02  0.00000000000E+00 0.  1.
         21    1    1    2  503  502 -0.19485856667E+02 -0.16781568819E+02  0.17225377016E+02  0.30952112617E+02  0.00000000000E+00 0. -1.
          1    1    1    2  501    0  0.26759514337E+02 -0.23537867400E+02  0.64416418041E+02  0.73617781293E+02  0.00000000000E+00 0. -1.
<scales pt_clust_5="13000.00000" pt_clust_6="13000.00000" pt_clust_7="13000.00000" pt_clust_8="13000.00000" pt_clust_9="25.71614" pt_clust_10="35.30582"></scales>
<clustering>
<clus scale="   25.716">  1  9  2 -1</clus>
<clus scale="   35.306">  2 10  1 -1</clus>
<clus scale="   80.916">  5  6 -1 -1</clus>
<clus scale="   87.385">  7  8 -1 -1</clus>
<clus scale="  141.350">  1  5  2 -1</clus>
<clus scale="   35.306">  2  5  1 -1</clus>
</clustering>
</event>
<event>
10    4  0.2857708E-005  0.1380844E+03  0.7546771E-02  0.1233260E+00
         21   -1    0    0  503  502  0.00000000000E+00  0.00000000000E+00  0.78013318245E+02  0.78013318245E+02  0.00000000000E+00 0.  1.
         -1   -1    0    0    0  501 -0.00000000000E+00 -0.00000000000E+00 -0.62327149099E+03  0.62327149099E+03  0.00000000000E+00 0.  1.
         23    2    1    2    0    0 -0.16976431087E+02  0.26057465795E+02 -0.16356735506E+02  0.97901505330E+02  0.91378176898E+02 0.  0.
         24    2    1    2    0    0  0.10841341230E+02 -0.11392520716E+03 -0.30708225630E+03  0.33739131009E+03  0.80230271612E+02 0.  0.
        -13    1    4    4    0    0 -0.14781774364E+02 -0.97401775536E+02 -0.27921581990E+03  0.29608627259E+03  0.00000000000E+00 0.  1.
         14    1    4    4    0    0  0.25623115594E+02 -0.16523431625E+02 -0.27866436392E+02  0.41305037497E+02  0.00000000000E+00 0. -1.
        -11    1    3    3    0    0  0.28336163088E+02  0.21602972030E+01 -0.33454645801E+02  0.43895539047E+02  0.00000000000E+00 0.  1.
         11    1    3    3    0    0 -0.45312594175E+02  0.23897168592E+02  0.17097910295E+02  0.54005966282E+02  0.00000000000E+00 0. -1.
         21    1    1    2  503  501 -0.16772360038E+02 -0.22838889941E+02 -0.78459364794E+02  0.83419415480E+02  0.00000000000E+00 0.  1.
         -2    1    1    2    0  502  0.22907449895E+02  0.11070663131E+03 -0.14335981615E+03  0.18257257834E+03  0.00000000000E+00 0.  1.
<scales pt_clust_5="13000.00000" pt_clust_6="13000.00000" pt_clust_7="13000.00000" pt_clust_8="13000.00000" pt_clust_9="28.33597" pt_clust_10="112.38504"></scales>
<clustering>
<clus scale="   28.336">  2  9  1 -1</clus>
<clus scale="   80.230">  5  6 -1 -1</clus>
<clus scale="   91.378">  7  8 -1 -1</clus>
<clus scale="   96.232">  2  7  1 -1</clus>
<clus scale="  112.385">  1 10  2 -1</clus>
<clus scale="  112.385">  1  5  2 -1</clus>
</clustering>
</event>
<event>
10    4  0.2857708E-005  0.9801923E+02  0.7546771E-02  0.1291336E+00
          4   -1    0    0  503    0 -0.00000000000E+00  0.00000000000E+00  0.16279310936E+03  0.16279310936E+03  0.00000000000E+00 0. -1.
         21   -1    0    0  501  502  0.00000000000E+00 -0.00000000000E+00 -0.49764468683E+03  0.49764468683E+03  0.00000000000E+00 0.  1.
         24    2    1    2    0    0  0.29144684563E+02 -0.48078972299E+00  0.21590672001E+02  0.87792707974E+02  0.79948475026E+02 0.  0.
         23    2    1    2    0    0 -0.26903266618E+02 -0.17065989951E+02 -0.44803302548E+03  0.45859830738E+03  0.92540703686E+02 0.  0.
        -11    1    3    3    0    0  0.56490276126E+02  0.44471449924E+01  0.93556980888E+01  0.57432199001E+02  0.00000000000E+00 0.  1.
         12    1    3    3    0    0 -0.27345591563E+02 -0.49279347154E+01  0.12234973913E+02  0.30360508973E+02  0.00000000000E+00 0. -1.
        -11    1    4    4    0    0  0.29125049334E+02  0.75218000923E+01 -0.79111529762E+02  0.84637344693E+02  0.00000000000E+00 0. -1.
         11    1    4    4    0    0 -0.56028315951E+02 -0.24587790044E+02 -0.36892149572E+03  0.37396096269E+03  0.00000000000E+00 0.  1.
         21    1    1    2  503  502 -0.12239676562E+02  0.35826925910E+02  0.83523789443E+02  0.91703880536E+02  0.00000000000E+00 0. -1.
          3    1    1    2  501    0  0.99982586173E+01 -0.18280146235E+02  0.80669865631E+01  0.22342900304E+02  0.00000000000E+00 0. -1.
<scales pt_clust_5="13000.00000" pt_clust_6="13000.00000" pt_clust_7="13000.00000" pt_clust_8="13000.00000" pt_clust_9="37.68880" pt_clust_10="20.83577"></scales>
<clustering>
<clus scale="   20.836">  2 10  1 -1</clus>
<clus scale="   37.689">  1  9  2 -1</clus>
<clus scale="   79.948">  5  6 -1 -1</clus>
<clus scale="   86.231">  1  5  2 -1</clus>
<clus scale="   92.541">  7  8 -1 -1</clus>
<clus scale="   20.836">  2  5  1 -1</clus>
</clustering>
</event>
<event>
10    4  0.2857708E-005  0.9414117E+02  0.7546771E-02  0.1301955E+00
         21   -1    0    0  501  502  0.00000000000E+00  0.00000000000E+00  0.13201870785E+03  0.13201870785E+03  0.00000000000E+00 0. -1.
          2   -1    0    0  503    0 -0.00000000000E+00 -0.00000000000E+00 -0.53356965185E+03  0.53356965185E+03  0.00000000000E+00 0. -1.
         24    2    1    2    0    0  0.20932312807E+02  0.25388205469E+02 -0.29507465156E+03  0.30726160223E+03  0.79107013096E+02 0.  0.
         23    2    1    2    0    0  0.21996259612E+02  0.45571459329E+02  0.65961121399E+02  0.12506425989E+03  0.93432361752E+02 0.  0.
        -11    1    3    3    0    0 -0.21681095019E+02 -0.63674925492E+01 -0.33941495162E+02  0.40775482050E+02  0.00000000000E+00 0.  1.
         12    1    3    3    0    0  0.42613407825E+02  0.31755698018E+02 -0.26113315639E+03  0.26648612019E+03  0.00000000000E+00 0. -1.
        -13    1    4    4    0    0  0.47329273873E+02  0.58195040950E+02  0.33956270715E+02  0.82339245062E+02  0.00000000000E+00 0. -1.
         13    1    4    4    0    0 -0.25333014261E+02 -0.12623581621E+02  0.32004850684E+02  0.42725014825E+02  0.00000000000E+00 0.  1.
         21    1    1    2  503  502 -0.91761579533E+01 -0.22575790901E+02 -0.17255665113E+03  0.17426894748E+03  0.00000000000E+00 0.  1.
          1    1    1    2  501    0 -0.33752414465E+02 -0.48383873897E+02  0.11923727502E+00  0.58993550097E+02  0.00000000000E+00 0. -1.
<scales pt_clust_5="13000.00000" pt_clust_6="13000.00000" pt_clust_7="13000.00000" pt_clust_8="13000.00000" pt_clust_9="24.36941" pt_clust_10="60.93750"></scales>
<clustering>
<clus scale="   24.369">  2  9  1 -1</clus>
<clus scale="   60.937">  1 10  2 -1</clus>
<clus scale="   79.107">  5  6 -1 -1</clus>
<clus scale="   79.943">  2  5  1 -1</clus>
<clus scale="   93.432">  7  8 -1 -1</clus>
<clus scale="   60.937">  1  5  2 -1</clus>
</clustering>
</event>
<event>
10    4  0.2857708E-005  0.1481737E+03  0.7546771E-02  0.1228378E+00
         21   -1    0    0  501  502  0.00000000000E+00  0.00000000000E+00  0.79331779166E+02  0.79331779166E+02  0.00000000000E+00 0. -1.
          2   -1    0    0  503    0 -0.00000000000E+00 -0.00000000000E+00 -0.85707929281E+03  0.85707929281E+03  0.00000000000E+00 0. -1.
         24    2    1    2    0    0 -0.24754181114E+02 -0.25574335182E+02 -0.25040306293E+03  0.26547442014E+03  0.80673153657E+02 0.  0.
         23    2    1    2    0    0  0.58276023408E+02  0.79560441083E+02 -0.13025637931E+03  0.18648636092E+03  0.89913735156E+02 0.  0.
        -13    1    3    3    0    0 -0.16436609871E+02  0.28759901015E+02 -0.99802753393E+02  0.10515647215E+03  0.00000000000E+00 0.  1.
         14    1    3    3    0    0 -0.83175712432E+01 -0.54334236197E+02 -0.15060030954E+03  0.16031794799E+03  0.00000000000E+00 0. -1.
        -13    1    4    4    0    0  0.77707885998E+02  0.36974696913E+02 -0.92567507149E+02  0.12638982213E+03  0.00000000000E+00 0.  1.
         13    1    4    4    0    0 -0.19431862590E+02  0.42585744170E+02 -0.37688872160E+02  0.60096538793E+02  0.00000000000E+00 0. -1.
         21    1    1    2  503  502 -0.11087229130E+03 -0.40636252165E+02 -0.38783434775E+03  0.40541269253E+03  0.00000000000E+00 0. -1.
          1    1    1    2  501    0  0.77350449007E+02 -0.13349853736E+02 -0.92537236495E+01  0.79037598380E+02  0.00000000000E+00 0. -1.
<scales pt_clust_5="13000.00000" pt_clust_6="13000.00000" pt_clust_7="13000.00000" pt_clust_8="13000.00000" pt_clust_9="117.77507" pt_clust_10="78.49402"></scales>
<clustering>
<clus scale="   78.494">  1 10  2 -1</clus>
<clus scale="   80.673">  5  6 -1 -1</clus>
<clus scale="   86.131">  2  5  1 -1</clus>
<clus scale="   89.914">  7  8 -1 -1</clus>
<clus scale="  117.775">  2  9  1 -1</clus>
<clus scale="   78.494">  1  5  2 -1</clus>
</clustering>
</event>
<event>
10    4  0.2857708E-005  0.1359928E+03  0.7546771E-02  0.1221261E+00
         -1   -1    0    0    0  501 -0.00000000000E+00  0.00000000000E+00  0.50498782684E+03  0.50498782684E+03  0.00000000000E+00 0.  1.
         21   -1    0    0  503  502  0.00000000000E+00 -0.00000000000E+00 -0.21368790824E+03  0.21368790824E+03  0.00000000000E+00 0. -1.
         24    2    1    2    0    0 -0.81866041219E+02 -0.49441535240E+02  0.24688740554E+03  0.27665672163E+03  0.80243607191E+02 0.  0.
         23    2    1    2    0    0  0.59424689437E+02  0.10999506393E+03  0.14545307585E+03  0.21218829606E+03  0.90758293869E+02 0.  0.
        -11    1    3    3    0    0 -0.97380005510E+02 -0.34605908241E+02  0.20209248319E+03  0.22698415389E+03  0.00000000000E+00 0.  1.
         12    1    3    3    0    0  0.15513964292E+02 -0.14835626998E+02  0.44794922355E+02  0.49672567733E+02  0.00000000000E+00 0. -1.
        -11    1    4    4    0    0 -0.17315151482E+02  0.60539355110E+02  0.65074435060E+02  0.90551146245E+02  0.00000000000E+00 0.  1.
         11    1    4    4    0    0  0.76739840919E+02  0.49455708816E+02  0.80378640793E+02  0.12163714981E+03  0.00000000000E+00 0. -1.
         21    1    1    2  503  501  0.18365150671E+01 -0.56541641241E+02  0.51109237309E+02  0.76239649265E+02  0.00000000000E+00 0.  1.
         -2    1    1    2    0  502  0.20604836715E+02 -0.40118874457E+01 -0.15214980011E+03  0.15359106813E+03  0.00000000000E+00 0.  1.
<scales pt_clust_5="13000.00000" pt_clust_6="13000.00000" pt_clust_7="13000.00000" pt_clust_8="13000.00000" pt_clust_9="57.69322" pt_clust_10="20.99177"></scales>
<clustering>
<clus scale="   20.992">  2 10  1 -1</clus>
<clus scale="   57.693">  2  9  1 -1</clus>
<clus scale="   80.244">  5  6 -1 -1</clus>
<clus scale="   90.758">  7  8 -1 -1</clus>
<clus scale="  129.213">  1  5  2 -1</clus>
<clus scale="   20.992">  2  5  1 -1</clus>
</clustering>
</event>
<event>
10    4  0.2857708E-005  0.1660278E+03  0.7546771E-02  0.1182737E+00
          2   -1    0    0  503    0 -0.00000000000E+00  0.00000000000E+00  0.48621886018E+03  0.48621886018E+03  0.00000000000E+00 0. -1.
         21   -1    0    0  501  502  0.00000000000E+00 -0.00000000000E+00 -0.11974335902E+03  0.11974335902E+03  0.00000000000E+00 0. -1.
         23    2    1    2    0    0 -0.81400962966E+02  0.10188696472E+03  0.27911466658E+03  0.31979572249E+03  0.85774335727E+02 0.  0.
         24    2    1    2    0    0  0.10859294207E+03 -0.74148770965E+02 -0.22511572531E+02  0.15596386551E+03  0.80792878042E+02 0.  0.
        -13    1    4    4    0    0  0.18462301981E+02 -0.28726081515E+02  0.27011535786E+02  0.43539262960E+02  0.00000000000E+00 0.  1.
         14    1    4    4    0    0  0.90130640094E+02 -0.45422689450E+02 -0.49523108317E+02  0.11242460255E+03  0.00000000000E+00 0. -1.
        -11    1    3    3    0    0 -0.99413918444E+02  0.84314440222E+02  0.22315094333E+03  0.25843450915E+03  0.00000000000E+00 0.  1.
         11    1    3    3    0    0  0.18012955478E+02  0.17572524499E+02  0.55963723247E+02  0.61361213336E+02  0.00000000000E+00 0. -1.
         21    1    1    2  503  502 -0.43775949118E+02 -0.11921796825E+02  0.85211835095E+02  0.96537660014E+02  0.00000000000E+00 0. -1.
          1    1    1    2  501    0  0.16583970009E+02 -0.15816396931E+02  0.24660572013E+02  0.33664971189E+02  0.00000000000E+00 0. -1.
<scales pt_clust_5="13000.00000" pt_clust_6="13000.00000" pt_clust_7="13000.00000" pt_clust_8="13000.00000" pt_clust_9="44.79859" pt_clust_10="22.91696"></scales>
<clustering>
<clus scale="   22.917">  2 10  1 -1</clus>
<clus scale="   44.799">  1  9  2 -1</clus>
<clus scale="   80.793">  5  6 -1 -1</clus>
<clus scale="   85.774">  7  8 -1 -1</clus>
<clus scale="  163.510">  2  5  1 -1</clus>
<clus scale="   22.917">  2  5  1 -1</clus>
</clustering>
</event>
<event>
10    4  0.2857708E-005  0.1903234E+03  0.7546771E-02  0.1159180E+00
         21   -1    0    0  501  502  0.00000000000E+00  0.00000000000E+00  0.14214364460E+03  0.14214364460E+03  0.00000000000E+00 0. -1.
          2   -1    0    0  503    0 -0.00000000000E+00 -0.00000000000E+00 -0.11793172932E+04  0.11793172932E+04  0.00000000000E+00 0. -1.
         24    2    1    2    0    0 -0.15032112497E+03  0.11876640726E+03 -0.41920490491E+03  0.46787150617E+03  0.80430677511E+02 0.  0.
         23    2    1    2    0    0  0.17658627842E+03  0.13030860234E+03 -0.26746294470E+03  0.35754226746E+03  0.90205325027E+02 0.  0.
        -13    1    3    3    0    0 -0.23062626036E+02 -0.85793344091E+01 -0.28301234559E+02  0.37502660921E+02  0.00000000000E+00 0.  1.
         14    1    3    3    0    0 -0.12725849893E+03  0.12734574166E+03 -0.39090367035E+03  0.43036884525E+03  0.00000000000E+00 0. -1.
        -13    1    4    4    0    0  0.58117565825E+02  0.51101214222E+01 -0.34608913814E+02  0.67834664543E+02  0.00000000000E+00 0.  1.
         13    1    4    4    0    0  0.11846871259E+03  0.12519848091E+03 -0.23285403089E+03  0.28970760292E+03  0.00000000000E+00 0. -1.
         21    1    1    2  503  502 -0.42637944730E+02 -0.74886855039E+02 -0.30262845379E+03  0.31465857120E+03  0.00000000000E+00 0. -1.
          1    1    1    2  501    0  0.16372791281E+02 -0.17418815455E+03 -0.47877345225E+02  0.18138859299E+03  0.00000000000E+00 0. -1.
<scales pt_clust_5="13000.00000" pt_clust_6="13000.00000" pt_clust_7="13000.00000" pt_clust_8="13000.00000" pt_clust_9="86.17445" pt_clust_10="184.36197"></scales>
<clustering>
<clus scale="   80.431">  5  6 -1 -1</clus>
<clus scale="   86.174">  2  9  1 -1</clus>
<clus scale="   90.205">  7  8 -1 -1</clus>
<clus scale="  184.362">  1 10  2 -1</clus>
<clus scale="  185.890">  2  5  1 -1</clus>
<clus scale="  184.362">  1  5  2 -1</clus>
</clustering>
</event>
<event>
10    4  0.2857708E-005  0.1466060E+03  0.7546771E-02  0.1206187E+00
          2   -1    0    0  503    0 -0.00000000000E+00  0.00000000000E+00  0.81044743283E+03  0.81044743283E+03  0.00000000000E+00 0. -1.
         21   -1    0    0  501  502  0.00000000000E+00 -0.00000000000E+00 -0.23337285314E+03  0.23337285314E+03  0.00000000000E+00 0. -1.
         24    2    1    2    0    0  0.10379115568E+03 -0.94821995169E+01  0.53839686806E+03  0.55446885271E+03  0.81865774241E+02 0.  0.
         23    2    1    2    0    0 -0.12252132637E+03  0.12945797278E+03  0.61571846105E+02  0.20878324676E+03  0.89601951773E+02 0.  0.
        -11    1    3    3    0    0  0.48350949301E+02  0.36115034817E+02  0.22463475084E+03  0.23260026079E+03  0.00000000000E+00 0.  1.
         12    1    3    3    0    0  0.55440206379E+02 -0.45597234334E+02  0.31376211722E+03  0.32186859192E+03  0.00000000000E+00 0. -1.
        -11    1    4    4    0    0 -0.14612584962E+02  0.31084177800E+02 -0.21758454714E+02  0.40659366699E+02  0.00000000000E+00 0.  1.
         11    1    4    4    0    0 -0.10790874141E+03  0.98373794981E+02  0.83330300819E+02  0.16812388006E+03  0.00000000000E+00 0. -1.
         21    1    1    2  503  502 -0.26671131045E+02 -0.63605903896E+02  0.10965619300E+03  0.12954358689E+03  0.00000000000E+00 0. -1.
          1    1    1    2  501    0  0.45401301740E+02 -0.56369869369E+02 -0.13255032748E+03  0.15102459961E+03  0.00000000000E+00 0. -1.
<scales pt_clust_5="13000.00000" pt_clust_6="13000.00000" pt_clust_7="13000.00000" pt_clust_8="13000.00000" pt_clust_9="68.97145" pt_clust_10="72.82300"></scales>
<clustering>
<clus scale="   68.971">  1  9  2 -1</clus>
<clus scale="   72.823">  2 10  1 -1</clus>
<clus scale="   81.866">  5  6 -1 -1</clus>
<clus scale="   89.602">  7  8 -1 -1</clus>
<clus scale="  142.010">  1  5  2 -1</clus>
<clus scale="   72.823">  2  5  1 -1</clus>
</clustering>
</event>
<event>
10    4  0.2857708E-005  0.1001695E+03  0.7546771E-02  0.1283233E+00
          2   -1    0    0  503    0 -0.00000000000E+00  0.00000000000E+00  0.91636234507E+02  0.91636234507E+02  0.00000000000E+00 0. -1.
         21   -1    0    0  501  502  0.00000000000E+00 -0.00000000000E+00 -0.33248838646E+03  0.33248838646E+03  0.00000000000E+00 0. -1.
         24    2    1    2    0    0  0.41413074300E+02 -0.35728628232E+02  0.12454596950E+02  0.98411866136E+02  0.80859141801E+02 0.  0.
         23    2    1    2    0    0 -0.48072442973E+01 -0.74820139333E+01 -0.14227420828E+03  0.16744690002E+03  0.87848869390E+02 0.  0.
        -13    1    3    3    0    0  0.27532124852E+02  0.10973391387E+02 -0.23529555861E+02  0.37842743246E+02  0.00000000000E+00 0.  1.
         14    1    3    3    0    0  0.13880949448E+02 -0.46702019619E+02  0.35984152811E+02  0.60569122889E+02  0.00000000000E+00 0. -1.
        -11    1    4    4    0    0  0.29899904176E+02  0.16281138715E+02 -0.10784201568E+03  0.11308837294E+03  0.00000000000E+00 0. -1.
         11    1    4    4    0    0 -0.34707148474E+02 -0.23763152648E+02 -0.34432192600E+02  0.54358527079E+02  0.00000000000E+00 0.  1.
         21    1    1    2  503  502  0.31262304984E+01 -0.26012532634E+02 -0.69550803139E+01  0.27107163506E+02  0.00000000000E+00 0. -1.
          1    1    1    2  501    0 -0.39732060501E+02  0.69223174800E+02 -0.10407746031E+03  0.13115869130E+03  0.00000000000E+00 0. -1.
<scales pt_clust_5="13000.00000" pt_clust_6="13000.00000" pt_clust_7="13000.00000" pt_clust_8="13000.00000" pt_clust_9="26.19972" pt_clust_10="75.83051"></scales>
<clustering>
<clus scale="   26.200">  1  9  2 -1</clus>
<clus scale="   75.831">  2 10  1 -1</clus>
<clus scale="   80.859">  5  6 -1 -1</clus>
<clus scale="   87.849">  7  8 -1 -1</clus>
<clus scale="   94.099">  1  5  2 -1</clus>
<clus scale="   75.831">  2  5  1 -1</clus>
</clustering>
</event>
<event>
10    4  0.2857708E-005  0.1079794E+03  0.7546771E-02  0.1272237E+00
         -1   -1    0    0    0  501 -0.00000000000E+00  0.00000000000E+00  0.46390445582E+03  0.46390445582E+03  0.00000000000E+00 0.  1.
         21   -1    0    0  503  502  0.00000000000E+00 -0.00000000000E+00 -0.10068014542E+03  0.10068014542E+03  0.00000000000E+00 0. -1.
         24    2    1    2    0    0 -0.41424697736E+02 -0.25201891354E+02  0.26760437588E+03  0.28359019602E+03  0.80375098012E+02 0.  0.
         23    2    1    2    0    0  0.41523475477E+02  0.24638011810E+02  0.11034122851E+03  0.15503744470E+03  0.97622701807E+02 0.  0.
        -13    1    3    3    0    0  0.23861335317E+02 -0.12324366710E+02  0.64691747193E+02  0.70044810606E+02  0.00000000000E+00 0.  1.
         14    1    3    3    0    0 -0.65286033053E+02 -0.12877524645E+02  0.20291262869E+03  0.21354538542E+03  0.00000000000E+00 0. -1.
        -11    1    4    4    0    0  0.20041641363E+02 -0.32890395726E+02  0.74675695870E+02  0.84023241268E+02  0.00000000000E+00 0.  1.
         11    1    4    4    0    0  0.21481834114E+02  0.57528407536E+02  0.35665532644E+02  0.71014203434E+02  0.00000000000E+00 0. -1.
         21    1    1    2  503  501  0.18984656532E+02 -0.15527333183E+02  0.50489863136E+02  0.56131466566E+02  0.00000000000E+00 0.  1.
         -2    1    1    2    0  502 -0.19083434274E+02  0.16091212727E+02 -0.65211157127E+02  0.69825493944E+02  0.00000000000E+00 0.  1.
<scales pt_clust_5="13000.00000" pt_clust_6="13000.00000" pt_clust_7="13000.00000" pt_clust_8="13000.00000" pt_clust_9="24.52581" pt_clust_10="24.82427"></scales>
<clustering>
<clus scale="   24.526">  1  9  2 -1</clus>
<clus scale="   24.824">  2 10  1 -1</clus>
<clus scale="   80.375">  5  6 -1 -1</clus>
<clus scale="   92.680">  1  5  2 -1</clus>
<clus scale="   97.623">  7  8 -1 -1</clus>
<clus scale="   24.824">  2  5  1 -1</clus>
</clustering>
</event>
<event>
10    4  0.2857708E-005  0.2159499E+03  0.7546771E-02  0.1138683E+00
         -3   -1    0    0    0  501 -0.00000000000E+00  0.00000000000E+00  0.75282114120E+03  0.75282114120E+03  0.00000000000E+00 0.  1.
         21   -1    0    0  503  502  0.00000000000E+00 -0.00000000000E+00 -0.36699218171E+03  0.36699218171E+03  0.00000000000E+00 0.  1.
         23    2    1    2    0    0  0.17132280911E+01  0.19157637988E+03  0.62804019320E+03  0.66439975909E+03  0.10143032646E+03 0.  0.
         24    2    1    2    0    0 -0.60580562539E+02 -0.17217201175E+03 -0.27705289591E+03  0.34144129073E+03  0.80688547472E+02 0.  0.
        -11    1    4    4    0    0 -0.31020554469E+02 -0.31701249194E+02 -0.12358327915E+03  0.13130145043E+03  0.00000000000E+00 0.  1.
         12    1    4    4    0    0 -0.29560008070E+02 -0.14047076256E+03 -0.15346961676E+03  0.21013984029E+03  0.00000000000E+00 0. -1.
        -11    1    3    3    0    0  0.36835452064E+01  0.16640320352E+03  0.61258656924E+03  0.63479595104E+03  0.00000000000E+00 0.  1.
         11    1    3    3    0    0 -0.19703171153E+01  0.25173176353E+02  0.15453623959E+02  0.29603808044E+02  0.00000000000E+00 0. -1.
         21    1    1    2  503  501  0.22219946482E+02 -0.15517678181E+01  0.61402802101E+02  0.65317976934E+02  0.00000000000E+00 0. -1.
         -4    1    1    2    0  502  0.36647387966E+02 -0.17852600308E+02 -0.26561139898E+02  0.48654296164E+02  0.00000000000E+00 0.  1.
<scales pt_clust_5="13000.00000" pt_clust_6="13000.00000" pt_clust_7="13000.00000" pt_clust_8="13000.00000" pt_clust_9="22.27407" pt_clust_10="41.09568"></scales>
<clustering>
<clus scale="   22.274">  1  9  2 -1</clus>
<clus scale="   41.096">  2 10  1 -1</clus>
<clus scale="   80.689">  5  6 -1 -1</clus>
<clus scale="  101.430">  7  8 -1 -1</clus>
<clus scale="  207.019">  2  5  1 -1</clus>
<clus scale="   41.096">  2  5  1 -1</clus>
</clustering>
</event>
<event>
10    4  0.2857708E-005  0.9504716E+02  0.7546771E-02  0.1298903E+00
         21   -1    0    0  503  502  0.00000000000E+00  0.00000000000E+00  0.39959301738E+02  0.39959301738E+02  0.00000000000E+00 0.  1.
          2   -1    0    0  502    0 -0.00000000000E+00 -0.00000000000E+00 -0.83566152115E+03  0.83566152115E+03  0.00000000000E+00 0. -1.
         23    2    1    2    0    0  0.23989661856E+02  0.36326154240E+02 -0.45916638290E+03  0.47004156940E+03  0.90610244523E+02 0.  0.
         24    2    1    2    0    0 -0.25372031231E+02  0.37362288584E+02 -0.13443016397E+03  0.16136793795E+03  0.76996505354E+02 0.  0.
        -13    1    4    4    0    0 -0.15060663935E+02 -0.16252999221E+02 -0.78374762085E+01  0.23503395822E+02  0.00000000000E+00 0.  1.
         14    1    4    4    0    0 -0.10311367296E+02  0.53615287805E+02 -0.12659268776E+03  0.13786454213E+03  0.00000000000E+00 0. -1.
        -13    1    3    3    0    0  0.16937514263E+02 -0.29340588434E+02 -0.13222210651E+03  0.13649335138E+03  0.00000000000E+00 0.  1.
         13    1    3    3    0    0  0.70521475932E+01  0.65666742674E+02 -0.32694427639E+03  0.33354821802E+03  0.00000000000E+00 0. -1.
         21    1    1    2  503  501  0.55579251397E+02 -0.32014036152E+02 -0.12931974769E+03  0.14435216950E+03  0.00000000000E+00 0.  1.
          1    1    1    2  501    0 -0.54196882022E+02 -0.41674406672E+02 -0.72785924853E+02  0.99859146046E+02  0.00000000000E+00 0. -1.
<scales pt_clust_5="13000.00000" pt_clust_6="13000.00000" pt_clust_7="13000.00000" pt_clust_8="13000.00000" pt_clust_9="64.14009" pt_clust_10="63.16604"></scales>
<clustering>
<clus scale="   64.140">  1  9  2 -1</clus>
<clus scale="   63.166">  1 10  2 -1</clus>
<clus scale="   76.997">  5  6 -1 -1</clus>
<clus scale="   82.172">  1  5  2 -1</clus>
<clus scale="   90.610">  7  8 -1 -1</clus>
<clus scale="   64.140">  1  5  2 -1</clus>
</clustering>
</event>
<event>
10    4  0.2857708E-005  0.1124059E+03  0.7546771E-02  0.1265767E+00
         21   -1    0    0  501  502  0.00000000000E+00  0.00000000000E+00  0.42396395597E+02  0.42396395597E+02  0.00000000000E+00 0. -1.
          2   -1    0    0  503    0 -0.00000000000E+00 -0.00000000000E+00 -0.93659592725E+03  0.93659592725E+03  0.00000000000E+00 0. -1.
         23    2    1    2    0    0  0.12300776701E+03  0.74806392952E+01 -0.29334035455E+03  0.33200075650E+03  0.94810695601E+02 0.  0.
         24    2    1    2    0    0 -0.20062201685E+02  0.23773515323E+02 -0.87672127414E+02  0.11696310580E+03  0.70896362571E+02 0.  0.
        -13    1    4    4    0    0  0.19452750187E+02  0.31162092113E+02 -0.48419889426E+02  0.60778048395E+02  0.00000000000E+00 0.  1.
         14    1    4    4    0    0 -0.39514951873E+02 -0.73885767900E+01 -0.39252237988E+02  0.56185057405E+02  0.00000000000E+00 0. -1.
        -11    1    3    3    0    0  0.45579375113E+02 -0.42333632099E+01 -0.24361653457E+02  0.51854517247E+02  0.00000000000E+00 0.  1.
         11    1    3    3    0    0  0.77428391902E+02  0.11714002505E+02 -0.26897870109E+03  0.28014623926E+03  0.00000000000E+00 0. -1.
         21    1    1    2  503  502 -0.69308246560E+02  0.10959653371E+02 -0.37811484795E+03  0.38457065057E+03  0.00000000000E+00 0. -1.
          1    1    1    2  501    0 -0.33637318770E+02 -0.42213807989E+02 -0.13507220174E+03  0.14545780997E+03  0.00000000000E+00 0. -1.
<scales pt_clust_5="13000.00000" pt_clust_6="13000.00000" pt_clust_7="13000.00000" pt_clust_8="13000.00000" pt_clust_9="72.59440" pt_clust_10="53.97664"></scales>
<clustering>
<clus scale="   53.977">  1 10  2 -1</clus>
<clus scale="   70.896">  5  6 -1 -1</clus>
<clus scale="   72.594">  2  9  1 -1</clus>
<clus scale="   93.125">  1  5  2 -1</clus>
<clus scale="   94.811">  7  8 -1 -1</clus>
<clus scale="   53.977">  1  5  2 -1</clus>
</clustering>
</event>
<event>
10    4  0.2857708E-005  0.2153417E+03  0.7546771E-02  0.1157309E+00
         -3   -1    0    0    0  501 -0.00000000000E+00  0.00000000000E+00  0.50739831997E+03  0.50739831997E+03  0.00000000000E+00 0.  1.
         21   -1    0    0  501  502  0.00000000000E+00 -0.00000000000E+00 -0.19242427265E+03  0.19242427265E+03  0.00000000000E+00 0.  1.
         23    2    1    2    0    0  0.67834627433E+02 -0.38159648889E+02 -0.10997063191E+02  0.12615708006E+03  0.98676126641E+02 0.  0.
         24    2    1    2    0    0 -0.11581620291E+03  0.22204095840E+03  0.20088338317E+03  0.33140594884E+03  0.82220369929E+02 0.  0.
        -11    1    4    4    0    0 -0.10962095403E+03  0.22525146419E+03  0.17754273237E+03  0.30704461809E+03  0.00000000000E+00 0.  1.
         12    1    4    4    0    0 -0.61952488789E+01 -0.32105057908E+01  0.23340650802E+02  0.24361330751E+02  0.00000000000E+00 0. -1.
        -13    1    3    3    0    0  0.74925814680E+01 -0.41683121663E+02  0.31060310630E+02  0.52520132378E+02  0.00000000000E+00 0. -1.
         13    1    3    3    0    0  0.60342045965E+02  0.35234727737E+01 -0.42057373820E+02  0.73636947684E+02  0.00000000000E+00 0.  1.
         21    1    1    2  503  502  0.28787052642E+02 -0.16651017680E+02  0.12389751213E+01  0.33278909972E+02  0.00000000000E+00 0.  1.
         -4    1    1    2    0  503  0.19194522836E+02 -0.16723029183E+03  0.12384875222E+03  0.20898065374E+03  0.00000000000E+00 0.  1.
<scales pt_clust_5="13000.00000" pt_clust_6="13000.00000" pt_clust_7="13000.00000" pt_clust_8="13000.00000" pt_clust_9="33.25584" pt_clust_10="199.02728"></scales>
<clustering>
<clus scale="   33.256">  2  9  1 -1</clus>
<clus scale="   82.220">  5  6 -1 -1</clus>
<clus scale="   98.676">  7  8 -1 -1</clus>
<clus scale="  134.068">  1  7  2 -1</clus>
<clus scale="  199.027">  2 10  1 -1</clus>
<clus scale="   33.256">  2  5  1 -1</clus>
</clustering>
</event>
<event>
10    4  0.2857708E-005  0.2482112E+03  0.7546771E-02  0.1141113E+00
         21   -1    0    0  501  502  0.00000000000E+00  0.00000000000E+00  0.16826869155E+03  0.16826869155E+03  0.00000000000E+00 0. -1.
          2   -1    0    0  503    0 -0.00000000000E+00 -0.00000000000E+00 -0.97846658235E+03  0.97846658235E+03  0.00000000000E+00 0. -1.
         23    2    1    2    0    0  0.61178224579E+02  0.75396174576E+02 -0.35707163799E+03  0.38112386065E+03  0.91257241885E+02 0.  0.
         24    2    1    2    0    0 -0.16128330207E+02  0.20909945514E+03 -0.31727310372E+02  0.23766992723E+03  0.10722717429E+03 0.  0.
        -13    1    4    4    0    0 -0.22502047952E+02 -0.54150852151E+00  0.85904128141E+01  0.24092127051E+02  0.00000000000E+00 0.  1.
         14    1    4    4    0    0  0.63737177450E+01  0.20964096367E+03 -0.40317723186E+02  0.21357780017E+03  0.00000000000E+00 0. -1.
        -11    1    3    3    0    0  0.54513637123E+01  0.66037046319E+02 -0.26445595636E+03  0.27263081577E+03  0.00000000000E+00 0.  1.
         11    1    3    3    0    0  0.55726860867E+02  0.93591282578E+01 -0.92615681637E+02  0.10849304489E+03  0.00000000000E+00 0. -1.
         21    1    1    2  503  502  0.43715951988E+01 -0.23748235200E+02 -0.13636079876E+03  0.13848233446E+03  0.00000000000E+00 0.  1.
          1    1    1    2  501    0 -0.49421489571E+02 -0.26074739452E+03 -0.28503814368E+03  0.38945915156E+03  0.00000000000E+00 0. -1.
<scales pt_clust_5="13000.00000" pt_clust_6="13000.00000" pt_clust_7="13000.00000" pt_clust_8="13000.00000" pt_clust_9="24.14725" pt_clust_10="223.85529"></scales>
<clustering>
<clus scale="   24.147">  2  9  1 -1</clus>
<clus scale="   91.257">  7  8 -1 -1</clus>
<clus scale="  107.227">  5  6 -1 -1</clus>
<clus scale="  128.572">  2  7  1 -1</clus>
<clus scale="  223.855">  1 10  2 -1</clus>
<clus scale="  223.855">  1  5  2 -1</clus>
</clustering>
</event>
<event>
10    4  0.2857708E-005  0.1339456E+03  0.7546771E-02  0.1244522E+00
          2   -1    0    0  503    0 -0.00000000000E+00  0.00000000000E+00  0.49991438644E+03  0.49991438644E+03  0.00000000000E+00 0. -1.
         21   -1    0    0  501  502  0.00000000000E+00 -0.00000000000E+00 -0.94344297724E+02  0.94344297724E+02  0.00000000000E+00 0.  1.
         24    2    1    2    0    0  0.22334999812E+02  0.15553311939E+02  0.43967240247E+02  0.97395077454E+02  0.82534387793E+02 0.  0.
         23    2    1    2    0    0  0.82341260531E+02 -0.41435521934E+02  0.43780383440E+02  0.13878394678E+03  0.94059960913E+02 0.  0.
        -11    1    3    3    0    0  0.23522713338E+02  0.44786476727E+00 -0.20479064848E+02  0.31191516839E+02  0.00000000000E+00 0.  1.
         12    1    3    3    0    0 -0.11877135263E+01  0.15105447172E+02  0.64446305095E+02  0.66203560615E+02  0.00000000000E+00 0. -1.
        -13    1    4    4    0    0  0.36239787707E+02 -0.18984526628E+02 -0.28717673712E+02  0.49984390041E+02  0.00000000000E+00 0. -1.
         13    1    4    4    0    0  0.46101472824E+02 -0.22450995305E+02  0.72498057153E+02  0.88799556742E+02  0.00000000000E+00 0.  1.
         21    1    1    2  503  502 -0.24874151915E+02 -0.37965090309E+02  0.34870978092E+02  0.57236846775E+02  0.00000000000E+00 0.  1.
          1    1    1    2  501    0 -0.79802108427E+02  0.63847300303E+02  0.28295148693E+03  0.30084281315E+03  0.00000000000E+00 0. -1.
<scales pt_clust_5="13000.00000" pt_clust_6="13000.00000" pt_clust_7="13000.00000" pt_clust_8="13000.00000" pt_clust_9="45.38801" pt_clust_10="95.36331"></scales>
<clustering>
<clus scale="   45.388">  2  9  1 -1</clus>
<clus scale="   82.534">  5  6 -1 -1</clus>
<clus scale="   83.839">  1  5  2 -1</clus>
<clus scale="   94.060">  7  8 -1 -1</clus>
<clus scale="   95.363">  2 10  1 -1</clus>
<clus scale="   45.388">  2  5  1 -1</clus>
</clustering>
</event>
<event>
10    4  0.2857708E-005  0.9738987E+02  0.7546771E-02  0.1292213E+00
         -1   -1    0    0    0  501 -0.00000000000E+00  0.00000000000E+00  0.21353272700E+03  0.21353272700E+03  0.00000000000E+00 0.  1.
         21   -1    0    0  503  502  0.00000000000E+00 -0.00000000000E+00 -0.11822025523E+03  0.11822025523E+03  0.00000000000E+00 0. -1.
         23    2    1    2    0    0 -0.25680271870E+02 -0.17211787875E+02  0.30370910722E+02  0.10292212173E+03  0.93353355156E+02 0.  0.
         24    2    1    2    0    0 -0.44088107010E+02  0.30255563741E+02 -0.40105291311E+01  0.97902773637E+02  0.81912809896E+02 0.  0.
        -11    1    4    4    0    0 -0.48468069686E+02  0.46950103908E+02  0.18089213174E+02  0.69861904278E+02  0.00000000000E+00 0.  1.
         12    1    4    4    0    0  0.43799626764E+01 -0.16694540167E+02 -0.22099742305E+02  0.28040869359E+02  0.00000000000E+00 0. -1.
        -11    1    3    3    0    0 -0.18926261674E+02  0.33493150261E+02 -0.76029825939E+01  0.39214791083E+02  0.00000000000E+00 0. -1.
         11    1    3    3    0    0 -0.67540101958E+01 -0.50704938136E+02  0.37973893316E+02  0.63707330651E+02  0.00000000000E+00 0.  1.
         21    1    1    2  503  501  0.15491896878E+02 -0.34313776512E+02  0.61568116444E+02  0.72166939037E+02  0.00000000000E+00 0. -1.
         -2    1    1    2    0  502  0.54276482002E+02  0.21270000647E+02  0.73839737372E+01  0.58761147828E+02  0.00000000000E+00 0.  1.
<scales pt_clust_5="13000.00000" pt_clust_6="13000.00000" pt_clust_7="13000.00000" pt_clust_8="13000.00000" pt_clust_9="37.64883" pt_clust_10="59.33364"></scales>
<clustering>
<clus scale="   37.649">  1  9  2 -1</clus>
<clus scale="   59.334">  2 10  1 -1</clus>
<clus scale="   81.913">  5  6 -1 -1</clus>
<clus scale="   86.485">  2  5  1 -1</clus>
<clus scale="   93.353">  7  8 -1 -1</clus>
<clus scale="   59.334">  2  5  1 -1</clus>
</clustering>
</event>
<event>
10    4  0.2857708E-005  0.2951109E+03  0.7546771E-02  0.1127231E+00
         21   -1    0    0  501  502  0.00000000000E+00  0.00000000000E+00  0.45630870769E+03  0.45630870769E+03  0.00000000000E+00 0. -1.
          2   -1    0    0  503    0 -0.00000000000E+00 -0.00000000000E+00 -0.50312626418E+03  0.50312626418E+03  0.00000000000E+00 0. -1.
         24    2    1    2    0    0 -0.69922850209E+02  0.42501684998E+01 -0.88722489761E+02  0.13705209128E+03  0.77487590106E+02 0.  0.
         23    2    1    2    0    0  0.20464687378E+03 -0.27051959758E+03  0.99732406290E+02  0.36415115963E+03  0.87168334707E+02 0.  0.
        -11    1    3    3    0    0 -0.62786053510E+02  0.22172859628E+02 -0.26088590437E+02  0.71514605295E+02  0.00000000000E+00 0.  1.
         12    1    3    3    0    0 -0.71367966986E+01 -0.17922691129E+02 -0.62633899323E+02  0.65537485982E+02  0.00000000000E+00 0. -1.
        -13    1    4    4    0    0  0.30813678637E+02 -0.27264772915E+01  0.75283851407E+01  0.31836976182E+02  0.00000000000E+00 0.  1.
         13    1    4    4    0    0  0.17383319514E+03 -0.26779312028E+03  0.92204021150E+02  0.33231418345E+03  0.00000000000E+00 0. -1.
         21    1    1    2  503  502 -0.65170631136E+00  0.57423614749E+02 -0.17471135222E+03  0.18390745729E+03  0.00000000000E+00 0. -1.
          1    1    1    2  501    0 -0.13407231726E+03  0.20884581433E+03  0.11688387920E+03  0.27432426366E+03  0.00000000000E+00 0. -1.
<scales pt_clust_5="13000.00000" pt_clust_6="13000.00000" pt_clust_7="13000.00000" pt_clust_8="13000.00000" pt_clust_9="57.42731" pt_clust_10="281.94347"></scales>
<clustering>
<clus scale="   57.427">  2  9  1 -1</clus>
<clus scale="   77.488">  5  6 -1 -1</clus>
<clus scale="   87.168">  7  8 -1 -1</clus>
<clus scale="  107.305">  2  5  1 -1</clus>
<clus scale="  281.943">  1 10  2 -1</clus>
<clus scale="  281.943">  1  5  2 -1</clus>
</clustering>
</event>
<event>
10    4  0.2857708E-005  0.1089912E+03  0.7546771E-02  0.1276444E+00
         21   -1    0    0  503  502  0.00000000000E+00  0.00000000000E+00  0.37530642751E+03  0.37530642751E+03  0.00000000000E+00 0.  1.
         -1   -1    0    0    0  501 -0.00000000000E+00 -0.00000000000E+00 -0.91440890554E+02  0.91440890554E+02  0.00000000000E+00 0.  1.
         23    2    1    2    0    0 -0.14941660627E+02  0.75642027647E+02  0.52878406033E+02  0.14095814021E+03  0.10548981893E+03 0.  0.
         24    2    1    2    0    0  0.18987706082E+02  0.32149697462E+02  0.15377565491E+03  0.17663636716E+03  0.78481323454E+02 0.  0.
        -13    1    4    4    0    0  0.45725488540E+02  0.96751342050E+00  0.76799639335E+02  0.89386469818E+02  0.00000000000E+00 0.  1.
         14    1    4    4    0    0 -0.26737782458E+02  0.31182184042E+02  0.76976015576E+02  0.87249897343E+02  0.00000000000E+00 0. -1.
        -11    1    3    3    0    0 -0.21710885928E+02 -0.93673104167E+01  0.50368754584E+02  0.55642793878E+02  0.00000000000E+00 0. -1.
         11    1    3    3    0    0  0.67692253007E+01  0.85009338064E+02  0.25096514486E+01  0.85315346331E+02  0.00000000000E+00 0.  1.
         21    1    1    2  503  501  0.16296426317E+00 -0.40762359400E+02 -0.70838389229E+01  0.41373630190E+02  0.00000000000E+00 0.  1.
         -2    1    1    2    0  502 -0.42090097177E+01 -0.67029365710E+02  0.84295314935E+02  0.10777918050E+03  0.00000000000E+00 0.  1.
<scales pt_clust_5="13000.00000" pt_clust_6="13000.00000" pt_clust_7="13000.00000" pt_clust_8="13000.00000" pt_clust_9="40.76269" pt_clust_10="74.26829"></scales>
<clustering>
<clus scale="   40.763">  2  9  1 -1</clus>
<clus scale="   74.268">  1 10  2 -1</clus>
<clus scale="   78.481">  5  6 -1 -1</clus>
<clus scale="   83.128">  1  5  2 -1</clus>
<clus scale="  105.490">  7  8 -1 -1</clus>
<clus scale="   74.268">  1  5  2 -1</clus>
</clustering>
</event>
<event>
10    4  0.2857708E-005  0.1750879E+03  0.7546771E-02  0.1174982E+00
         21   -1    0    0  501  502  0.00000000000E+00  0.00000000000E+00  0.89968702890E+02  0.89968702890E+02  0.00000000000E+00 0.  1.
          2   -1    0    0  503    0 -0.00000000000E+00 -0.00000000000E+00 -0.79912757963E+03  0.79912757963E+03  0.00000000000E+00 0. -1.
         23    2    1    2    0    0 -0.10724157776E+03 -0.65120162310E+02 -0.39269216081E+03  0.42259384057E+03  0.92935619582E+02 0.  0.
         24    2    1    2    0    0  0.13672146890E+03  0.28347286731E+02 -0.79926600833E+02  0.19394037361E+03  0.10829717573E+03 0.  0.
        -11    1    4    4    0    0  0.12219728092E+03  0.35666234868E+02 -0.16379985443E+02  0.12834547010E+03  0.00000000000E+00 0.  1.
         12    1    4    4    0    0  0.14524187985E+02 -0.73189481363E+01 -0.63546615390E+02  0.65594903506E+02  0.00000000000E+00 0. -1.
        -11    1    3    3    0    0 -0.87170486836E+02 -0.68623077023E+02 -0.38524516511E+03  0.40090105727E+03  0.00000000000E+00 0.  1.
         11    1    3    3    0    0 -0.20071090928E+02  0.35029147125E+01 -0.74469956947E+01  0.21692783302E+02  0.00000000000E+00 0. -1.
         21    1    1    2  503  502 -0.41685100140E+02  0.57181309832E+02 -0.23842841028E+03  0.24870757245E+03  0.00000000000E+00 0. -1.
          1    1    1    2  501    0  0.12205209002E+02 -0.20408434253E+02  0.18882951749E+01  0.23854495889E+02  0.00000000000E+00 0. -1.
<scales pt_clust_5="13000.00000" pt_clust_6="13000.00000" pt_clust_7="13000.00000" pt_clust_8="13000.00000" pt_clust_9="69.18409" pt_clust_10="23.77964"></scales>
<clustering>
<clus scale="   23.780">  1 10  2 -1</clus>
<clus scale="   69.184">  2  9  1 -1</clus>
<clus scale="   92.936">  7  8 -1 -1</clus>
<clus scale="  108.297">  5  6 -1 -1</clus>
<clus scale="  166.026">  2  7  1 -1</clus>
<clus scale="   23.780">  1  5  2 -1</clus>
</clustering>
</event>
<event>
10    4  0.2857708E-005  0.9932022E+02  0.7546771E-02  0.1286666E+00
         21   -1    0    0  503  502  0.00000000000E+00  0.00000000000E+00  0.51082459792E+03  0.51082459792E+03  0.00000000000E+00 0.  1.
         -1   -1    0    0    0  501 -0.00000000000E+00 -0.00000000000E+00 -0.12413780256E+03  0.12413780256E+03  0.00000000000E+00 0.  1.
         23    2    1    2    0    0  0.42344581726E+02 -0.92576761993E+00 -0.71759818735E+02  0.12356617004E+03  0.91242567629E+02 0.  0.
         24    2    1    2    0    0  0.59808865757E+01  0.19319626194E+02  0.27772722218E+03  0.29015160631E+03  0.81526227324E+02 0.  0.
        -11    1    4    4    0    0  0.23814149412E+02 -0.20107279207E+02  0.18763596013E+03  0.19020691345E+03  0.00000000000E+00 0.  1.
         12    1    4    4    0    0 -0.17833262836E+02  0.39426905401E+02  0.90091262051E+02  0.99944692860E+02  0.00000000000E+00 0. -1.
        -13    1    3    3    0    0  0.60360143242E+02 -0.15078421288E+02 -0.78046356529E+02  0.99809515819E+02  0.00000000000E+00 0.  1.
         13    1    3    3    0    0 -0.18015561515E+02  0.14152653668E+02  0.62865377941E+01  0.23756654226E+02  0.00000000000E+00 0. -1.
         21    1    1    2  503  501 -0.56490437162E+01 -0.23502204621E+02 -0.96921631099E+01  0.26042337504E+02  0.00000000000E+00 0. -1.
         -2    1    1    2    0  502 -0.42676424586E+02  0.51083460469E+01  0.19041155502E+03  0.19520228662E+03  0.00000000000E+00 0.  1.
<scales pt_clust_5="13000.00000" pt_clust_6="13000.00000" pt_clust_7="13000.00000" pt_clust_8="13000.00000" pt_clust_9="24.17158" pt_clust_10="43.04794"></scales>
<clustering>
<clus scale="   24.172">  2  9  1 -1</clus>
<clus scale="   43.048">  1 10  2 -1</clus>
<clus scale="   81.526">  5  6 -1 -1</clus>
<clus scale="   90.476">  1  5  2 -1</clus>
<clus scale="   91.243">  7  8 -1 -1</clus>
<clus scale="   43.048">  1  5  2 -1</clus>
</clustering>
</event>
<event>
10    4  0.2857708E-005  0.1192679E+03  0.7546771E-02  0.1247438E+00
         -3   -1    0    0    0  501 -0.00000000000E+00  0.00000000000E+00  0.72973617286E+03  0.72973617286E+03  0.00000000000E+00 0.  1.
         21   -1    0    0  503  502  0.00000000000E+00 -0.00000000000E+00 -0.97992155415E+02  0.97992155415E+02  0.00000000000E+00 0. -1.
         23    2    1    2    0    0  0.50111291208E+02 -0.52770212655E+01  0.51769620012E+03  0.52828428915E+03  0.92390183887E+02 0.  0.
         24    2    1    2    0    0 -0.10202292307E+03 -0.45073897483E+01  0.12785415373E+02  0.13208494823E+03  0.82788726944E+02 0.  0.
        -11    1    4    4    0    0 -0.26227909277E+02  0.26708834061E+02 -0.21571944441E+02  0.43204326507E+02  0.00000000000E+00 0.  1.
         12    1    4    4    0    0 -0.75795013794E+02 -0.31216223809E+02  0.34357359814E+02  0.88880621726E+02  0.00000000000E+00 0. -1.
        -13    1    3    3    0    0  0.75102000969E+02 -0.81827547909E+00  0.44475150376E+03  0.45104864507E+03  0.00000000000E+00 0.  1.
         13    1    3    3    0    0 -0.24990709762E+02 -0.44587457864E+01  0.72944696368E+02  0.77235644081E+02  0.00000000000E+00 0. -1.
         21    1    1    2  503  501  0.25309561773E+02  0.71472676569E+01  0.12733191388E+03  0.13001951255E+03  0.00000000000E+00 0. -1.
         -4    1    1    2    0  502  0.26602070090E+02  0.26371433569E+01 -0.26069511933E+02  0.37339578340E+02  0.00000000000E+00 0.  1.
<scales pt_clust_5="13000.00000" pt_clust_6="13000.00000" pt_clust_7="13000.00000" pt_clust_8="13000.00000" pt_clust_9="26.29938" pt_clust_10="26.97523"></scales>
<clustering>
<clus scale="   26.299">  1  9  2 -1</clus>
<clus scale="   26.975">  2 10  1 -1</clus>
<clus scale="   82.789">  5  6 -1 -1</clus>
<clus scale="   92.390">  7  8 -1 -1</clus>
<clus scale="  111.995">  2  5  1 -1</clus>
<clus scale="   26.975">  2  5  1 -1</clus>
</clustering>
</event>
<event>
10    4  0.2857708E-005  0.1315928E+03  0.7546771E-02  0.1240774E+00
          2   -1    0    0  503    0 -0.00000000000E+00  0.00000000000E+00  0.10286308633E+04  0.10286308633E+04  0.00000000000E+00 0. -1.
         21   -1    0    0  501  502  0.00000000000E+00 -0.00000000000E+00 -0.83184801386E+02  0.83184801386E+02  0.00000000000E+00 0. -1.
         24    2    1    2    0    0  0.51389884824E+01 -0.60208393282E+02  0.32827905607E+03  0.34369710501E+03  0.81909105202E+02 0.  0.
         23    2    1    2    0    0  0.70032076142E+02 -0.52632645426E+02  0.62182509662E+01  0.12629429663E+03  0.90757344954E+02 0.  0.
        -13    1    3    3    0    0 -0.47096452401E+01  0.20073233755E+02  0.56872066077E+02  0.60494192875E+02  0.00000000000E+00 0.  1.
         14    1    3    3    0    0  0.98486337225E+01 -0.80281627037E+02  0.27140698999E+03  0.28320291214E+03  0.00000000000E+00 0. -1.
        -13    1    4    4    0    0  0.14174842479E+02 -0.52882016198E+02  0.33443072072E+02  0.64155068904E+02  0.00000000000E+00 0.  1.
         13    1    4    4    0    0  0.55857233663E+02  0.24937077153E+00 -0.27224821106E+02  0.62139227727E+02  0.00000000000E+00 0. -1.
         21    1    1    2  503  502  0.33361724492E+02  0.34542951362E+02  0.29221575641E+03  0.29613555755E+03  0.00000000000E+00 0. -1.
          1    1    1    2  501    0 -0.10853278912E+03  0.78298087346E+02  0.31873299849E+03  0.34568870551E+03  0.00000000000E+00 0. -1.
<scales pt_clust_5="13000.00000" pt_clust_6="13000.00000" pt_clust_7="13000.00000" pt_clust_8="13000.00000" pt_clust_9="48.02312" pt_clust_10="95.28791"></scales>
<clustering>
<clus scale="   48.023">  1  9  2 -1</clus>
<clus scale="   81.909">  5  6 -1 -1</clus>
<clus scale="   90.757">  7  8 -1 -1</clus>
<clus scale="   95.379">  1  5  2 -1</clus>
<clus scale="   95.288">  2 10  1 -1</clus>
<clus scale="   95.288">  2  5  1 -1</clus>
</clustering>
</event>
<event>
10    4  0.2857708E-005  0.6095593E+03  0.7546771E-02  0.9885770E-01
         21   -1    0    0  501  502  0.00000000000E+00  0.00000000000E+00  0.61784343441E+03  0.61784343441E+03  0.00000000000E+00 0. -1.
          2   -1    0    0  503    0 -0.00000000000E+00 -0.00000000000E+00 -0.68640941152E+03  0.68640941152E+03  0.00000000000E+00 0. -1.
         24    2    1    2    0    0 -0.14865988073E+03 -0.20919681502E+03  0.13698479864E+03  0.30127878997E+03  0.78364575366E+02 0.  0.
         23    2    1    2    0    0 -0.43953288026E+01 -0.31489073903E+03  0.71373325127E+02  0.33468078963E+03  0.87986265763E+02 0.  0.
        -13    1    3    3    0    0 -0.10824279064E+03 -0.14170382435E+03  0.13310110119E+03  0.22251377193E+03  0.00000000000E+00 0.  1.
         14    1    3    3    0    0 -0.40417090088E+02 -0.67492990665E+02  0.38836974565E+01  0.78765018035E+02  0.00000000000E+00 0. -1.
        -11    1    4    4    0    0 -0.10004212043E+02 -0.26481270055E+03  0.91593633109E+02  0.28038410129E+03  0.00000000000E+00 0. -1.
         11    1    4    4    0    0  0.56088832404E+01 -0.50078038483E+02 -0.20220307982E+02  0.54296688337E+02  0.00000000000E+00 0.  1.
         21    1    1    2  503  502  0.45243344968E+01 -0.31827974902E+02 -0.21884289562E+02  0.38889737961E+02  0.00000000000E+00 0.  1.
          1    1    1    2  501    0  0.14853087504E+03  0.55591552895E+03 -0.25503981133E+03  0.62940352837E+03  0.00000000000E+00 0. -1.
<scales pt_clust_5="13000.00000" pt_clust_6="13000.00000" pt_clust_7="13000.00000" pt_clust_8="13000.00000" pt_clust_9="32.14793" pt_clust_10="555.54026"></scales>
<clustering>
<clus scale="   32.148">  2  9  1 -1</clus>
<clus scale="   78.365">  5  6 -1 -1</clus>
<clus scale="   87.986">  7  8 -1 -1</clus>
<clus scale="  190.345">  5  7 -1 -1</clus>
<clus scale="  555.540">  1 10  2 -1</clus>
<clus scale="  555.540">  1  5  2 -1</clus>
</clustering>
</event>
<event>
10    4  0.2857708E-005  0.1020104E+03  0.7546771E-02  0.1281726E+00
         21   -1    0    0  501  502  0.00000000000E+00  0.00000000000E+00  0.13635963742E+03  0.13635963742E+03  0.00000000000E+00 0.  1.
          2   -1    0    0  503    0 -0.00000000000E+00 -0.00000000000E+00 -0.24797990687E+03  0.24797990687E+03  0.00000000000E+00 0. -1.
         23    2    1    2    0    0  0.23578530889E+02 -0.60729924538E+02 -0.54365256006E+02  0.12483988030E+03  0.91571522864E+02 0.  0.
         24    2    1    2    0    0 -0.67626794931E+02 -0.28172600625E+01  0.56187535683E+01  0.10486587806E+03  0.79899697384E+02 0.  0.
        -11    1    4    4    0    0 -0.76200897623E+02 -0.24640147730E+02  0.10921393176E+02  0.80826916974E+02  0.00000000000E+00 0.  1.
         12    1    4    4    0    0  0.85741026916E+01  0.21822887667E+02 -0.53026396082E+01  0.24038961082E+02  0.00000000000E+00 0. -1.
        -13    1    3    3    0    0 -0.13575246213E+02 -0.71729582711E+02 -0.41707560325E+02  0.84076994082E+02  0.00000000000E+00 0. -1.
         13    1    3    3    0    0  0.37153777103E+02  0.10999658173E+02 -0.12657695681E+02  0.40762886219E+02  0.00000000000E+00 0.  1.
         21    1    1    2  503  502 -0.23806922297E+02  0.35324254560E+02 -0.68783765518E+02  0.80905988087E+02  0.00000000000E+00 0. -1.
          1    1    1    2  501    0  0.67855186339E+02  0.28222930041E+02  0.59099985018E+01  0.73727797848E+02  0.00000000000E+00 0. -1.
<scales pt_clust_5="13000.00000" pt_clust_6="13000.00000" pt_clust_7="13000.00000" pt_clust_8="13000.00000" pt_clust_9="42.59780" pt_clust_10="72.30634"></scales>
<clustering>
<clus scale="   42.598">  2  9  1 -1</clus>
<clus scale="   72.306">  1 10  2 -1</clus>
<clus scale="   79.900">  5  6 -1 -1</clus>
<clus scale="   91.572">  7  8 -1 -1</clus>
<clus scale="   91.677">  1  5  2 -1</clus>
<clus scale="   72.306">  1  5  2 -1</clus>
</clustering>
</event>
<event>
10    4  0.2857708E-005  0.1256063E+03  0.7546771E-02  0.1254943E+00
          2   -1    0    0  503    0 -0.00000000000E+00  0.00000000000E+00  0.67237412425E+03  0.67237412425E+03  0.00000000000E+00 0. -1.
         21   -1    0    0  501  502  0.00000000000E+00 -0.00000000000E+00 -0.72286550951E+02  0.72286550951E+02  0.00000000000E+00 0.  1.
         23    2    1    2    0    0 -0.75203912488E+02 -0.25683842859E+02  0.29224297500E+03  0.31627450621E+03  0.91149978631E+02 0.  0.
         24    2    1    2    0    0 -0.69134215060E+01  0.41971383019E+02  0.38667883116E+00  0.91360793366E+02  0.80853278563E+02 0.  0.
        -13    1    4    4    0    0  0.19489733537E+02 -0.59534443682E+01 -0.23975059700E+02  0.31465802084E+02  0.00000000000E+00 0.  1.
         14    1    4    4    0    0 -0.26403155043E+02  0.47924827387E+02  0.24361738532E+02  0.59894991281E+02  0.00000000000E+00 0. -1.
        -13    1    3    3    0    0 -0.65982806759E+02 -0.62492886049E+01  0.28642098101E+03  0.29398939226E+03  0.00000000000E+00 0.  1.
         13    1    3    3    0    0 -0.92211057289E+01 -0.19434554254E+02  0.58219939881E+01  0.22285113953E+02  0.00000000000E+00 0. -1.
         21    1    1    2  503  502  0.87470109861E+02  0.25745559780E+02  0.24618888375E+03  0.26253156086E+03  0.00000000000E+00 0. -1.
          1    1    1    2  501    0 -0.53527758671E+01 -0.42033099940E+02  0.61269035722E+02  0.74493814766E+02  0.00000000000E+00 0. -1.
<scales pt_clust_5="13000.00000" pt_clust_6="13000.00000" pt_clust_7="13000.00000" pt_clust_8="13000.00000" pt_clust_9="86.42119" pt_clust_10="42.37258"></scales>
<clustering>
<clus scale="   42.373">  2 10  1 -1</clus>
<clus scale="   80.853">  5  6 -1 -1</clus>
<clus scale="   82.555">  2  5  1 -1</clus>
<clus scale="   86.421">  1  9  2 -1</clus>
<clus scale="   91.150">  7  8 -1 -1</clus>
<clus scale="   42.373">  2  5  1 -1</clus>
</clustering>
</event>
<event>
10    4  0.2857708E-005  0.3856319E+03  0.7546771E-02  0.1064385E+00
         21   -1    0    0  501  502  0.00000000000E+00  0.00000000000E+00  0.77632619803E+03  0.77632619803E+03  0.00000000000E+00 0.  1.
          2   -1    0    0  503    0 -0.00000000000E+00 -0.00000000000E+00 -0.54491466654E+03  0.54491466654E+03  0.00000000000E+00 0. -1.
         24    2    1    2    0    0  0.23493752827E+03 -0.14276079585E+03 -0.11534099168E+03  0.30919010884E+03  0.81967627914E+02 0.  0.
         23    2    1    2    0    0 -0.11209851360E+03  0.39128971563E+03  0.38448079056E+03  0.56568795053E+03  0.80645277300E+02 0.  0.
        -13    1    3    3    0    0  0.39271976572E+02 -0.47550865399E+02  0.25154640178E+01  0.61722771351E+02  0.00000000000E+00 0.  1.
         14    1    3    3    0    0  0.19566555169E+03 -0.95209930448E+02 -0.11785645569E+03  0.24746733749E+03  0.00000000000E+00 0. -1.
        -11    1    4    4    0    0 -0.84605356653E+02  0.27386957841E+03  0.31746435407E+03  0.42772213931E+03  0.00000000000E+00 0.  1.
         11    1    4    4    0    0 -0.27493156949E+02  0.11742013723E+03  0.67016436492E+02  0.13796581122E+03  0.00000000000E+00 0. -1.
         21    1    1    2  503  502 -0.59220584793E+02  0.84736384836E+02  0.94702472622E+01  0.10381241815E+03  0.00000000000E+00 0.  1.
          1    1    1    2  501    0 -0.63618429871E+02 -0.33326530462E+03 -0.47198514658E+02  0.34255038705E+03  0.00000000000E+00 0. -1.
<scales pt_clust_5="13000.00000" pt_clust_6="13000.00000" pt_clust_7="13000.00000" pt_clust_8="13000.00000" pt_clust_9="103.37956" pt_clust_10="377.10534"></scales>
<clustering>
<clus scale="   80.645">  7  8 -1 -1</clus>
<clus scale="   81.968">  5  6 -1 -1</clus>
<clus scale="  103.380">  2  9  1 -1</clus>
<clus scale="  249.107">  2  5  1 -1</clus>
<clus scale="  377.105">  1 10  2 -1</clus>
<clus scale="  377.105">  1  5  2 -1</clus>
</clustering>
</event>
<event>
10    4  0.2857708E-005  0.1148616E+03  0.7546771E-02  0.1253979E+00
         21   -1    0    0  501  502  0.00000000000E+00  0.00000000000E+00  0.14685260652E+03  0.14685260652E+03  0.00000000000E+00 0. -1.
          2   -1    0    0  503    0 -0.00000000000E+00 -0.00000000000E+00 -0.28910874495E+03  0.28910874495E+03  0.00000000000E+00 0. -1.
         24    2    1    2    0    0  0.22688641965E+02  0.90469819381E+02 -0.12168034219E+03  0.17405936859E+03  0.82407496167E+02 0.  0.
         23    2    1    2    0    0 -0.61197437422E+01 -0.33696461146E+02  0.89052897607E+02  0.13030039156E+03  0.88740468287E+02 0.  0.
        -11    1    3    3    0    0  0.39504435109E+02  0.16372460988E+02 -0.20220343741E+02  0.47302433057E+02  0.00000000000E+00 0.  1.
         12    1    3    3    0    0 -0.16815793144E+02  0.74097358393E+02 -0.10145999845E+03  0.12675693553E+03  0.00000000000E+00 0. -1.
        -11    1    4    4    0    0 -0.16580656609E+02  0.18296004746E+02  0.69534573142E+02  0.73788338004E+02  0.00000000000E+00 0. -1.
         11    1    4    4    0    0  0.10460912867E+02 -0.51992465892E+02  0.19518324464E+02  0.56512053558E+02  0.00000000000E+00 0.  1.
         21    1    1    2  503  502  0.34890898385E+01 -0.19760299574E+02 -0.73294656833E+02  0.75991775261E+02  0.00000000000E+00 0. -1.
          1    1    1    2  501    0 -0.20057988061E+02 -0.37013058662E+02 -0.36334037018E+02  0.55609816063E+02  0.00000000000E+00 0. -1.
<scales pt_clust_5="13000.00000" pt_clust_6="13000.00000" pt_clust_7="13000.00000" pt_clust_8="13000.00000" pt_clust_9="20.06597" pt_clust_10="45.54497"></scales>
<clustering>
<clus scale="   20.066">  2  9  1 -1</clus>
<clus scale="   45.545">  1 10  2 -1</clus>
<clus scale="   82.407">  5  6 -1 -1</clus>
<clus scale="   88.740">  7  8 -1 -1</clus>
<clus scale="  110.042">  2  5  1 -1</clus>
<clus scale="   45.545">  1  5  2 -1</clus>
</clustering>
</event>
<event>
10    4  0.2857708E-005  0.2176644E+03  0.7546771E-02  0.1136411E+00
         21   -1    0    0  501  502  0.00000000000E+00  0.00000000000E+00  0.10059041174E+03  0.10059041174E+03  0.00000000000E+00 0. -1.
          2   -1    0    0  503    0 -0.00000000000E+00 -0.00000000000E+00 -0.94955216802E+03  0.94955216802E+03  0.00000000000E+00 0. -1.
         23    2    1    2    0    0  0.16214874213E+03 -0.13417904469E+02 -0.33620371012E+03  0.38458539585E+03  0.91655535969E+02 0.  0.
         24    2    1    2    0    0 -0.21028396711E+03  0.10780808527E+03 -0.27136309928E+03  0.36895765577E+03  0.81546857870E+02 0.  0.
        -13    1    4    4    0    0 -0.42745444818E+02 -0.67609884667E+01 -0.74767230856E+02  0.86388788785E+02  0.00000000000E+00 0.  1.
         14    1    4    4    0    0 -0.16753852230E+03  0.11456907374E+03 -0.19659586842E+03  0.28256886699E+03  0.00000000000E+00 0. -1.
        -11    1    3    3    0    0  0.34201123000E+02  0.35209669787E+02 -0.10490458903E+03  0.11582059601E+03  0.00000000000E+00 0. -1.
         11    1    3    3    0    0  0.12794761913E+03 -0.48627574256E+02 -0.23129912109E+03  0.26876479984E+03  0.00000000000E+00 0.  1.
         21    1    1    2  503  502  0.57794664054E+02 -0.42311481507E+02 -0.23200050648E+03  0.24280593005E+03  0.00000000000E+00 0. -1.
          1    1    1    2  501    0 -0.96594390720E+01 -0.52078699299E+02 -0.93944404109E+01  0.53793598081E+02  0.00000000000E+00 0. -1.
<scales pt_clust_5="13000.00000" pt_clust_6="13000.00000" pt_clust_7="13000.00000" pt_clust_8="13000.00000" pt_clust_9="73.28434" pt_clust_10="52.96693"></scales>
<clustering>
<clus scale="   52.967">  1 10  2 -1</clus>
<clus scale="   73.284">  2  9  1 -1</clus>
<clus scale="   81.547">  5  6 -1 -1</clus>
<clus scale="   91.656">  7  8 -1 -1</clus>
<clus scale="  213.605">  1  5  2 -1</clus>
<clus scale="   52.967">  1  5  2 -1</clus>
</clustering>
</event>
<event>
10    4  0.2857708E-005  0.1138601E+03  0.7546771E-02  0.1259318E+00
         21   -1    0    0  501  502  0.00000000000E+00  0.00000000000E+00  0.52881677759E+02  0.52881677759E+02  0.00000000000E+00 0. -1.
          2   -1    0    0  503    0 -0.00000000000E+00 -0.00000000000E+00 -0.69409695058E+03  0.69409695058E+03  0.00000000000E+00 0. -1.
         23    2    1    2    0    0  0.49829246854E+02 -0.13508801174E+02 -0.37120516100E+03  0.38602725891E+03  0.92511250730E+02 0.  0.
         24    2    1    2    0    0 -0.59635008226E+02 -0.64373430323E+01 -0.99861829888E+02  0.13963790693E+03  0.76997314193E+02 0.  0.
        -13    1    4    4    0    0  0.16119184675E+02 -0.13846938321E+02 -0.25955579453E+02  0.33544864289E+02  0.00000000000E+00 0.  1.
         14    1    4    4    0    0 -0.75754192900E+02  0.74095952883E+01 -0.73906250435E+02  0.10609304265E+03  0.00000000000E+00 0. -1.
        -11    1    3    3    0    0  0.66665945588E+02  0.24309468031E+01 -0.34342008444E+03  0.34983940915E+03  0.00000000000E+00 0. -1.
         11    1    3    3    0    0 -0.16836698734E+02 -0.15939747977E+02 -0.27785076569E+02  0.36187849753E+02  0.00000000000E+00 0.  1.
         21    1    1    2  503  502  0.34996641044E+02  0.46582155859E+02 -0.17489637629E+03  0.18434588297E+03  0.00000000000E+00 0. -1.
          1    1    1    2  501    0 -0.25190879672E+02 -0.26636011653E+02  0.47480943686E+01  0.36967579520E+02  0.00000000000E+00 0. -1.
<scales pt_clust_5="13000.00000" pt_clust_6="13000.00000" pt_clust_7="13000.00000" pt_clust_8="13000.00000" pt_clust_9="52.89290" pt_clust_10="36.66139"></scales>
<clustering>
<clus scale="   36.661">  1 10  2 -1</clus>
<clus scale="   52.893">  2  9  1 -1</clus>
<clus scale="   76.997">  5  6 -1 -1</clus>
<clus scale="   92.511">  7  8 -1 -1</clus>
<clus scale="  101.658">  1  5  2 -1</clus>
<clus scale="   36.661">  1  5  2 -1</clus>
</clustering>
</event>
<event>
10    4  0.2857708E-005  0.3558355E+03  0.7546771E-02  0.1060966E+00
         21   -1    0    0  503  502  0.00000000000E+00  0.00000000000E+00  0.14571527799E+03  0.14571527799E+03  0.00000000000E+00 0. -1.
          2   -1    0    0  502    0 -0.00000000000E+00 -0.00000000000E+00 -0.12993114512E+04  0.12993114512E+04  0.00000000000E+00 0. -1.
         23    2    1    2    0    0 -0.13215346431E+03 -0.38458241487E+03 -0.66322889476E+03  0.78356066956E+03  0.93416187471E+02 0.  0.
         24    2    1    2    0    0  0.61191353939E+02  0.26937553923E+03 -0.24439488716E+03  0.37384416401E+03  0.61016679374E+02 0.  0.
        -13    1    4    4    0    0 -0.11876994972E+02  0.55129172758E+02 -0.44129425448E+02  0.71607924764E+02  0.00000000000E+00 0.  1.
         14    1    4    4    0    0  0.73068348911E+02  0.21424636647E+03 -0.20026546171E+03  0.30223623924E+03  0.00000000000E+00 0. -1.
        -13    1    3    3    0    0 -0.38729539359E+01 -0.75216197451E+02 -0.72733089960E+02  0.10470233286E+03  0.00000000000E+00 0.  1.
         13    1    3    3    0    0 -0.12828051038E+03 -0.30936621742E+03 -0.59049580480E+03  0.67885833670E+03  0.00000000000E+00 0. -1.
         21    1    1    2  503  501  0.37002440622E+02  0.10815775684E+03 -0.19265462676E+03  0.22401581683E+03  0.00000000000E+00 0. -1.
          1    1    1    2  501    0  0.33959669751E+02  0.70491188017E+01 -0.53317764546E+02  0.63606078810E+02  0.00000000000E+00 0. -1.
<scales pt_clust_5="13000.00000" pt_clust_6="13000.00000" pt_clust_7="13000.00000" pt_clust_8="13000.00000" pt_clust_9="34.46829" pt_clust_10="149.07703"></scales>
<clustering>
<clus scale="   34.468">  9 10 -1 -1</clus>
<clus scale="   61.017">  5  6 -1 -1</clus>
<clus scale="   93.416">  7  8 -1 -1</clus>
<clus scale="  149.077">  1  9  2 -1</clus>
<clus scale="  348.734">  1  5  2 -1</clus>
<clus scale="  149.077">  1  5  2 -1</clus>
</clustering>
</event>
<event>
10    4  0.2857708E-005  0.1197625E+03  0.7546771E-02  0.1248764E+00
         21   -1    0    0  503  502  0.00000000000E+00  0.00000000000E+00  0.15149416464E+03  0.15149416464E+03  0.00000000000E+00 0.  1.
         -1   -1    0    0    0  501 -0.00000000000E+00 -0.00000000000E+00 -0.34785012318E+03  0.34785012318E+03  0.00000000000E+00 0.  1.
         23    2    1    2    0    0  0.27644669256E+02  0.11326450248E+02 -0.91043522142E+02  0.13318346692E+03  0.92500793100E+02 0.  0.
         24    2    1    2    0    0 -0.70371009434E+02  0.36205248588E+02  0.53689161621E+02  0.12231274230E+03  0.76256028348E+02 0.  0.
        -13    1    4    4    0    0 -0.70857031753E+02 -0.23206276414E+01  0.29285791241E+02  0.76705683166E+02  0.00000000000E+00 0.  1.
         14    1    4    4    0    0  0.48602231834E+00  0.38525876229E+02  0.24403370381E+02  0.45607059134E+02  0.00000000000E+00 0. -1.
        -13    1    3    3    0    0  0.48081486293E+01 -0.30370813422E+02 -0.78064875953E+02  0.83902499716E+02  0.00000000000E+00 0. -1.
         13    1    3    3    0    0  0.22836520627E+02  0.41697263670E+02 -0.12978646190E+02  0.49280967207E+02  0.00000000000E+00 0.  1.
         21    1    1    2  503  501  0.85550331897E+02 -0.49145902289E+02 -0.17266754030E+03  0.19886743945E+03  0.00000000000E+00 0.  1.
         -2    1    1    2    0  502 -0.42823991720E+02  0.16142034524E+01  0.13665942283E+02  0.44980639147E+02  0.00000000000E+00 0.  1.
<scales pt_clust_5="13000.00000" pt_clust_6="13000.00000" pt_clust_7="13000.00000" pt_clust_8="13000.00000" pt_clust_9="94.61823" pt_clust_10="42.85440"></scales>
<clustering>
<clus scale="   42.854">  1 10  2 -1</clus>
<clus scale="   76.256">  5  6 -1 -1</clus>
<clus scale="   92.501">  7  8 -1 -1</clus>
<clus scale="   94.618">  2  9  1 -1</clus>
<clus scale="  107.711">  1  5  2 -1</clus>
<clus scale="   42.854">  1  5  2 -1</clus>
</clustering>
</event>
<event>
10    4  0.2857708E-005  0.1209074E+03  0.7546771E-02  0.1245043E+00
         21   -1    0    0  501  502  0.00000000000E+00  0.00000000000E+00  0.61722193091E+03  0.61722193091E+03  0.00000000000E+00 0. -1.
         -3   -1    0    0    0  501 -0.00000000000E+00 -0.00000000000E+00 -0.55198164876E+02  0.55198164876E+02  0.00000000000E+00 0.  1.
         24    2    1    2    0    0  0.35786418431E+02 -0.94511886167E+02  0.24401381524E+03  0.27608533531E+03  0.80418940398E+02 0.  0.
         23    2    1    2    0    0 -0.39562440056E+01  0.52680559056E+02  0.32087574274E+03  0.33780707686E+03  0.91441159940E+02 0.  0.
        -13    1    3    3    0    0 -0.20004198858E+02 -0.31947532289E+01  0.23847025817E+02  0.31289855552E+02  0.00000000000E+00 0.  1.
         14    1    3    3    0    0  0.55790617289E+02 -0.91317132938E+02  0.22016678943E+03  0.24479547976E+03  0.00000000000E+00 0. -1.
        -11    1    4    4    0    0  0.26416457437E+02  0.65437980467E+02  0.18520348098E+03  0.19819255253E+03  0.00000000000E+00 0.  1.
         11    1    4    4    0    0 -0.30372701443E+02 -0.12757421411E+02  0.13567226176E+03  0.13961452433E+03  0.00000000000E+00 0. -1.
         21    1    1    2  503  502 -0.97077135847E+01  0.27000562053E+02  0.79623207971E+01  0.29776981155E+02  0.00000000000E+00 0.  1.
         -4    1    1    2    0  503 -0.22122460840E+02  0.14830765058E+02 -0.10828112748E+02  0.28750702453E+02  0.00000000000E+00 0.  1.
<scales pt_clust_5="13000.00000" pt_clust_6="13000.00000" pt_clust_7="13000.00000" pt_clust_8="13000.00000" pt_clust_9="24.64362" pt_clust_10="58.45751"></scales>
<clustering>
<clus scale="   24.644">  9 10 -1 -1</clus>
<clus scale="   58.458">  1  9  2 -1</clus>
<clus scale="   80.419">  5  6 -1 -1</clus>
<clus scale="   91.441">  7  8 -1 -1</clus>
<clus scale="  112.802">  2  5  1 -1</clus>
<clus scale="   58.458">  1  5  2 -1</clus>
</clustering>
</event>
<event>
10    4  0.2857708E-005  0.1451065E+03  0.7546771E-02  0.1227328E+00
          2   -1    0    0  503    0 -0.00000000000E+00  0.00000000000E+00  0.13284611097E+04  0.13284611097E+04  0.00000000000E+00 0. -1.
         21   -1    0    0  501  502  0.00000000000E+00 -0.00000000000E+00 -0.38680746045E+02  0.38680746045E+02  0.00000000000E+00 0.  1.
         23    2    1    2    0    0  0.30946184208E+02  0.10047152048E+02  0.19383250595E+03  0.21657833151E+03  0.90975390828E+02 0.  0.
         24    2    1    2    0    0  0.43863735099E+02  0.11810098572E+03  0.29042437227E+03  0.32667708386E+03  0.80620909330E+02 0.  0.
        -11    1    4    4    0    0  0.10279248645E+02  0.10809283388E+03  0.17405872070E+03  0.20514912123E+03  0.00000000000E+00 0.  1.
         12    1    4    4    0    0  0.33584486454E+02  0.10008151834E+02  0.11636565158E+03  0.12152796263E+03  0.00000000000E+00 0. -1.
        -11    1    3    3    0    0  0.43591980009E+02  0.39160931078E+02  0.15899043500E+03  0.16944555959E+03  0.00000000000E+00 0. -1.
         11    1    3    3    0    0 -0.12645795801E+02 -0.29113779030E+02  0.34842070955E+02  0.47132771924E+02  0.00000000000E+00 0.  1.
         21    1    1    2  503  502 -0.52377823898E+02 -0.19893926828E+02  0.17518894136E+03  0.18393033990E+03  0.00000000000E+00 0. -1.
          1    1    1    2  501    0 -0.22432095410E+02 -0.10825421094E+03  0.63033454402E+03  0.63995610043E+03  0.00000000000E+00 0. -1.
<scales pt_clust_5="13000.00000" pt_clust_6="13000.00000" pt_clust_7="13000.00000" pt_clust_8="13000.00000" pt_clust_9="56.02861" pt_clust_10="120.64895"></scales>
<clustering>
<clus scale="   56.029">  1  9  2 -1</clus>
<clus scale="   80.621">  5  6 -1 -1</clus>
<clus scale="   90.975">  7  8 -1 -1</clus>
<clus scale="   93.728">  1  7  2 -1</clus>
<clus scale="  120.649">  2 10  1 -1</clus>
<clus scale="  120.649">  2  5  1 -1</clus>
</clustering>
</event>
<event>
10    4  0.2857708E-005  0.1658247E+03  0.7546771E-02  0.1204636E+00
          2   -1    0    0  503    0 -0.00000000000E+00  0.00000000000E+00  0.12487364129E+04  0.12487364129E+04  0.00000000000E+00 0. -1.
         21   -1    0    0  501  502  0.00000000000E+00 -0.00000000000E+00 -0.50516940919E+02  0.50516940919E+02  0.00000000000E+00 0. -1.
         23    2    1    2    0    0  0.26903064300E+02 -0.22848246247E+02  0.21772208111E+03  0.23909929631E+03  0.92302500877E+02 0.  0.
         24    2    1    2    0    0 -0.14896645100E+03 -0.62641726857E+02  0.76046222814E+03  0.78150727377E+03  0.79597921244E+02 0.  0.
        -11    1    4    4    0    0 -0.96120990132E+02 -0.17152354348E+02  0.29218949375E+03  0.30807166092E+03  0.00000000000E+00 0.  1.
         12    1    4    4    0    0 -0.52845460864E+02 -0.45489372509E+02  0.46827273439E+03  0.47343561285E+03  0.00000000000E+00 0. -1.
        -13    1    3    3    0    0  0.72788208562E+01  0.23221403732E+02  0.11557517124E+02  0.26940509023E+02  0.00000000000E+00 0. -1.
         13    1    3    3    0    0  0.19624243444E+02 -0.46069649979E+02  0.20616456399E+03  0.21215878729E+03  0.00000000000E+00 0.  1.
         21    1    1    2  503  502  0.27385550160E+02 -0.13951264006E+02  0.62677428981E+02  0.69807350821E+02  0.00000000000E+00 0. -1.
          1    1    1    2  501    0  0.94677836535E+02  0.99441237110E+02  0.15735773375E+03  0.20883943291E+03  0.00000000000E+00 0. -1.
<scales pt_clust_5="13000.00000" pt_clust_6="13000.00000" pt_clust_7="13000.00000" pt_clust_8="13000.00000" pt_clust_9="30.73445" pt_clust_10="145.47168"></scales>
<clustering>
<clus scale="   30.734">  2  9  1 -1</clus>
<clus scale="   79.598">  5  6 -1 -1</clus>
<clus scale="   92.303">  7  8 -1 -1</clus>
<clus scale="  101.465">  1  7  2 -1</clus>
<clus scale="  145.472">  2 10  1 -1</clus>
<clus scale="   30.734">  2  5  1 -1</clus>
</clustering>
</event>
<event>
10    4  0.2857708E-005  0.2179048E+03  0.7546771E-02  0.1165516E+00
          2   -1    0    0  503    0 -0.00000000000E+00  0.00000000000E+00  0.11713455231E+04  0.11713455231E+04  0.00000000000E+00 0. -1.
         21   -1    0    0  501  502  0.00000000000E+00 -0.00000000000E+00 -0.10537188235E+03  0.10537188235E+03  0.00000000000E+00 0. -1.
         24    2    1    2    0    0 -0.71124643420E+02 -0.88543557915E+01  0.75199019407E+02  0.12976288491E+03  0.77758596073E+02 0.  0.
         23    2    1    2    0    0  0.15311819800E+03 -0.13980893716E+03  0.12296457260E+03  0.25769476272E+03  0.91074602138E+02 0.  0.
        -11    1    3    3    0    0 -0.78530084688E+02  0.84865131736E+01  0.37128000512E+02  0.87278196183E+02  0.00000000000E+00 0.  1.
         12    1    3    3    0    0  0.74054412680E+01 -0.17340868965E+02  0.38071018895E+02  0.42484688731E+02  0.00000000000E+00 0. -1.
        -13    1    4    4    0    0  0.89712926575E+02 -0.28672820365E+02  0.77285895524E+02  0.12183451674E+03  0.00000000000E+00 0.  1.
         13    1    4    4    0    0  0.63405271420E+02 -0.11113611679E+03  0.45678677077E+02  0.13586024598E+03  0.00000000000E+00 0. -1.
         21    1    1    2  503  502 -0.17490626143E+02 -0.11042848300E+02  0.66299916069E+02  0.69451748518E+02  0.00000000000E+00 0. -1.
          1    1    1    2  501    0 -0.64502928433E+02  0.15970614125E+03  0.80151013264E+03  0.81980800927E+03  0.00000000000E+00 0. -1.
<scales pt_clust_5="13000.00000" pt_clust_6="13000.00000" pt_clust_7="13000.00000" pt_clust_8="13000.00000" pt_clust_9="20.68493" pt_clust_10="197.95943"></scales>
<clustering>
<clus scale="   20.685">  1  9  2 -1</clus>
<clus scale="   77.759">  5  6 -1 -1</clus>
<clus scale="   91.075">  7  8 -1 -1</clus>
<clus scale="  106.941">  1  5  2 -1</clus>
<clus scale="  197.959">  2 10  1 -1</clus>
<clus scale="  197.959">  2  5  1 -1</clus>
</clustering>
</event>
<event>
10    4  0.2857708E-005  0.2668934E+03  0.7546771E-02  0.1103756E+00
          2   -1    0    0  503    0 -0.00000000000E+00  0.00000000000E+00  0.14926823203E+04  0.14926823203E+04  0.00000000000E+00 0. -1.
         21   -1    0    0  501  502  0.00000000000E+00 -0.00000000000E+00 -0.69092213390E+03  0.69092213390E+03  0.00000000000E+00 0.  1.
         24    2    1    2    0    0 -0.24696194407E+03  0.53655169052E+01  0.12163576068E+04  0.12435466369E+04  0.76572970328E+02 0.  0.
         23    2    1    2    0    0  0.29514001232E+03  0.78536169747E+02  0.37706235810E+01  0.31878623003E+03  0.91295596945E+02 0.  0.
        -13    1    3    3    0    0 -0.74224084014E+02  0.15243125529E+02  0.23089186047E+03  0.24300744588E+03  0.00000000000E+00 0.  1.
         14    1    3    3    0    0 -0.17273786006E+03 -0.98776086235E+01  0.98546574636E+03  0.10005391910E+04  0.00000000000E+00 0. -1.
        -13    1    4    4    0    0  0.21082137837E+03  0.12177923755E+02 -0.39521822585E+01  0.21120978943E+03  0.00000000000E+00 0.  1.
         13    1    4    4    0    0  0.84318633953E+02  0.66358245992E+02  0.77228058395E+01  0.10757644060E+03  0.00000000000E+00 0. -1.
         21    1    1    2  503  502  0.15664245185E+02 -0.70528344312E+02  0.86218415120E+02  0.11248658158E+03  0.00000000000E+00 0.  1.
          1    1    1    2  501    0 -0.63842313438E+02 -0.13373342340E+02 -0.50458645915E+03  0.50878500571E+03  0.00000000000E+00 0. -1.
<scales pt_clust_5="13000.00000" pt_clust_6="13000.00000" pt_clust_7="13000.00000" pt_clust_8="13000.00000" pt_clust_9="72.34041" pt_clust_10="65.22796"></scales>
<clustering>
<clus scale="   65.228">  2 10  1 -1</clus>
<clus scale="   72.340">  2  9  1 -1</clus>
<clus scale="   76.573">  5  6 -1 -1</clus>
<clus scale="   91.296">  7  8 -1 -1</clus>
<clus scale="  262.223">  1  5  2 -1</clus>
<clus scale="   65.228">  2  5  1 -1</clus>
</clustering>
</event>
<event>
10    4  0.2857708E-005  0.1705095E+03  0.7546771E-02  0.1178748E+00
         -1   -1    0    0    0  501 -0.00000000000E+00  0.00000000000E+00  0.86988535623E+02  0.86988535623E+02  0.00000000000E+00 0.  1.
         21   -1    0    0  503  502  0.00000000000E+00 -0.00000000000E+00 -0.72245714195E+03  0.72245714195E+03  0.00000000000E+00 0.  1.
         23    2    1    2    0    0  0.10438024745E+03 -0.90300537244E+01 -0.18429509212E+03  0.23064473176E+03  0.90859965769E+02 0.  0.
         24    2    1    2    0    0 -0.19871954429E+03  0.32684550628E+02 -0.32789544510E+03  0.39307947105E+03  0.80239083436E+02 0.  0.
        -13    1    4    4    0    0 -0.28990476903E+02  0.31734333193E+02 -0.39135912594E+02  0.58130330369E+02  0.00000000000E+00 0.  1.
         14    1    4    4    0    0 -0.16972906739E+03  0.95021743488E+00 -0.28875953251E+03  0.33494914068E+03  0.00000000000E+00 0. -1.
        -13    1    3    3    0    0  0.21222069741E+02 -0.59369604871E+01 -0.12868470441E+03  0.13055794458E+03  0.00000000000E+00 0.  1.
         13    1    3    3    0    0  0.83158177713E+02 -0.30930932373E+01 -0.55610387708E+02  0.10008678718E+03  0.00000000000E+00 0. -1.
         21    1    1    2  503  501  0.24325293005E+02  0.30499192378E+02 -0.70767834009E+01  0.39648473852E+02  0.00000000000E+00 0.  1.
         -2    1    1    2    0  502  0.70014003834E+02 -0.54153689281E+02 -0.11620128570E+03  0.14607300091E+03  0.00000000000E+00 0.  1.
<scales pt_clust_5="13000.00000" pt_clust_6="13000.00000" pt_clust_7="13000.00000" pt_clust_8="13000.00000" pt_clust_9="39.01180" pt_clust_10="89.01827"></scales>
<clustering>
<clus scale="   39.012">  1  9  2 -1</clus>
<clus scale="   80.239">  5  6 -1 -1</clus>
<clus scale="   89.018">  2 10  1 -1</clus>
<clus scale="   90.860">  7  8 -1 -1</clus>
<clus scale="  165.095">  2  5  1 -1</clus>
<clus scale="   89.018">  2  5  1 -1</clus>
</clustering>
</event>
<event>
10    4  0.2857708E-005  0.1736573E+03  0.7546771E-02  0.1198885E+00
         21   -1    0    0  501  502  0.00000000000E+00  0.00000000000E+00  0.52317158935E+02  0.52317158935E+02  0.00000000000E+00 0. -1.
          2   -1    0    0  503    0 -0.00000000000E+00 -0.00000000000E+00 -0.14308779080E+04  0.14308779080E+04  0.00000000000E+00 0. -1.
         24    2    1    2    0    0 -0.60155941911E+02  0.25190819412E+01 -0.26942792012E+03  0.28758351391E+03  0.80546820007E+02 0.  0.
         23    2    1    2    0    0 -0.12373105666E+02 -0.18084920487E+03 -0.40628869434E+03  0.45390020732E+03  0.89974254168E+02 0.  0.
        -13    1    3    3    0    0 -0.23012059577E+02 -0.58051574326E+01 -0.10636325992E+02  0.26007425274E+02  0.00000000000E+00 0.  1.
         14    1    3    3    0    0 -0.37143882334E+02  0.83242393738E+01 -0.25879159413E+03  0.26157608864E+03  0.00000000000E+00 0. -1.
        -13    1    4    4    0    0 -0.33068803528E+02 -0.21352788539E+02 -0.55974320044E+02  0.68429612373E+02  0.00000000000E+00 0.  1.
         13    1    4    4    0    0  0.20695697862E+02 -0.15949641633E+03 -0.35031437430E+03  0.38547059495E+03  0.00000000000E+00 0. -1.
         21    1    1    2  503  502  0.85402507328E+02  0.52142243683E+02 -0.41954453902E+03  0.43131197764E+03  0.00000000000E+00 0. -1.
          1    1    1    2  501    0 -0.12873459751E+02  0.12618787924E+03 -0.28329959558E+03  0.31039936806E+03  0.00000000000E+00 0. -1.
<scales pt_clust_5="13000.00000" pt_clust_6="13000.00000" pt_clust_7="13000.00000" pt_clust_8="13000.00000" pt_clust_9="100.06199" pt_clust_10="148.53111"></scales>
<clustering>
<clus scale="   80.547">  5  6 -1 -1</clus>
<clus scale="   89.974">  7  8 -1 -1</clus>
<clus scale="  100.062">  2  9  1 -1</clus>
<clus scale="  100.062">  2  5  1 -1</clus>
<clus scale="  148.531">  1 10  2 -1</clus>
<clus scale="  148.531">  1  5  2 -1</clus>
</clustering>
</event>
<event>
10    4  0.2857708E-005  0.1093880E+03  0.7546771E-02  0.1264448E+00
         -3   -1    0    0    0  501 -0.00000000000E+00  0.00000000000E+00  0.90861898700E+02  0.90861898700E+02  0.00000000000E+00 0.  1.
         21   -1    0    0  503  502  0.00000000000E+00 -0.00000000000E+00 -0.51228192418E+03  0.51228192418E+03  0.00000000000E+00 0.  1.
         23    2    1    2    0    0 -0.34423407151E+02  0.33473976672E+02  0.31000334261E+02  0.10634570947E+03  0.89682278763E+02 0.  0.
         24    2    1    2    0    0  0.72424691381E+02  0.16518423986E+02 -0.33833840215E+03  0.35611445844E+03  0.82622266311E+02 0.  0.
        -11    1    4    4    0    0  0.78624927944E+02  0.36805043128E+02 -0.29988682809E+03  0.31219961588E+03  0.00000000000E+00 0.  1.
         12    1    4    4    0    0 -0.62002365631E+01 -0.20286619142E+02 -0.38451574059E+02  0.43914842563E+02  0.00000000000E+00 0. -1.
        -13    1    3    3    0    0 -0.78638692986E+01  0.57893694265E+02 -0.53372014462E+00  0.58427777069E+02  0.00000000000E+00 0.  1.
         13    1    3    3    0    0 -0.26559537853E+02 -0.24419717594E+02  0.31534054406E+02  0.47917932401E+02  0.00000000000E+00 0. -1.
         21    1    1    2  503  501 -0.30123567925E+02 -0.22088463440E+02 -0.20283111332E+02  0.42505695700E+02  0.00000000000E+00 0.  1.
         -4    1    1    2    0  502 -0.78777163047E+01 -0.27903937217E+02 -0.93798846263E+02  0.98177959271E+02  0.00000000000E+00 0.  1.
<scales pt_clust_5="13000.00000" pt_clust_6="13000.00000" pt_clust_7="13000.00000" pt_clust_8="13000.00000" pt_clust_9="39.10073" pt_clust_10="28.99462"></scales>
<clustering>
<clus scale="   28.995">  2 10  1 -1</clus>
<clus scale="   39.101">  1  9  2 -1</clus>
<clus scale="   82.622">  5  6 -1 -1</clus>
<clus scale="   89.682">  7  8 -1 -1</clus>
<clus scale="  103.679">  2  5  1 -1</clus>
<clus scale="   28.995">  2  5  1 -1</clus>
</clustering>
</event>
<event>
10    4  0.2857708E-005  0.1019129E+03  0.7546771E-02  0.1278483E+00
          2   -1    0    0  503    0 -0.00000000000E+00  0.00000000000E+00  0.27205006297E+03  0.27205006297E+03  0.00000000000E+00 0. -1.
         21   -1    0    0  501  502  0.00000000000E+00 -0.00000000000E+00 -0.10080762944E+03  0.10080762944E+03  0.00000000000E+00 0.  1.
         24    2    1    2    0    0 -0.30029997565E+02 -0.23427673386E+02  0.16092528949E+03  0.19078712311E+03  0.95142634583E+02 0.  0.
         23    2    1    2    0    0  0.25256257000E+02 -0.15767868472E+02 -0.34140722736E+01  0.95539496308E+02  0.90717337215E+02 0.  0.
        -13    1    3    3    0    0 -0.21227897038E+02 -0.46469610969E+02  0.33722305343E+02  0.61214722362E+02  0.00000000000E+00 0.  1.
         14    1    3    3    0    0 -0.88021005270E+01  0.23041937583E+02  0.12720298414E+03  0.12957240075E+03  0.00000000000E+00 0. -1.
        -11    1    4    4    0    0  0.53412868115E+02 -0.15327092092E+02 -0.24128944203E+02  0.60581021621E+02  0.00000000000E+00 0.  1.
         11    1    4    4    0    0 -0.28156611116E+02 -0.44077638030E+00  0.20714871930E+02  0.34958474686E+02  0.00000000000E+00 0. -1.
         21    1    1    2  503  502 -0.16167800200E+02  0.29456774577E+02  0.39545360696E+02  0.51893495588E+02  0.00000000000E+00 0. -1.
          1    1    1    2  501    0  0.20941540766E+02  0.97387672805E+01 -0.25814144377E+02  0.34637577394E+02  0.00000000000E+00 0. -1.
<scales pt_clust_5="13000.00000" pt_clust_6="13000.00000" pt_clust_7="13000.00000" pt_clust_8="13000.00000" pt_clust_9="33.52812" pt_clust_10="23.09527"></scales>
<clustering>
<clus scale="   23.095">  2 10  1 -1</clus>
<clus scale="   33.528">  1  9  2 -1</clus>
<clus scale="   90.717">  7  8 -1 -1</clus>
<clus scale="   95.143">  5  6 -1 -1</clus>
<clus scale="   97.794">  2  7  1 -1</clus>
<clus scale="   23.095">  2  5  1 -1</clus>
</clustering>
</event>
<event>
10    4  0.2857708E-005  0.1919587E+03  0.7546771E-02  0.1190036E+00
          2   -1    0    0  503    0 -0.00000000000E+00  0.00000000000E+00  0.10682242831E+03  0.10682242831E+03  0.00000000000E+00 0. -1.
         21   -1    0    0  501  502  0.00000000000E+00 -0.00000000000E+00 -0.90888667388E+03  0.90888667388E+03  0.00000000000E+00 0. -1.
         24    2    1    2    0    0 -0.41123130506E+02 -0.21804074096E+01 -0.17266783652E+02  0.91590306270E+02  0.79967345498E+02 0.  0.
         23    2    1    2    0    0 -0.11996271454E+03 -0.59514487879E+02 -0.22013952134E+03  0.27312975119E+03  0.90583800897E+02 0.  0.
        -11    1    3    3    0    0 -0.12946963213E+02  0.38160719383E+02 -0.12304999659E+02  0.42134040595E+02  0.00000000000E+00 0.  1.
         12    1    3    3    0    0 -0.28176167293E+02 -0.40341126792E+02 -0.49617839928E+01  0.49456265676E+02  0.00000000000E+00 0. -1.
        -11    1    4    4    0    0 -0.10945403351E+03 -0.82009171972E+02 -0.18320555942E+03  0.22862625995E+03  0.00000000000E+00 0. -1.
         11    1    4    4    0    0 -0.10508681034E+02  0.22494684093E+02 -0.36933961923E+02  0.44503491243E+02  0.00000000000E+00 0.  1.
         21    1    1    2  503  502  0.22402081311E+03 -0.91620858179E+01 -0.44550791075E+03  0.49874499202E+03  0.00000000000E+00 0. -1.
          1    1    1    2  501    0 -0.62934968058E+02  0.70856981106E+02 -0.11915002983E+03  0.15224405271E+03  0.00000000000E+00 0. -1.
<scales pt_clust_5="13000.00000" pt_clust_6="13000.00000" pt_clust_7="13000.00000" pt_clust_8="13000.00000" pt_clust_9="169.24161" pt_clust_10="101.16005"></scales>
<clustering>
<clus scale="   79.967">  5  6 -1 -1</clus>
<clus scale="   89.948">  1  5  2 -1</clus>
<clus scale="   90.584">  7  8 -1 -1</clus>
<clus scale="  101.160">  2 10  1 -1</clus>
<clus scale="  169.242">  2  9  1 -1</clus>
<clus scale="  101.160">  2  5  1 -1</clus>
</clustering>
</event>
<event>
10    4  0.2857708E-005  0.9557014E+02  0.7546771E-02  0.1290770E+00
         21   -1    0    0  501  502  0.00000000000E+00  0.00000000000E+00  0.21223584075E+03  0.21223584075E+03  0.00000000000E+00 0.  1.
          2   -1    0    0  503    0 -0.00000000000E+00 -0.00000000000E+00 -0.52520718165E+03  0.52520718165E+03  0.00000000000E+00 0. -1.
         23    2    1    2    0    0  0.32220366181E+02 -0.91923364547E+02 -0.21015731714E+03  0.24872114994E+03  0.90598319708E+02 0.  0.
         24    2    1    2    0    0  0.23073134148E+02 -0.53717684748E+02  0.43396535508E+02  0.11119905997E+03  0.84047679742E+02 0.  0.
        -13    1    4    4    0    0  0.26233644801E+02 -0.73786327485E+02  0.45833026596E+02  0.90737492638E+02  0.00000000000E+00 0.  1.
         14    1    4    4    0    0 -0.31605106536E+01  0.20068642736E+02 -0.24364910882E+01  0.20461567332E+02  0.00000000000E+00 0. -1.
        -13    1    3    3    0    0  0.18410720996E+02  0.12189906880E+02 -0.13792245646E+02  0.26034102967E+02  0.00000000000E+00 0.  1.
         13    1    3    3    0    0  0.13809645186E+02 -0.10411327143E+03 -0.19636507149E+03  0.22268704697E+03  0.00000000000E+00 0. -1.
         21    1    1    2  503  502 -0.60634695441E+02  0.55318954366E+02 -0.23611323812E+03  0.24997242692E+03  0.00000000000E+00 0. -1.
          1    1    1    2  501    0  0.53411951122E+01  0.90322094928E+02  0.89902678849E+02  0.12755038558E+03  0.00000000000E+00 0. -1.
<scales pt_clust_5="13000.00000" pt_clust_6="13000.00000" pt_clust_7="13000.00000" pt_clust_8="13000.00000" pt_clust_9="82.07773" pt_clust_10="94.02149"></scales>
<clustering>
<clus scale="   82.078">  2  9  1 -1</clus>
<clus scale="   84.048">  5  6 -1 -1</clus>
<clus scale="   90.598">  7  8 -1 -1</clus>
<clus scale="   94.021">  1 10  2 -1</clus>
<clus scale="   94.021">  1  5  2 -1</clus>
<clus scale="   94.021">  1  5  2 -1</clus>
</clustering>
</event>
<event>
10    4  0.2857708E-005  0.9657575E+02  0.7546771E-02  0.1295311E+00
         21   -1    0    0  503  502  0.00000000000E+00  0.00000000000E+00  0.38938283696E+03  0.38938283696E+03  0.00000000000E+00 0.  1.
         -1   -1    0    0    0  501 -0.00000000000E+00 -0.00000000000E+00 -0.37575240651E+03  0.37575240651E+03  0.00000000000E+00 0.  1.
         23    2    1    2    0    0  0.32655551986E+01 -0.20851858997E+02 -0.12189585630E+03  0.15360298339E+03  0.91048409366E+02 0.  0.
         24    2    1    2    0    0 -0.57811132180E+02  0.39841669925E+02  0.18946717533E+03  0.21633107069E+03  0.77277654937E+02 0.  0.
        -13    1    4    4    0    0 -0.54421062526E+02  0.58084100109E+02  0.17672476527E+03  0.19382223142E+03  0.00000000000E+00 0.  1.
         14    1    4    4    0    0 -0.33900696533E+01 -0.18242430183E+02  0.12742410055E+02  0.22508839270E+02  0.00000000000E+00 0. -1.
        -11    1    3    3    0    0  0.11290607648E+02 -0.47244923213E+02 -0.28722744267E+02  0.56431875998E+02  0.00000000000E+00 0.  1.
         11    1    3    3    0    0 -0.80250524496E+01  0.26393064216E+02 -0.93173112030E+02  0.97171107387E+02  0.00000000000E+00 0. -1.
         21    1    1    2  503  501  0.29632143838E+02  0.23449905817E+02 -0.21937337031E+03  0.22260421746E+03  0.00000000000E+00 0.  1.
         -2    1    1    2    0  502  0.24913433143E+02 -0.42439716746E+02  0.16543248173E+03  0.17259697193E+03  0.00000000000E+00 0.  1.
<scales pt_clust_5="13000.00000" pt_clust_6="13000.00000" pt_clust_7="13000.00000" pt_clust_8="13000.00000" pt_clust_9="37.78838" pt_clust_10="49.09865"></scales>
<clustering>
<clus scale="   37.788">  2  9  1 -1</clus>
<clus scale="   49.099">  1 10  2 -1</clus>
<clus scale="   77.278">  5  6 -1 -1</clus>
<clus scale="   83.719">  1  5  2 -1</clus>
<clus scale="   91.048">  7  8 -1 -1</clus>
<clus scale="   49.099">  1  5  2 -1</clus>
</clustering>
</event>
<event>
10    4  0.2857708E-005  0.9060851E+02  0.7546771E-02  0.1308577E+00
         21   -1    0    0  503  502  0.00000000000E+00  0.00000000000E+00  0.62519200328E+03  0.62519200328E+03  0.00000000000E+00 0. -1.
         -3   -1    0    0    0  501 -0.00000000000E+00 -0.00000000000E+00 -0.78865376547E+02  0.78865376547E+02  0.00000000000E+00 0.  1.
         23    2    1    2    0    0  0.43523006667E+02 -0.44773971315E+02  0.52317685057E+02  0.12104677831E+03  0.89533355528E+02 0.  0.
         24    2    1    2    0    0  0.24018156783E+02 -0.19846530133E+02  0.20378585476E+03  0.22049123456E+03  0.78210953873E+02 0.  0.
        -13    1    4    4    0    0  0.29587361168E+02  0.69490963721E+01  0.24250135669E+02  0.38881498958E+02  0.00000000000E+00 0.  1.
         14    1    4    4    0    0 -0.55692043852E+01 -0.26795626505E+02  0.17953571909E+03  0.18160973560E+03  0.00000000000E+00 0. -1.
        -11    1    3    3    0    0  0.19293393694E+02 -0.51372372343E+02 -0.82379457312E+01  0.55490714811E+02  0.00000000000E+00 0. -1.
         11    1    3    3    0    0  0.24229612973E+02  0.65984010282E+01  0.60555630788E+02  0.65556063496E+02  0.00000000000E+00 0.  1.
         21    1    1    2  503  501 -0.59068114893E+02  0.23323327004E+02 -0.55582228471E+01  0.63748832309E+02  0.00000000000E+00 0.  1.
         -4    1    1    2    0  502 -0.84730485567E+01  0.41297174444E+02  0.29578130976E+03  0.29877053465E+03  0.00000000000E+00 0.  1.
<scales pt_clust_5="13000.00000" pt_clust_6="13000.00000" pt_clust_7="13000.00000" pt_clust_8="13000.00000" pt_clust_9="65.62583" pt_clust_10="42.15743"></scales>
<clustering>
<clus scale="   42.157">  1 10  2 -1</clus>
<clus scale="   65.626">  2  9  1 -1</clus>
<clus scale="   78.211">  5  6 -1 -1</clus>
<clus scale="   79.440">  1  5  2 -1</clus>
<clus scale="   89.533">  7  8 -1 -1</clus>
<clus scale="   42.157">  1  5  2 -1</clus>
</clustering>
</event>
<event>
10    4  0.2857708E-005  0.1031137E+03  0.7546771E-02  0.1277643E+00
          2   -1    0    0  503    0 -0.00000000000E+00  0.00000000000E+00  0.64938405601E+03  0.64938405601E+03  0.00000000000E+00 0. -1.
         21   -1    0    0  501  502  0.00000000000E+00 -0.00000000000E+00 -0.97921641303E+02  0.97921641303E+02  0.00000000000E+00 0. -1.
         24    2    1    2    0    0 -0.45991136882E+02 -0.22506548250E+02  0.53347155786E+03  0.54182462270E+03  0.79751422120E+02 0.  0.
         23    2    1    2    0    0  0.70698719141E+01  0.22377432833E+02  0.21650566579E+02  0.93846402078E+02  0.88247762355E+02 0.  0.
        -13    1    3    3    0    0 -0.24298863623E+02 -0.25548440475E+02  0.75474014385E+02  0.83303567940E+02  0.00000000000E+00 0.  1.
         14    1    3    3    0    0 -0.21692273258E+02  0.30418922249E+01  0.45799754347E+03  0.45852105476E+03  0.00000000000E+00 0. -1.
        -11    1    4    4    0    0 -0.39019502303E+02 -0.17707904415E+01  0.12533849804E+02  0.41021392586E+02  0.00000000000E+00 0. -1.
         11    1    4    4    0    0  0.46089374217E+02  0.24148223275E+02  0.91167167745E+01  0.52825009492E+02  0.00000000000E+00 0.  1.
         21    1    1    2  503  502  0.52042192608E+01 -0.24232049313E+02  0.42685768364E+02  0.49359405718E+02  0.00000000000E+00 0.  1.
          1    1    1    2  501    0  0.33717045707E+02  0.24361164730E+02 -0.46345478093E+02  0.62275266823E+02  0.00000000000E+00 0. -1.
<scales pt_clust_5="13000.00000" pt_clust_6="13000.00000" pt_clust_7="13000.00000" pt_clust_8="13000.00000" pt_clust_9="24.78459" pt_clust_10="41.46637"></scales>
<clustering>
<clus scale="   24.785">  1  9  2 -1</clus>
<clus scale="   41.466">  2 10  1 -1</clus>
<clus scale="   79.751">  5  6 -1 -1</clus>
<clus scale="   88.248">  7  8 -1 -1</clus>
<clus scale="   95.943">  1  5  2 -1</clus>
<clus scale="   41.466">  2  5  1 -1</clus>
</clustering>
</event>
<event>
10    4  0.2857708E-005  0.1109302E+03  0.7546771E-02  0.1263237E+00
          2   -1    0    0  503    0 -0.00000000000E+00  0.00000000000E+00  0.50218341461E+03  0.50218341461E+03  0.00000000000E+00 0. -1.
         21   -1    0    0  501  502  0.00000000000E+00 -0.00000000000E+00 -0.28254503180E+03  0.28254503180E+03  0.00000000000E+00 0. -1.
         24    2    1    2    0    0  0.32846770495E+02 -0.70036218738E+02  0.25034361411E+03  0.27427167423E+03  0.81049638449E+02 0.  0.
         23    2    1    2    0    0 -0.48084209316E+02  0.76508420024E+02 -0.25972285711E+02  0.13173003406E+03  0.92263821339E+02 0.  0.
        -13    1    3    3    0    0 -0.33300663586E+01 -0.66812279738E+02  0.20796178176E+03  0.21845611170E+03  0.00000000000E+00 0.  1.
         14    1    3    3    0    0  0.36176836854E+02 -0.32239390006E+01  0.42381832347E+02  0.55815562530E+02  0.00000000000E+00 0. -1.
        -13    1    4    4    0    0 -0.27598148577E+02 -0.12403383938E+02  0.12463217022E+02  0.32723592659E+02  0.00000000000E+00 0.  1.
         13    1    4    4    0    0 -0.20486060739E+02  0.88911803962E+02 -0.38435502732E+02  0.99006441400E+02  0.00000000000E+00 0. -1.
         21    1    1    2  503  502 -0.20652610436E+02  0.17574394518E+02  0.18355444937E+03  0.18554682844E+03  0.00000000000E+00 0. -1.
          1    1    1    2  501    0  0.35890049257E+02 -0.24046595803E+02 -0.18828739495E+03  0.19317990968E+03  0.00000000000E+00 0. -1.
<scales pt_clust_5="13000.00000" pt_clust_6="13000.00000" pt_clust_7="13000.00000" pt_clust_8="13000.00000" pt_clust_9="27.11807" pt_clust_10="42.99362"></scales>
<clustering>
<clus scale="   27.118">  1  9  2 -1</clus>
<clus scale="   42.994">  2 10  1 -1</clus>
<clus scale="   81.050">  5  6 -1 -1</clus>
<clus scale="   92.264">  7  8 -1 -1</clus>
<clus scale="  101.794">  1  5  2 -1</clus>
<clus scale="   42.994">  2  5  1 -1</clus>
</clustering>
</event>
<event>
10    4  0.2857708E-005  0.1304285E+03  0.7546771E-02  0.1229361E+00
         21   -1    0    0  501  502  0.00000000000E+00  0.00000000000E+00  0.17746449287E+03  0.17746449287E+03  0.00000000000E+00 0.  1.
          2   -1    0    0  503    0 -0.00000000000E+00 -0.00000000000E+00 -0.54822112181E+03  0.54822112181E+03  0.00000000000E+00 0. -1.
         23    2    1    2    0    0  0.20957693451E+02  0.86879138079E+02 -0.46590116697E+03  0.48284892026E+03  0.89955393741E+02 0.  0.
         24    2    1    2    0    0 -0.71236081712E+02 -0.63383008560E+02  0.10700300729E+03  0.16411695330E+03  0.79954647648E+02 0.  0.
        -11    1    4    4    0    0 -0.49953046552E+02 -0.76795240372E+02  0.10429131729E+03  0.13881460538E+03  0.00000000000E+00 0.  1.
         12    1    4    4    0    0 -0.21283035161E+02  0.13412231812E+02  0.27116899953E+01  0.25302347924E+02  0.00000000000E+00 0. -1.
        -13    1    3    3    0    0 -0.26793533386E+02  0.71835867479E+02 -0.28958558615E+03  0.29956317697E+03  0.00000000000E+00 0.  1.
         13    1    3    3    0    0  0.47751226837E+02  0.15043270600E+02 -0.17631558082E+03  0.18328574329E+03  0.00000000000E+00 0. -1.
         21    1    1    2  503  502  0.35208432406E+02 -0.95968729648E+01 -0.33050066501E+02  0.49234546600E+02  0.00000000000E+00 0. -1.
          1    1    1    2  501    0  0.15069955856E+02 -0.13899256555E+02  0.21191597244E+02  0.29485194522E+02  0.00000000000E+00 0. -1.
<scales pt_clust_5="13000.00000" pt_clust_6="13000.00000" pt_clust_7="13000.00000" pt_clust_8="13000.00000" pt_clust_9="37.46415" pt_clust_10="20.50105"></scales>
<clustering>
<clus scale="   20.501">  1 10  2 -1</clus>
<clus scale="   37.464">  2  9  1 -1</clus>
<clus scale="   79.955">  5  6 -1 -1</clus>
<clus scale="   89.955">  7  8 -1 -1</clus>
<clus scale="  123.743">  1  5  2 -1</clus>
<clus scale="   20.501">  1  5  2 -1</clus>
</clustering>
</event>
<event>
10    4  0.2857708E-005  0.1099088E+03  0.7546771E-02  0.1265417E+00
         21   -1    0    0  501  502  0.00000000000E+00  0.00000000000E+00  0.35711557940E+03  0.35711557940E+03  0.00000000000E+00 0. -1.
          2   -1    0    0  503    0 -0.00000000000E+00 -0.00000000000E+00 -0.51187089640E+03  0.51187089640E+03  0.00000000000E+00 0. -1.
         23    2    1    2    0    0  0.35251076496E+01 -0.51851703702E+02 -0.42683373012E+03  0.43969525339E+03  0.91890462655E+02 0.  0.
         24    2    1    2    0    0  0.22429507393E+02  0.12723440514E+02  0.32329952291E+03  0.33408279231E+03  0.80148374071E+02 0.  0.
        -11    1    4    4    0    0  0.25632026452E+02 -0.23899008970E+02  0.71641110361E+02  0.79753445716E+02  0.00000000000E+00 0.  1.
         12    1    4    4    0    0 -0.32025190593E+01  0.36622449484E+02  0.25165841255E+03  0.25432934660E+03  0.00000000000E+00 0. -1.
        -11    1    3    3    0    0  0.42055279199E+02 -0.13970925554E+01 -0.16772784176E+03  0.17292549632E+03  0.00000000000E+00 0. -1.
         11    1    3    3    0    0 -0.38530171549E+02 -0.50454611147E+02 -0.25910588836E+03  0.26676975707E+03  0.00000000000E+00 0.  1.
         21    1    1    2  503  502 -0.24085323440E+02 -0.74328498391E+01 -0.39997248512E+02  0.47277160982E+02  0.00000000000E+00 0. -1.
          1    1    1    2  501    0 -0.18692916021E+01  0.46561113027E+02 -0.11223861278E+02  0.47931269120E+02  0.00000000000E+00 0. -1.
<scales pt_clust_5="13000.00000" pt_clust_6="13000.00000" pt_clust_7="13000.00000" pt_clust_8="13000.00000" pt_clust_9="25.20615" pt_clust_10="46.21617"></scales>
<clustering>
<clus scale="   25.206">  2  9  1 -1</clus>
<clus scale="   46.216">  1 10  2 -1</clus>
<clus scale="   80.148">  5  6 -1 -1</clus>
<clus scale="   91.890">  7  8 -1 -1</clus>
<clus scale="  100.299">  1  5  2 -1</clus>
<clus scale="   46.216">  1  5  2 -1</clus>
</clustering>
</event>
<event>
10    4  0.2857708E-005  0.1555442E+03  0.7546771E-02  0.1195156E+00
         21   -1    0    0  503  502  0.00000000000E+00  0.00000000000E+00  0.44292892643E+02  0.44292892643E+02  0.00000000000E+00 0.  1.
          4   -1    0    0  502    0 -0.00000000000E+00 -0.00000000000E+00 -0.10670985189E+04  0.10670985189E+04  0.00000000000E+00 0. -1.
         24    2    1    2    0    0 -0.15226674338E+03 -0.57548702429E+02 -0.69874773455E+03  0.72191639352E+03  0.80111599722E+02 0.  0.
         23    2    1    2    0    0  0.61866784893E+02  0.53440216823E+02 -0.20003788396E+03  0.23343395075E+03  0.88277395154E+02 0.  0.
        -11    1    3    3    0    0 -0.65101173297E+02  0.14416126665E+02 -0.21311889038E+03  0.22330617750E+03  0.00000000000E+00 0.  1.
         12    1    3    3    0    0 -0.87165570078E+02 -0.71964829094E+02 -0.48562884417E+03  0.49861021602E+03  0.00000000000E+00 0. -1.
        -11    1    4    4    0    0  0.11790277304E+02 -0.17721262461E+02 -0.93424086846E+02  0.95818128688E+02  0.00000000000E+00 0. -1.
         11    1    4    4    0    0  0.50076507590E+02  0.71161479284E+02 -0.10661379712E+03  0.13761582206E+03  0.00000000000E+00 0.  1.
         21    1    1    2  503  501  0.34121153384E+02  0.11005227755E+01 -0.70443410263E+02  0.78279871666E+02  0.00000000000E+00 0.  1.
          3    1    1    2  501    0  0.56278805098E+02  0.30079628299E+01 -0.53576597474E+02  0.77761195597E+02  0.00000000000E+00 0. -1.
<scales pt_clust_5="13000.00000" pt_clust_6="13000.00000" pt_clust_7="13000.00000" pt_clust_8="13000.00000" pt_clust_9="21.72007" pt_clust_10="94.69875"></scales>
<clustering>
<clus scale="   21.720">  9 10 -1 -1</clus>
<clus scale="   80.112">  5  6 -1 -1</clus>
<clus scale="   88.277">  7  8 -1 -1</clus>
<clus scale="   94.699">  1  9  2 -1</clus>
<clus scale="  151.059">  2  5  1 -1</clus>
<clus scale="   94.699">  1  5  2 -1</clus>
</clustering>
</event>
<event>
10    4  0.2857708E-005  0.1311257E+03  0.7546771E-02  0.1227771E+00
         21   -1    0    0  503  502  0.00000000000E+00  0.00000000000E+00  0.10160103924E+03  0.10160103924E+03  0.00000000000E+00 0.  1.
         -3   -1    0    0    0  501 -0.00000000000E+00 -0.00000000000E+00 -0.62984079347E+03  0.62984079347E+03  0.00000000000E+00 0.  1.
         24    2    1    2    0    0 -0.18150850552E+02 -0.82143014958E+02 -0.37201151787E+03  0.38962167324E+03  0.79596171666E+02 0.  0.
         23    2    1    2    0    0  0.73426919789E+00  0.65884485034E+02  0.25219829133E+02  0.11254942828E+03  0.87692813301E+02 0.  0.
        -11    1    3    3    0    0  0.26006409977E+02 -0.52667213079E+02 -0.24535300165E+03  0.25228607594E+03  0.00000000000E+00 0.  1.
         12    1    3    3    0    0 -0.44157260529E+02 -0.29475801880E+02 -0.12665851622E+03  0.13733559730E+03  0.00000000000E+00 0. -1.
        -13    1    4    4    0    0  0.39622365326E+02  0.50854847085E+02  0.28992978746E+02  0.70687623547E+02  0.00000000000E+00 0.  1.
         13    1    4    4    0    0 -0.38888096128E+02  0.15029637949E+02 -0.37731496124E+01  0.41861804731E+02  0.00000000000E+00 0. -1.
         21    1    1    2  503  501  0.22460764676E+02 -0.25612909398E+02 -0.18389681685E+03  0.18702552319E+03  0.00000000000E+00 0.  1.
         -4    1    1    2    0  502 -0.50441833222E+01  0.41871439321E+02  0.24487513579E+01  0.42245208006E+02  0.00000000000E+00 0.  1.
<scales pt_clust_5="13000.00000" pt_clust_6="13000.00000" pt_clust_7="13000.00000" pt_clust_8="13000.00000" pt_clust_9="34.06622" pt_clust_10="40.92430"></scales>
<clustering>
<clus scale="   34.066">  2  9  1 -1</clus>
<clus scale="   40.924">  1 10  2 -1</clus>
<clus scale="   79.596">  5  6 -1 -1</clus>
<clus scale="   87.693">  7  8 -1 -1</clus>
<clus scale="  125.855">  2  5  1 -1</clus>
<clus scale="   40.924">  1  5  2 -1</clus>
</clustering>
</event>
<event>
10    4  0.2857708E-005  0.1748895E+03  0.7546771E-02  0.1173656E+00
         21   -1    0    0  501  502  0.00000000000E+00  0.00000000000E+00  0.11035383142E+03  0.11035383142E+03  0.00000000000E+00 0.  1.
          2   -1    0    0  503    0 -0.00000000000E+00 -0.00000000000E+00 -0.11865552186E+04  0.11865552186E+04  0.00000000000E+00 0. -1.
         23    2    1    2    0    0 -0.81911624774E+02  0.13012088975E+03 -0.42553602396E+03  0.46146186240E+03  0.90692792091E+02 0.  0.
         24    2    1    2    0    0  0.96673972525E+02 -0.53847637393E+02 -0.55032848223E+02  0.14962536326E+03  0.84342811971E+02 0.  0.
        -13    1    4    4    0    0  0.79135344096E+02 -0.57157371334E+02 -0.64082929506E+01  0.97828595010E+02  0.00000000000E+00 0.  1.
         14    1    4    4    0    0  0.17538628428E+02  0.33097339409E+01 -0.48624555273E+02  0.51796768252E+02  0.00000000000E+00 0. -1.
        -11    1    3    3    0    0 -0.60482747114E+02  0.17511135085E+02 -0.17382215143E+03  0.18487547939E+03  0.00000000000E+00 0.  1.
         11    1    3    3    0    0 -0.21428877660E+02  0.11260975466E+03 -0.25171387253E+03  0.27658638301E+03  0.00000000000E+00 0. -1.
         21    1    1    2  503  502 -0.13709299027E+03 -0.81188508824E+02 -0.51534897058E+03  0.53941692912E+03  0.00000000000E+00 0. -1.
          1    1    1    2  501    0  0.12233064252E+03  0.49152564662E+01 -0.80283544421E+02  0.14640489524E+03  0.00000000000E+00 0. -1.
<scales pt_clust_5="13000.00000" pt_clust_6="13000.00000" pt_clust_7="13000.00000" pt_clust_8="13000.00000" pt_clust_9="142.83904" pt_clust_10="122.42935"></scales>
<clustering>
<clus scale="   84.343">  5  6 -1 -1</clus>
<clus scale="   90.693">  7  8 -1 -1</clus>
<clus scale="  122.429">  1 10  2 -1</clus>
<clus scale="  142.839">  2  9  1 -1</clus>
<clus scale="  171.682">  1  5  2 -1</clus>
<clus scale="  122.429">  1  5  2 -1</clus>
</clustering>
</event>
<event>
10    4  0.2857708E-005  0.1341070E+03  0.7546771E-02  0.1234800E+00
         21   -1    0    0  501  502  0.00000000000E+00  0.00000000000E+00  0.81235633058E+02  0.81235633058E+02  0.00000000000E+00 0. -1.
          2   -1    0    0  503    0 -0.00000000000E+00 -0.00000000000E+00 -0.75159448036E+03  0.75159448036E+03  0.00000000000E+00 0. -1.
         23    2    1    2    0    0  0.38426602752E+02 -0.21379438526E+02 -0.30222946999E+03  0.31894434346E+03  0.91919298858E+02 0.  0.
         24    2    1    2    0    0  0.17919974835E+02  0.71695562363E+02 -0.65326358672E+02  0.12722713564E+03  0.80360635538E+02 0.  0.
        -11    1    4    4    0    0 -0.20713462772E+02  0.11030969983E+02  0.77310312567E+01  0.24708271551E+02  0.00000000000E+00 0.  1.
         12    1    4    4    0    0  0.38633437607E+02  0.60664592380E+02 -0.73057389928E+02  0.10251886408E+03  0.00000000000E+00 0. -1.
        -13    1    3    3    0    0  0.48381170206E+01 -0.52765513144E+02 -0.12328555760E+03  0.13418992312E+03  0.00000000000E+00 0. -1.
         13    1    3    3    0    0  0.33588485731E+02  0.31386074619E+02 -0.17894391238E+03  0.18475442034E+03  0.00000000000E+00 0.  1.
         21    1    1    2  503  502 -0.76577121331E+02 -0.10128144945E+03 -0.30644053811E+03  0.33170437277E+03  0.00000000000E+00 0. -1.
          1    1    1    2  501    0  0.20230543744E+02  0.50965325612E+02  0.36375194764E+01  0.54954261553E+02  0.00000000000E+00 0. -1.
<scales pt_clust_5="13000.00000" pt_clust_6="13000.00000" pt_clust_7="13000.00000" pt_clust_8="13000.00000" pt_clust_9="107.36325" pt_clust_10="54.83374"></scales>
<clustering>
<clus scale="   54.834">  1 10  2 -1</clus>
<clus scale="   80.361">  5  6 -1 -1</clus>
<clus scale="   91.919">  7  8 -1 -1</clus>
<clus scale="  101.785">  2  7  1 -1</clus>
<clus scale="  107.363">  2  9  1 -1</clus>
<clus scale="   54.834">  1  5  2 -1</clus>
</clustering>
</event>
<event>
10    4  0.2857708E-005  0.9714269E+02  0.7546771E-02  0.1291822E+00
         21   -1    0    0  501  502  0.00000000000E+00  0.00000000000E+00  0.70407175224E+02  0.70407175224E+02  0.00000000000E+00 0. -1.
          2   -1    0    0  503    0 -0.00000000000E+00 -0.00000000000E+00 -0.60724935074E+03  0.60724935074E+03  0.00000000000E+00 0. -1.
         23    2    1    2    0    0  0.23312165090E+02  0.36264841326E+02 -0.84836990219E+02  0.13147276956E+03  0.90714819460E+02 0.  0.
         24    2    1    2    0    0  0.15450004246E+02 -0.23207667300E+02 -0.14769057034E+00  0.85299115621E+02  0.80614011564E+02 0.  0.
        -13    1    4    4    0    0  0.20738676971E+01  0.27248446402E+02  0.14699122347E+02  0.31029710864E+02  0.00000000000E+00 0.  1.
         14    1    4    4    0    0  0.13376136549E+02 -0.50456113701E+02 -0.14846812918E+02  0.54269404756E+02  0.00000000000E+00 0. -1.
        -11    1    3    3    0    0 -0.28512246491E+02  0.33384854413E+02 -0.58861710390E+02  0.73431584854E+02  0.00000000000E+00 0. -1.
         11    1    3    3    0    0  0.51824411580E+02  0.28799869131E+01 -0.25975279829E+02  0.58041184709E+02  0.00000000000E+00 0.  1.
         21    1    1    2  503  502 -0.51092627688E+02  0.17755362328E+02 -0.33756492585E+03  0.34187101173E+03  0.00000000000E+00 0. -1.
          1    1    1    2  501    0  0.12330458353E+02 -0.30812536355E+02 -0.11429256888E+03  0.11901362905E+03  0.00000000000E+00 0. -1.
<scales pt_clust_5="13000.00000" pt_clust_6="13000.00000" pt_clust_7="13000.00000" pt_clust_8="13000.00000" pt_clust_9="53.40716" pt_clust_10="33.18816"></scales>
<clustering>
<clus scale="   33.188">  1 10  2 -1</clus>
<clus scale="   53.407">  2  9  1 -1</clus>
<clus scale="   80.614">  5  6 -1 -1</clus>
<clus scale="   87.785">  1  5  2 -1</clus>
<clus scale="   90.715">  7  8 -1 -1</clus>
<clus scale="   33.188">  1  5  2 -1</clus>
</clustering>
</event>
<event>
10    4  0.2857708E-005  0.1000204E+03  0.7546771E-02  0.1291544E+00
         21   -1    0    0  503  502  0.00000000000E+00  0.00000000000E+00  0.11020095174E+03  0.11020095174E+03  0.00000000000E+00 0. -1.
         -1   -1    0    0    0  501 -0.00000000000E+00 -0.00000000000E+00 -0.31631076321E+03  0.31631076321E+03  0.00000000000E+00 0.  1.
         23    2    1    2    0    0  0.31673858672E+02  0.32705293983E+02 -0.23996828063E+03  0.26209043141E+03  0.95046035939E+02 0.  0.
         24    2    1    2    0    0 -0.19818684351E+02 -0.47592070165E+02  0.55365171174E+02  0.10624601774E+03  0.74599790305E+02 0.  0.
        -13    1    4    4    0    0  0.22735574296E+02 -0.41742038212E+02  0.32542646832E+02  0.57604929958E+02  0.00000000000E+00 0.  1.
         14    1    4    4    0    0 -0.42554258647E+02 -0.58500319534E+01  0.22822524343E+02  0.48641087778E+02  0.00000000000E+00 0. -1.
        -13    1    3    3    0    0 -0.22177636724E+02  0.21158432799E+02 -0.17151145378E+03  0.17422888861E+03  0.00000000000E+00 0.  1.
         13    1    3    3    0    0  0.53851495396E+02  0.11546861184E+02 -0.68456826850E+02  0.87861542793E+02  0.00000000000E+00 0. -1.
         21    1    1    2  503  501 -0.14253963335E+02 -0.14803549050E+02 -0.19485503314E+02  0.28319699409E+02  0.00000000000E+00 0.  1.
         -2    1    1    2    0  502  0.23987890133E+01  0.29690325233E+02 -0.20211986956E+01  0.29855566404E+02  0.00000000000E+00 0.  1.
<scales pt_clust_5="13000.00000" pt_clust_6="13000.00000" pt_clust_7="13000.00000" pt_clust_8="13000.00000" pt_clust_9="20.55044" pt_clust_10="28.92892"></scales>
<clustering>
<clus scale="   20.550">  2  9  1 -1</clus>
<clus scale="   28.929">  1 10  2 -1</clus>
<clus scale="   74.600">  5  6 -1 -1</clus>
<clus scale="   80.842">  1  5  2 -1</clus>
<clus scale="   95.046">  7  8 -1 -1</clus>
<clus scale="   28.929">  1  5  2 -1</clus>
</clustering>
</event>
<event>
10    4  0.2857708E-005  0.1614113E+03  0.7546771E-02  0.1191002E+00
         21   -1    0    0  501  502  0.00000000000E+00  0.00000000000E+00  0.17499933578E+04  0.17499933578E+04  0.00000000000E+00 0. -1.
          4   -1    0    0  503    0 -0.00000000000E+00 -0.00000000000E+00 -0.42194208640E+02  0.42194208640E+02  0.00000000000E+00 0. -1.
         24    2    1    2    0    0 -0.12428352167E+03 -0.10850650833E+02  0.35275519941E+03  0.38345303694E+03  0.83880095633E+02 0.  0.
         23    2    1    2    0    0  0.87141499549E+02 -0.12885614071E+03  0.80074138951E+03  0.82252059227E+03  0.10562104859E+03 0.  0.
        -13    1    3    3    0    0 -0.40223210357E+02  0.35615533205E+02  0.14276973884E+03  0.15254366976E+03  0.00000000000E+00 0.  1.
         14    1    3    3    0    0 -0.84060311317E+02 -0.46466184038E+02  0.20998546057E+03  0.23090936718E+03  0.00000000000E+00 0. -1.
        -11    1    4    4    0    0  0.63427853851E+02 -0.85579082040E+01  0.32425399819E+03  0.33051019013E+03  0.00000000000E+00 0.  1.
         11    1    4    4    0    0  0.23713645698E+02 -0.12029823250E+03  0.47648739131E+03  0.49201040214E+03  0.00000000000E+00 0. -1.
         21    1    1    2  503  502 -0.22028114547E+02  0.14066652698E+02  0.16822822629E+02  0.31082405149E+02  0.00000000000E+00 0.  1.
          3    1    1    2  501    0  0.59170136672E+02  0.12564013884E+03  0.53747973764E+03  0.55513153210E+03  0.00000000000E+00 0. -1.
<scales pt_clust_5="13000.00000" pt_clust_6="13000.00000" pt_clust_7="13000.00000" pt_clust_8="13000.00000" pt_clust_9="26.13635" pt_clust_10="139.86914"></scales>
<clustering>
<clus scale="   26.136">  2  9  1 -1</clus>
<clus scale="   83.880">  5  6 -1 -1</clus>
<clus scale="  105.621">  7  8 -1 -1</clus>
<clus scale="  139.869">  1 10  2 -1</clus>
<clus scale="  148.100">  2  5  1 -1</clus>
<clus scale="  139.869">  1  5  2 -1</clus>
</clustering>
</event>
<event>
10    4  0.2857708E-005  0.2752178E+03  0.7546771E-02  0.1098940E+00
         21   -1    0    0  501  502  0.00000000000E+00  0.00000000000E+00  0.51675402199E+03  0.51675402199E+03  0.00000000000E+00 0. -1.
          2   -1    0    0  503    0 -0.00000000000E+00 -0.00000000000E+00 -0.10394792019E+04  0.10394792019E+04  0.00000000000E+00 0. -1.
         23    2    1    2    0    0 -0.18730121216E+03  0.16970860782E+03 -0.60150143759E+03  0.65993839351E+03  0.99156180679E+02 0.  0.
         24    2    1    2    0    0  0.22747857933E+03 -0.45063216470E+02  0.43908035180E+03  0.50401839759E+03  0.86404816103E+02 0.  0.
        -11    1    4    4    0    0  0.97100149724E+02  0.23589573711E+02  0.16756906264E+03  0.19510073761E+03  0.00000000000E+00 0.  1.
         12    1    4    4    0    0  0.13037842961E+03 -0.68652790181E+02  0.27151128916E+03  0.30891765998E+03  0.00000000000E+00 0. -1.
        -13    1    3    3    0    0 -0.63146794325E+02  0.17223689417E+02 -0.85059225078E+02  0.10732774516E+03  0.00000000000E+00 0.  1.
         13    1    3    3    0    0 -0.12415441783E+03  0.15248491841E+03 -0.51644221251E+03  0.55261064835E+03  0.00000000000E+00 0. -1.
         21    1    1    2  503  502 -0.23932743286E+02 -0.88444851236E+01 -0.19929778046E+02  0.32375873289E+02  0.00000000000E+00 0. -1.
          1    1    1    2  501    0 -0.16244623887E+02 -0.11580090623E+03 -0.34037431605E+03  0.35990055948E+03  0.00000000000E+00 0. -1.
<scales pt_clust_5="13000.00000" pt_clust_6="13000.00000" pt_clust_7="13000.00000" pt_clust_8="13000.00000" pt_clust_9="25.51472" pt_clust_10="121.35871"></scales>
<clustering>
<clus scale="   25.515">  2  9  1 -1</clus>
<clus scale="   86.405">  5  6 -1 -1</clus>
<clus scale="   99.156">  7  8 -1 -1</clus>
<clus scale="  121.359">  1 10  2 -1</clus>
<clus scale="  270.885">  1  5  2 -1</clus>
<clus scale="  121.359">  1  5  2 -1</clus>
</clustering>
</event>
<event>
10    4  0.2857708E-005  0.4067136E+03  0.7546771E-02  0.1081979E+00
          2   -1    0    0  503    0 -0.00000000000E+00  0.00000000000E+00  0.68245886463E+03  0.68245886463E+03  0.00000000000E+00 0. -1.
         21   -1    0    0  501  502  0.00000000000E+00 -0.00000000000E+00 -0.72727748748E+03  0.72727748748E+03  0.00000000000E+00 0.  1.
         24    2    1    2    0    0 -0.66318330424E+02 -0.75939962711E+02  0.98642848857E+01  0.12946135388E+03  0.80609795589E+02 0.  0.
         23    2    1    2    0    0  0.40922691808E+03 -0.26517948470E+02 -0.51315425739E+03  0.66331123864E+03  0.92112080450E+02 0.  0.
        -11    1    3    3    0    0 -0.29759553305E+02  0.14640250013E+01 -0.23129986744E+02  0.37719632407E+02  0.00000000000E+00 0.  1.
         12    1    3    3    0    0 -0.36558777119E+02 -0.77403987712E+02  0.32994271629E+02  0.91741721471E+02  0.00000000000E+00 0. -1.
        -11    1    4    4    0    0  0.39180727251E+03 -0.14030209654E+02 -0.45111680097E+03  0.59767562582E+03  0.00000000000E+00 0.  1.
         11    1    4    4    0    0  0.17419645564E+02 -0.12487738816E+02 -0.62037456420E+02  0.65635612829E+02  0.00000000000E+00 0. -1.
         21    1    1    2  503  502 -0.22888828080E+02 -0.82531787274E+01  0.17113473667E+03  0.17285575346E+03  0.00000000000E+00 0. -1.
          1    1    1    2  501    0 -0.32001975958E+03  0.11071108991E+03  0.28733661298E+03  0.44410800613E+03  0.00000000000E+00 0. -1.
<scales pt_clust_5="13000.00000" pt_clust_6="13000.00000" pt_clust_7="13000.00000" pt_clust_8="13000.00000" pt_clust_9="24.33133" pt_clust_10="396.14574"></scales>
<clustering>
<clus scale="   24.331">  1  9  2 -1</clus>
<clus scale="   80.610">  5  6 -1 -1</clus>
<clus scale="   92.112">  7  8 -1 -1</clus>
<clus scale="  131.375">  1  5  2 -1</clus>
<clus scale="  396.146">  2 10  1 -1</clus>
<clus scale="  396.146">  2  5  1 -1</clus>
</clustering>
</event>
<event>
10    4  0.2857708E-005  0.1726755E+03  0.7546771E-02  0.1190286E+00
          2   -1    0    0  503    0 -0.00000000000E+00  0.00000000000E+00  0.84391358402E+03  0.84391358402E+03  0.00000000000E+00 0. -1.
         21   -1    0    0  501  502  0.00000000000E+00 -0.00000000000E+00 -0.14027375113E+03  0.14027375113E+03  0.00000000000E+00 0.  1.
         23    2    1    2    0    0 -0.37146633005E+02  0.13256255678E+02  0.21708068655E+02  0.12412055926E+03  0.11566793993E+03 0.  0.
         24    2    1    2    0    0 -0.10075853991E+03 -0.15910553991E+02  0.60602393565E+03  0.61984873630E+03  0.80882731240E+02 0.  0.
        -11    1    4    4    0    0 -0.12808654210E+02 -0.34070013262E+02  0.11315510981E+03  0.11886507604E+03  0.00000000000E+00 0.  1.
         12    1    4    4    0    0 -0.87949885699E+02  0.18159459272E+02  0.49286882584E+03  0.50098366025E+03  0.00000000000E+00 0. -1.
        -13    1    3    3    0    0  0.33541740616E+02  0.27405501560E+02  0.28283573689E+02  0.51730749269E+02  0.00000000000E+00 0. -1.
         13    1    3    3    0    0 -0.70688373622E+02 -0.14149245882E+02 -0.65755050337E+01  0.72389809992E+02  0.00000000000E+00 0.  1.
         21    1    1    2  503  502 -0.21296737260E+02  0.49521002502E+01  0.77978658009E+02  0.80986081642E+02  0.00000000000E+00 0. -1.
          1    1    1    2  501    0  0.15920191017E+03 -0.22978019381E+01 -0.20708294312E+01  0.15923195795E+03  0.00000000000E+00 0. -1.
<scales pt_clust_5="13000.00000" pt_clust_6="13000.00000" pt_clust_7="13000.00000" pt_clust_8="13000.00000" pt_clust_9="21.86491" pt_clust_10="152.56087"></scales>
<clustering>
<clus scale="   21.865">  1  9  2 -1</clus>
<clus scale="   80.883">  5  6 -1 -1</clus>
<clus scale="  115.668">  7  8 -1 -1</clus>
<clus scale="  122.892">  1  7  2 -1</clus>
<clus scale="  152.561">  2 10  1 -1</clus>
<clus scale="  152.561">  2  5  1 -1</clus>
</clustering>
</event>
<event>
10    4  0.2857708E-005  0.9242672E+02  0.7546771E-02  0.1302642E+00
         21   -1    0    0  501  502  0.00000000000E+00  0.00000000000E+00  0.14532195848E+03  0.14532195848E+03  0.00000000000E+00 0.  1.
          2   -1    0    0  503    0 -0.00000000000E+00 -0.00000000000E+00 -0.15864937608E+03  0.15864937608E+03  0.00000000000E+00 0. -1.
         24    2    1    2    0    0  0.16642974372E+02  0.10191432571E+02 -0.93178630193E+02  0.12572297890E+03  0.82116724268E+02 0.  0.
         23    2    1    2    0    0  0.11563367371E+02  0.38512900821E+01  0.65099763425E+02  0.11275686746E+03  0.91255619336E+02 0.  0.
        -11    1    3    3    0    0 -0.57926690752E+01  0.30121829651E+02 -0.90543171306E+02  0.95597832123E+02  0.00000000000E+00 0.  1.
         12    1    3    3    0    0  0.22435643447E+02 -0.19930397080E+02 -0.26354588876E+01  0.30125146775E+02  0.00000000000E+00 0. -1.
        -11    1    4    4    0    0 -0.27035916584E+02 -0.29965999703E+02  0.33828954331E+02  0.52662131318E+02  0.00000000000E+00 0. -1.
         11    1    4    4    0    0  0.38599283955E+02  0.33817289786E+02  0.31270809094E+02  0.60094736139E+02  0.00000000000E+00 0.  1.
         21    1    1    2  503  502  0.13611089050E+02 -0.17043151857E+02  0.35739093646E+01  0.22102117511E+02  0.00000000000E+00 0.  1.
          1    1    1    2  501    0 -0.41817430792E+02  0.30004292031E+01  0.11177539803E+02  0.43389370697E+02  0.00000000000E+00 0. -1.
<scales pt_clust_5="13000.00000" pt_clust_6="13000.00000" pt_clust_7="13000.00000" pt_clust_8="13000.00000" pt_clust_9="21.81125" pt_clust_10="39.01772"></scales>
<clustering>
<clus scale="   21.811">  1  9  2 -1</clus>
<clus scale="   39.018">  1 10  2 -1</clus>
<clus scale="   82.117">  5  6 -1 -1</clus>
<clus scale="   83.416">  2  5  1 -1</clus>
<clus scale="   91.256">  7  8 -1 -1</clus>
<clus scale="   21.811">  1  5  2 -1</clus>
</clustering>
</event>
<event>
10    4  0.2857708E-005  0.1284729E+03  0.7546771E-02  0.1232524E+00
         21   -1    0    0  501  502  0.00000000000E+00  0.00000000000E+00  0.12001588093E+03  0.12001588093E+03  0.00000000000E+00 0. -1.
          2   -1    0    0  503    0 -0.00000000000E+00 -0.00000000000E+00 -0.36764066134E+03  0.36764066134E+03  0.00000000000E+00 0. -1.
         23    2    1    2    0    0 -0.44140106353E+02  0.81660754075E+02 -0.25556812177E+03  0.28644970421E+03  0.90119589607E+02 0.  0.
         24    2    1    2    0    0  0.51199106807E+00 -0.95626891710E+02 -0.39944918971E+01  0.12446892471E+03  0.79572562478E+02 0.  0.
        -13    1    4    4    0    0  0.34815254134E+02 -0.78842052971E+02 -0.15412020647E+01  0.86200617984E+02  0.00000000000E+00 0.  1.
         14    1    4    4    0    0 -0.34303263066E+02 -0.16784838739E+02 -0.24532898324E+01  0.38268306723E+02  0.00000000000E+00 0. -1.
        -11    1    3    3    0    0 -0.60852105260E+01  0.46252809877E+02 -0.31161435992E+02  0.56101580207E+02  0.00000000000E+00 0.  1.
         11    1    3    3    0    0 -0.38054895827E+02  0.35407944198E+02 -0.22440668578E+03  0.23034812401E+03  0.00000000000E+00 0. -1.
         21    1    1    2  503  502  0.10015142131E+02 -0.19543943358E+02 -0.10379114726E+02  0.24289808900E+02  0.00000000000E+00 0.  1.
          1    1    1    2  501    0  0.33612973153E+02  0.33510080993E+02  0.22316947989E+02  0.52448104445E+02  0.00000000000E+00 0. -1.
<scales pt_clust_5="13000.00000" pt_clust_6="13000.00000" pt_clust_7="13000.00000" pt_clust_8="13000.00000" pt_clust_9="21.96062" pt_clust_10="45.77125"></scales>
<clustering>
<clus scale="   21.961">  1  9  2 -1</clus>
<clus scale="   45.771">  1 10  2 -1</clus>
<clus scale="   79.573">  5  6 -1 -1</clus>
<clus scale="   90.120">  7  8 -1 -1</clus>
<clus scale="  121.308">  1  5  2 -1</clus>
<clus scale="   21.961">  1  5  2 -1</clus>
</clustering>
</event>
<event>
10    4  0.2857708E-005  0.1145357E+03  0.7546771E-02  0.1258762E+00
         21   -1    0    0  501  502  0.00000000000E+00  0.00000000000E+00  0.70672413718E+03  0.70672413718E+03  0.00000000000E+00 0. -1.
          4   -1    0    0  503    0 -0.00000000000E+00 -0.00000000000E+00 -0.59767743286E+02  0.59767743286E+02  0.00000000000E+00 0. -1.
         24    2    1    2    0    0  0.49737008702E+02  0.58044424162E+02  0.74553342217E+02  0.13163657470E+03  0.76987412948E+02 0.  0.
         23    2    1    2    0    0 -0.74532957932E+02  0.48496541028E+02  0.28158496580E+03  0.30991615268E+03  0.94078969076E+02 0.  0.
        -11    1    3    3    0    0  0.69496464259E+02  0.34918660229E+02  0.49132404747E+02  0.91994916016E+02  0.00000000000E+00 0.  1.
         12    1    3    3    0    0 -0.19759455557E+02  0.23125763933E+02  0.25420937470E+02  0.39641658685E+02  0.00000000000E+00 0. -1.
        -11    1    4    4    0    0 -0.44987810082E+02  0.98154283492E+00  0.22815826815E+03  0.23255335261E+03  0.00000000000E+00 0.  1.
         11    1    4    4    0    0 -0.29545147850E+02  0.47514998193E+02  0.53426697645E+02  0.77362800078E+02  0.00000000000E+00 0. -1.
         21    1    1    2  503  502  0.21331855173E+02 -0.77789466465E+02  0.85328226754E+02  0.11741871835E+03  0.00000000000E+00 0.  1.
          3    1    1    2  501    0  0.34640940571E+01 -0.28751498725E+02  0.20548985913E+03  0.20752043473E+03  0.00000000000E+00 0. -1.
<scales pt_clust_5="13000.00000" pt_clust_6="13000.00000" pt_clust_7="13000.00000" pt_clust_8="13000.00000" pt_clust_9="86.47057" pt_clust_10="28.95943"></scales>
<clustering>
<clus scale="   28.959">  1 10  2 -1</clus>
<clus scale="   76.987">  5  6 -1 -1</clus>
<clus scale="   86.471">  2  9  1 -1</clus>
<clus scale="   94.079">  7  8 -1 -1</clus>
<clus scale="  100.969">  2  5  1 -1</clus>
<clus scale="   28.959">  1  5  2 -1</clus>
</clustering>
</event>
<event>
10    4  0.2857708E-005  0.1063413E+03  0.7546771E-02  0.1272898E+00
         -1   -1    0    0    0  501 -0.00000000000E+00  0.00000000000E+00  0.45357775103E+02  0.45357775103E+02  0.00000000000E+00 0.  1.
         21   -1    0    0  503  502  0.00000000000E+00 -0.00000000000E+00 -0.55862422028E+03  0.55862422028E+03  0.00000000000E+00 0.  1.
         23    2    1    2    0    0  0.39540901201E+02 -0.28952241031E+02 -0.18202491590E+03  0.21064631301E+03  0.94005766022E+02 0.  0.
         24    2    1    2    0    0 -0.50067758510E+02  0.15343860557E+02 -0.26726525370E+03  0.28439307381E+03  0.81893162695E+02 0.  0.
        -11    1    4    4    0    0 -0.34892724211E+02  0.48482689118E+02 -0.14533077563E+03  0.15712767959E+03  0.00000000000E+00 0.  1.
         12    1    4    4    0    0 -0.15175034299E+02 -0.33138828561E+02 -0.12193447807E+03  0.12726539422E+03  0.00000000000E+00 0. -1.
        -13    1    3    3    0    0  0.49417611759E+02  0.19718482731E+02 -0.68518518430E+02  0.86750828705E+02  0.00000000000E+00 0.  1.
         13    1    3    3    0    0 -0.98767105581E+01 -0.48670723762E+02 -0.11350639747E+03  0.12389548430E+03  0.00000000000E+00 0. -1.
         21    1    1    2  503  501 -0.90059511427E-01 -0.27152429943E+02 -0.60936546980E+02  0.66712257647E+02  0.00000000000E+00 0.  1.
         -2    1    1    2    0  502  0.10616916821E+02  0.40760810417E+02 -0.30397285896E+01  0.42230350917E+02  0.00000000000E+00 0.  1.
<scales pt_clust_5="13000.00000" pt_clust_6="13000.00000" pt_clust_7="13000.00000" pt_clust_8="13000.00000" pt_clust_9="27.15258" pt_clust_10="40.91895"></scales>
<clustering>
<clus scale="   27.153">  2  9  1 -1</clus>
<clus scale="   40.919">  2 10  1 -1</clus>
<clus scale="   81.893">  5  6 -1 -1</clus>
<clus scale="   94.006">  7  8 -1 -1</clus>
<clus scale="   95.801">  2  5  1 -1</clus>
<clus scale="   27.153">  2  5  1 -1</clus>
</clustering>
</event>
<event>
10    4  0.2857708E-005  0.9613764E+02  0.7546771E-02  0.1293451E+00
          2   -1    0    0  503    0 -0.00000000000E+00  0.00000000000E+00  0.26910926459E+03  0.26910926459E+03  0.00000000000E+00 0. -1.
         21   -1    0    0  501  502  0.00000000000E+00 -0.00000000000E+00 -0.10267619377E+03  0.10267619377E+03  0.00000000000E+00 0.  1.
         24    2    1    2    0    0  0.54000141306E+02  0.39743129793E+02  0.13365275666E+03  0.17251726051E+03  0.86044257121E+02 0.  0.
         23    2    1    2    0    0  0.69909641515E+01  0.10556854326E+02 -0.12089189026E+02  0.96092039858E+02  0.94483918630E+02 0.  0.
        -13    1    3    3    0    0  0.16360958644E+02  0.47059145629E+02  0.21998575049E+02  0.54462661147E+02  0.00000000000E+00 0.  1.
         14    1    3    3    0    0  0.37639182662E+02 -0.73160158355E+01  0.11165418161E+03  0.11805459936E+03  0.00000000000E+00 0. -1.
        -13    1    4    4    0    0 -0.55769798886E+01  0.47141174171E+02  0.13931312519E+02  0.49471956454E+02  0.00000000000E+00 0. -1.
         13    1    4    4    0    0  0.12567944040E+02 -0.36584319845E+02 -0.26020501546E+02  0.46620083404E+02  0.00000000000E+00 0.  1.
         21    1    1    2  503  502 -0.50733840984E+02 -0.25424662978E+02  0.50177633786E+02  0.75750452414E+02  0.00000000000E+00 0.  1.
          1    1    1    2  501    0 -0.10257264473E+02 -0.24875321141E+02 -0.53081305918E+01  0.27425705583E+02  0.00000000000E+00 0. -1.
<scales pt_clust_5="13000.00000" pt_clust_6="13000.00000" pt_clust_7="13000.00000" pt_clust_8="13000.00000" pt_clust_9="59.81474" pt_clust_10="26.90712"></scales>
<clustering>
<clus scale="   26.907">  2 10  1 -1</clus>
<clus scale="   59.815">  1  9  2 -1</clus>
<clus scale="   86.044">  5  6 -1 -1</clus>
<clus scale="   87.857">  1  5  2 -1</clus>
<clus scale="   94.484">  7  8 -1 -1</clus>
<clus scale="   26.907">  2  5  1 -1</clus>
</clustering>
</event>
<event>
10    4  0.2857708E-005  0.1713902E+03  0.7546771E-02  0.1190364E+00
          2   -1    0    0  503    0 -0.00000000000E+00  0.00000000000E+00  0.32312730449E+03  0.32312730449E+03  0.00000000000E+00 0. -1.
         21   -1    0    0  501  502  0.00000000000E+00 -0.00000000000E+00 -0.29279843645E+03  0.29279843645E+03  0.00000000000E+00 0. -1.
         24    2    1    2    0    0 -0.60726463408E+02 -0.67690124330E+02 -0.11887042871E+02  0.11802421163E+03  0.74288333224E+02 0.  0.
         23    2    1    2    0    0  0.38668795639E+02  0.17534106175E+03 -0.61504986357E+02  0.21048099828E+03  0.90992437040E+02 0.  0.
        -11    1    3    3    0    0 -0.29184169765E+02 -0.41933394227E+01  0.24497950364E+02  0.38333398394E+02  0.00000000000E+00 0.  1.
         12    1    3    3    0    0 -0.31542293643E+02 -0.63496784907E+02 -0.36384993235E+02  0.79690813238E+02  0.00000000000E+00 0. -1.
        -13    1    4    4    0    0  0.68380270128E+02  0.11146490251E+03 -0.37167337124E+02  0.13594740448E+03  0.00000000000E+00 0.  1.
         13    1    4    4    0    0 -0.29711474489E+02  0.63876159239E+02 -0.24337649233E+02  0.74533593805E+02  0.00000000000E+00 0. -1.
         21    1    1    2  503  502 -0.58310168197E+02  0.90314154251E+01  0.13050944849E+03  0.14322834330E+03  0.00000000000E+00 0.  1.
          1    1    1    2  501    0  0.80367835966E+02 -0.11668235285E+03 -0.26788551220E+02  0.14419218772E+03  0.00000000000E+00 0. -1.
<scales pt_clust_5="13000.00000" pt_clust_6="13000.00000" pt_clust_7="13000.00000" pt_clust_8="13000.00000" pt_clust_9="59.00544" pt_clust_10="145.24114"></scales>
<clustering>
<clus scale="   59.005">  1  9  2 -1</clus>
<clus scale="   74.288">  5  6 -1 -1</clus>
<clus scale="   90.992">  7  8 -1 -1</clus>
<clus scale="  125.461">  1  5  2 -1</clus>
<clus scale="  145.241">  2 10  1 -1</clus>
<clus scale="  145.241">  2  5  1 -1</clus>
</clustering>
</event>
<event>
10    4  0.2857708E-005  0.1980021E+03  0.7546771E-02  0.1167597E+00
         21   -1    0    0  501  502  0.00000000000E+00  0.00000000000E+00  0.90176312732E+02  0.90176312732E+02  0.00000000000E+00 0. -1.
          2   -1    0    0  503    0 -0.00000000000E+00 -0.00000000000E+00 -0.89056101698E+03  0.89056101698E+03  0.00000000000E+00 0. -1.
         23    2    1    2    0    0  0.91858053780E+02 -0.32165512110E+02 -0.25804944646E+03  0.29431699344E+03  0.10276406763E+03 0.  0.
         24    2    1    2    0    0 -0.20324914313E+03  0.91476471589E+02 -0.26370088047E+03  0.35406597516E+03  0.78398988295E+02 0.  0.
        -11    1    4    4    0    0 -0.30868417175E+02 -0.14214704196E+02 -0.34659009478E+02  0.48540333047E+02  0.00000000000E+00 0.  1.
         12    1    4    4    0    0 -0.17238072596E+03  0.10569117578E+03 -0.22904187099E+03  0.30552564211E+03  0.00000000000E+00 0. -1.
        -13    1    3    3    0    0  0.12059479518E+02 -0.16051783494E+02  0.35096337054E+01  0.20381568348E+02  0.00000000000E+00 0.  1.
         13    1    3    3    0    0  0.79798574262E+02 -0.16113728617E+02 -0.26155908017E+03  0.27393542510E+03  0.00000000000E+00 0. -1.
         21    1    1    2  503  502 -0.22731152067E+02  0.10569535479E+02 -0.72355782921E+02  0.76575320284E+02  0.00000000000E+00 0. -1.
          1    1    1    2  501    0  0.13412224142E+03 -0.69880494958E+02 -0.20627859440E+03  0.25577904083E+03  0.00000000000E+00 0. -1.
<scales pt_clust_5="13000.00000" pt_clust_6="13000.00000" pt_clust_7="13000.00000" pt_clust_8="13000.00000" pt_clust_9="25.06831" pt_clust_10="181.81981"></scales>
<clustering>
<clus scale="   25.068">  2  9  1 -1</clus>
<clus scale="   78.399">  5  6 -1 -1</clus>
<clus scale="  102.764">  7  8 -1 -1</clus>
<clus scale="  135.873">  2  7  1 -1</clus>
<clus scale="  181.820">  1 10  2 -1</clus>
<clus scale="  181.820">  1  5  2 -1</clus>
</clustering>
</event>
<event>
10    4  0.2857708E-005  0.1119506E+03  0.7546771E-02  0.1260610E+00
          2   -1    0    0  503    0 -0.00000000000E+00  0.00000000000E+00  0.56731185502E+03  0.56731185502E+03  0.00000000000E+00 0. -1.
         21   -1    0    0  501  502  0.00000000000E+00 -0.00000000000E+00 -0.49153914509E+03  0.49153914509E+03  0.00000000000E+00 0. -1.
         24    2    1    2    0    0 -0.85477459198E+02 -0.26493335539E+00  0.42152323631E+03  0.43774652077E+03  0.81447599576E+02 0.  0.
         23    2    1    2    0    0  0.19575692629E+02 -0.50849823155E+02 -0.34045766601E+03  0.35661612727E+03  0.91075395259E+02 0.  0.
        -11    1    3    3    0    0  0.83474120118E+01  0.18229777235E+02  0.11222280302E+03  0.11399983150E+03  0.00000000000E+00 0.  1.
         12    1    3    3    0    0 -0.93824871210E+02 -0.18494710591E+02  0.30930043329E+03  0.32374668927E+03  0.00000000000E+00 0. -1.
        -11    1    4    4    0    0  0.48256115087E+02 -0.14399063302E+02 -0.10276499003E+03  0.11444050351E+03  0.00000000000E+00 0.  1.
         11    1    4    4    0    0 -0.28680422458E+02 -0.36450759853E+02 -0.23769267598E+03  0.24217562376E+03  0.00000000000E+00 0. -1.
         21    1    1    2  503  502  0.20182078967E+02 -0.18545748857E+00  0.11994807512E+03  0.12163425270E+03  0.00000000000E+00 0.  1.
          1    1    1    2  501    0  0.45719687603E+02  0.51300213999E+02 -0.12524093548E+03  0.14285409938E+03  0.00000000000E+00 0. -1.
<scales pt_clust_5="13000.00000" pt_clust_6="13000.00000" pt_clust_7="13000.00000" pt_clust_8="13000.00000" pt_clust_9="20.18293" pt_clust_10="68.97958"></scales>
<clustering>
<clus scale="   20.183">  1  9  2 -1</clus>
<clus scale="   68.980">  2 10  1 -1</clus>
<clus scale="   81.448">  5  6 -1 -1</clus>
<clus scale="   91.075">  7  8 -1 -1</clus>
<clus scale="  104.269">  1  5  2 -1</clus>
<clus scale="   68.980">  2  5  1 -1</clus>
</clustering>
</event>
<event>
10    4  0.2857708E-005  0.1490329E+03  0.7546771E-02  0.1221841E+00
          2   -1    0    0  503    0 -0.00000000000E+00  0.00000000000E+00  0.19832777811E+03  0.19832777811E+03  0.00000000000E+00 0. -1.
         21   -1    0    0  501  502  0.00000000000E+00 -0.00000000000E+00 -0.68178398210E+03  0.68178398210E+03  0.00000000000E+00 0. -1.
         24    2    1    2    0    0  0.49733291651E+02 -0.34240282768E+02 -0.50708056106E+01  0.10049916897E+03  0.80178380079E+02 0.  0.
         23    2    1    2    0    0  0.87894966210E+02 -0.90100911685E+02 -0.26182678478E+03  0.30499279691E+03  0.92863564261E+02 0.  0.
        -13    1    3    3    0    0  0.29606816395E+02 -0.56975382926E+02 -0.19187390536E+02  0.67014280509E+02  0.00000000000E+00 0.  1.
         14    1    3    3    0    0  0.20126475256E+02  0.22735100158E+02  0.14116584925E+02  0.33484888463E+02  0.00000000000E+00 0. -1.
        -11    1    4    4    0    0  0.10185582910E+03 -0.61816157810E+02 -0.16765961790E+03  0.20568323890E+03  0.00000000000E+00 0. -1.
         11    1    4    4    0    0 -0.13960862895E+02 -0.28284753876E+02 -0.94167166875E+02  0.99309558008E+02  0.00000000000E+00 0.  1.
         21    1    1    2  503  502 -0.71331767474E+02  0.14017998296E+03  0.75674220551E+02  0.17454293549E+03  0.00000000000E+00 0. -1.
          1    1    1    2  501    0 -0.66296490386E+02 -0.15838788506E+02 -0.29223283415E+03  0.30007685885E+03  0.00000000000E+00 0. -1.
<scales pt_clust_5="13000.00000" pt_clust_6="13000.00000" pt_clust_7="13000.00000" pt_clust_8="13000.00000" pt_clust_9="116.56400" pt_clust_10="68.16225"></scales>
<clustering>
<clus scale="   68.162">  2 10  1 -1</clus>
<clus scale="   80.178">  5  6 -1 -1</clus>
<clus scale="   92.864">  7  8 -1 -1</clus>
<clus scale="   96.991">  1  5  2 -1</clus>
<clus scale="  116.564">  1  9  2 -1</clus>
<clus scale="   68.162">  2  5  1 -1</clus>
</clustering>
</event>
<event>
10    4  0.2857708E-005  0.1016202E+03  0.7546771E-02  0.1278815E+00
         -1   -1    0    0    0  501 -0.00000000000E+00  0.00000000000E+00  0.24960157328E+03  0.24960157328E+03  0.00000000000E+00 0.  1.
         21   -1    0    0  503  502  0.00000000000E+00 -0.00000000000E+00 -0.49354023753E+03  0.49354023753E+03  0.00000000000E+00 0.  1.
         23    2    1    2    0    0 -0.14608830708E+02 -0.61962675377E+02  0.14096298648E+03  0.17774299389E+03  0.87574067186E+02 0.  0.
         24    2    1    2    0    0  0.13955476948E+02  0.47977690706E+02 -0.18668677903E+03  0.21047276102E+03  0.83367952631E+02 0.  0.
        -11    1    4    4    0    0 -0.29905532928E+02  0.78476134622E+01 -0.30828519059E+02  0.43661464979E+02  0.00000000000E+00 0.  1.
         12    1    4    4    0    0  0.43861009876E+02  0.40130077244E+02 -0.15585825997E+03  0.16681129604E+03  0.00000000000E+00 0. -1.
        -13    1    3    3    0    0 -0.47105614715E+02 -0.43985095099E+02  0.11690610347E+03  0.13349406188E+03  0.00000000000E+00 0.  1.
         13    1    3    3    0    0  0.32496784007E+02 -0.17977580278E+02  0.24056883008E+02  0.44248932004E+02  0.00000000000E+00 0. -1.
         21    1    1    2  503  501  0.42136155653E+02  0.15735289309E+02  0.70170333799E+02  0.83348249462E+02  0.00000000000E+00 0.  1.
         -2    1    1    2    0  502 -0.41482801894E+02 -0.17503046380E+01 -0.26838520550E+03  0.27157780644E+03  0.00000000000E+00 0.  1.
<scales pt_clust_5="13000.00000" pt_clust_6="13000.00000" pt_clust_7="13000.00000" pt_clust_8="13000.00000" pt_clust_9="43.81661" pt_clust_10="41.51971"></scales>
<clustering>
<clus scale="   41.520">  2 10  1 -1</clus>
<clus scale="   43.817">  1  9  2 -1</clus>
<clus scale="   83.368">  5  6 -1 -1</clus>
<clus scale="   87.574">  7  8 -1 -1</clus>
<clus scale="   98.019">  2  5  1 -1</clus>
<clus scale="   41.520">  2  5  1 -1</clus>
</clustering>
</event>
<event>
10    4  0.2857708E-005  0.2925692E+03  0.7546771E-02  0.1089278E+00
         21   -1    0    0  501  502  0.00000000000E+00  0.00000000000E+00  0.16614548157E+03  0.16614548157E+03  0.00000000000E+00 0. -1.
          2   -1    0    0  503    0 -0.00000000000E+00 -0.00000000000E+00 -0.15845796557E+04  0.15845796557E+04  0.00000000000E+00 0. -1.
         24    2    1    2    0    0 -0.13906296035E+03 -0.22674857238E+03 -0.50598690260E+03  0.57716842911E+03  0.79669491950E+02 0.  0.
         23    2    1    2    0    0  0.18697748764E+02  0.26078537930E+03 -0.69710703097E+02  0.28416286208E+03  0.86777475168E+02 0.  0.
        -11    1    3    3    0    0 -0.92789751876E+02 -0.20609987958E+03 -0.39347532012E+03  0.45377298946E+03  0.00000000000E+00 0.  1.
         12    1    3    3    0    0 -0.46273208470E+02 -0.20648692798E+02 -0.11251158247E+03  0.12339543965E+03  0.00000000000E+00 0. -1.
        -13    1    4    4    0    0  0.93838128972E+00  0.15495658775E+03  0.22217892271E+01  0.15497535609E+03  0.00000000000E+00 0.  1.
         13    1    4    4    0    0  0.17759367474E+02  0.10582879154E+03 -0.71932492324E+02  0.12918750599E+03  0.00000000000E+00 0. -1.
         21    1    1    2  503  502  0.10199364526E+02 -0.11281046948E+03 -0.17787307376E+03  0.21087688216E+03  0.00000000000E+00 0. -1.
          1    1    1    2  501    0  0.11016584706E+03  0.78773662565E+02 -0.66486349463E+03  0.67851696387E+03  0.00000000000E+00 0. -1.
<scales pt_clust_5="13000.00000" pt_clust_6="13000.00000" pt_clust_7="13000.00000" pt_clust_8="13000.00000" pt_clust_9="113.27060" pt_clust_10="117.62456"></scales>
<clustering>
<clus scale="   79.669">  5  6 -1 -1</clus>
<clus scale="   86.777">  7  8 -1 -1</clus>
<clus scale="  113.271">  2  9  1 -1</clus>
<clus scale="  117.625">  1 10  2 -1</clus>
<clus scale="  290.540">  2  5  1 -1</clus>
<clus scale="  117.625">  1  5  2 -1</clus>
</clustering>
</event>
<event>
10    4  0.2857708E-005  0.1385835E+03  0.7546771E-02  0.1239861E+00
         21   -1    0    0  501  502  0.00000000000E+00  0.00000000000E+00  0.74810012929E+02  0.74810012929E+02  0.00000000000E+00 0. -1.
          2   -1    0    0  503    0 -0.00000000000E+00 -0.00000000000E+00 -0.57342868552E+03  0.57342868552E+03  0.00000000000E+00 0. -1.
         24    2    1    2    0    0 -0.79868636479E+01 -0.59801767976E+01 -0.27542184127E+02  0.87621896078E+02  0.82580096030E+02 0.  0.
         23    2    1    2    0    0 -0.44982204926E+02 -0.96647059781E+02 -0.29511626023E+03  0.32677704465E+03  0.91244599479E+02 0.  0.
        -13    1    3    3    0    0  0.31305421353E+02  0.12512654853E+02 -0.28558340549E+02  0.44183421693E+02  0.00000000000E+00 0.  1.
         14    1    3    3    0    0 -0.39292285001E+02 -0.18492831651E+02  0.10161564218E+01  0.43438474385E+02  0.00000000000E+00 0. -1.
        -11    1    4    4    0    0 -0.70749918960E+02 -0.55017798681E+02 -0.21431826553E+03  0.23230331067E+03  0.00000000000E+00 0. -1.
         11    1    4    4    0    0  0.25767714034E+02 -0.41629261099E+02 -0.80797994696E+02  0.94473733985E+02  0.00000000000E+00 0.  1.
         21    1    1    2  503  502 -0.11946746757E+02  0.21005077894E+02 -0.10488779101E+03  0.10763543449E+03  0.00000000000E+00 0.  1.
          1    1    1    2  501    0  0.64915815331E+02  0.81622158684E+02 -0.71072437222E+02  0.12620432323E+03  0.00000000000E+00 0. -1.
<scales pt_clust_5="13000.00000" pt_clust_6="13000.00000" pt_clust_7="13000.00000" pt_clust_8="13000.00000" pt_clust_9="24.16481" pt_clust_10="104.30627"></scales>
<clustering>
<clus scale="   24.165">  2  9  1 -1</clus>
<clus scale="   82.580">  5  6 -1 -1</clus>
<clus scale="   83.189">  2  5  1 -1</clus>
<clus scale="   91.245">  7  8 -1 -1</clus>
<clus scale="  104.306">  1 10  2 -1</clus>
<clus scale="  104.306">  1  5  2 -1</clus>
</clustering>
</event>
<event>
10    4  0.2857708E-005  0.1716723E+03  0.7546771E-02  0.1177362E+00
          2   -1    0    0  503    0 -0.00000000000E+00  0.00000000000E+00  0.31273044628E+03  0.31273044628E+03  0.00000000000E+00 0. -1.
         21   -1    0    0  501  502  0.00000000000E+00 -0.00000000000E+00 -0.36234419061E+03  0.36234419061E+03  0.00000000000E+00 0.  1.
         23    2    1    2    0    0  0.50350111349E+01  0.16371946890E+03  0.13559202518E+03  0.23093324711E+03  0.90086355753E+02 0.  0.
         24    2    1    2    0    0 -0.58675763099E+02 -0.11847461790E+03 -0.27449870418E+03  0.31516366160E+03  0.80619567943E+02 0.  0.
        -13    1    4    4    0    0 -0.76283524259E+02 -0.70991161582E+02 -0.18416604729E+03  0.21160353038E+03  0.00000000000E+00 0.  1.
         14    1    4    4    0    0  0.17607761161E+02 -0.47483456317E+02 -0.90332656896E+02  0.10356013122E+03  0.00000000000E+00 0. -1.
        -11    1    3    3    0    0  0.33643216329E+02  0.10550552393E+03  0.45044495463E+02  0.11955035825E+03  0.00000000000E+00 0.  1.
         11    1    3    3    0    0 -0.28608205194E+02  0.58213944968E+02  0.90547529717E+02  0.11138288886E+03  0.00000000000E+00 0. -1.
         21    1    1    2  503  502 -0.77841226900E+01 -0.20414679089E+02  0.42751037029E+02  0.48010445274E+02  0.00000000000E+00 0.  1.
          1    1    1    2  501    0  0.61424874654E+02 -0.24830171912E+02  0.46541897649E+02  0.80967282900E+02  0.00000000000E+00 0. -1.
<scales pt_clust_5="13000.00000" pt_clust_6="13000.00000" pt_clust_7="13000.00000" pt_clust_8="13000.00000" pt_clust_9="21.84838" pt_clust_10="66.56140"></scales>
<clustering>
<clus scale="   21.848">  1  9  2 -1</clus>
<clus scale="   66.561">  2 10  1 -1</clus>
<clus scale="   80.620">  5  6 -1 -1</clus>
<clus scale="   90.086">  7  8 -1 -1</clus>
<clus scale="  166.899">  2  5  1 -1</clus>
<clus scale="   66.561">  2  5  1 -1</clus>
</clustering>
</event>
<event>
10    4  0.2857708E-005  0.1362484E+03  0.7546771E-02  0.1238248E+00
         21   -1    0    0  501  502  0.00000000000E+00  0.00000000000E+00  0.24244666595E+03  0.24244666595E+03  0.00000000000E+00 0. -1.
          2   -1    0    0  503    0 -0.00000000000E+00 -0.00000000000E+00 -0.65492446843E+03  0.65492446843E+03  0.00000000000E+00 0. -1.
         24    2    1    2    0    0 -0.34761760393E+02  0.24530013202E+02 -0.40929894025E+03  0.41917582642E+03  0.79828875938E+02 0.  0.
         23    2    1    2    0    0  0.74817092441E+02  0.18485035631E+02 -0.22534783395E+02  0.12001725449E+03  0.89202191956E+02 0.  0.
        -13    1    3    3    0    0 -0.18658586387E+02 -0.28244200812E+02 -0.12107636813E+03  0.12571938850E+03  0.00000000000E+00 0.  1.
         14    1    3    3    0    0 -0.16103174006E+02  0.52774214014E+02 -0.28822257212E+03  0.29345643792E+03  0.00000000000E+00 0. -1.
        -11    1    4    4    0    0 -0.16707014708E+02 -0.11946402582E+02 -0.97075743309E+01  0.22717347435E+02  0.00000000000E+00 0.  1.
         11    1    4    4    0    0  0.91524107148E+02  0.30431438213E+02 -0.12827209064E+02  0.97299907057E+02  0.00000000000E+00 0. -1.
         21    1    1    2  503  502  0.68980687150E+02 -0.62839849135E+02 -0.13746883912E+03  0.16614711423E+03  0.00000000000E+00 0. -1.
          1    1    1    2  501    0 -0.10903601920E+03  0.19824800302E+02  0.15682476027E+03  0.19203093924E+03  0.00000000000E+00 0. -1.
<scales pt_clust_5="13000.00000" pt_clust_6="13000.00000" pt_clust_7="13000.00000" pt_clust_8="13000.00000" pt_clust_9="66.76792" pt_clust_10="102.98835"></scales>
<clustering>
<clus scale="   79.829">  5  6 -1 -1</clus>
<clus scale="   89.202">  7  8 -1 -1</clus>
<clus scale="   90.459">  2  5  1 -1</clus>
<clus scale="   66.768">  2  9  1 -1</clus>
<clus scale="  102.988">  1 10  2 -1</clus>
<clus scale="  102.988">  1  5  2 -1</clus>
</clustering>
</event>
<event>
10    4  0.2857708E-005  0.1357395E+03  0.7546771E-02  0.1221920E+00
         -1   -1    0    0    0  501 -0.00000000000E+00  0.00000000000E+00  0.17481920812E+03  0.17481920812E+03  0.00000000000E+00 0.  1.
         21   -1    0    0  503  502  0.00000000000E+00 -0.00000000000E+00 -0.43918662590E+03  0.43918662590E+03  0.00000000000E+00 0. -1.
         24    2    1    2    0    0 -0.86952323335E+02 -0.44492643497E+02 -0.45916703789E+02  0.13440970028E+03  0.80108189235E+02 0.  0.
         23    2    1    2    0    0  0.13451707061E+03  0.59085425578E+02 -0.29112855226E+03  0.33876298221E+03  0.91752898457E+02 0.  0.
        -13    1    3    3    0    0 -0.31711925784E+02 -0.34567060751E+02  0.17185872290E+02  0.49958804352E+02  0.00000000000E+00 0.  1.
         14    1    3    3    0    0 -0.55240397551E+02 -0.99255827461E+01 -0.63102576079E+02  0.84450895923E+02  0.00000000000E+00 0. -1.
        -13    1    4    4    0    0  0.13425825787E+03  0.25177923643E+02 -0.25454820917E+03  0.28888405708E+03  0.00000000000E+00 0. -1.
         13    1    4    4    0    0  0.25881274050E+00  0.33907501935E+02 -0.36580343093E+02  0.49878925132E+02  0.00000000000E+00 0.  1.
         21    1    1    2  503  501  0.19814196316E+02  0.24461908009E+02  0.51102593115E+02  0.60020516010E+02  0.00000000000E+00 0.  1.
         -2    1    1    2    0  502 -0.67378943589E+02 -0.39054690090E+02  0.21575245159E+02  0.80812635527E+02  0.00000000000E+00 0.  1.
<scales pt_clust_5="13000.00000" pt_clust_6="13000.00000" pt_clust_7="13000.00000" pt_clust_8="13000.00000" pt_clust_9="31.47995" pt_clust_10="65.43233"></scales>
<clustering>
<clus scale="   31.480">  1  9  2 -1</clus>
<clus scale="   65.432">  2 10  1 -1</clus>
<clus scale="   80.108">  5  6 -1 -1</clus>
<clus scale="   91.753">  7  8 -1 -1</clus>
<clus scale="  128.156">  1  5  2 -1</clus>
<clus scale="   65.432">  2  5  1 -1</clus>
</clustering>
</event>
<event>
10    4  0.2857708E-005  0.9970041E+02  0.7546771E-02  0.1284022E+00
         21   -1    0    0  501  502  0.00000000000E+00  0.00000000000E+00  0.14318590212E+03  0.14318590212E+03  0.00000000000E+00 0.  1.
          2   -1    0    0  503    0 -0.00000000000E+00 -0.00000000000E+00 -0.42728216408E+03  0.42728216408E+03  0.00000000000E+00 0. -1.
         23    2    1    2    0    0  0.35258951583E+02 -0.20826157223E+00 -0.74153756070E+02  0.12325229078E+03  0.91919043746E+02 0.  0.
         24    2    1    2    0    0 -0.65721920626E+02  0.14600130337E+02  0.80598094486E+02  0.13556294180E+03  0.85724697131E+02 0.  0.
        -11    1    4    4    0    0 -0.60217421725E+02 -0.15405795276E+02  0.84402364485E+02  0.10482001497E+03  0.00000000000E+00 0.  1.
         12    1    4    4    0    0 -0.55044989007E+01  0.30005925613E+02 -0.38042699985E+01  0.30742926833E+02  0.00000000000E+00 0. -1.
        -13    1    3    3    0    0 -0.28080139025E+02 -0.51090498481E+00 -0.46092682948E+02  0.53974907623E+02  0.00000000000E+00 0.  1.
         13    1    3    3    0    0  0.63339090608E+02  0.30264341258E+00 -0.28061073122E+02  0.69277383155E+02  0.00000000000E+00 0. -1.
         21    1    1    2  503  502 -0.12755165106E+02  0.40747046125E+02 -0.10978117375E+03  0.11779185929E+03  0.00000000000E+00 0. -1.
          1    1    1    2  501    0  0.43218134149E+02 -0.55138914890E+02 -0.18075942662E+03  0.19386097433E+03  0.00000000000E+00 0. -1.
<scales pt_clust_5="13000.00000" pt_clust_6="13000.00000" pt_clust_7="13000.00000" pt_clust_8="13000.00000" pt_clust_9="42.69679" pt_clust_10="47.06763"></scales>
<clustering>
<clus scale="   42.697">  2  9  1 -1</clus>
<clus scale="   47.068">  1 10  2 -1</clus>
<clus scale="   85.725">  5  6 -1 -1</clus>
<clus scale="   91.919">  7  8 -1 -1</clus>
<clus scale="   94.020">  1  5  2 -1</clus>
<clus scale="   47.068">  1  5  2 -1</clus>
</clustering>
</event>
<event>
10    4  0.2857708E-005  0.1819537E+03  0.7546771E-02  0.1167234E+00
         21   -1    0    0  501  502  0.00000000000E+00  0.00000000000E+00  0.45086281035E+02  0.45086281035E+02  0.00000000000E+00 0. -1.
          2   -1    0    0  503    0 -0.00000000000E+00 -0.00000000000E+00 -0.15287186953E+04  0.15287186953E+04  0.00000000000E+00 0. -1.
         24    2    1    2    0    0  0.14431965148E+03 -0.69306458785E+02 -0.11020152637E+04  0.11164995537E+04  0.80635382238E+02 0.  0.
         23    2    1    2    0    0 -0.10910715663E+03  0.76564396732E+02 -0.16174815932E+03  0.22883683509E+03  0.91855057436E+02 0.  0.
        -13    1    3    3    0    0  0.69388565608E+02 -0.77129814995E+02 -0.61414881198E+03  0.62285033889E+03  0.00000000000E+00 0.  1.
         14    1    3    3    0    0  0.74931085873E+02  0.78233562100E+01 -0.48786645173E+03  0.49364921479E+03  0.00000000000E+00 0. -1.
        -13    1    4    4    0    0 -0.86105964525E+02  0.29822067354E+02 -0.46371660225E+02  0.10224443114E+03  0.00000000000E+00 0. -1.
         13    1    4    4    0    0 -0.23001192104E+02  0.46742329379E+02 -0.11537649909E+03  0.12659240394E+03  0.00000000000E+00 0.  1.
         21    1    1    2  503  502 -0.10625104361E+02 -0.27876680758E+02 -0.11442934599E+03  0.11825429123E+03  0.00000000000E+00 0. -1.
          1    1    1    2  501    0 -0.24587390492E+02  0.20618742811E+02 -0.10543964524E+03  0.11021429633E+03  0.00000000000E+00 0. -1.
<scales pt_clust_5="13000.00000" pt_clust_6="13000.00000" pt_clust_7="13000.00000" pt_clust_8="13000.00000" pt_clust_9="29.83290" pt_clust_10="31.41635"></scales>
<clustering>
<clus scale="   29.833">  2  9  1 -1</clus>
<clus scale="   31.416">  1 10  2 -1</clus>
<clus scale="   80.635">  5  6 -1 -1</clus>
<clus scale="   91.855">  7  8 -1 -1</clus>
<clus scale="  176.556">  2  5  1 -1</clus>
<clus scale="   31.416">  1  5  2 -1</clus>
</clustering>
</event>
<event>
10    4  0.2857708E-005  0.9475061E+02  0.7546771E-02  0.1299663E+00
         21   -1    0    0  501  502  0.00000000000E+00  0.00000000000E+00  0.41964124522E+03  0.41964124522E+03  0.00000000000E+00 0.  1.
          2   -1    0    0  503    0 -0.00000000000E+00 -0.00000000000E+00 -0.15080083984E+03  0.15080083984E+03  0.00000000000E+00 0. -1.
         23    2    1    2    0    0 -0.31242406306E+02  0.24926357623E+02 -0.31497058888E+02  0.10461247740E+03  0.91401829595E+02 0.  0.
         24    2    1    2    0    0 -0.11877726612E+02 -0.51767482280E+02  0.11207516919E+03  0.14645150274E+03  0.77886112346E+02 0.  0.
        -11    1    4    4    0    0 -0.39187626323E+02 -0.17234904058E+02  0.83872862458E+02  0.94166708723E+02  0.00000000000E+00 0.  1.
         12    1    4    4    0    0  0.27309899712E+02 -0.34532578222E+02  0.28202306729E+02  0.52284794021E+02  0.00000000000E+00 0. -1.
        -13    1    3    3    0    0 -0.20053472471E+02  0.53921683182E+02  0.37109433412E+01  0.57649464662E+02  0.00000000000E+00 0.  1.
         13    1    3    3    0    0 -0.11188933834E+02 -0.28995325559E+02 -0.35208002229E+02  0.46963012739E+02  0.00000000000E+00 0. -1.
         21    1    1    2  503  502  0.36255931614E+02 -0.11036280642E+02 -0.58460650730E+02  0.69670221410E+02  0.00000000000E+00 0. -1.
          1    1    1    2  501    0  0.68642013038E+01  0.37877405299E+02  0.24672294582E+03  0.24970788350E+03  0.00000000000E+00 0. -1.
<scales pt_clust_5="13000.00000" pt_clust_6="13000.00000" pt_clust_7="13000.00000" pt_clust_8="13000.00000" pt_clust_9="37.89844" pt_clust_10="38.42420"></scales>
<clustering>
<clus scale="   37.898">  2  9  1 -1</clus>
<clus scale="   38.424">  1 10  2 -1</clus>
<clus scale="   77.886">  5  6 -1 -1</clus>
<clus scale="   81.790">  1  5  2 -1</clus>
<clus scale="   91.402">  7  8 -1 -1</clus>
<clus scale="   38.424">  1  5  2 -1</clus>
</clustering>
</event>
<event>
10    4  0.2857708E-005  0.1334342E+03  0.7546771E-02  0.1224849E+00
          4   -1    0    0  503    0 -0.00000000000E+00  0.00000000000E+00  0.98783662476E+02  0.98783662476E+02  0.00000000000E+00 0. -1.
         21   -1    0    0  501  502  0.00000000000E+00 -0.00000000000E+00 -0.43166676704E+03  0.43166676704E+03  0.00000000000E+00 0.  1.
         24    2    1    2    0    0  0.87206494255E+02  0.44996160761E+02 -0.35251405558E+01  0.12730521803E+03  0.81022001933E+02 0.  0.
         23    2    1    2    0    0 -0.11530793043E+03 -0.24657840723E+01 -0.19321838413E+03  0.24268989419E+03  0.90901275383E+02 0.  0.
        -11    1    3    3    0    0  0.56961569900E+02  0.57769788554E+02 -0.28568606798E+02  0.86012407300E+02  0.00000000000E+00 0.  1.
         12    1    3    3    0    0  0.30244924355E+02 -0.12773627794E+02  0.25043466242E+02  0.41292810726E+02  0.00000000000E+00 0. -1.
        -11    1    4    4    0    0 -0.28572522968E+02  0.24118359228E+02 -0.10735840274E+02  0.38901704165E+02  0.00000000000E+00 0.  1.
         11    1    4    4    0    0 -0.86735407466E+02 -0.26584143300E+02 -0.18248254385E+03  0.20378819003E+03  0.00000000000E+00 0. -1.
         21    1    1    2  503  502  0.93617765349E+00 -0.21161966598E+02 -0.12624366081E+01  0.21220249882E+02  0.00000000000E+00 0. -1.
          3    1    1    2  501    0  0.27165258525E+02 -0.21368410091E+02 -0.13487714327E+03  0.13923506741E+03  0.00000000000E+00 0. -1.
<scales pt_clust_5="13000.00000" pt_clust_6="13000.00000" pt_clust_7="13000.00000" pt_clust_8="13000.00000" pt_clust_9="21.18266" pt_clust_10="34.90371"></scales>
<clustering>
<clus scale="   21.183">  1  9  2 -1</clus>
<clus scale="   34.904">  2 10  1 -1</clus>
<clus scale="   81.022">  5  6 -1 -1</clus>
<clus scale="   90.901">  7  8 -1 -1</clus>
<clus scale="  126.910">  1  5  2 -1</clus>
<clus scale="   34.904">  2  5  1 -1</clus>
</clustering>
</event>
<event>
10    4  0.2857708E-005  0.2429883E+03  0.7546771E-02  0.1118142E+00
         21   -1    0    0  503  502  0.00000000000E+00  0.00000000000E+00  0.93003997106E+03  0.93003997106E+03  0.00000000000E+00 0.  1.
         -1   -1    0    0    0  501 -0.00000000000E+00 -0.00000000000E+00 -0.11597844412E+03  0.11597844412E+03  0.00000000000E+00 0.  1.
         23    2    1    2    0    0 -0.43858309261E+02  0.22760507452E+03  0.18352305169E+03  0.30783403294E+03  0.85752318311E+02 0.  0.
         24    2    1    2    0    0  0.11770642977E+03 -0.18190032429E+03  0.54136411023E+03  0.58857315002E+03  0.80004509242E+02 0.  0.
        -11    1    4    4    0    0  0.12444480804E+03 -0.14820229398E+03  0.48941120296E+03  0.52628296169E+03  0.00000000000E+00 0.  1.
         12    1    4    4    0    0 -0.67383782675E+01 -0.33698030305E+02  0.51952907271E+02  0.62290188329E+02  0.00000000000E+00 0. -1.
        -13    1    3    3    0    0  0.19100783731E+02  0.30898058975E+02  0.50347062040E+02  0.62083465139E+02  0.00000000000E+00 0. -1.
         13    1    3    3    0    0 -0.62959092992E+02  0.19670701555E+03  0.13317598965E+03  0.24575056780E+03  0.00000000000E+00 0.  1.
         21    1    1    2  503  501 -0.87269309701E+02 -0.19299028351E+02  0.75446640228E+02  0.11696401341E+03  0.00000000000E+00 0. -1.
         -2    1    1    2    0  502  0.13421189188E+02 -0.26405721883E+02  0.13727724797E+02  0.32647218801E+02  0.00000000000E+00 0.  1.
<scales pt_clust_5="13000.00000" pt_clust_6="13000.00000" pt_clust_7="13000.00000" pt_clust_8="13000.00000" pt_clust_9="88.64465" pt_clust_10="29.62079"></scales>
<clustering>
<clus scale="   29.621">  1 10  2 -1</clus>
<clus scale="   80.005">  5  6 -1 -1</clus>
<clus scale="   85.752">  7  8 -1 -1</clus>
<clus scale="   88.645">  2  9  1 -1</clus>
<clus scale="  241.020">  1  5  2 -1</clus>
<clus scale="   29.621">  1  5  2 -1</clus>
</clustering>
</event>
<event>
10    4  0.2857708E-005  0.1941920E+03  0.7546771E-02  0.1157251E+00
         21   -1    0    0  503  502  0.00000000000E+00  0.00000000000E+00  0.14959863202E+03  0.14959863202E+03  0.00000000000E+00 0.  1.
         -1   -1    0    0    0  501 -0.00000000000E+00 -0.00000000000E+00 -0.96085884289E+03  0.96085884289E+03  0.00000000000E+00 0.  1.
         24    2    1    2    0    0 -0.21071907436E+03 -0.10870760314E+03 -0.35932419935E+03  0.43788005973E+03  0.80032463359E+02 0.  0.
         23    2    1    2    0    0  0.12912226619E+03 -0.96368518714E+02 -0.85681271356E+02  0.20953486386E+03  0.10297634624E+03 0.  0.
        -11    1    3    3    0    0 -0.17725744076E+03 -0.11754802486E+03 -0.28246276377E+03  0.35358584724E+03  0.00000000000E+00 0.  1.
         12    1    3    3    0    0 -0.33461633604E+02  0.88404217218E+01 -0.76861435588E+02  0.84294212496E+02  0.00000000000E+00 0. -1.
        -13    1    4    4    0    0  0.72677128831E+02 -0.23499372163E+02 -0.89023986561E+02  0.11730070644E+03  0.00000000000E+00 0. -1.
         13    1    4    4    0    0  0.56445137356E+02 -0.72869146551E+02  0.33427152046E+01  0.92234157421E+02  0.00000000000E+00 0.  1.
         21    1    1    2  503  501  0.48243638019E+02  0.15602817605E+03 -0.36914468741E+03  0.40365832157E+03  0.00000000000E+00 0.  1.
         -2    1    1    2    0  502  0.33353170154E+02  0.49047945810E+02  0.28899472583E+01  0.59384229747E+02  0.00000000000E+00 0.  1.
<scales pt_clust_5="13000.00000" pt_clust_6="13000.00000" pt_clust_7="13000.00000" pt_clust_8="13000.00000" pt_clust_9="171.59649" pt_clust_10="59.31387"></scales>
<clustering>
<clus scale="   59.314">  1 10  2 -1</clus>
<clus scale="   80.032">  5  6 -1 -1</clus>
<clus scale="  102.976">  7  8 -1 -1</clus>
<clus scale="  171.596">  2  9  1 -1</clus>
<clus scale="  183.062">  2  5  1 -1</clus>
<clus scale="   59.314">  1  5  2 -1</clus>
</clustering>
</event>
<event>
10    4  0.2857708E-005  0.3399081E+03  0.7546771E-02  0.1093417E+00
          2   -1    0    0  503    0 -0.00000000000E+00  0.00000000000E+00  0.23069377228E+04  0.23069377228E+04  0.00000000000E+00 0. -1.
         21   -1    0    0  501  502  0.00000000000E+00 -0.00000000000E+00 -0.10465396011E+03  0.10465396011E+03  0.00000000000E+00 0.  1.
         24    2    1    2    0    0 -0.14152874911E+03 -0.32884706662E+02  0.16288077804E+03  0.23300297108E+03  0.81538002908E+02 0.  0.
         23    2    1    2    0    0  0.27264706612E+03  0.28819347893E+03  0.77749468334E+03  0.87743802907E+03  0.89485240481E+02 0.  0.
        -13    1    3    3    0    0 -0.12062162695E+03 -0.26916721438E+02  0.79772471474E+02  0.14709770217E+03  0.00000000000E+00 0.  1.
         14    1    3    3    0    0 -0.20907122170E+02 -0.59679852244E+01  0.83108306571E+02  0.85905268908E+02  0.00000000000E+00 0. -1.
        -11    1    4    4    0    0  0.48800507846E+02  0.65057142755E+02  0.24568591115E+03  0.25879622935E+03  0.00000000000E+00 0. -1.
         11    1    4    4    0    0  0.22384655827E+03  0.22313633617E+03  0.53180877220E+03  0.61864179972E+03  0.00000000000E+00 0.  1.
         21    1    1    2  503  502  0.18533316962E+02 -0.50638018722E+02  0.36983626196E+03  0.37374664338E+03  0.00000000000E+00 0.  1.
          1    1    1    2  501    0 -0.14965163397E+03 -0.20467075354E+03  0.89207203934E+03  0.92740403939E+03  0.00000000000E+00 0. -1.
<scales pt_clust_5="13000.00000" pt_clust_6="13000.00000" pt_clust_7="13000.00000" pt_clust_8="13000.00000" pt_clust_9="53.92303" pt_clust_10="327.91772"></scales>
<clustering>
<clus scale="   53.923">  1  9  2 -1</clus>
<clus scale="   81.538">  5  6 -1 -1</clus>
<clus scale="   89.485">  7  8 -1 -1</clus>
<clus scale="  166.117">  1  5  2 -1</clus>
<clus scale="  327.918">  2 10  1 -1</clus>
<clus scale="  327.918">  2  5  1 -1</clus>
</clustering>
</event>
<event>
10    4  0.2857708E-005  0.1389574E+03  0.7546771E-02  0.1240581E+00
          2   -1    0    0  503    0 -0.00000000000E+00  0.00000000000E+00  0.53661165927E+03  0.53661165927E+03  0.00000000000E+00 0. -1.
         21   -1    0    0  501  502  0.00000000000E+00 -0.00000000000E+00 -0.12893448568E+03  0.12893448568E+03  0.00000000000E+00 0. -1.
         24    2    1    2    0    0  0.25350221130E+02 -0.11211629075E+02  0.14203091348E+03  0.16390663652E+03  0.76969284624E+02 0.  0.
         23    2    1    2    0    0 -0.67851998051E+02 -0.34986712271E+02 -0.47653915033E+02  0.12753862277E+03  0.90372789070E+02 0.  0.
        -13    1    3    3    0    0  0.28088904392E+02  0.14479393546E+02  0.13274080246E+03  0.13645057723E+03  0.00000000000E+00 0.  1.
         14    1    3    3    0    0 -0.27386832621E+01 -0.25691022621E+02  0.92901110130E+01  0.27456059294E+02  0.00000000000E+00 0. -1.
        -11    1    4    4    0    0 -0.44245959935E+02 -0.10761070817E+02  0.21650212363E+02  0.50420604033E+02  0.00000000000E+00 0.  1.
         11    1    4    4    0    0 -0.23606038116E+02 -0.24225641455E+02 -0.69304127395E+02  0.77118018734E+02  0.00000000000E+00 0. -1.
         21    1    1    2  503  502  0.80428134497E+02  0.80867237417E+02  0.90911272531E+02  0.14585285180E+03  0.00000000000E+00 0. -1.
          1    1    1    2  501    0 -0.37926357576E+02 -0.34668896071E+02  0.22238890261E+03  0.22824803386E+03  0.00000000000E+00 0. -1.
<scales pt_clust_5="13000.00000" pt_clust_6="13000.00000" pt_clust_7="13000.00000" pt_clust_8="13000.00000" pt_clust_9="105.55522" pt_clust_10="51.38427"></scales>
<clustering>
<clus scale="   51.384">  2 10  1 -1</clus>
<clus scale="   76.969">  5  6 -1 -1</clus>
<clus scale="   81.321">  1  5  2 -1</clus>
<clus scale="   90.373">  7  8 -1 -1</clus>
<clus scale="  105.555">  1  9  2 -1</clus>
<clus scale="   51.384">  2  5  1 -1</clus>
</clustering>
</event>
<event>
10    4  0.2857708E-005  0.1797714E+03  0.7546771E-02  0.1169552E+00
         -1   -1    0    0    0  501 -0.00000000000E+00  0.00000000000E+00  0.66326567418E+03  0.66326567418E+03  0.00000000000E+00 0.  1.
         21   -1    0    0  503  502  0.00000000000E+00 -0.00000000000E+00 -0.14760038828E+03  0.14760038828E+03  0.00000000000E+00 0. -1.
         23    2    1    2    0    0  0.11200223214E+03  0.93769063800E+02  0.15409777744E+03  0.22177034838E+03  0.64022067131E+02 0.  0.
         24    2    1    2    0    0 -0.22681031370E+03  0.45492759066E+02  0.15146439083E+03  0.28764335916E+03  0.79276294410E+02 0.  0.
        -13    1    4    4    0    0 -0.14603046345E+03  0.40348660067E+02  0.13926553738E+03  0.20578581226E+03  0.00000000000E+00 0.  1.
         14    1    4    4    0    0 -0.80779850247E+02  0.51440989988E+01  0.12198853451E+02  0.81857546909E+02  0.00000000000E+00 0. -1.
        -13    1    3    3    0    0  0.37543991993E+02 -0.10426813934E+01  0.49700806503E+02  0.62296137009E+02  0.00000000000E+00 0.  1.
         13    1    3    3    0    0  0.74458240145E+02  0.94811745194E+02  0.10439697094E+03  0.15947421137E+03  0.00000000000E+00 0. -1.
         21    1    1    2  503  501  0.24429199869E+02 -0.10796331328E+03  0.67196023617E+02  0.12949196273E+03  0.00000000000E+00 0.  1.
         -2    1    1    2    0  502  0.90378881692E+02 -0.31298509586E+02  0.14290709402E+03  0.17196039218E+03  0.00000000000E+00 0.  1.
<scales pt_clust_5="13000.00000" pt_clust_6="13000.00000" pt_clust_7="13000.00000" pt_clust_8="13000.00000" pt_clust_9="123.97372" pt_clust_10="95.64491"></scales>
<clustering>
<clus scale="   64.022">  7  8 -1 -1</clus>
<clus scale="   79.276">  5  6 -1 -1</clus>
<clus scale="   95.645">  2 10  1 -1</clus>
<clus scale="  123.974">  1  9  2 -1</clus>
<clus scale="  173.585">  1  7  2 -1</clus>
<clus scale="   95.645">  2  5  1 -1</clus>
</clustering>
</event>
<event>
10    4  0.2857708E-005  0.9364315E+02  0.7546771E-02  0.1295345E+00
          2   -1    0    0  503    0 -0.00000000000E+00  0.00000000000E+00  0.67837659501E+02  0.67837659501E+02  0.00000000000E+00 0. -1.
         21   -1    0    0  501  502  0.00000000000E+00 -0.00000000000E+00 -0.37365342603E+03  0.37365342603E+03  0.00000000000E+00 0.  1.
         23    2    1    2    0    0  0.88593137474E+01  0.26171171368E+02 -0.89479882906E+02  0.12151607061E+03  0.77434413031E+02 0.  0.
         24    2    1    2    0    0 -0.57178738143E+02 -0.49595221396E+02 -0.18711281872E+03  0.21698480287E+03  0.79637325829E+02 0.  0.
        -13    1    4    4    0    0 -0.30937268415E+02  0.14146780022E+02 -0.10162504065E+03  0.10716760168E+03  0.00000000000E+00 0.  1.
         14    1    4    4    0    0 -0.26241469728E+02 -0.63742001418E+02 -0.85487778075E+02  0.10981720120E+03  0.00000000000E+00 0. -1.
        -13    1    3    3    0    0 -0.21611111377E+02  0.18845093078E+02 -0.21739572418E+01  0.28755934312E+02  0.00000000000E+00 0.  1.
         13    1    3    3    0    0  0.30470425124E+02  0.73260782898E+01 -0.87305925664E+02  0.92760136300E+02  0.00000000000E+00 0. -1.
         21    1    1    2  503  502  0.15366725122E+02  0.31413408154E+02  0.22179907588E+02  0.41411191162E+02  0.00000000000E+00 0.  1.
          1    1    1    2  501    0  0.32952699273E+02 -0.79893581262E+01 -0.51402972484E+02  0.61579020883E+02  0.00000000000E+00 0. -1.
<scales pt_clust_5="13000.00000" pt_clust_6="13000.00000" pt_clust_7="13000.00000" pt_clust_8="13000.00000" pt_clust_9="35.20627" pt_clust_10="33.90738"></scales>
<clustering>
<clus scale="   33.907">  2 10  1 -1</clus>
<clus scale="   35.206">  1  9  2 -1</clus>
<clus scale="   77.434">  7  8 -1 -1</clus>
<clus scale="   79.637">  5  6 -1 -1</clus>
<clus scale="   91.777">  1  7  2 -1</clus>
<clus scale="   33.907">  2  5  1 -1</clus>
</clustering>
</event>
<event>
10    4  0.2857708E-005  0.1246188E+03  0.7546771E-02  0.1238467E+00
          2   -1    0    0  503    0 -0.00000000000E+00  0.00000000000E+00  0.97297014480E+03  0.97297014480E+03  0.00000000000E+00 0. -1.
         21   -1    0    0  501  502  0.00000000000E+00 -0.00000000000E+00 -0.17851909546E+03  0.17851909546E+03  0.00000000000E+00 0. -1.
         23    2    1    2    0    0  0.21440545536E+01 -0.95345200828E+02  0.13656929634E+03  0.18933795696E+03  0.90013248770E+02 0.  0.
         24    2    1    2    0    0  0.22523166956E+02  0.71909120898E+02  0.19373485956E+03  0.22279208496E+03  0.80155490112E+02 0.  0.
        -11    1    4    4    0    0  0.36200536099E+02  0.36759047523E+02  0.17131399461E+03  0.17891392103E+03  0.00000000000E+00 0.  1.
         12    1    4    4    0    0 -0.13677369143E+02  0.35150073375E+02  0.22420864947E+02  0.43878163931E+02  0.00000000000E+00 0. -1.
        -13    1    3    3    0    0 -0.29586497614E+02 -0.24532369798E+02  0.81401970170E+01  0.39286903880E+02  0.00000000000E+00 0. -1.
         13    1    3    3    0    0  0.31730552167E+02 -0.70812831029E+02  0.12842909932E+03  0.15005105308E+03  0.00000000000E+00 0.  1.
         21    1    1    2  503  502  0.25106358696E+02  0.74674392639E+02  0.58968282756E+03  0.59492220607E+03  0.00000000000E+00 0. -1.
          1    1    1    2  501    0 -0.49773580205E+02 -0.51238312709E+02 -0.12553593412E+03  0.14443699226E+03  0.00000000000E+00 0. -1.
<scales pt_clust_5="13000.00000" pt_clust_6="13000.00000" pt_clust_7="13000.00000" pt_clust_8="13000.00000" pt_clust_9="74.92777" pt_clust_10="71.43370"></scales>
<clustering>
<clus scale="   71.434">  2 10  1 -1</clus>
<clus scale="   74.928">  1  9  2 -1</clus>
<clus scale="   80.155">  5  6 -1 -1</clus>
<clus scale="   90.013">  7  8 -1 -1</clus>
<clus scale="  117.696">  2  5  1 -1</clus>
<clus scale="   71.434">  2  5  1 -1</clus>
</clustering>
</event>
<event>
10    4  0.2857708E-005  0.9852053E+02  0.7546771E-02  0.1288868E+00
          2   -1    0    0  503    0 -0.00000000000E+00  0.00000000000E+00  0.18481852800E+03  0.18481852800E+03  0.00000000000E+00 0. -1.
         21   -1    0    0  501  502  0.00000000000E+00 -0.00000000000E+00 -0.49596962694E+03  0.49596962694E+03  0.00000000000E+00 0. -1.
         24    2    1    2    0    0 -0.46670750166E+02 -0.40188924995E+02  0.73898568888E+02  0.12599178682E+03  0.81361067154E+02 0.  0.
         23    2    1    2    0    0  0.27641878758E+02 -0.35873453159E+02 -0.26511564296E+03  0.28417098856E+03  0.91738042790E+02 0.  0.
        -13    1    3    3    0    0 -0.63498967125E+02 -0.45211585025E+02  0.75292055438E+02  0.10837481192E+03  0.00000000000E+00 0.  1.
         14    1    3    3    0    0  0.16828216960E+02  0.50226600295E+01 -0.13934865495E+01  0.17616974899E+02  0.00000000000E+00 0. -1.
        -13    1    4    4    0    0  0.59900487272E+02 -0.35567778354E+02 -0.16940627394E+03  0.18317101540E+03  0.00000000000E+00 0. -1.
         13    1    4    4    0    0 -0.32258608514E+02 -0.30567480511E+00 -0.95709369022E+02  0.10099997316E+03  0.00000000000E+00 0.  1.
         21    1    1    2  503  502  0.37888985751E+02  0.14222906424E+01  0.62224655228E+02  0.72866356229E+02  0.00000000000E+00 0. -1.
          1    1    1    2  501    0 -0.18860114344E+02  0.74640087512E+02 -0.18215868009E+03  0.19775902333E+03  0.00000000000E+00 0. -1.
<scales pt_clust_5="13000.00000" pt_clust_6="13000.00000" pt_clust_7="13000.00000" pt_clust_8="13000.00000" pt_clust_9="37.91567" pt_clust_10="76.50013"></scales>
<clustering>
<clus scale="   37.916">  1  9  2 -1</clus>
<clus scale="   76.500">  2 10  1 -1</clus>
<clus scale="   81.361">  5  6 -1 -1</clus>
<clus scale="   88.938">  1  5  2 -1</clus>
<clus scale="   91.738">  7  8 -1 -1</clus>
<clus scale="   76.500">  2  5  1 -1</clus>
</clustering>
</event>
<event>
10    4  0.2857708E-005  0.2521978E+03  0.7546771E-02  0.1112901E+00
          2   -1    0    0  503    0 -0.00000000000E+00  0.00000000000E+00  0.48790022446E+03  0.48790022446E+03  0.00000000000E+00 0. -1.
         21   -1    0    0  501  502  0.00000000000E+00 -0.00000000000E+00 -0.80163134072E+03  0.80163134072E+03  0.00000000000E+00 0.  1.
         24    2    1    2    0    0 -0.87168788467E+02  0.27599179983E+03 -0.23243256495E+03  0.37964271073E+03  0.79585295786E+02 0.  0.
         23    2    1    2    0    0 -0.74540024730E+02 -0.18877740481E+03 -0.27529471426E+03  0.35551279913E+03  0.97000241221E+02 0.  0.
        -11    1    3    3    0    0 -0.10305757323E+02  0.27618531799E+02  0.20223941035E+01  0.29547961193E+02  0.00000000000E+00 0.  1.
         12    1    3    3    0    0 -0.76863031144E+02  0.24837326803E+03 -0.23445495905E+03  0.35009474954E+03  0.00000000000E+00 0. -1.
        -11    1    4    4    0    0 -0.85062816561E+02 -0.14161755795E+03 -0.15773798062E+03  0.22841297251E+03  0.00000000000E+00 0.  1.
         11    1    4    4    0    0  0.10522791831E+02 -0.47159846854E+02 -0.11755673364E+03  0.12709982662E+03  0.00000000000E+00 0. -1.
         21    1    1    2  503  502  0.91382084049E+02 -0.12485201563E+02  0.35315710810E+03  0.36500206649E+03  0.00000000000E+00 0. -1.
          1    1    1    2  501    0  0.70326729148E+02 -0.74729193460E+02 -0.15916094514E+03  0.18937398883E+03  0.00000000000E+00 0. -1.
<scales pt_clust_5="13000.00000" pt_clust_6="13000.00000" pt_clust_7="13000.00000" pt_clust_8="13000.00000" pt_clust_9="92.23104" pt_clust_10="111.23567"></scales>
<clustering>
<clus scale="   79.585">  5  6 -1 -1</clus>
<clus scale="   92.231">  1  9  2 -1</clus>
<clus scale="   97.000">  7  8 -1 -1</clus>
<clus scale="  111.236">  2 10  1 -1</clus>
<clus scale="  246.025">  1  5  2 -1</clus>
<clus scale="  111.236">  2  5  1 -1</clus>
</clustering>
</event>
<event>
10    4  0.2857708E-005  0.1108729E+03  0.7546771E-02  0.1263322E+00
         21   -1    0    0  501  502  0.00000000000E+00  0.00000000000E+00  0.69993328560E+02  0.69993328560E+02  0.00000000000E+00 0. -1.
          2   -1    0    0  503    0 -0.00000000000E+00 -0.00000000000E+00 -0.76601929492E+03  0.76601929492E+03  0.00000000000E+00 0. -1.
         24    2    1    2    0    0 -0.55423145856E+02 -0.40867297153E+02 -0.48816646873E+03  0.49942031752E+03  0.79826632682E+02 0.  0.
         23    2    1    2    0    0  0.64549910388E+02 -0.88175682041E+01 -0.16006902619E+03  0.19537637719E+03  0.91133940879E+02 0.  0.
        -11    1    3    3    0    0 -0.93650775177E+01  0.19359652883E+02 -0.45732284418E+02  0.50536547911E+02  0.00000000000E+00 0.  1.
         12    1    3    3    0    0 -0.46058068338E+02 -0.60226950036E+02 -0.44243418431E+03  0.44888376961E+03  0.00000000000E+00 0. -1.
        -11    1    4    4    0    0 -0.13783264859E+02 -0.26395583737E+02 -0.60856479029E+02  0.67751134830E+02  0.00000000000E+00 0. -1.
         11    1    4    4    0    0  0.78333175247E+02  0.17578015533E+02 -0.99212547159E+02  0.12762524236E+03  0.00000000000E+00 0.  1.
         21    1    1    2  503  502 -0.66673613552E+01  0.23671713051E+02 -0.89047323764E+02  0.92380893998E+02  0.00000000000E+00 0. -1.
          1    1    1    2  501    0 -0.24594031766E+01  0.26013152306E+02  0.41256852326E+02  0.48835034767E+02  0.00000000000E+00 0. -1.
<scales pt_clust_5="13000.00000" pt_clust_6="13000.00000" pt_clust_7="13000.00000" pt_clust_8="13000.00000" pt_clust_9="24.59276" pt_clust_10="26.26492"></scales>
<clustering>
<clus scale="   24.593">  2  9  1 -1</clus>
<clus scale="   26.265">  1 10  2 -1</clus>
<clus scale="   79.827">  5  6 -1 -1</clus>
<clus scale="   91.134">  7  8 -1 -1</clus>
<clus scale="  101.783">  2  5  1 -1</clus>
<clus scale="   26.265">  1  5  2 -1</clus>
</clustering>
</event>
<event>
10    4  0.2857708E-005  0.2012123E+03  0.7546771E-02  0.1149504E+00
         21   -1    0    0  501  502  0.00000000000E+00  0.00000000000E+00  0.66083398817E+02  0.66083398817E+02  0.00000000000E+00 0. -1.
          2   -1    0    0  503    0 -0.00000000000E+00 -0.00000000000E+00 -0.12743871495E+04  0.12743871495E+04  0.00000000000E+00 0. -1.
         23    2    1    2    0    0  0.17628071575E+03  0.63750276920E+01 -0.58744973377E+03  0.61972404638E+03  0.88572976839E+02 0.  0.
         24    2    1    2    0    0 -0.17864329627E+03  0.24363662400E+02 -0.16500553562E+03  0.25709939301E+03  0.79788819750E+02 0.  0.
        -13    1    4    4    0    0 -0.54024256340E+02 -0.19819009972E+02 -0.84713607455E+02  0.10241000301E+03  0.00000000000E+00 0.  1.
         14    1    4    4    0    0 -0.12461903993E+03  0.44182672373E+02 -0.80291928161E+02  0.15468939000E+03  0.00000000000E+00 0. -1.
        -13    1    3    3    0    0  0.65992670695E+02  0.36436407776E+02 -0.15408847757E+03  0.17153980097E+03  0.00000000000E+00 0. -1.
         13    1    3    3    0    0  0.11028804506E+03 -0.30061380084E+02 -0.43336125619E+03  0.44818424540E+03  0.00000000000E+00 0.  1.
         21    1    1    2  503  502  0.10238636377E+02  0.24182352052E+02 -0.20880640761E+03  0.21045125726E+03  0.00000000000E+00 0.  1.
          1    1    1    2  501    0 -0.78760558609E+01 -0.54921042145E+02 -0.24704207372E+03  0.25319585170E+03  0.00000000000E+00 0. -1.
<scales pt_clust_5="13000.00000" pt_clust_6="13000.00000" pt_clust_7="13000.00000" pt_clust_8="13000.00000" pt_clust_9="26.26054" pt_clust_10="49.54346"></scales>
<clustering>
<clus scale="   26.261">  2  9  1 -1</clus>
<clus scale="   49.543">  1 10  2 -1</clus>
<clus scale="   79.789">  5  6 -1 -1</clus>
<clus scale="   88.573">  7  8 -1 -1</clus>
<clus scale="  197.503">  1  5  2 -1</clus>
<clus scale="   49.543">  1  5  2 -1</clus>
</clustering>
</event>
<event>
10    4  0.2857708E-005  0.2175360E+03  0.7546771E-02  0.1159387E+00
          2   -1    0    0  503    0 -0.00000000000E+00  0.00000000000E+00  0.21207100684E+04  0.21207100684E+04  0.00000000000E+00 0. -1.
         21   -1    0    0  501  502  0.00000000000E+00 -0.00000000000E+00 -0.13765577514E+03  0.13765577514E+03  0.00000000000E+00 0. -1.
         23    2    1    2    0    0 -0.80820285227E+02 -0.15293169104E+02  0.12885951723E+03  0.17810187016E+03  0.91376700786E+02 0.  0.
         24    2    1    2    0    0 -0.33467301782E+02  0.22737456003E+03  0.17016030744E+04  0.17189124593E+04  0.79923518777E+02 0.  0.
        -11    1    4    4    0    0  0.14025441043E+02  0.29437372080E+02  0.12336743537E+03  0.12760405942E+03  0.00000000000E+00 0.  1.
         12    1    4    4    0    0 -0.47492742825E+02  0.19793718795E+03  0.15782356391E+04  0.15913083999E+04  0.00000000000E+00 0. -1.
        -11    1    3    3    0    0 -0.61844913429E+02 -0.52359755813E+02  0.79430869186E+02  0.11347070250E+03  0.00000000000E+00 0. -1.
         11    1    3    3    0    0 -0.18975371797E+02  0.37066586709E+02  0.49428648046E+02  0.64631167658E+02  0.00000000000E+00 0.  1.
         21    1    1    2  503  502 -0.76467554464E+01 -0.50703274318E+02  0.15058638004E+03  0.15907719116E+03  0.00000000000E+00 0. -1.
          1    1    1    2  501    0  0.12193434245E+03 -0.16137811661E+03  0.20053215039E+01  0.20227432290E+03  0.00000000000E+00 0. -1.
<scales pt_clust_5="13000.00000" pt_clust_6="13000.00000" pt_clust_7="13000.00000" pt_clust_8="13000.00000" pt_clust_9="51.27665" pt_clust_10="202.32190"></scales>
<clustering>
<clus scale="   51.277">  1  9  2 -1</clus>
<clus scale="   79.924">  5  6 -1 -1</clus>
<clus scale="   91.377">  7  8 -1 -1</clus>
<clus scale="  123.892">  1  7  2 -1</clus>
<clus scale="  202.322">  2 10  1 -1</clus>
<clus scale="  202.322">  2  5  1 -1</clus>
</clustering>
</event>
<event>
10    4  0.2857708E-005  0.9883512E+02  0.7546771E-02  0.1288320E+00
         21   -1    0    0  501  502  0.00000000000E+00  0.00000000000E+00  0.16253608801E+03  0.16253608801E+03  0.00000000000E+00 0.  1.
          2   -1    0    0  503    0 -0.00000000000E+00 -0.00000000000E+00 -0.77145077414E+03  0.77145077414E+03  0.00000000000E+00 0. -1.
         23    2    1    2    0    0  0.24857027870E+02 -0.90171838151E+02 -0.39694134927E+03  0.41792652749E+03  0.91385531638E+02 0.  0.
         24    2    1    2    0    0  0.12208192659E+01  0.23146063488E+02  0.97088971492E+02  0.12832724396E+03  0.80649752023E+02 0.  0.
        -11    1    4    4    0    0  0.18676185248E+02 -0.12529172454E+02  0.83303961850E+02  0.86286326366E+02  0.00000000000E+00 0.  1.
         12    1    4    4    0    0 -0.17455365982E+02  0.35675235941E+02  0.13785009642E+02  0.42040917591E+02  0.00000000000E+00 0. -1.
        -13    1    3    3    0    0  0.28261117975E+02  0.10344811489E+02 -0.98405942576E+02  0.10290498262E+03  0.00000000000E+00 0.  1.
         13    1    3    3    0    0 -0.34040901054E+01 -0.10051664964E+03 -0.29853540669E+03  0.31502154487E+03  0.00000000000E+00 0. -1.
         21    1    1    2  503  502 -0.61609616235E+01  0.58589622626E+02 -0.34270787412E+03  0.34773465216E+03  0.00000000000E+00 0.  1.
          1    1    1    2  501    0 -0.19916885512E+02  0.84361520370E+01  0.33645565768E+02  0.39998438539E+02  0.00000000000E+00 0. -1.
<scales pt_clust_5="13000.00000" pt_clust_6="13000.00000" pt_clust_7="13000.00000" pt_clust_8="13000.00000" pt_clust_9="59.12325" pt_clust_10="21.62986"></scales>
<clustering>
<clus scale="   21.630">  1 10  2 -1</clus>
<clus scale="   59.123">  2  9  1 -1</clus>
<clus scale="   80.650">  5  6 -1 -1</clus>
<clus scale="   89.003">  1  5  2 -1</clus>
<clus scale="   91.386">  7  8 -1 -1</clus>
<clus scale="   21.630">  1  5  2 -1</clus>
</clustering>
</event>
<event>
10    4  0.2857708E-005  0.9485782E+02  0.7546771E-02  0.1298032E+00
         21   -1    0    0  501  502  0.00000000000E+00  0.00000000000E+00  0.23664674094E+03  0.23664674094E+03  0.00000000000E+00 0.  1.
          4   -1    0    0  503    0 -0.00000000000E+00 -0.00000000000E+00 -0.23261149860E+03  0.23261149860E+03  0.00000000000E+00 0. -1.
         24    2    1    2    0    0  0.15084881830E+02 -0.18472034928E+02 -0.16168705326E+03  0.18184525109E+03  0.79725920616E+02 0.  0.
         23    2    1    2    0    0  0.34676018157E+02  0.26810260190E+02  0.81266689817E+02  0.12970190518E+03  0.91088380414E+02 0.  0.
        -13    1    3    3    0    0  0.33385000940E+02  0.11841880363E+01 -0.22942925985E+02  0.40525775030E+02  0.00000000000E+00 0.  1.
         14    1    3    3    0    0 -0.18300119110E+02 -0.19656222964E+02 -0.13874412727E+03  0.14131947606E+03  0.00000000000E+00 0. -1.
        -11    1    4    4    0    0  0.60874777315E+02  0.58520708594E+01  0.29217050145E+02  0.67776258864E+02  0.00000000000E+00 0. -1.
         11    1    4    4    0    0 -0.26198759158E+02  0.20958189331E+02  0.52049639672E+02  0.61925646314E+02  0.00000000000E+00 0.  1.
         21    1    1    2  503  502 -0.19991923152E+02 -0.84964699617E+01 -0.31349988053E+02  0.38140382065E+02  0.00000000000E+00 0. -1.
          3    1    1    2  501    0 -0.29768976834E+02  0.15824469902E+00  0.11580559384E+03  0.11957070121E+03  0.00000000000E+00 0. -1.
<scales pt_clust_5="13000.00000" pt_clust_6="13000.00000" pt_clust_7="13000.00000" pt_clust_8="13000.00000" pt_clust_9="21.72250" pt_clust_10="29.95929"></scales>
<clustering>
<clus scale="   21.722">  2  9  1 -1</clus>
<clus scale="   29.959">  1 10  2 -1</clus>
<clus scale="   79.726">  5  6 -1 -1</clus>
<clus scale="   84.007">  2  5  1 -1</clus>
<clus scale="   91.088">  7  8 -1 -1</clus>
<clus scale="   29.959">  1  5  2 -1</clus>
</clustering>
</event>
<event>
10    4  0.2857708E-005  0.1886542E+03  0.7546771E-02  0.1187125E+00
         21   -1    0    0  501  502  0.00000000000E+00  0.00000000000E+00  0.11848612122E+04  0.11848612122E+04  0.00000000000E+00 0.  1.
         -3   -1    0    0    0  501 -0.00000000000E+00 -0.00000000000E+00 -0.73122338121E+02  0.73122338121E+02  0.00000000000E+00 0.  1.
         23    2    1    2    0    0 -0.21327581767E+02 -0.39199518510E+02  0.18578942053E+03  0.21150059293E+03  0.90682545346E+02 0.  0.
         24    2    1    2    0    0  0.17136147904E+03  0.35380159872E+02  0.84973007000E+03  0.87142527274E+03  0.82001840759E+02 0.  0.
        -11    1    4    4    0    0  0.15846911182E+03  0.18406668469E+02  0.81655136506E+03  0.83199002195E+03  0.00000000000E+00 0.  1.
         12    1    4    4    0    0  0.12892367220E+02  0.16973491403E+02  0.33178704945E+02  0.39435250789E+02  0.00000000000E+00 0. -1.
        -13    1    3    3    0    0  0.28053345602E+02 -0.20878004271E+02  0.13064430920E+03  0.13524354620E+03  0.00000000000E+00 0. -1.
         13    1    3    3    0    0 -0.49380927369E+02 -0.18321514239E+02  0.55145111336E+02  0.76257046731E+02  0.00000000000E+00 0.  1.
         21    1    1    2  503  502 -0.25139951911E+02  0.26325418922E+01 -0.54087189033E+01  0.25849597658E+02  0.00000000000E+00 0.  1.
         -4    1    1    2    0  503 -0.12489394536E+03  0.11868167450E+01  0.81628102476E+02  0.14920808703E+03  0.00000000000E+00 0.  1.
<scales pt_clust_5="13000.00000" pt_clust_6="13000.00000" pt_clust_7="13000.00000" pt_clust_8="13000.00000" pt_clust_9="21.62667" pt_clust_10="176.57064"></scales>
<clustering>
<clus scale="   21.627">  9 10 -1 -1</clus>
<clus scale="   82.002">  5  6 -1 -1</clus>
<clus scale="   90.683">  7  8 -1 -1</clus>
<clus scale="  101.068">  2  7  1 -1</clus>
<clus scale="  176.571">  1  9  2 -1</clus>
<clus scale="  176.571">  1  5  2 -1</clus>
</clustering>
</event>
<event>
10    4  0.2857708E-005  0.1058980E+03  0.7546771E-02  0.1270671E+00
         21   -1    0    0  501  502  0.00000000000E+00  0.00000000000E+00  0.25373892173E+03  0.25373892173E+03  0.00000000000E+00 0. -1.
          2   -1    0    0  503    0 -0.00000000000E+00 -0.00000000000E+00 -0.43070024200E+03  0.43070024200E+03  0.00000000000E+00 0. -1.
         24    2    1    2    0    0 -0.44517250542E+02  0.80662323915E+01 -0.35504703430E+03  0.36824200943E+03  0.86584821073E+02 0.  0.
         23    2    1    2    0    0  0.32707977510E+02 -0.14693006864E+02  0.60660725739E+02  0.11585318764E+03  0.91959454084E+02 0.  0.
        -11    1    3    3    0    0  0.24714335576E+02 -0.21039294172E+01 -0.58312485931E+02  0.63368532549E+02  0.00000000000E+00 0.  1.
         12    1    3    3    0    0 -0.69231586117E+02  0.10170161809E+02 -0.29673454837E+03  0.30487347688E+03  0.00000000000E+00 0. -1.
        -11    1    4    4    0    0 -0.21406841245E+02 -0.34862292945E+02  0.23504159151E+02  0.47181329134E+02  0.00000000000E+00 0.  1.
         11    1    4    4    0    0  0.54114818754E+02  0.20169286081E+02  0.37156566588E+02  0.68671858505E+02  0.00000000000E+00 0. -1.
         21    1    1    2  503  502  0.13728899236E+01  0.28162234249E+02 -0.35625882984E+02  0.45433465672E+02  0.00000000000E+00 0.  1.
          1    1    1    2  501    0  0.10436383108E+02 -0.21535459776E+02  0.15305087128E+03  0.15491050099E+03  0.00000000000E+00 0. -1.
<scales pt_clust_5="13000.00000" pt_clust_6="13000.00000" pt_clust_7="13000.00000" pt_clust_8="13000.00000" pt_clust_9="27.16915" pt_clust_10="23.93103"></scales>
<clustering>
<clus scale="   23.931">  1 10  2 -1</clus>
<clus scale="   27.169">  2  9  1 -1</clus>
<clus scale="   86.585">  5  6 -1 -1</clus>
<clus scale="   91.959">  7  8 -1 -1</clus>
<clus scale="  101.266">  2  5  1 -1</clus>
<clus scale="   23.931">  1  5  2 -1</clus>
</clustering>
</event>
<event>
10    4  0.2857708E-005  0.1288467E+03  0.7546771E-02  0.1232397E+00
         21   -1    0    0  503  502  0.00000000000E+00  0.00000000000E+00  0.15711623420E+03  0.15711623420E+03  0.00000000000E+00 0.  1.
         -3   -1    0    0    0  501 -0.00000000000E+00 -0.00000000000E+00 -0.99820708621E+03  0.99820708621E+03  0.00000000000E+00 0.  1.
         24    2    1    2    0    0 -0.11655773891E+03  0.32190794242E+02 -0.74790502551E+03  0.76168614489E+03  0.78625074882E+02 0.  0.
         23    2    1    2    0    0  0.67945297367E+02 -0.10131067492E+03 -0.91444602717E+01  0.15235075285E+03  0.90811422495E+02 0.  0.
        -11    1    3    3    0    0 -0.12362721539E+03  0.29337902324E+02 -0.58670170127E+03  0.60030266297E+03  0.00000000000E+00 0.  1.
         12    1    3    3    0    0  0.70694764799E+01  0.28528919173E+01 -0.16120332424E+03  0.16138348192E+03  0.00000000000E+00 0. -1.
        -11    1    4    4    0    0  0.31557759288E+02 -0.10862515450E+03 -0.17074026861E+02  0.11439772181E+03  0.00000000000E+00 0. -1.
         11    1    4    4    0    0  0.36387538079E+02  0.73144795883E+01  0.79295665893E+01  0.37953031044E+02  0.00000000000E+00 0.  1.
         21    1    1    2  503  501  0.30932810004E+02 -0.16152472545E+02 -0.13564348338E+03  0.14006032875E+03  0.00000000000E+00 0.  1.
         -4    1    1    2    0  502  0.17679631537E+02  0.85272353219E+02  0.51602117160E+02  0.10122609392E+03  0.00000000000E+00 0.  1.
<scales pt_clust_5="13000.00000" pt_clust_6="13000.00000" pt_clust_7="13000.00000" pt_clust_8="13000.00000" pt_clust_9="34.89615" pt_clust_10="86.81622"></scales>
<clustering>
<clus scale="   34.896">  2  9  1 -1</clus>
<clus scale="   78.625">  5  6 -1 -1</clus>
<clus scale="   86.816">  1 10  2 -1</clus>
<clus scale="   90.811">  7  8 -1 -1</clus>
<clus scale="  120.568">  2  5  1 -1</clus>
<clus scale="   86.816">  1  5  2 -1</clus>
</clustering>
</event>
<event>
10    4  0.2857708E-005  0.1332864E+03  0.7546771E-02  0.1225326E+00
         21   -1    0    0  501  502  0.00000000000E+00  0.00000000000E+00  0.15133617241E+03  0.15133617241E+03  0.00000000000E+00 0. -1.
          2   -1    0    0  503    0 -0.00000000000E+00 -0.00000000000E+00 -0.52254943898E+03  0.52254943898E+03  0.00000000000E+00 0. -1.
         23    2    1    2    0    0 -0.50061234791E+02 -0.94784960051E+02 -0.33139773623E+03  0.35993113422E+03  0.90750459598E+02 0.  0.
         24    2    1    2    0    0 -0.16496919332E+01  0.84567832317E+02 -0.77361976716E+02  0.13965869284E+03  0.79782424739E+02 0.  0.
        -11    1    4    4    0    0 -0.11437276340E+02  0.97238304533E+02 -0.55448601234E+02  0.11251953847E+03  0.00000000000E+00 0.  1.
         12    1    4    4    0    0  0.97875844071E+01 -0.12670472217E+02 -0.21913375483E+02  0.27139154367E+02  0.00000000000E+00 0. -1.
        -13    1    3    3    0    0  0.20647327134E+02 -0.49451580853E+02 -0.16588188635E+03  0.17432318029E+03  0.00000000000E+00 0. -1.
         13    1    3    3    0    0 -0.70708561926E+02 -0.45333379198E+02 -0.16551584989E+03  0.18560795393E+03  0.00000000000E+00 0.  1.
         21    1    1    2  503  502  0.65798471013E+02 -0.87945599814E+01 -0.50319377383E+02  0.83299596717E+02  0.00000000000E+00 0. -1.
          1    1    1    2  501    0 -0.14087544289E+02  0.19011687716E+02  0.87865823771E+02  0.90996187617E+02  0.00000000000E+00 0. -1.
<scales pt_clust_5="13000.00000" pt_clust_6="13000.00000" pt_clust_7="13000.00000" pt_clust_8="13000.00000" pt_clust_9="62.15791" pt_clust_10="23.66227"></scales>
<clustering>
<clus scale="   23.662">  1 10  2 -1</clus>
<clus scale="   62.158">  1  9  2 -1</clus>
<clus scale="   79.782">  5  6 -1 -1</clus>
<clus scale="   90.750">  7  8 -1 -1</clus>
<clus scale="  126.075">  1  5  2 -1</clus>
<clus scale="   23.662">  1  5  2 -1</clus>
</clustering>
</event>
<event>
10    4  0.2857708E-005  0.1794133E+03  0.7546771E-02  0.1169815E+00
         -1   -1    0    0    0  501 -0.00000000000E+00  0.00000000000E+00  0.57620560065E+03  0.57620560065E+03  0.00000000000E+00 0.  1.
         21   -1    0    0  503  502  0.00000000000E+00 -0.00000000000E+00 -0.13097618853E+03  0.13097618853E+03  0.00000000000E+00 0.  1.
         23    2    1    2    0    0  0.49876893047E+02 -0.15130450007E+03  0.13135481977E+03  0.22600960517E+03  0.91899383855E+02 0.  0.
         24    2    1    2    0    0  0.52184282438E+02  0.15758500563E+03  0.57050839674E+02  0.19286462029E+03  0.79910763471E+02 0.  0.
        -13    1    4    4    0    0  0.54092342329E+02  0.54134703144E+02  0.41078261378E+01  0.76638252973E+02  0.00000000000E+00 0.  1.
         14    1    4    4    0    0 -0.19080598912E+01  0.10345030249E+03  0.52943013536E+02  0.11622636732E+03  0.00000000000E+00 0. -1.
        -11    1    3    3    0    0  0.25738879878E+02 -0.14568233836E+03  0.78141840772E+02  0.16730804203E+03  0.00000000000E+00 0.  1.
         11    1    3    3    0    0  0.24138013168E+02 -0.56221617050E+01  0.53212978994E+02  0.58701563143E+02  0.00000000000E+00 0. -1.
         21    1    1    2  503  501 -0.32712238193E+01 -0.22434916156E+02  0.16714230055E+02  0.28167212402E+02  0.00000000000E+00 0.  1.
         -2    1    1    2    0  502 -0.98789951666E+02  0.16154410587E+02  0.24010952262E+03  0.26014035132E+03  0.00000000000E+00 0.  1.
<scales pt_clust_5="13000.00000" pt_clust_6="13000.00000" pt_clust_7="13000.00000" pt_clust_8="13000.00000" pt_clust_9="22.67215" pt_clust_10="100.08715"></scales>
<clustering>
<clus scale="   22.672">  2  9  1 -1</clus>
<clus scale="   79.911">  5  6 -1 -1</clus>
<clus scale="   91.899">  7  8 -1 -1</clus>
<clus scale="  100.087">  2 10  1 -1</clus>
<clus scale="  173.578">  2  5  1 -1</clus>
<clus scale="   22.672">  2  5  1 -1</clus>
</clustering>
</event>
<event>
10    4  0.2857708E-005  0.1497516E+03  0.7546771E-02  0.1201718E+00
         21   -1    0    0  503  502  0.00000000000E+00  0.00000000000E+00  0.33225187274E+03  0.33225187274E+03  0.00000000000E+00 0.  1.
         -1   -1    0    0    0  501 -0.00000000000E+00 -0.00000000000E+00 -0.19060815311E+03  0.19060815311E+03  0.00000000000E+00 0.  1.
         23    2    1    2    0    0  0.13390123785E+03 -0.54951793091E+02 -0.25228634621E+01  0.16911979846E+03  0.87440839027E+02 0.  0.
         24    2    1    2    0    0 -0.72465717667E+02  0.58914136318E+02  0.76176847454E+02  0.14586358870E+03  0.82165191687E+02 0.  0.
        -13    1    4    4    0    0 -0.83190143462E+02  0.23039491921E+02  0.59702929489E+02  0.10495645739E+03  0.00000000000E+00 0.  1.
         14    1    4    4    0    0  0.10724425795E+02  0.35874644397E+02  0.16473917965E+02  0.40907131314E+02  0.00000000000E+00 0. -1.
        -13    1    3    3    0    0  0.12759865744E+03 -0.23591342075E+02 -0.22081487801E+02  0.13162659649E+03  0.00000000000E+00 0.  1.
         13    1    3    3    0    0  0.63025804118E+01 -0.31360451016E+02  0.19558624339E+02  0.37493201968E+02  0.00000000000E+00 0. -1.
         21    1    1    2  503  501 -0.33219571057E+02 -0.93661485222E+02  0.53093308255E+02  0.11267170495E+03  0.00000000000E+00 0. -1.
         -2    1    1    2    0  502 -0.28215949125E+02  0.89699141995E+02  0.14896427387E+02  0.95204933741E+02  0.00000000000E+00 0.  1.
<scales pt_clust_5="13000.00000" pt_clust_6="13000.00000" pt_clust_7="13000.00000" pt_clust_8="13000.00000" pt_clust_9="78.75935" pt_clust_10="94.03236"></scales>
<clustering>
<clus scale="   82.165">  5  6 -1 -1</clus>
<clus scale="   87.441">  7  8 -1 -1</clus>
<clus scale="   94.032">  1 10  2 -1</clus>
<clus scale="   78.759">  1  9  2 -1</clus>
<clus scale="  146.734">  1  5  2 -1</clus>
<clus scale="   94.032">  1  5  2 -1</clus>
</clustering>
</event>
<event>
10    4  0.2857708E-005  0.9941252E+02  0.7546771E-02  0.1287380E+00
         -1   -1    0    0    0  501 -0.00000000000E+00  0.00000000000E+00  0.18780795006E+03  0.18780795006E+03  0.00000000000E+00 0.  1.
         21   -1    0    0  501  502  0.00000000000E+00 -0.00000000000E+00 -0.17536089080E+03  0.17536089080E+03  0.00000000000E+00 0.  1.
         24    2    1    2    0    0  0.14822127463E+02  0.28786824725E+02  0.18322669612E+02  0.88419272907E+02  0.80211413523E+02 0.  0.
         23    2    1    2    0    0 -0.82489587023E+02 -0.39150607574E+01 -0.75440098515E+02  0.14458020757E+03  0.91609870039E+02 0.  0.
        -13    1    3    3    0    0  0.45995357022E+02  0.32567453347E+01  0.11855513796E+02  0.47610213874E+02  0.00000000000E+00 0.  1.
         14    1    3    3    0    0 -0.31173229559E+02  0.25530079390E+02  0.64671558158E+01  0.40809059033E+02  0.00000000000E+00 0. -1.
        -11    1    4    4    0    0 -0.61209353278E+02 -0.24976800365E+02 -0.89690044270E+02  0.11142140515E+03  0.00000000000E+00 0.  1.
         11    1    4    4    0    0 -0.21280233745E+02  0.21061739607E+02  0.14249945756E+02  0.33158802415E+02  0.00000000000E+00 0. -1.
         21    1    1    2  503  502  0.25413483955E+02  0.23169652530E+02 -0.16580033647E+01  0.34430029628E+02  0.00000000000E+00 0. -1.
         -2    1    1    2    0  503  0.42253975606E+02 -0.48041416498E+02  0.71222491529E+02  0.95739330754E+02  0.00000000000E+00 0.  1.
<scales pt_clust_5="13000.00000" pt_clust_6="13000.00000" pt_clust_7="13000.00000" pt_clust_8="13000.00000" pt_clust_9="34.39009" pt_clust_10="63.98781"></scales>
<clustering>
<clus scale="   34.390">  2  9  1 -1</clus>
<clus scale="   63.988">  2 10  1 -1</clus>
<clus scale="   80.211">  5  6 -1 -1</clus>
<clus scale="   89.019">  1  5  2 -1</clus>
<clus scale="   91.610">  7  8 -1 -1</clus>
<clus scale="   34.390">  2  5  1 -1</clus>
</clustering>
</event>
<event>
10    4  0.2857708E-005  0.2128330E+03  0.7546771E-02  0.1140606E+00
         21   -1    0    0  501  502  0.00000000000E+00  0.00000000000E+00  0.17629083416E+03  0.17629083416E+03  0.00000000000E+00 0. -1.
          2   -1    0    0  503    0 -0.00000000000E+00 -0.00000000000E+00 -0.68111646856E+03  0.68111646856E+03  0.00000000000E+00 0. -1.
         24    2    1    2    0    0  0.17402915677E+03  0.10826601946E+03 -0.24448966059E+03  0.32909209440E+03  0.80738677781E+02 0.  0.
         23    2    1    2    0    0 -0.44628933307E+02 -0.17382149696E+03 -0.68803111290E+02  0.21479528296E+03  0.95903550331E+02 0.  0.
        -13    1    3    3    0    0  0.53703143193E+02  0.94573425023E+01 -0.24999033064E+02  0.59986836640E+02  0.00000000000E+00 0.  1.
         14    1    3    3    0    0  0.12032601357E+03  0.98808676953E+02 -0.21949062753E+03  0.26910525776E+03  0.00000000000E+00 0. -1.
        -13    1    4    4    0    0 -0.16793356957E+02 -0.18905557491E+02 -0.50320635482E+02  0.56316989419E+02  0.00000000000E+00 0.  1.
         13    1    4    4    0    0 -0.27835576351E+02 -0.15491593947E+03 -0.18482475807E+02  0.15847829354E+03  0.00000000000E+00 0. -1.
         21    1    1    2  503  502  0.27114083130E+02  0.70761177731E+02 -0.11866343798E+03  0.14079534542E+03  0.00000000000E+00 0. -1.
          1    1    1    2  501    0 -0.15651430659E+03 -0.52057002284E+01 -0.72869424545E+02  0.17272457994E+03  0.00000000000E+00 0. -1.
<scales pt_clust_5="13000.00000" pt_clust_6="13000.00000" pt_clust_7="13000.00000" pt_clust_8="13000.00000" pt_clust_9="75.77808" pt_clust_10="150.84545"></scales>
<clustering>
<clus scale="   75.778">  2  9  1 -1</clus>
<clus scale="   80.739">  5  6 -1 -1</clus>
<clus scale="   95.904">  7  8 -1 -1</clus>
<clus scale="  150.845">  1 10  2 -1</clus>
<clus scale="  206.444">  2  5  1 -1</clus>
<clus scale="  150.845">  1  5  2 -1</clus>
</clustering>
</event>
<event>
10    4  0.2857708E-005  0.1244146E+03  0.7546771E-02  0.1240729E+00
          2   -1    0    0  503    0 -0.00000000000E+00  0.00000000000E+00  0.19208052936E+03  0.19208052936E+03  0.00000000000E+00 0. -1.
         21   -1    0    0  501  502  0.00000000000E+00 -0.00000000000E+00 -0.26017821781E+03  0.26017821781E+03  0.00000000000E+00 0.  1.
         24    2    1    2    0    0 -0.65764524540E+02 -0.93947751730E+02  0.87495593745E+02  0.16296937304E+03  0.75844478255E+02 0.  0.
         23    2    1    2    0    0  0.10956816092E+02  0.36189558268E+02 -0.11845020965E+03  0.15469736899E+03  0.92038512923E+02 0.  0.
        -11    1    3    3    0    0 -0.32877129403E+02 -0.95982178470E+02  0.79934497323E+02  0.12916271940E+03  0.00000000000E+00 0.  1.
         12    1    3    3    0    0 -0.32887395137E+02  0.20344267399E+01  0.75610964219E+01  0.33806653638E+02  0.00000000000E+00 0. -1.
        -13    1    4    4    0    0  0.37362203082E+02 -0.12326329243E+02 -0.73955001598E+02  0.83768818024E+02  0.00000000000E+00 0.  1.
         13    1    4    4    0    0 -0.26405386990E+02  0.48515887511E+02 -0.44495208048E+02  0.70928550968E+02  0.00000000000E+00 0. -1.
         21    1    1    2  503  502  0.13521869468E+02  0.21071656615E+02  0.35435751951E+02  0.43388341553E+02  0.00000000000E+00 0. -1.
          1    1    1    2  501    0  0.41285838980E+02  0.36686536846E+02 -0.72578824494E+02  0.91203663583E+02  0.00000000000E+00 0. -1.
<scales pt_clust_5="13000.00000" pt_clust_6="13000.00000" pt_clust_7="13000.00000" pt_clust_8="13000.00000" pt_clust_9="25.03709" pt_clust_10="56.70245"></scales>
<clustering>
<clus scale="   25.037">  1  9  2 -1</clus>
<clus scale="   56.702">  2 10  1 -1</clus>
<clus scale="   75.844">  5  6 -1 -1</clus>
<clus scale="   92.039">  7  8 -1 -1</clus>
<clus scale="  112.961">  1  5  2 -1</clus>
<clus scale="   56.702">  2  5  1 -1</clus>
</clustering>
</event>
<event>
10    4  0.2857708E-005  0.4530600E+03  0.7546771E-02  0.1027150E+00
          2   -1    0    0  503    0 -0.00000000000E+00  0.00000000000E+00  0.24981118684E+04  0.24981118684E+04  0.00000000000E+00 0. -1.
         21   -1    0    0  501  502  0.00000000000E+00 -0.00000000000E+00 -0.10812645419E+03  0.10812645419E+03  0.00000000000E+00 0.  1.
         24    2    1    2    0    0  0.32582351950E+03  0.32227896872E+03  0.12564170191E+04  0.13397260708E+04  0.79104485372E+02 0.  0.
         23    2    1    2    0    0 -0.29176428016E+03 -0.32013204570E+03  0.90226506850E+03  0.10059960599E+04  0.10166069496E+03 0.  0.
        -13    1    3    3    0    0  0.24203006470E+03  0.21907208792E+03  0.98124006516E+03  0.10341195276E+04  0.00000000000E+00 0.  1.
         14    1    3    3    0    0  0.83793454800E+02  0.10320688080E+03  0.27517695389E+03  0.30560654323E+03  0.00000000000E+00 0. -1.
        -11    1    4    4    0    0 -0.28938834497E+03 -0.29747644257E+03  0.88478249282E+03  0.97728087451E+03  0.00000000000E+00 0. -1.
         11    1    4    4    0    0 -0.23759351968E+01 -0.22655603133E+02  0.17482575682E+02  0.28715185423E+02  0.00000000000E+00 0.  1.
         21    1    1    2  503  502 -0.55558844517E+02  0.62619802752E-01  0.23232824873E+03  0.23887905786E+03  0.00000000000E+00 0. -1.
          1    1    1    2  501    0  0.21499605178E+02 -0.22095428236E+01 -0.10249220205E+01  0.21637133994E+02  0.00000000000E+00 0. -1.
<scales pt_clust_5="13000.00000" pt_clust_6="13000.00000" pt_clust_7="13000.00000" pt_clust_8="13000.00000" pt_clust_9="54.83133" pt_clust_10="21.61285"></scales>
<clustering>
<clus scale="   21.613">  2 10  1 -1</clus>
<clus scale="   54.831">  1  9  2 -1</clus>
<clus scale="   79.104">  5  6 -1 -1</clus>
<clus scale="  101.661">  7  8 -1 -1</clus>
<clus scale="  448.538">  1  5  2 -1</clus>
<clus scale="   21.613">  2  5  1 -1</clus>
</clustering>
</event>
<event>
10    4  0.2857708E-005  0.9701148E+02  0.7546771E-02  0.1293685E+00
         21   -1    0    0  501  502  0.00000000000E+00  0.00000000000E+00  0.15678522233E+03  0.15678522233E+03  0.00000000000E+00 0. -1.
          2   -1    0    0  503    0 -0.00000000000E+00 -0.00000000000E+00 -0.31082250607E+03  0.31082250607E+03  0.00000000000E+00 0. -1.
         24    2    1    2    0    0  0.75581237509E+01  0.28822086253E+02 -0.18969385447E+03  0.20775140786E+03  0.79303538076E+02 0.  0.
         23    2    1    2    0    0  0.39668525740E+02 -0.51703406373E+02  0.65782827676E+02  0.13048783948E+03  0.91939445670E+02 0.  0.
        -11    1    3    3    0    0 -0.26087584938E+00  0.55014207762E+02 -0.14801815781E+03  0.15791138703E+03  0.00000000000E+00 0.  1.
         12    1    3    3    0    0  0.78189996003E+01 -0.26192121509E+02 -0.41675696664E+02  0.49840020829E+02  0.00000000000E+00 0. -1.
        -11    1    4    4    0    0  0.16732556455E+02 -0.76443794175E+02  0.52487353467E+02  0.94226081248E+02  0.00000000000E+00 0. -1.
         11    1    4    4    0    0  0.22935969284E+02  0.24740387802E+02  0.13295474209E+02  0.36261758231E+02  0.00000000000E+00 0.  1.
         21    1    1    2  503  502  0.37862040928E+02  0.13100820472E+01 -0.11962769537E+02  0.39728557905E+02  0.00000000000E+00 0. -1.
          1    1    1    2  501    0 -0.85088690419E+02  0.21571238073E+02 -0.18163487412E+02  0.89639923160E+02  0.00000000000E+00 0. -1.
<scales pt_clust_5="13000.00000" pt_clust_6="13000.00000" pt_clust_7="13000.00000" pt_clust_8="13000.00000" pt_clust_9="37.88470" pt_clust_10="78.72687"></scales>
<clustering>
<clus scale="   37.885">  1  9  2 -1</clus>
<clus scale="   78.727">  1 10  2 -1</clus>
<clus scale="   79.304">  5  6 -1 -1</clus>
<clus scale="   85.132">  2  5  1 -1</clus>
<clus scale="   91.939">  7  8 -1 -1</clus>
<clus scale="   37.885">  1  5  2 -1</clus>
</clustering>
</event>
<event>
10    4  0.2857708E-005  0.1780656E+03  0.7546771E-02  0.1184138E+00
          4   -1    0    0  503    0 -0.00000000000E+00  0.00000000000E+00  0.45587068475E+03  0.45587068475E+03  0.00000000000E+00 0. -1.
         21   -1    0    0  501  502  0.00000000000E+00 -0.00000000000E+00 -0.24599765568E+03  0.24599765568E+03  0.00000000000E+00 0. -1.
         23    2    1    2    0    0 -0.47714072436E+02 -0.58338787378E+02  0.19034315055E+03  0.22416299527E+03  0.91315314518E+02 0.  0.
         24    2    1    2    0    0 -0.37928395167E+02  0.16041842018E+03 -0.12429783080E+03  0.22203202395E+03  0.81704566716E+02 0.  0.
        -11    1    4    4    0    0 -0.51722950984E+02  0.85317234599E+02 -0.37898572887E+02  0.10672673519E+03  0.00000000000E+00 0.  1.
         12    1    4    4    0    0  0.13794555816E+02  0.75101185578E+02 -0.86399257918E+02  0.11530528875E+03  0.00000000000E+00 0. -1.
        -11    1    3    3    0    0  0.27321902851E+02 -0.20786683852E+02  0.50060155847E+02  0.60700838581E+02  0.00000000000E+00 0.  1.
         11    1    3    3    0    0 -0.75035975287E+02 -0.37552103526E+02  0.14028299470E+03  0.16346215669E+03  0.00000000000E+00 0. -1.
         21    1    1    2  503  502 -0.42450510021E+02  0.20003024869E+01  0.50736708077E+02  0.66183536907E+02  0.00000000000E+00 0.  1.
          3    1    1    2  501    0  0.12809297762E+03 -0.10407993529E+03  0.93091001250E+02  0.18948978431E+03  0.00000000000E+00 0. -1.
<scales pt_clust_5="13000.00000" pt_clust_6="13000.00000" pt_clust_7="13000.00000" pt_clust_8="13000.00000" pt_clust_9="42.49761" pt_clust_10="158.21420"></scales>
<clustering>
<clus scale="   42.498">  1  9  2 -1</clus>
<clus scale="   81.705">  5  6 -1 -1</clus>
<clus scale="   91.315">  7  8 -1 -1</clus>
<clus scale="  128.455">  1  7  2 -1</clus>
<clus scale="  158.214">  2 10  1 -1</clus>
<clus scale="  158.214">  2  5  1 -1</clus>
</clustering>
</event>
<event>
10    4  0.2857708E-005  0.1181566E+03  0.7546771E-02  0.1249342E+00
         21   -1    0    0  503  502  0.00000000000E+00  0.00000000000E+00  0.38595158627E+03  0.38595158627E+03  0.00000000000E+00 0.  1.
         -3   -1    0    0    0  501 -0.00000000000E+00 -0.00000000000E+00 -0.14466124484E+03  0.14466124484E+03  0.00000000000E+00 0.  1.
         24    2    1    2    0    0 -0.57375074740E+02  0.42273265259E+02 -0.36807016969E+02  0.11368920267E+03  0.80570156691E+02 0.  0.
         23    2    1    2    0    0 -0.26671024592E+02 -0.56596471218E+02  0.22772086438E+03  0.25284569117E+03  0.90330766422E+02 0.  0.
        -13    1    3    3    0    0 -0.21732317645E+02 -0.97593227039E+01 -0.44176190183E+02  0.50190375461E+02  0.00000000000E+00 0.  1.
         14    1    3    3    0    0 -0.35642757095E+02  0.52032587963E+02  0.73691732139E+01  0.63498827212E+02  0.00000000000E+00 0. -1.
        -11    1    4    4    0    0  0.30742118863E+02 -0.32718579309E+02  0.68369490101E+02  0.81792239735E+02  0.00000000000E+00 0. -1.
         11    1    4    4    0    0 -0.57413143455E+02 -0.23877891909E+02  0.15935137428E+03  0.17105345144E+03  0.00000000000E+00 0.  1.
         21    1    1    2  503  501 -0.28990617336E+02  0.14728063652E+02 -0.12372848661E+02  0.34791653258E+02  0.00000000000E+00 0.  1.
         -4    1    1    2    0  502  0.11303671667E+03 -0.40485769224E+00  0.62749342676E+02  0.12928628400E+03  0.00000000000E+00 0.  1.
<scales pt_clust_5="13000.00000" pt_clust_6="13000.00000" pt_clust_7="13000.00000" pt_clust_8="13000.00000" pt_clust_9="32.51725" pt_clust_10="105.13421"></scales>
<clustering>
<clus scale="   32.517">  2  9  1 -1</clus>
<clus scale="   80.570">  5  6 -1 -1</clus>
<clus scale="   90.331">  7  8 -1 -1</clus>
<clus scale="  105.134">  1 10  2 -1</clus>
<clus scale="  110.873">  2  5  1 -1</clus>
<clus scale="  105.134">  1  5  2 -1</clus>
</clustering>
</event>
<event>
10    4  0.2857708E-005  0.1085635E+03  0.7546771E-02  0.1266877E+00
         -3   -1    0    0    0  501 -0.00000000000E+00  0.00000000000E+00  0.54278918612E+03  0.54278918612E+03  0.00000000000E+00 0.  1.
         21   -1    0    0  503  502  0.00000000000E+00 -0.00000000000E+00 -0.21635788077E+03  0.21635788077E+03  0.00000000000E+00 0.  1.
         24    2    1    2    0    0 -0.35753973783E+02 -0.74918332258E+02 -0.18557984493E+02  0.11707261940E+03  0.80439395049E+02 0.  0.
         23    2    1    2    0    0  0.50964528454E+02 -0.84038241199E+01 -0.12196928367E+03  0.15989942006E+03  0.89572936520E+02 0.  0.
        -13    1    3    3    0    0 -0.57100265512E+02 -0.67201816186E+02 -0.27950077765E+02  0.92508006504E+02  0.00000000000E+00 0.  1.
         14    1    3    3    0    0  0.21346291729E+02 -0.77165160725E+01  0.93920932717E+01  0.24564612899E+02  0.00000000000E+00 0. -1.
        -13    1    4    4    0    0  0.36059034946E+02  0.84937134324E+01 -0.13061382761E+03  0.13576586144E+03  0.00000000000E+00 0.  1.
         13    1    4    4    0    0  0.14905493508E+02 -0.16897537552E+02  0.86445439380E+01  0.24133558626E+02  0.00000000000E+00 0. -1.
         21    1    1    2  503  501 -0.34293482833E+02  0.46958392033E+02  0.39553982315E+03  0.39979105199E+03  0.00000000000E+00 0.  1.
         -4    1    1    2    0  502  0.19082928162E+02  0.36363764346E+02  0.71418750362E+02  0.82383975432E+02  0.00000000000E+00 0.  1.
<scales pt_clust_5="13000.00000" pt_clust_6="13000.00000" pt_clust_7="13000.00000" pt_clust_8="13000.00000" pt_clust_9="58.33127" pt_clust_10="41.06681"></scales>
<clustering>
<clus scale="   41.067">  2 10  1 -1</clus>
<clus scale="   58.331">  1  9  2 -1</clus>
<clus scale="   80.439">  5  6 -1 -1</clus>
<clus scale="   89.573">  7  8 -1 -1</clus>
<clus scale="  101.159">  1  5  2 -1</clus>
<clus scale="   41.067">  2  5  1 -1</clus>
</clustering>
</event>
<event>
10    4  0.2857708E-005  0.1776671E+03  0.7546771E-02  0.1196068E+00
          2   -1    0    0  503    0 -0.00000000000E+00  0.00000000000E+00  0.10142064926E+04  0.10142064926E+04  0.00000000000E+00 0. -1.
         21   -1    0    0  501  502  0.00000000000E+00 -0.00000000000E+00 -0.56853034691E+02  0.56853034691E+02  0.00000000000E+00 0. -1.
         23    2    1    2    0    0  0.29547797885E+02  0.18192383778E+02  0.18591938362E+03  0.20995803650E+03  0.91171951272E+02 0.  0.
         24    2    1    2    0    0 -0.15331609514E+03 -0.11846057057E+03  0.46312184409E+03  0.50891362319E+03  0.83501506469E+02 0.  0.
        -11    1    4    4    0    0 -0.42005591297E+02 -0.63877783626E+02  0.10458715393E+03  0.12955042921E+03  0.00000000000E+00 0.  1.
         12    1    4    4    0    0 -0.11131050384E+03 -0.54582786948E+02  0.35853469016E+03  0.37936319398E+03  0.00000000000E+00 0. -1.
        -11    1    3    3    0    0 -0.22732405312E+02 -0.10015877476E+02  0.15021254111E+02  0.29029607782E+02  0.00000000000E+00 0. -1.
         11    1    3    3    0    0  0.52280203197E+02  0.28208261254E+02  0.17089812951E+03  0.18092842872E+03  0.00000000000E+00 0.  1.
         21    1    1    2  503  502  0.23830909548E+02  0.34756534829E+01  0.91178913951E+02  0.94305815124E+02  0.00000000000E+00 0.  1.
          1    1    1    2  501    0  0.99937387707E+02  0.96792533313E+02  0.21713331627E+03  0.25788205250E+03  0.00000000000E+00 0. -1.
<scales pt_clust_5="13000.00000" pt_clust_6="13000.00000" pt_clust_7="13000.00000" pt_clust_8="13000.00000" pt_clust_9="24.08303" pt_clust_10="156.82192"></scales>
<clustering>
<clus scale="   24.083">  1  9  2 -1</clus>
<clus scale="   83.502">  5  6 -1 -1</clus>
<clus scale="   91.172">  7  8 -1 -1</clus>
<clus scale="   99.362">  1  7  2 -1</clus>
<clus scale="  156.822">  2 10  1 -1</clus>
<clus scale="  156.822">  2  5  1 -1</clus>
</clustering>
</event>
<event>
10    4  0.2857708E-005  0.1190327E+03  0.7546771E-02  0.1247852E+00
         21   -1    0    0  503  502  0.00000000000E+00  0.00000000000E+00  0.74391823964E+02  0.74391823964E+02  0.00000000000E+00 0. -1.
         -1   -1    0    0    0  501 -0.00000000000E+00 -0.00000000000E+00 -0.39466775211E+03  0.39466775211E+03  0.00000000000E+00 0.  1.
         23    2    1    2    0    0  0.87267440994E+02  0.47901259060E+02 -0.19628647935E+03  0.23726225876E+03  0.88627651334E+02 0.  0.
         24    2    1    2    0    0 -0.51905655638E+02 -0.35344155340E+02 -0.56371942594E+02  0.11528308521E+03  0.78542901779E+02 0.  0.
        -13    1    4    4    0    0  0.81386710603E+01 -0.38489940315E+02 -0.14131845208E+02  0.41802183209E+02  0.00000000000E+00 0.  1.
         14    1    4    4    0    0 -0.60044326698E+02  0.31457849748E+01 -0.42240097386E+02  0.73480902001E+02  0.00000000000E+00 0. -1.
        -13    1    3    3    0    0 -0.10828517043E+02  0.31360227891E+02 -0.39576675013E+02  0.51643333353E+02  0.00000000000E+00 0. -1.
         13    1    3    3    0    0  0.98095958037E+02  0.16541031169E+02 -0.15670980434E+03  0.18561892541E+03  0.00000000000E+00 0.  1.
         21    1    1    2  503  501 -0.10582845791E+02 -0.19998890489E+02 -0.83260732513E+02  0.86280367549E+02  0.00000000000E+00 0.  1.
         -2    1    1    2    0  502 -0.24778939566E+02  0.74417867690E+01  0.15643226310E+02  0.30233864551E+02  0.00000000000E+00 0.  1.
<scales pt_clust_5="13000.00000" pt_clust_6="13000.00000" pt_clust_7="13000.00000" pt_clust_8="13000.00000" pt_clust_9="22.62636" pt_clust_10="25.98074"></scales>
<clustering>
<clus scale="   22.626">  2  9  1 -1</clus>
<clus scale="   25.981">  1 10  2 -1</clus>
<clus scale="   78.543">  5  6 -1 -1</clus>
<clus scale="   88.628">  7  8 -1 -1</clus>
<clus scale="  111.727">  1  5  2 -1</clus>
<clus scale="   25.981">  1  5  2 -1</clus>
</clustering>
</event>
<event>
10    4  0.2857708E-005  0.2512967E+03  0.7546771E-02  0.1113096E+00
          2   -1    0    0  503    0 -0.00000000000E+00  0.00000000000E+00  0.23581330127E+04  0.23581330127E+04  0.00000000000E+00 0. -1.
         21   -1    0    0  501  502  0.00000000000E+00 -0.00000000000E+00 -0.57610765871E+02  0.57610765871E+02  0.00000000000E+00 0. -1.
         24    2    1    2    0    0 -0.28218441816E+01  0.15624835952E+03  0.77826096400E+03  0.79777937859E+03  0.79625976705E+02 0.  0.
         23    2    1    2    0    0 -0.10046615186E+03 -0.30404177029E+03  0.76030138153E+03  0.82996985976E+03  0.90867659877E+02 0.  0.
        -11    1    3    3    0    0 -0.33596189361E+02  0.28773813727E+02  0.19112369477E+03  0.19617569421E+03  0.00000000000E+00 0.  1.
         12    1    3    3    0    0  0.30774345179E+02  0.12747454579E+03  0.58713726923E+03  0.60160368438E+03  0.00000000000E+00 0. -1.
        -13    1    4    4    0    0 -0.20703544768E+02 -0.33844407433E+02  0.39133432630E+02  0.55727069095E+02  0.00000000000E+00 0.  1.
         13    1    4    4    0    0 -0.79762607094E+02 -0.27019736285E+03  0.72116794890E+03  0.77424279067E+03  0.00000000000E+00 0. -1.
         21    1    1    2  503  502  0.63839546648E+02  0.14810418290E+03  0.59965556149E+03  0.62096467624E+03  0.00000000000E+00 0. -1.
          1    1    1    2  501    0  0.39448449396E+02 -0.31077213091E+00  0.16230433984E+03  0.16702986401E+03  0.00000000000E+00 0. -1.
<scales pt_clust_5="13000.00000" pt_clust_6="13000.00000" pt_clust_7="13000.00000" pt_clust_8="13000.00000" pt_clust_9="164.38308" pt_clust_10="39.44969"></scales>
<clustering>
<clus scale="   39.450">  2 10  1 -1</clus>
<clus scale="   79.626">  5  6 -1 -1</clus>
<clus scale="   90.868">  7  8 -1 -1</clus>
<clus scale="  164.383">  1  9  2 -1</clus>
<clus scale="  247.454">  1  5  2 -1</clus>
<clus scale="   39.450">  2  5  1 -1</clus>
</clustering>
</event>
<event>
10    4  0.2857708E-005  0.1514744E+03  0.7546771E-02  0.1223805E+00
         -1   -1    0    0    0  501 -0.00000000000E+00  0.00000000000E+00  0.12537507903E+03  0.12537507903E+03  0.00000000000E+00 0.  1.
         21   -1    0    0  503  502  0.00000000000E+00 -0.00000000000E+00 -0.44430171954E+03  0.44430171954E+03  0.00000000000E+00 0. -1.
         24    2    1    2    0    0 -0.12826265963E+02 -0.35443940404E+02 -0.18893644473E+03  0.20894563519E+03  0.80873433894E+02 0.  0.
         23    2    1    2    0    0 -0.23386116881E+02 -0.10452491981E+03 -0.93222057139E+02  0.17015608698E+03  0.93756987339E+02 0.  0.
        -11    1    3    3    0    0  0.89197969176E+01  0.21028918203E+02 -0.90984362741E+02  0.93807955106E+02  0.00000000000E+00 0.  1.
         12    1    3    3    0    0 -0.21746062881E+02 -0.56472858607E+02 -0.97952081985E+02  0.11513768008E+03  0.00000000000E+00 0. -1.
        -11    1    4    4    0    0 -0.45792977806E+02 -0.20994497414E+02 -0.12614003212E+02  0.51931481926E+02  0.00000000000E+00 0.  1.
         11    1    4    4    0    0  0.22406860925E+02 -0.83530422399E+02 -0.80608053926E+02  0.11822460505E+03  0.00000000000E+00 0. -1.
         21    1    1    2  503  501 -0.11063506355E+02  0.17086754052E+02  0.35099584471E+02  0.40575105261E+02  0.00000000000E+00 0. -1.
         -2    1    1    2    0  502  0.47275889199E+02  0.12288210616E+03 -0.71867723116E+02  0.14999997114E+03  0.00000000000E+00 0.  1.
<scales pt_clust_5="13000.00000" pt_clust_6="13000.00000" pt_clust_7="13000.00000" pt_clust_8="13000.00000" pt_clust_9="20.35579" pt_clust_10="118.97120"></scales>
<clustering>
<clus scale="   20.356">  1  9  2 -1</clus>
<clus scale="   80.873">  5  6 -1 -1</clus>
<clus scale="   88.661">  1  5  2 -1</clus>
<clus scale="   93.757">  7  8 -1 -1</clus>
<clus scale="  118.971">  2 10  1 -1</clus>
<clus scale="  118.971">  2  5  1 -1</clus>
</clustering>
</event>
<event>
10    4  0.2857708E-005  0.1215419E+03  0.7546771E-02  0.1244434E+00
          4   -1    0    0  503    0 -0.00000000000E+00  0.00000000000E+00  0.55050667095E+02  0.55050667095E+02  0.00000000000E+00 0. -1.
         21   -1    0    0  501  502  0.00000000000E+00 -0.00000000000E+00 -0.64069154299E+03  0.64069154299E+03  0.00000000000E+00 0.  1.
         24    2    1    2    0    0 -0.64524700236E+02  0.41222204998E+02 -0.11009594532E+03  0.15537470280E+03  0.78469573527E+02 0.  0.
         23    2    1    2    0    0  0.77629526692E+02  0.14485555637E+02 -0.42937850128E+03  0.44597586954E+03  0.91062638388E+02 0.  0.
        -13    1    3    3    0    0 -0.29249170870E+01  0.46497957218E+02 -0.36031729176E+02  0.58897374074E+02  0.00000000000E+00 0.  1.
         14    1    3    3    0    0 -0.61599783149E+02 -0.52757522202E+01 -0.74064216140E+02  0.96477328725E+02  0.00000000000E+00 0. -1.
        -13    1    4    4    0    0 -0.98685276698E+01 -0.23028189292E+02 -0.10239302087E+03  0.10541354782E+03  0.00000000000E+00 0.  1.
         13    1    4    4    0    0  0.87498054362E+02  0.37513744929E+02 -0.32698548041E+03  0.34056232172E+03  0.00000000000E+00 0. -1.
         21    1    1    2  503  502 -0.27083636863E+02 -0.59970843418E+01 -0.46357703795E+01  0.28124344852E+02  0.00000000000E+00 0. -1.
          3    1    1    2  501    0  0.13978810407E+02 -0.49710676293E+02 -0.41530658920E+02  0.66267292899E+02  0.00000000000E+00 0. -1.
<scales pt_clust_5="13000.00000" pt_clust_6="13000.00000" pt_clust_7="13000.00000" pt_clust_8="13000.00000" pt_clust_9="27.73965" pt_clust_10="51.80113"></scales>
<clustering>
<clus scale="   27.740">  1  9  2 -1</clus>
<clus scale="   51.801">  2 10  1 -1</clus>
<clus scale="   78.470">  5  6 -1 -1</clus>
<clus scale="   91.063">  7  8 -1 -1</clus>
<clus scale="  112.417">  1  5  2 -1</clus>
<clus scale="   51.801">  2  5  1 -1</clus>
</clustering>
</event>
<event>
10    4  0.2857708E-005  0.3289772E+03  0.7546771E-02  0.1071956E+00
         21   -1    0    0  501  502  0.00000000000E+00  0.00000000000E+00  0.21993834013E+03  0.21993834013E+03  0.00000000000E+00 0.  1.
          2   -1    0    0  503    0 -0.00000000000E+00 -0.00000000000E+00 -0.13900399662E+04  0.13900399662E+04  0.00000000000E+00 0. -1.
         23    2    1    2    0    0 -0.15417236918E+03 -0.24297943701E+03 -0.67672280919E+03  0.74104724368E+03  0.91592197631E+02 0.  0.
         24    2    1    2    0    0  0.75126021149E+02  0.28539461213E+03  0.27430706332E+02  0.30674725287E+03  0.79040684511E+02 0.  0.
        -13    1    4    4    0    0  0.42860811227E+02  0.24197580671E+03 -0.76868596289E+00  0.24574362871E+03  0.00000000000E+00 0.  1.
         14    1    4    4    0    0  0.32265209922E+02  0.43418805420E+02  0.28199392295E+02  0.61003624164E+02  0.00000000000E+00 0. -1.
        -11    1    3    3    0    0 -0.84427570289E+02 -0.53217104154E+02 -0.22716930205E+03  0.24812490119E+03  0.00000000000E+00 0.  1.
         11    1    3    3    0    0 -0.69744798894E+02 -0.18976233286E+03 -0.44955350714E+03  0.49292234249E+03  0.00000000000E+00 0. -1.
         21    1    1    2  503  502 -0.15672685617E+01 -0.81446502162E+02 -0.86839430711E+02  0.11906752610E+03  0.00000000000E+00 0.  1.
          1    1    1    2  501    0  0.80613616596E+02  0.39031327046E+02 -0.43397009251E+03  0.44311628368E+03  0.00000000000E+00 0. -1.
<scales pt_clust_5="13000.00000" pt_clust_6="13000.00000" pt_clust_7="13000.00000" pt_clust_8="13000.00000" pt_clust_9="81.46158" pt_clust_10="80.87026"></scales>
<clustering>
<clus scale="   79.041">  5  6 -1 -1</clus>
<clus scale="   81.462">  2  9  1 -1</clus>
<clus scale="   80.870">  1 10  2 -1</clus>
<clus scale="   91.592">  7  8 -1 -1</clus>
<clus scale="  325.706">  1  5  2 -1</clus>
<clus scale="   80.870">  1  5  2 -1</clus>
</clustering>
</event>
<event>
10    4  0.2857708E-005  0.1737856E+03  0.7546771E-02  0.1191892E+00
         21   -1    0    0  501  502  0.00000000000E+00  0.00000000000E+00  0.89334753617E+02  0.89334753617E+02  0.00000000000E+00 0.  1.
          2   -1    0    0  503    0 -0.00000000000E+00 -0.00000000000E+00 -0.87433339100E+03  0.87433339100E+03  0.00000000000E+00 0. -1.
         24    2    1    2    0    0  0.10043156138E+03 -0.10981501470E+03 -0.14889296667E+03  0.22538305933E+03  0.80514420658E+02 0.  0.
         23    2    1    2    0    0  0.63412708046E+02  0.11167620435E+02 -0.10293453128E+03  0.15158756870E+03  0.90760046088E+02 0.  0.
        -11    1    3    3    0    0  0.10471705421E+03 -0.64866593373E+02 -0.11871174993E+03  0.17107254587E+03  0.00000000000E+00 0.  1.
         12    1    3    3    0    0 -0.42854928267E+01 -0.44948421329E+02 -0.30181216738E+02  0.54310513462E+02  0.00000000000E+00 0. -1.
        -11    1    4    4    0    0  0.47002435522E+02  0.43087660036E+02 -0.30358264982E+02  0.70621523950E+02  0.00000000000E+00 0.  1.
         11    1    4    4    0    0  0.16410272524E+02 -0.31920039601E+02 -0.72576266295E+02  0.80966044746E+02  0.00000000000E+00 0. -1.
         21    1    1    2  503  502 -0.16708442927E+03  0.22486100635E+02 -0.36460923128E+03  0.40169979184E+03  0.00000000000E+00 0. -1.
          1    1    1    2  501    0  0.32401598401E+01  0.76161293631E+02 -0.16856190815E+03  0.18499772475E+03  0.00000000000E+00 0. -1.
<scales pt_clust_5="13000.00000" pt_clust_6="13000.00000" pt_clust_7="13000.00000" pt_clust_8="13000.00000" pt_clust_9="154.00929" pt_clust_10="76.23022"></scales>
<clustering>
<clus scale="   76.230">  1 10  2 -1</clus>
<clus scale="   80.514">  5  6 -1 -1</clus>
<clus scale="   90.760">  7  8 -1 -1</clus>
<clus scale="  116.358">  1  7  2 -1</clus>
<clus scale="  154.009">  2  9  1 -1</clus>
<clus scale="   76.230">  1  5  2 -1</clus>
</clustering>
</event>
<event>
10    4  0.2857708E-005  0.9273047E+02  0.7546771E-02  0.1298618E+00
          2   -1    0    0  503    0 -0.00000000000E+00  0.00000000000E+00  0.68011519189E+03  0.68011519189E+03  0.00000000000E+00 0. -1.
         21   -1    0    0  501  502  0.00000000000E+00 -0.00000000000E+00 -0.33329539604E+02  0.33329539604E+02  0.00000000000E+00 0.  1.
         23    2    1    2    0    0  0.30160294921E+02 -0.34550491316E+02  0.13456085428E+03  0.16532520688E+03  0.84394435148E+02 0.  0.
         24    2    1    2    0    0 -0.36657080744E+02  0.68253900254E+01  0.10751683361E+03  0.13923431598E+03  0.80224670255E+02 0.  0.
        -13    1    4    4    0    0 -0.38513504226E+01  0.21523924627E+02 -0.38564445618E+01  0.22203251926E+02  0.00000000000E+00 0.  1.
         14    1    4    4    0    0 -0.32805730321E+02 -0.14698534601E+02  0.11137327818E+03  0.11703106405E+03  0.00000000000E+00 0. -1.
        -13    1    3    3    0    0  0.50270033304E+02  0.35764362296E+01  0.53391151813E+02  0.73419903544E+02  0.00000000000E+00 0. -1.
         13    1    3    3    0    0 -0.20109738382E+02 -0.38126927546E+02  0.81169702471E+02  0.91905303335E+02  0.00000000000E+00 0.  1.
         21    1    1    2  503  502 -0.22153391162E+02  0.11613908391E+02  0.19939852524E+03  0.20096125865E+03  0.00000000000E+00 0. -1.
          1    1    1    2  501    0  0.28650176984E+02  0.16111192900E+02  0.20530943914E+03  0.20792394999E+03  0.00000000000E+00 0. -1.
<scales pt_clust_5="13000.00000" pt_clust_6="13000.00000" pt_clust_7="13000.00000" pt_clust_8="13000.00000" pt_clust_9="25.01311" pt_clust_10="28.47777"></scales>
<clustering>
<clus scale="   25.013">  1  9  2 -1</clus>
<clus scale="   28.478">  2 10  1 -1</clus>
<clus scale="   80.225">  5  6 -1 -1</clus>
<clus scale="   84.394">  7  8 -1 -1</clus>
<clus scale="   88.952">  2  5  1 -1</clus>
<clus scale="   28.478">  2  5  1 -1</clus>
</clustering>
</event>
<event>
10    4  0.2857708E-005  0.1909328E+03  0.7546771E-02  0.1184341E+00
          4   -1    0    0  503    0 -0.00000000000E+00  0.00000000000E+00  0.13713631820E+03  0.13713631820E+03  0.00000000000E+00 0. -1.
         21   -1    0    0  501  502  0.00000000000E+00 -0.00000000000E+00 -0.55565932236E+03  0.55565932236E+03  0.00000000000E+00 0.  1.
         24    2    1    2    0    0 -0.57584999741E+02 -0.32943005167E+02 -0.35763498754E+02  0.11201686522E+03  0.82870238726E+02 0.  0.
         23    2    1    2    0    0  0.16848804552E+03  0.38292269750E+02 -0.34230212196E+03  0.39699054451E+03  0.10284080087E+03 0.  0.
        -11    1    3    3    0    0 -0.17041580813E+02  0.22978337596E+02 -0.31882290952E+02  0.42835732182E+02  0.00000000000E+00 0.  1.
         12    1    3    3    0    0 -0.40543418928E+02 -0.55921342762E+02 -0.38812078024E+01  0.69181133040E+02  0.00000000000E+00 0. -1.
        -13    1    4    4    0    0  0.16401310024E+03  0.62957882974E+02 -0.29167893252E+03  0.34050050184E+03  0.00000000000E+00 0.  1.
         13    1    4    4    0    0  0.44749452801E+01 -0.24665613224E+02 -0.50623189446E+02  0.56490042668E+02  0.00000000000E+00 0. -1.
         21    1    1    2  503  502  0.30252711689E+02 -0.21600846291E+02 -0.73104128034E+01  0.37884894884E+02  0.00000000000E+00 0.  1.
          3    1    1    2  501    0 -0.14115575747E+03  0.16251581707E+02 -0.33146970641E+02  0.14590333594E+03  0.00000000000E+00 0. -1.
<scales pt_clust_5="13000.00000" pt_clust_6="13000.00000" pt_clust_7="13000.00000" pt_clust_8="13000.00000" pt_clust_9="37.17288" pt_clust_10="160.86994"></scales>
<clustering>
<clus scale="   37.173">  1  9  2 -1</clus>
<clus scale="   82.870">  5  6 -1 -1</clus>
<clus scale="  102.841">  7  8 -1 -1</clus>
<clus scale="  103.726">  1  5  2 -1</clus>
<clus scale="  160.870">  2 10  1 -1</clus>
<clus scale="  160.870">  2  5  1 -1</clus>
</clustering>
</event>
<event>
10    4  0.2857708E-005  0.1091461E+03  0.7546771E-02  0.1263228E+00
          2   -1    0    0  503    0 -0.00000000000E+00  0.00000000000E+00  0.14805856730E+03  0.14805856730E+03  0.00000000000E+00 0. -1.
         21   -1    0    0  501  502  0.00000000000E+00 -0.00000000000E+00 -0.11014677826E+04  0.11014677826E+04  0.00000000000E+00 0. -1.
         23    2    1    2    0    0 -0.21223962561E+02 -0.78390141302E+02  0.98780347086E+02  0.15564686212E+03  0.88729464540E+02 0.  0.
         24    2    1    2    0    0 -0.63550071866E+01  0.55268351640E+00 -0.56445940300E+03  0.57099926900E+03  0.85936348457E+02 0.  0.
        -11    1    4    4    0    0 -0.16991636525E+02  0.40213864708E+02 -0.23838340148E+03  0.24234792495E+03  0.00000000000E+00 0.  1.
         12    1    4    4    0    0  0.10636629338E+02 -0.39661181192E+02 -0.32607600152E+03  0.32865134405E+03  0.00000000000E+00 0. -1.
        -11    1    3    3    0    0 -0.49217756268E+02 -0.49627953277E+02  0.30104427374E+02  0.76102548092E+02  0.00000000000E+00 0.  1.
         11    1    3    3    0    0  0.27993793707E+02 -0.28762188025E+02  0.68675919712E+02  0.79544314029E+02  0.00000000000E+00 0. -1.
         21    1    1    2  503  502  0.21710393669E+02  0.11481977049E+02  0.55033195890E+01  0.25168701132E+02  0.00000000000E+00 0.  1.
          1    1    1    2  501    0  0.58685760790E+01  0.66355480737E+02 -0.49323347900E+03  0.49771151766E+03  0.00000000000E+00 0. -1.
<scales pt_clust_5="13000.00000" pt_clust_6="13000.00000" pt_clust_7="13000.00000" pt_clust_8="13000.00000" pt_clust_9="24.55966" pt_clust_10="66.84061"></scales>
<clustering>
<clus scale="   24.560">  1  9  2 -1</clus>
<clus scale="   66.841">  2 10  1 -1</clus>
<clus scale="   85.936">  5  6 -1 -1</clus>
<clus scale="   88.729">  7  8 -1 -1</clus>
<clus scale="  106.888">  2  5  1 -1</clus>
<clus scale="   66.841">  2  5  1 -1</clus>
</clustering>
</event>
<event>
10    4  0.2857708E-005  0.2525334E+03  0.7546771E-02  0.1136608E+00
         21   -1    0    0  501  502  0.00000000000E+00  0.00000000000E+00  0.28089980129E+03  0.28089980129E+03  0.00000000000E+00 0.  1.
          2   -1    0    0  503    0 -0.00000000000E+00 -0.00000000000E+00 -0.70110548144E+03  0.70110548144E+03  0.00000000000E+00 0. -1.
         24    2    1    2    0    0 -0.29158247184E+02 -0.10081423683E+03 -0.49860358648E+02  0.13989772377E+03  0.77920498109E+02 0.  0.
         23    2    1    2    0    0  0.11848391579E+03  0.26886500954E+03  0.36470961142E+02  0.31030608125E+03  0.92913408082E+02 0.  0.
        -11    1    3    3    0    0  0.18760598516E+02 -0.55150217040E+02 -0.44844726274E+02  0.73515685202E+02  0.00000000000E+00 0.  1.
         12    1    3    3    0    0 -0.47918845699E+02 -0.45664019791E+02 -0.50156323745E+01  0.66382038570E+02  0.00000000000E+00 0. -1.
        -11    1    4    4    0    0  0.57483685384E+02  0.22469917742E+03  0.17218430273E+02  0.23257379207E+03  0.00000000000E+00 0.  1.
         11    1    4    4    0    0  0.61000230409E+02  0.44165832120E+02  0.19252530868E+02  0.77732289183E+02  0.00000000000E+00 0. -1.
         21    1    1    2  503  502  0.34976565899E+02 -0.34846918379E+02 -0.33067079892E+03  0.33433642509E+03  0.00000000000E+00 0. -1.
          1    1    1    2  501    0 -0.12430223451E+03 -0.13320385433E+03 -0.76145483726E+02  0.19746505261E+03  0.00000000000E+00 0. -1.
<scales pt_clust_5="13000.00000" pt_clust_6="13000.00000" pt_clust_7="13000.00000" pt_clust_8="13000.00000" pt_clust_9="49.37274" pt_clust_10="234.81967"></scales>
<clustering>
<clus scale="   49.373">  2  9  1 -1</clus>
<clus scale="   77.920">  5  6 -1 -1</clus>
<clus scale="   92.913">  7  8 -1 -1</clus>
<clus scale="  136.126">  2  5  1 -1</clus>
<clus scale="  234.820">  1 10  2 -1</clus>
<clus scale="  234.820">  1  5  2 -1</clus>
</clustering>
</event>
<event>
10    4  0.2857708E-005  0.1346191E+03  0.7546771E-02  0.1243109E+00
         21   -1    0    0  503  502  0.00000000000E+00  0.00000000000E+00  0.10577544757E+04  0.10577544757E+04  0.00000000000E+00 0. -1.
         -1   -1    0    0    0  501 -0.00000000000E+00 -0.00000000000E+00 -0.72865397126E+02  0.72865397126E+02  0.00000000000E+00 0.  1.
         24    2    1    2    0    0  0.85753407937E+01  0.29422399895E+02 -0.75747762915E+01  0.85873339755E+02  0.79860122461E+02 0.  0.
         23    2    1    2    0    0  0.11447093910E+03 -0.28672627867E+02  0.57613165019E+03  0.59557667858E+03  0.94117937833E+02 0.  0.
        -11    1    3    3    0    0  0.40065687919E+02  0.27891877916E+02 -0.18934767118E+02  0.52361642525E+02  0.00000000000E+00 0.  1.
         12    1    3    3    0    0 -0.31490347126E+02  0.15305219795E+01  0.11359990826E+02  0.33511697230E+02  0.00000000000E+00 0. -1.
        -13    1    4    4    0    0  0.39519787298E+01 -0.21685540240E+02  0.24572398802E+02  0.33010355561E+02  0.00000000000E+00 0.  1.
         13    1    4    4    0    0  0.11051896037E+03 -0.69870876261E+01  0.55155925139E+03  0.56256632302E+03  0.00000000000E+00 0. -1.
         21    1    1    2  503  501 -0.87154942945E+02  0.21980261670E+02  0.12064932556E+03  0.15045057574E+03  0.00000000000E+00 0.  1.
         -2    1    1    2    0  502 -0.35891336945E+02 -0.22730033699E+02  0.29568287915E+03  0.29871927879E+03  0.00000000000E+00 0.  1.
<scales pt_clust_5="13000.00000" pt_clust_6="13000.00000" pt_clust_7="13000.00000" pt_clust_8="13000.00000" pt_clust_9="96.25029" pt_clust_10="42.48344"></scales>
<clustering>
<clus scale="   42.483">  1 10  2 -1</clus>
<clus scale="   79.860">  5  6 -1 -1</clus>
<clus scale="   84.977">  2  5  1 -1</clus>
<clus scale="   94.118">  7  8 -1 -1</clus>
<clus scale="   96.250">  2  9  1 -1</clus>
<clus scale="   42.483">  1  5  2 -1</clus>
</clustering>
</event>
<event>
10    4  0.2857708E-005  0.1927937E+03  0.7546771E-02  0.1182958E+00
         21   -1    0    0  501  502  0.00000000000E+00  0.00000000000E+00  0.74783717224E+03  0.74783717224E+03  0.00000000000E+00 0. -1.
          2   -1    0    0  503    0 -0.00000000000E+00 -0.00000000000E+00 -0.33013994796E+03  0.33013994796E+03  0.00000000000E+00 0. -1.
         24    2    1    2    0    0  0.29086493289E+02  0.47211718875E+02 -0.55257221596E+01  0.10320861968E+03  0.86870680208E+02 0.  0.
         23    2    1    2    0    0 -0.43830427412E+02 -0.22229503420E+03  0.69678709092E+02  0.25431428971E+03  0.92111057178E+02 0.  0.
        -13    1    3    3    0    0 -0.13247616352E+02  0.54871578586E+02 -0.16498606859E+02  0.58809807888E+02  0.00000000000E+00 0.  1.
         14    1    3    3    0    0  0.42334109641E+02 -0.76598597110E+01  0.10972884699E+02  0.44398811792E+02  0.00000000000E+00 0. -1.
        -13    1    4    4    0    0 -0.17815421162E+02 -0.21736877083E+03  0.62757916999E+02  0.22694741221E+03  0.00000000000E+00 0. -1.
         13    1    4    4    0    0 -0.26015006251E+02 -0.49262633700E+01  0.69207920940E+01  0.27366877502E+02  0.00000000000E+00 0.  1.
         21    1    1    2  503  502 -0.37554971947E+02  0.21772742847E+02 -0.16842417366E+03  0.17392852130E+03  0.00000000000E+00 0. -1.
          1    1    1    2  501    0  0.52298906070E+02  0.15331057248E+03  0.52196841100E+03  0.54652568950E+03  0.00000000000E+00 0. -1.
<scales pt_clust_5="13000.00000" pt_clust_6="13000.00000" pt_clust_7="13000.00000" pt_clust_8="13000.00000" pt_clust_9="43.41000" pt_clust_10="169.36632"></scales>
<clustering>
<clus scale="   43.410">  2  9  1 -1</clus>
<clus scale="   86.871">  5  6 -1 -1</clus>
<clus scale="   92.111">  7  8 -1 -1</clus>
<clus scale="  103.913">  2  5  1 -1</clus>
<clus scale="  169.366">  1 10  2 -1</clus>
<clus scale="  169.366">  1  5  2 -1</clus>
</clustering>
</event>
<event>
10    4  0.2857708E-005  0.2208275E+03  0.7546771E-02  0.1160024E+00
          2   -1    0    0  503    0 -0.00000000000E+00  0.00000000000E+00  0.28092005876E+03  0.28092005876E+03  0.00000000000E+00 0. -1.
         21   -1    0    0  501  502  0.00000000000E+00 -0.00000000000E+00 -0.51797990782E+03  0.51797990782E+03  0.00000000000E+00 0. -1.
         23    2    1    2    0    0 -0.62959362446E+02  0.35984537975E+02 -0.17840661128E+03  0.21261296536E+03  0.90092096206E+02 0.  0.
         24    2    1    2    0    0  0.24606891399E+03 -0.25673746954E+02 -0.17815117128E+03  0.31519510842E+03  0.80006654904E+02 0.  0.
        -11    1    4    4    0    0  0.25249986560E+02 -0.47931429875E+01 -0.56848475015E+02  0.62388181192E+02  0.00000000000E+00 0.  1.
         12    1    4    4    0    0  0.22081892743E+03 -0.20880603966E+02 -0.12130269626E+03  0.25280692723E+03  0.00000000000E+00 0. -1.
        -11    1    3    3    0    0 -0.60428824540E+02 -0.70593313371E+01 -0.14752133873E+03  0.15957450415E+03  0.00000000000E+00 0.  1.
         11    1    3    3    0    0 -0.25305379062E+01  0.43043869312E+02 -0.30885272557E+02  0.53038461217E+02  0.00000000000E+00 0. -1.
         21    1    1    2  503  502 -0.27306249657E+02 -0.16204951505E+02  0.11044028662E+03  0.11491426645E+03  0.00000000000E+00 0.  1.
          1    1    1    2  501    0 -0.15580330189E+03  0.58941604838E+01  0.90576468785E+01  0.15617762635E+03  0.00000000000E+00 0. -1.
<scales pt_clust_5="13000.00000" pt_clust_6="13000.00000" pt_clust_7="13000.00000" pt_clust_8="13000.00000" pt_clust_9="31.75266" pt_clust_10="205.82454"></scales>
<clustering>
<clus scale="   31.753">  1  9  2 -1</clus>
<clus scale="   80.007">  5  6 -1 -1</clus>
<clus scale="   90.092">  7  8 -1 -1</clus>
<clus scale="  116.691">  1  7  2 -1</clus>
<clus scale="  205.825">  2 10  1 -1</clus>
<clus scale="  205.825">  2  5  1 -1</clus>
</clustering>
</event>
<event>
10    4  0.2857708E-005  0.1912893E+03  0.7546771E-02  0.1158279E+00
          4   -1    0    0  503    0 -0.00000000000E+00  0.00000000000E+00  0.63722607446E+02  0.63722607446E+02  0.00000000000E+00 0. -1.
         21   -1    0    0  501  502  0.00000000000E+00 -0.00000000000E+00 -0.11056730527E+04  0.11056730527E+04  0.00000000000E+00 0. -1.
         23    2    1    2    0    0 -0.11730718759E+03  0.11810631150E+03 -0.32078279599E+03  0.37261741580E+03  0.90730696425E+02 0.  0.
         24    2    1    2    0    0  0.70183126755E+02 -0.16486195080E+03 -0.65341519305E+03  0.68239100913E+03  0.81246173619E+02 0.  0.
        -11    1    4    4    0    0  0.47239801173E+02 -0.36370606960E+02 -0.29462997714E+03  0.30060146922E+03  0.00000000000E+00 0.  1.
         12    1    4    4    0    0  0.22943325582E+02 -0.12849134384E+03 -0.35878521591E+03  0.38178953991E+03  0.00000000000E+00 0. -1.
        -13    1    3    3    0    0 -0.10258758714E+03  0.13332663824E+03 -0.27950378194E+03  0.32622472257E+03  0.00000000000E+00 0. -1.
         13    1    3    3    0    0 -0.14719600449E+02 -0.15220326737E+02 -0.41279014050E+02  0.46392693221E+02  0.00000000000E+00 0.  1.
         21    1    1    2  503  502  0.32604159780E+02  0.24180245302E+02  0.97542971367E+00  0.40603780131E+02  0.00000000000E+00 0.  1.
          3    1    1    2  501    0  0.14519901056E+02  0.22575393992E+02 -0.68727885881E+02  0.73783455045E+02  0.00000000000E+00 0. -1.
<scales pt_clust_5="13000.00000" pt_clust_6="13000.00000" pt_clust_7="13000.00000" pt_clust_8="13000.00000" pt_clust_9="41.07345" pt_clust_10="26.84168"></scales>
<clustering>
<clus scale="   26.842">  2 10  1 -1</clus>
<clus scale="   41.073">  1  9  2 -1</clus>
<clus scale="   81.246">  5  6 -1 -1</clus>
<clus scale="   90.731">  7  8 -1 -1</clus>
<clus scale="  186.977">  2  5  1 -1</clus>
<clus scale="   26.842">  2  5  1 -1</clus>
</clustering>
</event>
<event>
10    4  0.2857708E-005  0.1544566E+03  0.7546771E-02  0.1198000E+00
          2   -1    0    0  503    0 -0.00000000000E+00  0.00000000000E+00  0.30781611864E+03  0.30781611864E+03  0.00000000000E+00 0. -1.
         21   -1    0    0  501  502  0.00000000000E+00 -0.00000000000E+00 -0.28893132694E+03  0.28893132694E+03  0.00000000000E+00 0. -1.
         24    2    1    2    0    0 -0.83552317430E+02 -0.55029706241E+02  0.13509961045E+03  0.18614506851E+03  0.79930116157E+02 0.  0.
         23    2    1    2    0    0  0.64206789551E+02  0.62507746292E+02 -0.16078832301E+03  0.20762963611E+03  0.96059621098E+02 0.  0.
        -11    1    3    3    0    0 -0.29324002389E+02 -0.36214258480E+02  0.88105755420E+01  0.47423579312E+02  0.00000000000E+00 0.  1.
         12    1    3    3    0    0 -0.54228315041E+02 -0.18815447762E+02  0.12628903491E+03  0.13872148919E+03  0.00000000000E+00 0. -1.
        -11    1    4    4    0    0  0.30946842142E+02  0.83883442712E+02 -0.92003597627E+02  0.12829185857E+03  0.00000000000E+00 0.  1.
         11    1    4    4    0    0  0.33259947409E+02 -0.21375696421E+02 -0.68784725381E+02  0.79337777539E+02  0.00000000000E+00 0. -1.
         21    1    1    2  503  502 -0.20144758612E+02 -0.30675629238E+02  0.11402176227E+03  0.11978216812E+03  0.00000000000E+00 0. -1.
          1    1    1    2  501    0  0.39490286492E+02  0.23197589188E+02 -0.69448257999E+02  0.83190572846E+02  0.00000000000E+00 0. -1.
<scales pt_clust_5="13000.00000" pt_clust_6="13000.00000" pt_clust_7="13000.00000" pt_clust_8="13000.00000" pt_clust_9="36.69885" pt_clust_10="44.61917"></scales>
<clustering>
<clus scale="   36.699">  1  9  2 -1</clus>
<clus scale="   44.619">  2 10  1 -1</clus>
<clus scale="   79.930">  5  6 -1 -1</clus>
<clus scale="   96.060">  7  8 -1 -1</clus>
<clus scale="  144.977">  1  5  2 -1</clus>
<clus scale="   44.619">  2  5  1 -1</clus>
</clustering>
</event>
<event>
10    4  0.2857708E-005  0.1290013E+03  0.7546771E-02  0.1252514E+00
         21   -1    0    0  501  502  0.00000000000E+00  0.00000000000E+00  0.25950153477E+03  0.25950153477E+03  0.00000000000E+00 0. -1.
          2   -1    0    0  503    0 -0.00000000000E+00 -0.00000000000E+00 -0.36347344554E+03  0.36347344554E+03  0.00000000000E+00 0. -1.
         24    2    1    2    0    0  0.41209294311E+01 -0.19385325173E+02  0.83525808160E+02  0.11587001638E+03  0.77823692886E+02 0.  0.
         23    2    1    2    0    0 -0.67851583069E+02  0.68440608408E+02 -0.21152428067E+03  0.25064718174E+03  0.93773846016E+02 0.  0.
        -13    1    3    3    0    0  0.29359329518E+02 -0.26252495456E+02  0.14355350652E+02  0.41919444650E+02  0.00000000000E+00 0.  1.
         14    1    3    3    0    0 -0.25238400086E+02  0.68671702833E+01  0.69170457508E+02  0.73950571725E+02  0.00000000000E+00 0. -1.
        -13    1    4    4    0    0  0.20433482818E+02 -0.32957101747E+01 -0.33891794123E+02  0.39711996103E+02  0.00000000000E+00 0.  1.
         13    1    4    4    0    0 -0.88285065887E+02  0.71736318582E+02 -0.17763248655E+03  0.21093518564E+03  0.00000000000E+00 0. -1.
         21    1    1    2  503  502  0.23729904551E+02  0.29749152195E+02 -0.98379435496E+02  0.10548286001E+03  0.00000000000E+00 0. -1.
          1    1    1    2  501    0  0.40000749086E+02 -0.78804435430E+02  0.12240599724E+03  0.15097492219E+03  0.00000000000E+00 0. -1.
<scales pt_clust_5="13000.00000" pt_clust_6="13000.00000" pt_clust_7="13000.00000" pt_clust_8="13000.00000" pt_clust_9="38.05418" pt_clust_10="88.58787"></scales>
<clustering>
<clus scale="   38.054">  2  9  1 -1</clus>
<clus scale="   77.824">  5  6 -1 -1</clus>
<clus scale="   79.973">  2  5  1 -1</clus>
<clus scale="   88.588">  1 10  2 -1</clus>
<clus scale="   93.774">  7  8 -1 -1</clus>
<clus scale="   88.588">  1  5  2 -1</clus>
</clustering>
</event>
<event>
10    4  0.2857708E-005  0.1246716E+03  0.7546771E-02  0.1238810E+00
         21   -1    0    0  501  502  0.00000000000E+00  0.00000000000E+00  0.79293305190E+03  0.79293305190E+03  0.00000000000E+00 0. -1.
          2   -1    0    0  503    0 -0.00000000000E+00 -0.00000000000E+00 -0.11652660817E+03  0.11652660817E+03  0.00000000000E+00 0. -1.
         23    2    1    2    0    0 -0.53386777688E+02  0.57985071423E+02  0.17440169684E+02  0.12179822893E+03  0.91204344814E+02 0.  0.
         24    2    1    2    0    0  0.68884349114E+02 -0.78436375278E+02  0.19841189542E+03  0.23804485952E+03  0.80004727240E+02 0.  0.
        -13    1    4    4    0    0  0.66841189335E+02 -0.25512323787E+02  0.15043908872E+03  0.16658494131E+03  0.00000000000E+00 0.  1.
         14    1    4    4    0    0  0.20431597792E+01 -0.52924051491E+02  0.47972806706E+02  0.71459918215E+02  0.00000000000E+00 0. -1.
        -13    1    3    3    0    0 -0.17544034715E+02 -0.15419339482E+02 -0.21098947682E+02  0.31475621955E+02  0.00000000000E+00 0.  1.
         13    1    3    3    0    0 -0.35842742973E+02  0.73404410905E+02  0.38539117366E+02  0.90322606979E+02  0.00000000000E+00 0. -1.
         21    1    1    2  503  502 -0.40558800710E+02  0.13023408504E+03  0.92723597893E+02  0.16493513521E+03  0.00000000000E+00 0. -1.
          1    1    1    2  501    0  0.25061229284E+02 -0.10978278118E+03  0.36783078073E+03  0.38468143639E+03  0.00000000000E+00 0. -1.
<scales pt_clust_5="13000.00000" pt_clust_6="13000.00000" pt_clust_7="13000.00000" pt_clust_8="13000.00000" pt_clust_9="101.72757" pt_clust_10="112.60695"></scales>
<clustering>
<clus scale="   80.005">  5  6 -1 -1</clus>
<clus scale="   91.204">  7  8 -1 -1</clus>
<clus scale="  112.607">  1 10  2 -1</clus>
<clus scale="  101.728">  1  9  2 -1</clus>
<clus scale="  116.728">  1  5  2 -1</clus>
<clus scale="  112.607">  1  5  2 -1</clus>
</clustering>
</event>
<event>
10    4  0.2857708E-005  0.9325160E+02  0.7546771E-02  0.1296409E+00
          4   -1    0    0  503    0 -0.00000000000E+00  0.00000000000E+00  0.40332969808E+03  0.40332969808E+03  0.00000000000E+00 0. -1.
         21   -1    0    0  501  502  0.00000000000E+00 -0.00000000000E+00 -0.17920111117E+03  0.17920111117E+03  0.00000000000E+00 0. -1.
         24    2    1    2    0    0 -0.27838447324E+02 -0.23657339032E+02  0.29206581633E+03  0.30765745809E+03  0.89532237815E+02 0.  0.
         23    2    1    2    0    0 -0.73807024826E+01  0.53232484205E+02 -0.53035266756E+02  0.11878453573E+03  0.91699805150E+02 0.  0.
        -13    1    3    3    0    0 -0.58709809450E+02 -0.11765415234E+02  0.22563724560E+03  0.23344685332E+03  0.00000000000E+00 0.  1.
         14    1    3    3    0    0  0.30871362125E+02 -0.11891923798E+02  0.66428570728E+02  0.74210604768E+02  0.00000000000E+00 0. -1.
        -13    1    4    4    0    0  0.29527683313E+02  0.59492063118E+02 -0.21420720086E+02  0.69785649706E+02  0.00000000000E+00 0. -1.
         13    1    4    4    0    0 -0.36908385796E+02 -0.62595789134E+01 -0.31614546670E+02  0.48998886022E+02  0.00000000000E+00 0.  1.
         21    1    1    2  503  502  0.24859027550E+02  0.13353684138E+02  0.61599840520E+02  0.67755682292E+02  0.00000000000E+00 0. -1.
          3    1    1    2  501    0  0.10360122257E+02 -0.42928829311E+02 -0.76501803190E+02  0.88333133141E+02  0.00000000000E+00 0. -1.
<scales pt_clust_5="13000.00000" pt_clust_6="13000.00000" pt_clust_7="13000.00000" pt_clust_8="13000.00000" pt_clust_9="28.21865" pt_clust_10="44.03895"></scales>
<clustering>
<clus scale="   28.219">  1  9  2 -1</clus>
<clus scale="   44.039">  2 10  1 -1</clus>
<clus scale="   89.532">  5  6 -1 -1</clus>
<clus scale="   91.121">  1  5  2 -1</clus>
<clus scale="   91.700">  7  8 -1 -1</clus>
<clus scale="   44.039">  2  5  1 -1</clus>
</clustering>
</event>
<event>
10    4  0.2857708E-005  0.2812807E+03  0.7546771E-02  0.1095507E+00
         21   -1    0    0  501  502  0.00000000000E+00  0.00000000000E+00  0.30810487889E+03  0.30810487889E+03  0.00000000000E+00 0. -1.
          2   -1    0    0  503    0 -0.00000000000E+00 -0.00000000000E+00 -0.65768307771E+03  0.65768307771E+03  0.00000000000E+00 0. -1.
         24    2    1    2    0    0  0.21552861561E+03  0.19278208667E+03 -0.41560858011E+03  0.51266289602E+03  0.80468851139E+02 0.  0.
         23    2    1    2    0    0 -0.16612642380E+03 -0.10526364633E+03  0.18424506114E+03  0.28497042341E+03  0.92647049274E+02 0.  0.
        -11    1    3    3    0    0  0.11134592140E+02  0.45882189969E+02 -0.49817129313E+02  0.68636002736E+02  0.00000000000E+00 0.  1.
         12    1    3    3    0    0  0.20439402347E+03  0.14689989670E+03 -0.36579145079E+03  0.44402689328E+03  0.00000000000E+00 0. -1.
        -11    1    4    4    0    0 -0.57861030514E+02 -0.30447448575E+02  0.92813211930E+01  0.66038541019E+02  0.00000000000E+00 0.  1.
         11    1    4    4    0    0 -0.10826539329E+03 -0.74816197754E+02  0.17496373995E+03  0.21893188239E+03  0.00000000000E+00 0. -1.
         21    1    1    2  503  502  0.12412505767E+02 -0.32708013722E+02 -0.21950346396E+02  0.41300147311E+02  0.00000000000E+00 0. -1.
          1    1    1    2  501    0 -0.61814697576E+02 -0.54810426622E+02 -0.96264333456E+02  0.12685448986E+03  0.00000000000E+00 0. -1.
<scales pt_clust_5="13000.00000" pt_clust_6="13000.00000" pt_clust_7="13000.00000" pt_clust_8="13000.00000" pt_clust_9="34.98406" pt_clust_10="85.02688"></scales>
<clustering>
<clus scale="   34.984">  2  9  1 -1</clus>
<clus scale="   80.469">  5  6 -1 -1</clus>
<clus scale="   85.027">  1 10  2 -1</clus>
<clus scale="   92.647">  7  8 -1 -1</clus>
<clus scale="  277.508">  2  5  1 -1</clus>
<clus scale="   85.027">  1  5  2 -1</clus>
</clustering>
</event>
<event>
10    4  0.2857708E-005  0.1623534E+03  0.7546771E-02  0.1188878E+00
          2   -1    0    0  503    0 -0.00000000000E+00  0.00000000000E+00  0.16539271149E+04  0.16539271149E+04  0.00000000000E+00 0. -1.
         21   -1    0    0  501  502  0.00000000000E+00 -0.00000000000E+00 -0.63425734411E+02  0.63425734411E+02  0.00000000000E+00 0. -1.
         24    2    1    2    0    0  0.24040726436E+02 -0.18110943368E+03  0.11301150345E+04  0.11470271161E+04  0.71642379518E+02 0.  0.
         23    2    1    2    0    0 -0.58804919283E+02  0.50371588769E+02  0.65480434201E+02  0.13604665137E+03  0.90695582018E+02 0.  0.
        -13    1    3    3    0    0 -0.14178785962E+02 -0.34665853314E+02  0.12215906855E+03  0.12777166113E+03  0.00000000000E+00 0.  1.
         14    1    3    3    0    0  0.38219512399E+02 -0.14644358036E+03  0.10079559659E+04  0.10192554550E+04  0.00000000000E+00 0. -1.
        -11    1    4    4    0    0  0.18121697887E+02  0.30220505922E+02  0.38212101369E+02  0.51979222806E+02  0.00000000000E+00 0.  1.
         11    1    4    4    0    0 -0.76926617171E+02  0.20151082848E+02  0.27268332832E+02  0.84067428560E+02  0.00000000000E+00 0. -1.
         21    1    1    2  503  502  0.35629773428E+01  0.41595834564E+02  0.29053865919E+03  0.29352277721E+03  0.00000000000E+00 0.  1.
          1    1    1    2  501    0  0.31201215504E+02  0.89142010344E+02  0.10436725260E+03  0.14075630456E+03  0.00000000000E+00 0. -1.
<scales pt_clust_5="13000.00000" pt_clust_6="13000.00000" pt_clust_7="13000.00000" pt_clust_8="13000.00000" pt_clust_9="41.74815" pt_clust_10="98.08832"></scales>
<clustering>
<clus scale="   41.748">  1  9  2 -1</clus>
<clus scale="   71.642">  5  6 -1 -1</clus>
<clus scale="   90.696">  7  8 -1 -1</clus>
<clus scale="   98.088">  2 10  1 -1</clus>
<clus scale="  152.531">  1  5  2 -1</clus>
<clus scale="   98.088">  2  5  1 -1</clus>
</clustering>
</event>
<event>
10    4  0.2857708E-005  0.2355058E+03  0.7546771E-02  0.1148727E+00
         21   -1    0    0  501  502  0.00000000000E+00  0.00000000000E+00  0.11824687791E+03  0.11824687791E+03  0.00000000000E+00 0.  1.
          2   -1    0    0  503    0 -0.00000000000E+00 -0.00000000000E+00 -0.12511781908E+04  0.12511781908E+04  0.00000000000E+00 0. -1.
         24    2    1    2    0    0  0.34741948113E+02 -0.73788572316E+02 -0.23389789905E+03  0.25948159548E+03  0.77270400878E+02 0.  0.
         23    2    1    2    0    0 -0.19396617920E+03 -0.10277205129E+03 -0.12335102098E+03  0.26848983013E+03  0.93200543502E+02 0.  0.
        -13    1    3    3    0    0  0.23277992746E+02 -0.86488853568E+02 -0.21967569380E+03  0.23723321265E+03  0.00000000000E+00 0.  1.
         14    1    3    3    0    0  0.11463955367E+02  0.12700281251E+02 -0.14222205247E+02  0.22248382831E+02  0.00000000000E+00 0. -1.
        -13    1    4    4    0    0 -0.38739677683E+02 -0.67765030121E+02 -0.27682595323E+02  0.82820215033E+02  0.00000000000E+00 0. -1.
         13    1    4    4    0    0 -0.15522650151E+03 -0.35007021169E+02 -0.95668425659E+02  0.18566961510E+03  0.00000000000E+00 0.  1.
         21    1    1    2  503  502  0.59470256555E+02 -0.47744630504E+02 -0.24804307076E+03  0.25950265145E+03  0.00000000000E+00 0.  1.
          1    1    1    2  501    0  0.99753974527E+02  0.22430525411E+03 -0.52763932205E+03  0.58195099161E+03  0.00000000000E+00 0. -1.
<scales pt_clust_5="13000.00000" pt_clust_6="13000.00000" pt_clust_7="13000.00000" pt_clust_8="13000.00000" pt_clust_9="76.26442" pt_clust_10="216.27918"></scales>
<clustering>
<clus scale="   76.264">  2  9  1 -1</clus>
<clus scale="   77.270">  5  6 -1 -1</clus>
<clus scale="   93.201">  7  8 -1 -1</clus>
<clus scale="  125.471">  2  5  1 -1</clus>
<clus scale="  216.279">  1 10  2 -1</clus>
<clus scale="  216.279">  1  5  2 -1</clus>
</clustering>
</event>
<event>
10    4  0.2857708E-005  0.1681959E+03  0.7546771E-02  0.1181396E+00
         21   -1    0    0  503  502  0.00000000000E+00  0.00000000000E+00  0.46128251914E+03  0.46128251914E+03  0.00000000000E+00 0.  1.
         -1   -1    0    0    0  501 -0.00000000000E+00 -0.00000000000E+00 -0.17927919440E+03  0.17927919440E+03  0.00000000000E+00 0.  1.
         24    2    1    2    0    0  0.15700428217E+03 -0.47205196615E+00  0.69355671398E+02  0.18917849316E+03  0.79547002883E+02 0.  0.
         23    2    1    2    0    0 -0.14029953370E+03  0.13565478962E+02  0.24147406013E+03  0.29416052491E+03  0.91393168934E+02 0.  0.
        -13    1    3    3    0    0  0.15052744336E+03 -0.20256263823E+02  0.47839877173E+02  0.15924032553E+03  0.00000000000E+00 0.  1.
         14    1    3    3    0    0  0.64768388085E+01  0.19784211857E+02  0.21515794225E+02  0.29938167627E+02  0.00000000000E+00 0. -1.
        -13    1    4    4    0    0 -0.11453918075E+03 -0.25008622267E+02  0.14012414025E+03  0.18270038259E+03  0.00000000000E+00 0.  1.
         13    1    4    4    0    0 -0.25760352948E+02  0.38574101229E+02  0.10134991987E+03  0.11146014233E+03  0.00000000000E+00 0. -1.
         21    1    1    2  503  501 -0.43220720790E+02 -0.70292264698E+02 -0.42338846406E+02  0.92744871001E+02  0.00000000000E+00 0.  1.
         -2    1    1    2    0  502  0.26515972326E+02  0.57198837702E+02  0.13512439631E+02  0.64477824465E+02  0.00000000000E+00 0.  1.
<scales pt_clust_5="13000.00000" pt_clust_6="13000.00000" pt_clust_7="13000.00000" pt_clust_8="13000.00000" pt_clust_9="78.78118" pt_clust_10="63.04608"></scales>
<clustering>
<clus scale="   63.046">  1 10  2 -1</clus>
<clus scale="   78.781">  2  9  1 -1</clus>
<clus scale="   79.547">  5  6 -1 -1</clus>
<clus scale="   91.393">  7  8 -1 -1</clus>
<clus scale="  162.064">  2  5  1 -1</clus>
<clus scale="   63.046">  1  5  2 -1</clus>
</clustering>
</event>
<event>
10    4  0.2857708E-005  0.1867262E+03  0.7546771E-02  0.1162879E+00
         21   -1    0    0  501  502  0.00000000000E+00  0.00000000000E+00  0.35679195998E+03  0.35679195998E+03  0.00000000000E+00 0. -1.
          2   -1    0    0  503    0 -0.00000000000E+00 -0.00000000000E+00 -0.29522111019E+03  0.29522111019E+03  0.00000000000E+00 0. -1.
         23    2    1    2    0    0  0.10404015298E+03  0.11132371066E+03 -0.73444594499E+02  0.19351675733E+03  0.94006940800E+02 0.  0.
         24    2    1    2    0    0 -0.11417858687E+03 -0.12732338475E+03 -0.73675896607E+02  0.20316018688E+03  0.81227641794E+02 0.  0.
        -11    1    4    4    0    0 -0.93229144231E+02 -0.77303266986E+02 -0.13036528621E+02  0.12180894671E+03  0.00000000000E+00 0.  1.
         12    1    4    4    0    0 -0.20949442634E+02 -0.50020117761E+02 -0.60639367986E+02  0.81351240170E+02  0.00000000000E+00 0. -1.
        -11    1    3    3    0    0  0.57352307636E+02  0.46867634256E+01 -0.33677093940E+01  0.57641950081E+02  0.00000000000E+00 0.  1.
         11    1    3    3    0    0  0.46687845341E+02  0.10663694724E+03 -0.70076885105E+02  0.13587480725E+03  0.00000000000E+00 0. -1.
         21    1    1    2  503  502  0.40459354706E+02  0.22587118610E+02  0.20545452806E+01  0.46382738887E+02  0.00000000000E+00 0.  1.
          1    1    1    2  501    0 -0.30320920818E+02 -0.65874445245E+01  0.20663679562E+03  0.20895338707E+03  0.00000000000E+00 0. -1.
<scales pt_clust_5="13000.00000" pt_clust_6="13000.00000" pt_clust_7="13000.00000" pt_clust_8="13000.00000" pt_clust_9="41.53788" pt_clust_10="31.02826"></scales>
<clustering>
<clus scale="   31.028">  1 10  2 -1</clus>
<clus scale="   41.538">  1  9  2 -1</clus>
<clus scale="   81.228">  5  6 -1 -1</clus>
<clus scale="   94.007">  7  8 -1 -1</clus>
<clus scale="  180.630">  1  5  2 -1</clus>
<clus scale="   31.028">  1  5  2 -1</clus>
</clustering>
</event>
<event>
10    4  0.2857708E-005  0.2808008E+03  0.7546771E-02  0.1130065E+00
         21   -1    0    0  503  502  0.00000000000E+00  0.00000000000E+00  0.12773428270E+03  0.12773428270E+03  0.00000000000E+00 0.  1.
         -3   -1    0    0    0  501 -0.00000000000E+00 -0.00000000000E+00 -0.10028260444E+04  0.10028260444E+04  0.00000000000E+00 0.  1.
         24    2    1    2    0    0 -0.36697354512E+02 -0.78175802234E+02 -0.13939381202E+03  0.18299795300E+03  0.81237085677E+02 0.  0.
         23    2    1    2    0    0  0.24922865907E+03 -0.10657363062E+03 -0.23696554843E+03  0.36788745427E+03  0.75601882414E+02 0.  0.
        -13    1    3    3    0    0 -0.39465947127E+02 -0.88963648908E+02 -0.90663639164E+02  0.13301122989E+03  0.00000000000E+00 0.  1.
         14    1    3    3    0    0  0.27685926151E+01  0.10787846674E+02 -0.48730172852E+02  0.49986723109E+02  0.00000000000E+00 0. -1.
        -11    1    4    4    0    0  0.65297885681E+02 -0.10085485724E+02 -0.23706171670E+02  0.70196249700E+02  0.00000000000E+00 0. -1.
         11    1    4    4    0    0  0.18393077339E+03 -0.96488144898E+02 -0.21325937676E+03  0.29769120457E+03  0.00000000000E+00 0.  1.
         21    1    1    2  503  501  0.63738256846E+01  0.19214551928E+02 -0.24801522080E+02  0.32014686585E+02  0.00000000000E+00 0.  1.
         -4    1    1    2    0  502 -0.21890513024E+03  0.16553488093E+03 -0.47393087920E+03  0.54766023327E+03  0.00000000000E+00 0.  1.
<scales pt_clust_5="13000.00000" pt_clust_6="13000.00000" pt_clust_7="13000.00000" pt_clust_8="13000.00000" pt_clust_9="20.24413" pt_clust_10="270.43205"></scales>
<clustering>
<clus scale="   20.244">  2  9  1 -1</clus>
<clus scale="   75.602">  7  8 -1 -1</clus>
<clus scale="   81.237">  5  6 -1 -1</clus>
<clus scale="  116.166">  2  5  1 -1</clus>
<clus scale="  270.432">  1 10  2 -1</clus>
<clus scale="  270.432">  1  5  2 -1</clus>
</clustering>
</event>
<event>
10    4  0.2857708E-005  0.1465888E+03  0.7546771E-02  0.1216663E+00
         21   -1    0    0  501  502  0.00000000000E+00  0.00000000000E+00  0.12251228465E+04  0.12251228465E+04  0.00000000000E+00 0. -1.
          2   -1    0    0  503    0 -0.00000000000E+00 -0.00000000000E+00 -0.10748849954E+03  0.10748849954E+03  0.00000000000E+00 0. -1.
         23    2    1    2    0    0  0.37629722214E+02 -0.29155691852E+02 -0.20574931027E+02  0.10262407085E+03  0.88556884377E+02 0.  0.
         24    2    1    2    0    0  0.36624442766E+02  0.99595387371E+02  0.64646761585E+03  0.65998874649E+03  0.80026096742E+02 0.  0.
        -13    1    4    4    0    0  0.37376219348E+02  0.87715822667E+02  0.33528776392E+03  0.34858131326E+03  0.00000000000E+00 0.  1.
         14    1    4    4    0    0 -0.75177658182E+00  0.11879564704E+02  0.31117985193E+03  0.31140743324E+03  0.00000000000E+00 0. -1.
        -11    1    3    3    0    0 -0.60683720542E+01 -0.38431575850E+02  0.18676189977E+02  0.43157979955E+02  0.00000000000E+00 0.  1.
         11    1    3    3    0    0  0.43698094268E+02  0.92758839983E+01 -0.39251121005E+02  0.59466090899E+02  0.00000000000E+00 0. -1.
         21    1    1    2  503  502  0.44761400499E+02  0.47441683205E+02  0.18222576066E+02  0.67722659121E+02  0.00000000000E+00 0. -1.
          1    1    1    2  501    0 -0.11901556548E+03 -0.11788137872E+03  0.47351908608E+03  0.50227586958E+03  0.00000000000E+00 0. -1.
<scales pt_clust_5="13000.00000" pt_clust_6="13000.00000" pt_clust_7="13000.00000" pt_clust_8="13000.00000" pt_clust_9="65.22497" pt_clust_10="122.81746"></scales>
<clustering>
<clus scale="   65.225">  2  9  1 -1</clus>
<clus scale="   80.026">  5  6 -1 -1</clus>
<clus scale="   88.557">  7  8 -1 -1</clus>
<clus scale="  113.644">  2  7  1 -1</clus>
<clus scale="  122.817">  1 10  2 -1</clus>
<clus scale="  122.817">  1  5  2 -1</clus>
</clustering>
</event>
<event>
10    4  0.2857708E-005  0.1241343E+03  0.7546771E-02  0.1238991E+00
          2   -1    0    0  503    0 -0.00000000000E+00  0.00000000000E+00  0.18568713460E+03  0.18568713460E+03  0.00000000000E+00 0. -1.
         21   -1    0    0  501  502  0.00000000000E+00 -0.00000000000E+00 -0.31456079388E+03  0.31456079388E+03  0.00000000000E+00 0.  1.
         24    2    1    2    0    0  0.11371366203E+03 -0.14558448595E+02 -0.57018555414E+02  0.15150770216E+03  0.80998288839E+02 0.  0.
         23    2    1    2    0    0 -0.37268707298E+02 -0.57218813305E+01 -0.17834165046E+03  0.20326505748E+03  0.89940218113E+02 0.  0.
        -13    1    3    3    0    0  0.11535580712E+03 -0.34066141126E+02 -0.53389416926E+02  0.13159746976E+03  0.00000000000E+00 0.  1.
         14    1    3    3    0    0 -0.16421450819E+01  0.19507692531E+02 -0.36291384876E+01  0.19910232407E+02  0.00000000000E+00 0. -1.
        -13    1    4    4    0    0 -0.52687390028E+01 -0.32000876968E+02 -0.16846910751E+02  0.36546328670E+02  0.00000000000E+00 0. -1.
         13    1    4    4    0    0 -0.31999968295E+02  0.26278995637E+02 -0.16149473971E+03  0.16671872881E+03  0.00000000000E+00 0.  1.
         21    1    1    2  503  502 -0.15522607833E+02 -0.19655243823E+02  0.17900593153E+02  0.30784918367E+02  0.00000000000E+00 0. -1.
          1    1    1    2  501    0 -0.60922346904E+02  0.39935573748E+02  0.88585953451E+02  0.11469025047E+03  0.00000000000E+00 0. -1.
<scales pt_clust_5="13000.00000" pt_clust_6="13000.00000" pt_clust_7="13000.00000" pt_clust_8="13000.00000" pt_clust_9="25.04556" pt_clust_10="75.88027"></scales>
<clustering>
<clus scale="   25.046">  1  9  2 -1</clus>
<clus scale="   75.880">  2 10  1 -1</clus>
<clus scale="   80.998">  5  6 -1 -1</clus>
<clus scale="   89.940">  7  8 -1 -1</clus>
<clus scale="  117.817">  1  5  2 -1</clus>
<clus scale="   75.880">  2  5  1 -1</clus>
</clustering>
</event>
<event>
10    4  0.2857708E-005  0.1079513E+03  0.7546771E-02  0.1268664E+00
          2   -1    0    0  503    0 -0.00000000000E+00  0.00000000000E+00  0.13420440389E+04  0.13420440389E+04  0.00000000000E+00 0. -1.
         21   -1    0    0  501  502  0.00000000000E+00 -0.00000000000E+00 -0.25162184747E+02  0.25162184747E+02  0.00000000000E+00 0. -1.
         23    2    1    2    0    0  0.41033774328E+02  0.20835002409E+02  0.44657966925E+03  0.45807952360E+03  0.91025166821E+02 0.  0.
         24    2    1    2    0    0 -0.57773368352E+02 -0.89796074494E+02  0.27069827904E+03  0.30197334511E+03  0.80679897114E+02 0.  0.
        -11    1    4    4    0    0  0.20076083565E+02 -0.26424937714E+02  0.59360048502E+02  0.68006924814E+02  0.00000000000E+00 0.  1.
         12    1    4    4    0    0 -0.77849451918E+02 -0.63371136780E+02  0.21133823054E+03  0.23396642030E+03  0.00000000000E+00 0. -1.
        -13    1    3    3    0    0  0.35601334816E+02  0.55239470521E+02  0.32660533220E+03  0.33315146280E+03  0.00000000000E+00 0.  1.
         13    1    3    3    0    0  0.54324395116E+01 -0.34404468112E+02  0.11997433705E+03  0.12492806080E+03  0.00000000000E+00 0. -1.
         21    1    1    2  503  502 -0.21370578001E+02  0.69296013406E+01  0.12619732135E+03  0.12818145301E+03  0.00000000000E+00 0. -1.
          1    1    1    2  501    0  0.38110172026E+02  0.62031470744E+02  0.47340658451E+03  0.47897190192E+03  0.00000000000E+00 0. -1.
<scales pt_clust_5="13000.00000" pt_clust_6="13000.00000" pt_clust_7="13000.00000" pt_clust_8="13000.00000" pt_clust_9="22.46600" pt_clust_10="71.24850"></scales>
<clustering>
<clus scale="   22.466">  1  9  2 -1</clus>
<clus scale="   71.248">  2 10  1 -1</clus>
<clus scale="   80.680">  5  6 -1 -1</clus>
<clus scale="   91.025">  7  8 -1 -1</clus>
<clus scale="   99.384">  2  5  1 -1</clus>
<clus scale="   71.248">  2  5  1 -1</clus>
</clustering>
</event>
<event>
10    4  0.2857708E-005  0.9813878E+02  0.7546771E-02  0.1299163E+00
          2   -1    0    0  503    0 -0.00000000000E+00  0.00000000000E+00  0.28734600851E+03  0.28734600851E+03  0.00000000000E+00 0. -1.
         21   -1    0    0  501  502  0.00000000000E+00 -0.00000000000E+00 -0.11382536249E+03  0.11382536249E+03  0.00000000000E+00 0. -1.
         24    2    1    2    0    0 -0.96175469731E+01 -0.22225152197E+02  0.18946442104E+03  0.20478953735E+03  0.73861581136E+02 0.  0.
         23    2    1    2    0    0 -0.17848769468E+02 -0.80395253602E+01  0.50840108162E+01  0.99883099384E+02  0.97813975674E+02 0.  0.
        -11    1    3    3    0    0  0.19757414460E+02  0.18763255632E+02  0.62813288783E+02  0.68468419259E+02  0.00000000000E+00 0.  1.
         12    1    3    3    0    0 -0.29374961433E+02 -0.40988407830E+02  0.12665113225E+03  0.13632111809E+03  0.00000000000E+00 0. -1.
        -11    1    4    4    0    0 -0.20531805579E+02 -0.38543998255E+02 -0.30250914139E+02  0.53125442568E+02  0.00000000000E+00 0. -1.
         11    1    4    4    0    0  0.26830361115E+01  0.30504472895E+02  0.35334924955E+02  0.46757656816E+02  0.00000000000E+00 0.  1.
         21    1    1    2  503  502 -0.75773154351E+01  0.29716680004E+02  0.24352202499E+02  0.39160267443E+02  0.00000000000E+00 0. -1.
          1    1    1    2  501    0  0.35043631876E+02  0.54799755375E+00 -0.45379988337E+02  0.57338466825E+02  0.00000000000E+00 0. -1.
<scales pt_clust_5="13000.00000" pt_clust_6="13000.00000" pt_clust_7="13000.00000" pt_clust_8="13000.00000" pt_clust_9="30.66752" pt_clust_10="34.88853"></scales>
<clustering>
<clus scale="   30.668">  1  9  2 -1</clus>
<clus scale="   34.889">  2 10  1 -1</clus>
<clus scale="   73.862">  5  6 -1 -1</clus>
<clus scale="   74.291">  1  5  2 -1</clus>
<clus scale="   97.814">  7  8 -1 -1</clus>
<clus scale="   34.889">  2  5  1 -1</clus>
</clustering>
</event>
<event>
10    4  0.2857708E-005  0.2343079E+03  0.7546771E-02  0.1164548E+00
         21   -1    0    0  501  502  0.00000000000E+00  0.00000000000E+00  0.18605516424E+03  0.18605516424E+03  0.00000000000E+00 0. -1.
          2   -1    0    0  503    0 -0.00000000000E+00 -0.00000000000E+00 -0.53320074033E+03  0.53320074033E+03  0.00000000000E+00 0. -1.
         24    2    1    2    0    0 -0.35410857338E+02  0.15028446437E+02 -0.73596950989E+02  0.11531573845E+03  0.80008907753E+02 0.  0.
         23    2    1    2    0    0 -0.49880098778E+02  0.21705207346E+03 -0.19213392383E+03  0.30134787179E+03  0.65539822194E+02 0.  0.
        -13    1    3    3    0    0 -0.71344876492E+01  0.20374175058E+02  0.12217463835E+02  0.24804724265E+02  0.00000000000E+00 0.  1.
         14    1    3    3    0    0 -0.28276369689E+02 -0.53457286209E+01 -0.85814414824E+02  0.90511014185E+02  0.00000000000E+00 0. -1.
        -13    1    4    4    0    0 -0.53100033753E+02  0.17936276429E+03 -0.12723082549E+03  0.22622620925E+03  0.00000000000E+00 0. -1.
         13    1    4    4    0    0  0.32199349749E+01  0.37689309177E+02 -0.64903098343E+02  0.75121662535E+02  0.00000000000E+00 0.  1.
         21    1    1    2  503  502  0.22878392125E+01 -0.20983991747E+02 -0.72584824931E+02  0.75591791408E+02  0.00000000000E+00 0.  1.
          1    1    1    2  501    0  0.83003116904E+02 -0.21109652815E+03 -0.88298763373E+01  0.22700050293E+03  0.00000000000E+00 0. -1.
<scales pt_clust_5="13000.00000" pt_clust_6="13000.00000" pt_clust_7="13000.00000" pt_clust_8="13000.00000" pt_clust_9="21.10834" pt_clust_10="224.95490"></scales>
<clustering>
<clus scale="   21.108">  2  9  1 -1</clus>
<clus scale="   65.540">  7  8 -1 -1</clus>
<clus scale="   80.009">  5  6 -1 -1</clus>
<clus scale="   87.960">  2  5  1 -1</clus>
<clus scale="  224.955">  1 10  2 -1</clus>
<clus scale="  224.955">  1  5  2 -1</clus>
</clustering>
</event>
<event>
10    4  0.2857708E-005  0.1512316E+03  0.7546771E-02  0.1201383E+00
          2   -1    0    0  503    0 -0.00000000000E+00  0.00000000000E+00  0.96891382394E+03  0.96891382394E+03  0.00000000000E+00 0. -1.
         21   -1    0    0  501  502  0.00000000000E+00 -0.00000000000E+00 -0.64883411465E+02  0.64883411465E+02  0.00000000000E+00 0.  1.
         23    2    1    2    0    0 -0.14751976657E+03  0.18367429090E+02  0.52759745400E+03  0.55565565356E+03  0.91075177127E+02 0.  0.
         24    2    1    2    0    0  0.11095939688E+03  0.41295712591E+02  0.84477777545E+02  0.16483713411E+03  0.77572303363E+02 0.  0.
        -13    1    4    4    0    0  0.11208095989E+03  0.38731300462E+02  0.96254485679E+02  0.15273238431E+03  0.00000000000E+00 0.  1.
         14    1    4    4    0    0 -0.11215630110E+01  0.25644121289E+01 -0.11776708134E+02  0.12104749796E+02  0.00000000000E+00 0. -1.
        -13    1    3    3    0    0 -0.11607689358E+03 -0.13710547941E+01  0.48699352100E+03  0.50063800746E+03  0.00000000000E+00 0. -1.
         13    1    3    3    0    0 -0.31442872991E+02  0.19738483884E+02  0.40603932999E+02  0.55017646106E+02  0.00000000000E+00 0.  1.
         21    1    1    2  503  502  0.33945022446E+02 -0.19167305498E+02  0.25641505911E+03  0.25936139398E+03  0.00000000000E+00 0. -1.
          1    1    1    2  501    0  0.26153472503E+01 -0.40495836183E+02  0.35540121828E+02  0.53943053760E+02  0.00000000000E+00 0. -1.
<scales pt_clust_5="13000.00000" pt_clust_6="13000.00000" pt_clust_7="13000.00000" pt_clust_8="13000.00000" pt_clust_9="38.98269" pt_clust_10="41.97175"></scales>
<clustering>
<clus scale="   38.983">  1  9  2 -1</clus>
<clus scale="   41.972">  2 10  1 -1</clus>
<clus scale="   77.572">  5  6 -1 -1</clus>
<clus scale="   91.075">  7  8 -1 -1</clus>
<clus scale="  143.505">  2  5  1 -1</clus>
<clus scale="   41.972">  2  5  1 -1</clus>
</clustering>
</event>
<event>
10    4  0.2857708E-005  0.2821221E+03  0.7546771E-02  0.1094832E+00
         21   -1    0    0  501  502  0.00000000000E+00  0.00000000000E+00  0.39816922339E+03  0.39816922339E+03  0.00000000000E+00 0.  1.
          2   -1    0    0  503    0 -0.00000000000E+00 -0.00000000000E+00 -0.44589660406E+03  0.44589660406E+03  0.00000000000E+00 0. -1.
         24    2    1    2    0    0 -0.12255191747E+02 -0.26413970869E+03 -0.82560586521E+02  0.28912043370E+03  0.82791299698E+02 0.  0.
         23    2    1    2    0    0 -0.17451403874E+03  0.24188717423E+03  0.11195040510E+03  0.33102426896E+03  0.89886699052E+02 0.  0.
        -13    1    3    3    0    0  0.59129396381E+01 -0.24415509537E+03 -0.54620028523E+02  0.25025990683E+03  0.00000000000E+00 0.  1.
         14    1    3    3    0    0 -0.18168131385E+02 -0.19984613319E+02 -0.27940557998E+02  0.38860526872E+02  0.00000000000E+00 0. -1.
        -13    1    4    4    0    0 -0.17327312048E+03  0.18641210445E+03  0.78977757366E+02  0.26647801621E+03  0.00000000000E+00 0.  1.
         13    1    4    4    0    0 -0.12409182551E+01  0.55475069780E+02  0.32972647732E+02  0.64546252747E+02  0.00000000000E+00 0. -1.
         21    1    1    2  503  502  0.16645483971E+03  0.27392778591E+02 -0.28638388098E+02  0.17110737931E+03  0.00000000000E+00 0. -1.
          1    1    1    2  501    0  0.20314390777E+02 -0.51402441351E+01 -0.48478811146E+02  0.52813745488E+02  0.00000000000E+00 0. -1.
<scales pt_clust_5="13000.00000" pt_clust_6="13000.00000" pt_clust_7="13000.00000" pt_clust_8="13000.00000" pt_clust_9="172.15592" pt_clust_10="20.95464"></scales>
<clustering>
<clus scale="   20.955">  1 10  2 -1</clus>
<clus scale="   82.791">  5  6 -1 -1</clus>
<clus scale="   89.887">  7  8 -1 -1</clus>
<clus scale="  172.156">  2  9  1 -1</clus>
<clus scale="  279.942">  2  5  1 -1</clus>
<clus scale="   20.955">  1  5  2 -1</clus>
</clustering>
</event>
<event>
10    4  0.2857708E-005  0.1266981E+03  0.7546771E-02  0.1245095E+00
          2   -1    0    0  502    0 -0.00000000000E+00  0.00000000000E+00  0.61424927601E+03  0.61424927601E+03  0.00000000000E+00 0. -1.
         21   -1    0    0  503  502  0.00000000000E+00 -0.00000000000E+00 -0.46596528570E+02  0.46596528570E+02  0.00000000000E+00 0. -1.
         24    2    1    2    0    0 -0.51484362504E+02 -0.22338184781E+02  0.13185686896E+03  0.16424413767E+03  0.80251285249E+02 0.  0.
         23    2    1    2    0    0 -0.54975816967E+02 -0.10667129527E+02  0.28978039296E+03  0.30789099160E+03  0.87681574230E+02 0.  0.
        -13    1    3    3    0    0 -0.47457411593E+02 -0.35574344824E+02  0.13715460924E+03  0.14942933702E+03  0.00000000000E+00 0.  1.
         14    1    3    3    0    0 -0.40269509103E+01  0.13236160042E+02 -0.52977402798E+01  0.14814800652E+02  0.00000000000E+00 0. -1.
        -11    1    4    4    0    0 -0.58603642238E+02  0.26031508685E+02  0.21736297708E+03  0.22662455765E+03  0.00000000000E+00 0. -1.
         11    1    4    4    0    0  0.36278252704E+01 -0.36698638212E+02  0.72417415885E+02  0.81266433946E+02  0.00000000000E+00 0.  1.
         21    1    1    2  503  501  0.18921371373E+02 -0.88958775644E+01  0.38938784953E+02  0.44197102913E+02  0.00000000000E+00 0.  1.
          1    1    1    2  501    0  0.87538808098E+02  0.41901191873E+02  0.10707670056E+03  0.14451357240E+03  0.00000000000E+00 0. -1.
<scales pt_clust_5="13000.00000" pt_clust_6="13000.00000" pt_clust_7="13000.00000" pt_clust_8="13000.00000" pt_clust_9="20.06124" pt_clust_10="101.15545"></scales>
<clustering>
<clus scale="   20.061">  9 10 -1 -1</clus>
<clus scale="   80.251">  5  6 -1 -1</clus>
<clus scale="   87.682">  7  8 -1 -1</clus>
<clus scale="   97.928">  1  5  2 -1</clus>
<clus scale="  101.155">  2  9  1 -1</clus>
<clus scale="  101.155">  2  5  1 -1</clus>
</clustering>
</event>
<event>
10    4  0.2857708E-005  0.9723318E+02  0.7546771E-02  0.1292890E+00
          2   -1    0    0  503    0 -0.00000000000E+00  0.00000000000E+00  0.10444666695E+03  0.10444666695E+03  0.00000000000E+00 0. -1.
         21   -1    0    0  501  502  0.00000000000E+00 -0.00000000000E+00 -0.23164545739E+03  0.23164545739E+03  0.00000000000E+00 0. -1.
         23    2    1    2    0    0  0.40316862083E+02 -0.34545487210E+02 -0.82490213128E+02  0.13474715173E+03  0.92375968641E+02 0.  0.
         24    2    1    2    0    0 -0.14424446183E+02 -0.19249879382E+01 -0.94861014000E+02  0.12511335253E+03  0.80268105613E+02 0.  0.
        -11    1    4    4    0    0 -0.15851812335E+02 -0.37212579892E+02 -0.27058137861E+02  0.48664143690E+02  0.00000000000E+00 0.  1.
         12    1    4    4    0    0  0.14273661513E+01  0.35287591954E+02 -0.67802876139E+02  0.76449208843E+02  0.00000000000E+00 0. -1.
        -11    1    3    3    0    0 -0.16197727472E+02  0.21522154170E+02 -0.20512406283E+02  0.33857470474E+02  0.00000000000E+00 0.  1.
         11    1    3    3    0    0  0.56514589555E+02 -0.56067641380E+02 -0.61977806844E+02  0.10088968126E+03  0.00000000000E+00 0. -1.
         21    1    1    2  503  502 -0.26348982359E+02  0.83463392848E+01  0.33923682489E+02  0.43757816267E+02  0.00000000000E+00 0.  1.
          1    1    1    2  501    0  0.45656645927E+00  0.28124135864E+02  0.16228754202E+02  0.32473803811E+02  0.00000000000E+00 0. -1.
<scales pt_clust_5="13000.00000" pt_clust_6="13000.00000" pt_clust_7="13000.00000" pt_clust_8="13000.00000" pt_clust_9="27.63929" pt_clust_10="32.58447"></scales>
<clustering>
<clus scale="   27.639">  1  9  2 -1</clus>
<clus scale="   32.584">  2 10  1 -1</clus>
<clus scale="   80.268">  5  6 -1 -1</clus>
<clus scale="   85.813">  2  5  1 -1</clus>
<clus scale="   92.376">  7  8 -1 -1</clus>
<clus scale="   32.584">  2  5  1 -1</clus>
</clustering>
</event>
<event>
10    4  0.2857708E-005  0.1129815E+03  0.7546771E-02  0.1255983E+00
         21   -1    0    0  501  502  0.00000000000E+00  0.00000000000E+00  0.16609623726E+03  0.16609623726E+03  0.00000000000E+00 0.  1.
          2   -1    0    0  503    0 -0.00000000000E+00 -0.00000000000E+00 -0.32340710076E+03  0.32340710076E+03  0.00000000000E+00 0. -1.
         23    2    1    2    0    0  0.76393449629E+01  0.57860904443E+02 -0.11406653025E+03  0.15703279810E+03  0.90784814263E+02 0.  0.
         24    2    1    2    0    0 -0.32707094920E+02 -0.79027816730E+02 -0.90074359509E+02  0.15249392194E+03  0.88463868961E+02 0.  0.
        -11    1    4    4    0    0 -0.30058934335E+02 -0.68549081545E+02 -0.14613745020E+02  0.76263213003E+02  0.00000000000E+00 0.  1.
         12    1    4    4    0    0 -0.26481605846E+01 -0.10478735185E+02 -0.75460614489E+02  0.76230708934E+02  0.00000000000E+00 0. -1.
        -11    1    3    3    0    0 -0.86177241342E+01  0.19971881153E+02  0.11687246604E+02  0.24692770991E+02  0.00000000000E+00 0.  1.
         11    1    3    3    0    0  0.16257069097E+02  0.37889023290E+02 -0.12575377685E+03  0.13234002711E+03  0.00000000000E+00 0. -1.
         21    1    1    2  503  502 -0.54682693312E+02 -0.74399205234E+01 -0.32385306100E+02  0.63987166029E+02  0.00000000000E+00 0.  1.
          1    1    1    2  501    0  0.79750443269E+02  0.28606832810E+02  0.79215332359E+02  0.11598945196E+03  0.00000000000E+00 0. -1.
<scales pt_clust_5="13000.00000" pt_clust_6="13000.00000" pt_clust_7="13000.00000" pt_clust_8="13000.00000" pt_clust_9="55.18650" pt_clust_10="81.12300"></scales>
<clustering>
<clus scale="   55.186">  2  9  1 -1</clus>
<clus scale="   81.123">  1 10  2 -1</clus>
<clus scale="   88.464">  5  6 -1 -1</clus>
<clus scale="   90.785">  7  8 -1 -1</clus>
<clus scale="  111.125">  1  5  2 -1</clus>
<clus scale="   81.123">  1  5  2 -1</clus>
</clustering>
</event>
<event>
10    4  0.2857708E-005  0.2002017E+03  0.7546771E-02  0.1150530E+00
         -3   -1    0    0    0  501 -0.00000000000E+00  0.00000000000E+00  0.20794424553E+04  0.20794424553E+04  0.00000000000E+00 0.  1.
         21   -1    0    0  503  502  0.00000000000E+00 -0.00000000000E+00 -0.91113458392E+02  0.91113458392E+02  0.00000000000E+00 0.  1.
         24    2    1    2    0    0 -0.30512102324E+02 -0.14905947328E+03  0.96785746059E+03  0.98297012120E+03  0.79576882164E+02 0.  0.
         23    2    1    2    0    0  0.12400214402E+03  0.13785992681E+03  0.38883146348E+03  0.44010116815E+03  0.90095727248E+02 0.  0.
        -13    1    3    3    0    0 -0.17334594021E+02 -0.22593178271E+02  0.61935398424E+02  0.68168419611E+02  0.00000000000E+00 0.  1.
         14    1    3    3    0    0 -0.13177508303E+02 -0.12646629500E+03  0.90592206217E+03  0.91480170158E+03  0.00000000000E+00 0. -1.
        -13    1    4    4    0    0  0.61152624536E+02  0.79186613691E+02  0.30099172775E+03  0.31718477809E+03  0.00000000000E+00 0.  1.
         13    1    4    4    0    0  0.62849519484E+02  0.58673313122E+02  0.87839735731E+02  0.12291639006E+03  0.00000000000E+00 0. -1.
         21    1    1    2  503  501 -0.12547190140E+03  0.41127909413E-01  0.67831052995E+03  0.68981763878E+03  0.00000000000E+00 0. -1.
         -4    1    1    2    0  502  0.31981859704E+02  0.11158418552E+02 -0.46670457129E+02  0.57666985558E+02  0.00000000000E+00 0.  1.
<scales pt_clust_5="13000.00000" pt_clust_6="13000.00000" pt_clust_7="13000.00000" pt_clust_8="13000.00000" pt_clust_9="120.75884" pt_clust_10="33.87255"></scales>
<clustering>
<clus scale="   33.873">  2 10  1 -1</clus>
<clus scale="   79.577">  5  6 -1 -1</clus>
<clus scale="   90.096">  7  8 -1 -1</clus>
<clus scale="  120.759">  1  9  2 -1</clus>
<clus scale="  195.694">  1  5  2 -1</clus>
<clus scale="   33.873">  2  5  1 -1</clus>
</clustering>
</event>
<event>
10    4  0.2857708E-005  0.1682930E+03  0.7546771E-02  0.1184084E+00
         21   -1    0    0  503  502  0.00000000000E+00  0.00000000000E+00  0.95109683600E+02  0.95109683600E+02  0.00000000000E+00 0. -1.
         -1   -1    0    0    0  501 -0.00000000000E+00 -0.00000000000E+00 -0.62592336815E+03  0.62592336815E+03  0.00000000000E+00 0.  1.
         24    2    1    2    0    0  0.10845459473E+03  0.10839363495E+03 -0.35301154928E+03  0.38959021635E+03  0.60430154141E+02 0.  0.
         23    2    1    2    0    0 -0.13034420656E+03 -0.53547854299E+02 -0.78112173693E+02  0.18634526639E+03  0.93627248932E+02 0.  0.
        -13    1    3    3    0    0  0.90215138235E+02  0.11171863193E+03 -0.33103422715E+03  0.36083719796E+03  0.00000000000E+00 0.  1.
         14    1    3    3    0    0  0.18239456496E+02 -0.33249969794E+01 -0.21977322137E+02  0.28753018390E+02  0.00000000000E+00 0. -1.
        -11    1    4    4    0    0 -0.63102725054E+02 -0.67750924365E+01  0.11978066852E+02  0.64585833371E+02  0.00000000000E+00 0. -1.
         11    1    4    4    0    0 -0.67241481509E+02 -0.46772761863E+02 -0.90090240545E+02  0.12175943302E+03  0.00000000000E+00 0.  1.
         21    1    1    2  503  501 -0.27075254797E+02  0.11889582885E+01 -0.45806614624E+02  0.53223387598E+02  0.00000000000E+00 0. -1.
         -2    1    1    2    0  502  0.48964866628E+02 -0.56034738943E+02 -0.53883346954E+02  0.91874181418E+02  0.00000000000E+00 0.  1.
<scales pt_clust_5="13000.00000" pt_clust_6="13000.00000" pt_clust_7="13000.00000" pt_clust_8="13000.00000" pt_clust_9="27.10135" pt_clust_10="72.09094"></scales>
<clustering>
<clus scale="   27.101">  2  9  1 -1</clus>
<clus scale="   60.430">  5  6 -1 -1</clus>
<clus scale="   72.091">  1 10  2 -1</clus>
<clus scale="   93.627">  7  8 -1 -1</clus>
<clus scale="  152.343">  2  5  1 -1</clus>
<clus scale="   72.091">  1  5  2 -1</clus>
</clustering>
</event>
<event>
10    4  0.2857708E-005  0.2093353E+03  0.7546771E-02  0.1155596E+00
         -1   -1    0    0    0  501 -0.00000000000E+00  0.00000000000E+00  0.23313461960E+03  0.23313461960E+03  0.00000000000E+00 0.  1.
         21   -1    0    0  503  502  0.00000000000E+00 -0.00000000000E+00 -0.97017862750E+03  0.97017862750E+03  0.00000000000E+00 0. -1.
         24    2    1    2    0    0  0.79077114472E+01 -0.14208915066E+03  0.81635434463E+02  0.18272032664E+03  0.80439511265E+02 0.  0.
         23    2    1    2    0    0 -0.11599473809E+03 -0.67653805768E+02 -0.17634110564E+03  0.23907857341E+03  0.89613403166E+02 0.  0.
        -11    1    3    3    0    0 -0.25669236193E+02 -0.91452410642E+02  0.76099358183E+02  0.12171099135E+03  0.00000000000E+00 0.  1.
         12    1    3    3    0    0  0.33576947641E+02 -0.50636740013E+02  0.55360762802E+01  0.61009335290E+02  0.00000000000E+00 0. -1.
        -11    1    4    4    0    0 -0.68408779749E+02 -0.16203032319E+02 -0.29247772002E+02  0.76142836630E+02  0.00000000000E+00 0.  1.
         11    1    4    4    0    0 -0.47585958338E+02 -0.51450773449E+02 -0.14709333364E+03  0.16293573678E+03  0.00000000000E+00 0. -1.
         21    1    1    2  503  501 -0.14821413239E+02  0.18222077626E+02  0.48646763935E+02  0.54020607593E+02  0.00000000000E+00 0. -1.
         -2    1    1    2    0  502  0.12290843988E+03  0.19152087880E+03 -0.69098510066E+03  0.72749373946E+03  0.00000000000E+00 0.  1.
<scales pt_clust_5="13000.00000" pt_clust_6="13000.00000" pt_clust_7="13000.00000" pt_clust_8="13000.00000" pt_clust_9="23.48869" pt_clust_10="189.18427"></scales>
<clustering>
<clus scale="   23.489">  1  9  2 -1</clus>
<clus scale="   80.440">  5  6 -1 -1</clus>
<clus scale="   89.613">  7  8 -1 -1</clus>
<clus scale="  151.917">  1  5  2 -1</clus>
<clus scale="  189.184">  2 10  1 -1</clus>
<clus scale="  189.184">  2  5  1 -1</clus>
</clustering>
</event>
<event>
10    4  0.2857708E-005  0.1564634E+03  0.7546771E-02  0.1216182E+00
         21   -1    0    0  501  502  0.00000000000E+00  0.00000000000E+00  0.71371323860E+03  0.71371323860E+03  0.00000000000E+00 0.  1.
          2   -1    0    0  503    0 -0.00000000000E+00 -0.00000000000E+00 -0.14847094392E+03  0.14847094392E+03  0.00000000000E+00 0. -1.
         24    2    1    2    0    0  0.42623783437E+02  0.24959177010E+02  0.14421220673E+03  0.17236772042E+03  0.80459449677E+02 0.  0.
         23    2    1    2    0    0 -0.15223517206E+03 -0.23671346348E+02  0.39176411887E+03  0.43005650260E+03  0.87940834333E+02 0.  0.
        -11    1    3    3    0    0  0.38849496284E+02  0.17038042443E+02  0.15369871174E+03  0.15944551497E+03  0.00000000000E+00 0.  1.
         12    1    3    3    0    0  0.37742871534E+01  0.79211345671E+01 -0.94865050160E+01  0.12922205453E+02  0.00000000000E+00 0. -1.
        -13    1    4    4    0    0 -0.13142719431E+03 -0.49470036661E+02  0.34715320504E+03  0.37448062661E+03  0.00000000000E+00 0.  1.
         13    1    4    4    0    0 -0.20807977748E+02  0.25798690313E+02  0.44610913830E+02  0.55575875994E+02  0.00000000000E+00 0. -1.
         21    1    1    2  503  502  0.79863306193E+02 -0.11179946886E+03  0.44234500741E+02  0.14433973802E+03  0.00000000000E+00 0.  1.
          1    1    1    2  501    0  0.29748082426E+02  0.11051163820E+03 -0.14968531661E+02  0.11542022148E+03  0.00000000000E+00 0. -1.
<scales pt_clust_5="13000.00000" pt_clust_6="13000.00000" pt_clust_7="13000.00000" pt_clust_8="13000.00000" pt_clust_9="129.41097" pt_clust_10="132.58283"></scales>
<clustering>
<clus scale="   80.459">  5  6 -1 -1</clus>
<clus scale="   87.941">  7  8 -1 -1</clus>
<clus scale="   94.411">  2  5  1 -1</clus>
<clus scale="  132.583">  1 10  2 -1</clus>
<clus scale="  129.411">  2  9  1 -1</clus>
<clus scale="  132.583">  1  5  2 -1</clus>
</clustering>
</event>
<event>
10    4  0.2857708E-005  0.1346833E+03  0.7546771E-02  0.1223127E+00
         21   -1    0    0  501  502  0.00000000000E+00  0.00000000000E+00  0.13426693816E+03  0.13426693816E+03  0.00000000000E+00 0.  1.
         -1   -1    0    0    0  501 -0.00000000000E+00 -0.00000000000E+00 -0.71432163734E+03  0.71432163734E+03  0.00000000000E+00 0.  1.
         24    2    1    2    0    0 -0.56476746510E+02 -0.86970607436E+02 -0.49299148664E+03  0.50993867973E+03  0.79014819689E+02 0.  0.
         23    2    1    2    0    0  0.39968220444E+02  0.63044618252E+02  0.23352692131E+02  0.11889281320E+03  0.89543677970E+02 0.  0.
        -11    1    3    3    0    0 -0.70862662937E+02 -0.52896324370E+02 -0.40404848143E+03  0.41361179079E+03  0.00000000000E+00 0.  1.
         12    1    3    3    0    0  0.14385916427E+02 -0.34074283066E+02 -0.88943005209E+02  0.96326888943E+02  0.00000000000E+00 0. -1.
        -11    1    4    4    0    0  0.18765158028E+02  0.17853674489E+02  0.54299228907E+02  0.60160544450E+02  0.00000000000E+00 0.  1.
         11    1    4    4    0    0  0.21203062416E+02  0.45190943763E+02 -0.30946536775E+02  0.58732268749E+02  0.00000000000E+00 0. -1.
         21    1    1    2  503  502  0.51362975022E+02 -0.69855843396E+02 -0.71577943719E+02  0.11243396323E+03  0.00000000000E+00 0.  1.
         -2    1    1    2    0  503 -0.34854448956E+02  0.93781832580E+02 -0.38837960951E+02  0.10732311934E+03  0.00000000000E+00 0.  1.
<scales pt_clust_5="13000.00000" pt_clust_6="13000.00000" pt_clust_7="13000.00000" pt_clust_8="13000.00000" pt_clust_9="86.70637" pt_clust_10="75.31207"></scales>
<clustering>
<clus scale="   79.015">  5  6 -1 -1</clus>
<clus scale="   86.706">  1  9  2 -1</clus>
<clus scale="   75.312">  1 10  2 -1</clus>
<clus scale="   89.544">  7  8 -1 -1</clus>
<clus scale="  127.925">  2  5  1 -1</clus>
<clus scale="   86.706">  1  5  2 -1</clus>
</clustering>
</event>
<event>
10    4  0.2857708E-005  0.9106187E+02  0.7546771E-02  0.1305742E+00
          2   -1    0    0  503    0 -0.00000000000E+00  0.00000000000E+00  0.15255373679E+03  0.15255373679E+03  0.00000000000E+00 0. -1.
         21   -1    0    0  501  502  0.00000000000E+00 -0.00000000000E+00 -0.31440879439E+03  0.31440879439E+03  0.00000000000E+00 0. -1.
         24    2    1    2    0    0 -0.23119824387E+02  0.17170460662E+01  0.82077714196E+02  0.11800145428E+03  0.81548252691E+02 0.  0.
         23    2    1    2    0    0  0.29563219820E+02 -0.20038922359E+02 -0.70715047658E+02  0.12011359265E+03  0.90283524513E+02 0.  0.
        -13    1    3    3    0    0 -0.41527073616E+02  0.22741109612E+02  0.22975525440E+02  0.52626330660E+02  0.00000000000E+00 0.  1.
         14    1    3    3    0    0  0.18407249229E+02 -0.21024063546E+02  0.59102188756E+02  0.65375123617E+02  0.00000000000E+00 0. -1.
        -11    1    4    4    0    0  0.42323655974E+02  0.99730127860E+01 -0.75525718271E+02  0.87148648637E+02  0.00000000000E+00 0.  1.
         11    1    4    4    0    0 -0.12760436154E+02 -0.30011935145E+02  0.48106706129E+01  0.32964944012E+02  0.00000000000E+00 0. -1.
         21    1    1    2  503  502  0.20190442175E+02 -0.43690804952E+01  0.22198530174E+02  0.30323547970E+02  0.00000000000E+00 0. -1.
          1    1    1    2  501    0 -0.26633837608E+02  0.22690956788E+02 -0.19541625431E+03  0.19852393628E+03  0.00000000000E+00 0. -1.
<scales pt_clust_5="13000.00000" pt_clust_6="13000.00000" pt_clust_7="13000.00000" pt_clust_8="13000.00000" pt_clust_9="20.65775" pt_clust_10="34.76541"></scales>
<clustering>
<clus scale="   20.658">  1  9  2 -1</clus>
<clus scale="   34.765">  2 10  1 -1</clus>
<clus scale="   81.548">  5  6 -1 -1</clus>
<clus scale="   82.409">  1  5  2 -1</clus>
<clus scale="   90.284">  7  8 -1 -1</clus>
<clus scale="   34.765">  2  5  1 -1</clus>
</clustering>
</event>
<event>
10    4  0.2857708E-005  0.2574547E+03  0.7546771E-02  0.1109182E+00
         21   -1    0    0  501  502  0.00000000000E+00  0.00000000000E+00  0.26889959919E+03  0.26889959919E+03  0.00000000000E+00 0.  1.
          2   -1    0    0  503    0 -0.00000000000E+00 -0.00000000000E+00 -0.43067317160E+03  0.43067317160E+03  0.00000000000E+00 0. -1.
         23    2    1    2    0    0 -0.23802632020E+03 -0.43983953718E+01 -0.61180519290E+02  0.26250909588E+03  0.92152560942E+02 0.  0.
         24    2    1    2    0    0  0.24980670009E+03  0.53858649475E+02  0.39424139835E+02  0.27144077904E+03  0.82593536031E+02 0.  0.
        -13    1    4    4    0    0  0.13290687466E+03 -0.54990311364E+01  0.44414089934E+02  0.14023939554E+03  0.00000000000E+00 0.  1.
         14    1    4    4    0    0  0.11689982543E+03  0.59357680611E+02 -0.49899500990E+01  0.13120138351E+03  0.00000000000E+00 0. -1.
        -11    1    3    3    0    0 -0.12721451508E+03  0.42619496917E+02 -0.42224182034E+02  0.14065146964E+03  0.00000000000E+00 0.  1.
         11    1    3    3    0    0 -0.11081180512E+03 -0.47017892289E+02 -0.18956337256E+02  0.12185762624E+03  0.00000000000E+00 0. -1.
         21    1    1    2  503  502  0.22423662644E+02 -0.46083018599E+01 -0.12261402048E+02  0.25969194685E+02  0.00000000000E+00 0. -1.
          1    1    1    2  501    0 -0.34204042533E+02 -0.44851952243E+02 -0.12775579090E+03  0.13965370119E+03  0.00000000000E+00 0. -1.
<scales pt_clust_5="13000.00000" pt_clust_6="13000.00000" pt_clust_7="13000.00000" pt_clust_8="13000.00000" pt_clust_9="22.89229" pt_clust_10="53.59926"></scales>
<clustering>
<clus scale="   22.892">  2  9  1 -1</clus>
<clus scale="   53.599">  1 10  2 -1</clus>
<clus scale="   82.594">  5  6 -1 -1</clus>
<clus scale="   92.153">  7  8 -1 -1</clus>
<clus scale="  254.190">  1  5  2 -1</clus>
<clus scale="   53.599">  1  5  2 -1</clus>
</clustering>
</event>
<event>
10    4  0.2857708E-005  0.1169046E+03  0.7546771E-02  0.1252471E+00
         21   -1    0    0  501  502  0.00000000000E+00  0.00000000000E+00  0.73755536884E+02  0.73755536884E+02  0.00000000000E+00 0.  1.
          2   -1    0    0  503    0 -0.00000000000E+00 -0.00000000000E+00 -0.87299224400E+03  0.87299224400E+03  0.00000000000E+00 0. -1.
         24    2    1    2    0    0  0.48854044025E+02  0.38809792119E+02 -0.55259415718E+03  0.56176926390E+03  0.79570633606E+02 0.  0.
         23    2    1    2    0    0 -0.33253697779E+02 -0.97663291143E+02 -0.11314651618E+03  0.17854345078E+03  0.91824304189E+02 0.  0.
        -11    1    3    3    0    0  0.48792076894E+02 -0.67003450462E+01 -0.18792892508E+03  0.19427517153E+03  0.00000000000E+00 0.  1.
         12    1    3    3    0    0  0.61967130255E-01  0.45510137165E+02 -0.36466523210E+03  0.36749409237E+03  0.00000000000E+00 0. -1.
        -11    1    4    4    0    0 -0.28072556521E+02  0.19881332593E+01 -0.62543335577E+00  0.28149818301E+02  0.00000000000E+00 0. -1.
         11    1    4    4    0    0 -0.51811412580E+01 -0.99651424403E+02 -0.11252108283E+03  0.15039363248E+03  0.00000000000E+00 0.  1.
         21    1    1    2  503  502 -0.11734881998E+02  0.20686766910E+02 -0.15874033578E+03  0.16051213033E+03  0.00000000000E+00 0. -1.
          1    1    1    2  501    0 -0.38654642474E+01  0.38166732114E+02  0.25244302025E+02  0.45922935869E+02  0.00000000000E+00 0. -1.
<scales pt_clust_5="13000.00000" pt_clust_6="13000.00000" pt_clust_7="13000.00000" pt_clust_8="13000.00000" pt_clust_9="23.78339" pt_clust_10="38.67767"></scales>
<clustering>
<clus scale="   23.783">  2  9  1 -1</clus>
<clus scale="   38.678">  1 10  2 -1</clus>
<clus scale="   79.571">  5  6 -1 -1</clus>
<clus scale="   91.824">  7  8 -1 -1</clus>
<clus scale="  107.548">  2  5  1 -1</clus>
<clus scale="   38.678">  1  5  2 -1</clus>
</clustering>
</event>
<event>
10    4  0.2857708E-005  0.1106722E+03  0.7546771E-02  0.1263386E+00
         21   -1    0    0  503  502  0.00000000000E+00  0.00000000000E+00  0.65519801026E+02  0.65519801026E+02  0.00000000000E+00 0.  1.
         -3   -1    0    0    0  501 -0.00000000000E+00 -0.00000000000E+00 -0.56416241609E+03  0.56416241609E+03  0.00000000000E+00 0.  1.
         23    2    1    2    0    0 -0.43047451482E+02 -0.36538139389E+02 -0.37751976868E+03  0.39241697102E+03  0.91004311363E+02 0.  0.
         24    2    1    2    0    0  0.34947250900E+02  0.19110501364E+01  0.79526659037E-01  0.87781027519E+02  0.80501801282E+02 0.  0.
        -13    1    4    4    0    0  0.43552240455E+02 -0.31072331919E+02  0.28873212472E+01  0.53578205304E+02  0.00000000000E+00 0.  1.
         14    1    4    4    0    0 -0.86049895551E+01  0.32983382055E+02 -0.28077945881E+01  0.34202822216E+02  0.00000000000E+00 0. -1.
        -11    1    3    3    0    0  0.28472248359E+01 -0.49724375041E+02 -0.27299615689E+03  0.27750229159E+03  0.00000000000E+00 0.  1.
         11    1    3    3    0    0 -0.45894676318E+02  0.13186235652E+02 -0.10452361180E+03  0.11491467943E+03  0.00000000000E+00 0. -1.
         21    1    1    2  503  501 -0.27358053200E+02  0.11928843202E+02 -0.95735758085E+02  0.10028008651E+03  0.00000000000E+00 0.  1.
         -4    1    1    2    0  502  0.35458253782E+02  0.22698246051E+02 -0.25466614954E+02  0.49204132065E+02  0.00000000000E+00 0.  1.
<scales pt_clust_5="13000.00000" pt_clust_6="13000.00000" pt_clust_7="13000.00000" pt_clust_8="13000.00000" pt_clust_9="29.84561" pt_clust_10="40.81904"></scales>
<clustering>
<clus scale="   29.846">  2  9  1 -1</clus>
<clus scale="   40.819">  1 10  2 -1</clus>
<clus scale="   80.502">  5  6 -1 -1</clus>
<clus scale="   91.004">  7  8 -1 -1</clus>
<clus scale="  102.211">  1  5  2 -1</clus>
<clus scale="   40.819">  1  5  2 -1</clus>
</clustering>
</event>
<event>
10    4  0.2857708E-005  0.9666833E+02  0.7546771E-02  0.1293152E+00
         21   -1    0    0  501  502  0.00000000000E+00  0.00000000000E+00  0.56329306511E+02  0.56329306511E+02  0.00000000000E+00 0. -1.
          2   -1    0    0  503    0 -0.00000000000E+00 -0.00000000000E+00 -0.70265288814E+03  0.70265288814E+03  0.00000000000E+00 0. -1.
         24    2    1    2    0    0  0.51052052359E+02  0.15551632346E+02 -0.33747855745E+03  0.35070201732E+03  0.79069354958E+02 0.  0.
         23    2    1    2    0    0 -0.20091303350E+02  0.50052741807E+02 -0.98242120145E+02  0.14354624233E+03  0.89694325814E+02 0.  0.
        -13    1    3    3    0    0 -0.69909068600E+01 -0.19621245424E+02 -0.35226386145E+02  0.40923884609E+02  0.00000000000E+00 0.  1.
         14    1    3    3    0    0  0.58042959219E+02  0.35172877770E+02 -0.30225217131E+03  0.30977813271E+03  0.00000000000E+00 0. -1.
        -13    1    4    4    0    0  0.35719515602E+02  0.15702324556E+02 -0.33533476895E+02  0.51448429169E+02  0.00000000000E+00 0.  1.
         13    1    4    4    0    0 -0.55810818952E+02  0.34350417251E+02 -0.64708643250E+02  0.92097813159E+02  0.00000000000E+00 0. -1.
         21    1    1    2  503  502 -0.19374957354E+02  0.12537434940E+02 -0.17764611608E+03  0.17913882552E+03  0.00000000000E+00 0.  1.
          1    1    1    2  501    0 -0.11585791654E+02 -0.78141809093E+02 -0.32956787948E+02  0.85595109490E+02  0.00000000000E+00 0. -1.
<scales pt_clust_5="13000.00000" pt_clust_6="13000.00000" pt_clust_7="13000.00000" pt_clust_8="13000.00000" pt_clust_9="23.07761" pt_clust_10="77.95128"></scales>
<clustering>
<clus scale="   23.078">  2  9  1 -1</clus>
<clus scale="   77.951">  1 10  2 -1</clus>
<clus scale="   79.069">  5  6 -1 -1</clus>
<clus scale="   86.900">  2  5  1 -1</clus>
<clus scale="   89.694">  7  8 -1 -1</clus>
<clus scale="   77.951">  1  5  2 -1</clus>
</clustering>
</event>
<event>
10    4  0.2857708E-005  0.9866711E+02  0.7546771E-02  0.1287956E+00
         21   -1    0    0  501  502  0.00000000000E+00  0.00000000000E+00  0.13310748445E+03  0.13310748445E+03  0.00000000000E+00 0.  1.
          2   -1    0    0  503    0 -0.00000000000E+00 -0.00000000000E+00 -0.66293399130E+03  0.66293399130E+03  0.00000000000E+00 0. -1.
         24    2    1    2    0    0 -0.46452305122E+02  0.39096725169E+02 -0.26852310307E+03  0.28683867391E+03  0.80531965079E+02 0.  0.
         23    2    1    2    0    0 -0.10301654186E+02 -0.65881995425E+02  0.24977798001E+02  0.11479629523E+03  0.90042976431E+02 0.  0.
        -11    1    3    3    0    0 -0.41427522382E+02  0.56726195023E+02 -0.25375701822E+03  0.26329968688E+03  0.00000000000E+00 0.  1.
         12    1    3    3    0    0 -0.50247827399E+01 -0.17629469854E+02 -0.14766084845E+02  0.23538987033E+02  0.00000000000E+00 0. -1.
        -13    1    4    4    0    0 -0.38988581040E+02 -0.72378784651E+02  0.13969078419E+02  0.83390245658E+02  0.00000000000E+00 0.  1.
         13    1    4    4    0    0  0.28686926855E+02  0.64967892258E+01  0.11008719582E+02  0.31406049568E+02  0.00000000000E+00 0. -1.
         21    1    1    2  503  502  0.61786819605E+02 -0.42918795266E+01 -0.33264640536E+03  0.33836321063E+03  0.00000000000E+00 0. -1.
          1    1    1    2  501    0 -0.50328602982E+01  0.31077149782E+02  0.46365203580E+02  0.56043295981E+02  0.00000000000E+00 0. -1.
<scales pt_clust_5="13000.00000" pt_clust_6="13000.00000" pt_clust_7="13000.00000" pt_clust_8="13000.00000" pt_clust_9="61.69460" pt_clust_10="31.48204"></scales>
<clustering>
<clus scale="   31.482">  1 10  2 -1</clus>
<clus scale="   61.695">  2  9  1 -1</clus>
<clus scale="   80.532">  5  6 -1 -1</clus>
<clus scale="   90.043">  7  8 -1 -1</clus>
<clus scale="   90.071">  2  5  1 -1</clus>
<clus scale="   31.482">  1  5  2 -1</clus>
</clustering>
</event>
<event>
10    4  0.2857708E-005  0.1119035E+03  0.7546771E-02  0.1267628E+00
         -1   -1    0    0    0  501 -0.00000000000E+00  0.00000000000E+00  0.18459790303E+03  0.18459790303E+03  0.00000000000E+00 0.  1.
         21   -1    0    0  503  502  0.00000000000E+00 -0.00000000000E+00 -0.19940286365E+03  0.19940286365E+03  0.00000000000E+00 0. -1.
         24    2    1    2    0    0 -0.11821933669E+00  0.52686651163E+02  0.22464432580E+02  0.10112590826E+03  0.83342074630E+02 0.  0.
         23    2    1    2    0    0  0.64842143193E+02 -0.28136265908E+01 -0.41000138181E+02  0.13067198009E+03  0.10574372332E+03 0.  0.
        -11    1    3    3    0    0  0.35749687998E+02  0.51256983473E+02  0.11077652638E+02  0.63466786075E+02  0.00000000000E+00 0.  1.
         12    1    3    3    0    0 -0.35867907334E+02  0.14296676891E+01  0.11386779942E+02  0.37659122184E+02  0.00000000000E+00 0. -1.
        -13    1    4    4    0    0  0.37063372251E+01  0.24930124949E+02 -0.56414504649E+02  0.61788707709E+02  0.00000000000E+00 0.  1.
         13    1    4    4    0    0  0.61135805968E+02 -0.27743751540E+02  0.15414366468E+02  0.68883272385E+02  0.00000000000E+00 0. -1.
         21    1    1    2  503  501 -0.10040085615E+02 -0.33681886231E+02  0.61620887203E+02  0.70939456714E+02  0.00000000000E+00 0.  1.
         -2    1    1    2    0  502 -0.54683838241E+02 -0.16191138340E+02 -0.57890142223E+02  0.81263421612E+02  0.00000000000E+00 0.  1.
<scales pt_clust_5="13000.00000" pt_clust_6="13000.00000" pt_clust_7="13000.00000" pt_clust_8="13000.00000" pt_clust_9="35.14645" pt_clust_10="58.99761"></scales>
<clustering>
<clus scale="   35.146">  1  9  2 -1</clus>
<clus scale="   58.998">  2 10  1 -1</clus>
<clus scale="   83.342">  5  6 -1 -1</clus>
<clus scale="   91.031">  1  5  2 -1</clus>
<clus scale="  105.744">  7  8 -1 -1</clus>
<clus scale="   58.998">  2  5  1 -1</clus>
</clustering>
</event>
<event>
10    4  0.2857708E-005  0.1338078E+03  0.7546771E-02  0.1229780E+00
         21   -1    0    0  503  502  0.00000000000E+00  0.00000000000E+00  0.10414041100E+03  0.10414041100E+03  0.00000000000E+00 0.  1.
         -1   -1    0    0    0  501 -0.00000000000E+00 -0.00000000000E+00 -0.85260159777E+03  0.85260159777E+03  0.00000000000E+00 0.  1.
         23    2    1    2    0    0 -0.41640867599E+02 -0.71517686286E+02 -0.61910563813E+03  0.63139478270E+03  0.92297557686E+02 0.  0.
         24    2    1    2    0    0  0.77246014299E+02 -0.50041082970E+02 -0.38097272147E+02  0.12755347220E+03  0.79670756335E+02 0.  0.
        -13    1    4    4    0    0  0.91951562953E+02 -0.39873904393E+02 -0.20168068727E+02  0.10223389446E+03  0.00000000000E+00 0.  1.
         14    1    4    4    0    0 -0.14705548654E+02 -0.10167178577E+02 -0.17929203419E+02  0.25319577735E+02  0.00000000000E+00 0. -1.
        -11    1    3    3    0    0  0.55969663782E+01 -0.73254556492E+02 -0.44322834816E+03  0.44927600058E+03  0.00000000000E+00 0.  1.
         11    1    3    3    0    0 -0.47237833977E+02  0.17368702058E+01 -0.17587728997E+03  0.18211878212E+03  0.00000000000E+00 0. -1.
         21    1    1    2  503  501  0.29656117627E+02  0.99338582656E+01 -0.55387659156E+02  0.63607858316E+02  0.00000000000E+00 0. -1.
         -2    1    1    2    0  502 -0.65261264327E+02  0.11162491099E+03 -0.35870617340E+02  0.13418589555E+03  0.00000000000E+00 0.  1.
<scales pt_clust_5="13000.00000" pt_clust_6="13000.00000" pt_clust_7="13000.00000" pt_clust_8="13000.00000" pt_clust_9="31.27566" pt_clust_10="107.50401"></scales>
<clustering>
<clus scale="   31.276">  2  9  1 -1</clus>
<clus scale="   79.671">  5  6 -1 -1</clus>
<clus scale="   92.298">  7  8 -1 -1</clus>
<clus scale="  113.614">  2  7  1 -1</clus>
<clus scale="  107.504">  1 10  2 -1</clus>
<clus scale="  107.504">  1  5  2 -1</clus>
</clustering>
</event>
<event>
10    4  0.2857708E-005  0.1083807E+03  0.7546771E-02  0.1265071E+00
         -1   -1    0    0    0  501 -0.00000000000E+00  0.00000000000E+00  0.25975899948E+03  0.25975899948E+03  0.00000000000E+00 0.  1.
         21   -1    0    0  503  502  0.00000000000E+00 -0.00000000000E+00 -0.11008459510E+03  0.11008459510E+03  0.00000000000E+00 0. -1.
         23    2    1    2    0    0  0.39183650440E+02  0.49569629423E+02  0.15141400185E+03  0.18790611502E+03  0.91596951263E+02 0.  0.
         24    2    1    2    0    0 -0.18711840536E+02 -0.42818411020E+02  0.14665900604E+02  0.10066007170E+03  0.87942095129E+02 0.  0.
        -13    1    4    4    0    0  0.28785404320E+02 -0.14584186942E+02  0.29206211122E+02  0.43523565786E+02  0.00000000000E+00 0.  1.
         14    1    4    4    0    0 -0.47497244855E+02 -0.28234224078E+02 -0.14540310518E+02  0.57136505914E+02  0.00000000000E+00 0. -1.
        -13    1    3    3    0    0  0.33867802260E+01 -0.25011486253E+02  0.57233440085E+02  0.62551669753E+02  0.00000000000E+00 0.  1.
         13    1    3    3    0    0  0.35796870214E+02  0.74581115676E+02  0.94180561768E+02  0.12535444526E+03  0.00000000000E+00 0. -1.
         21    1    1    2  503  501 -0.97149254575E+01 -0.30550497788E+02  0.19011996770E+02  0.37271553669E+02  0.00000000000E+00 0.  1.
         -2    1    1    2    0  502 -0.10756884446E+02  0.23799279385E+02 -0.35417494845E+02  0.44005854194E+02  0.00000000000E+00 0.  1.
<scales pt_clust_5="13000.00000" pt_clust_6="13000.00000" pt_clust_7="13000.00000" pt_clust_8="13000.00000" pt_clust_9="29.62523" pt_clust_10="26.11736"></scales>
<clustering>
<clus scale="   26.117">  2 10  1 -1</clus>
<clus scale="   29.625">  2  9  1 -1</clus>
<clus scale="   87.942">  5  6 -1 -1</clus>
<clus scale="   91.597">  7  8 -1 -1</clus>
<clus scale="  105.310">  2  5  1 -1</clus>
<clus scale="   26.117">  2  5  1 -1</clus>
</clustering>
</event>
<event>
10    4  0.2857708E-005  0.1164991E+03  0.7546771E-02  0.1254050E+00
          4   -1    0    0  503    0 -0.00000000000E+00  0.00000000000E+00  0.79037085111E+03  0.79037085111E+03  0.00000000000E+00 0. -1.
         21   -1    0    0  501  502  0.00000000000E+00 -0.00000000000E+00 -0.99112380138E+02  0.99112380138E+02  0.00000000000E+00 0. -1.
         23    2    1    2    0    0 -0.36976320098E+01 -0.63837303884E+02  0.53272222290E+03  0.54444952408E+03  0.92430750586E+02 0.  0.
         24    2    1    2    0    0 -0.29471591624E+02  0.26085589152E+02 -0.59187435793E+02  0.10542968429E+03  0.77866765046E+02 0.  0.
        -13    1    4    4    0    0 -0.26345322355E+02  0.45474315047E+02 -0.11417920986E+02  0.53780649481E+02  0.00000000000E+00 0.  1.
         14    1    4    4    0    0 -0.31262692696E+01 -0.19388725895E+02 -0.47769514807E+02  0.51649034805E+02  0.00000000000E+00 0. -1.
        -11    1    3    3    0    0  0.11278211053E+02  0.21841602077E+02  0.14712003872E+03  0.14915950998E+03  0.00000000000E+00 0.  1.
         11    1    3    3    0    0 -0.14975843063E+02 -0.85678905961E+02  0.38560218418E+03  0.39529001410E+03  0.00000000000E+00 0. -1.
         21    1    1    2  503  502  0.37884746670E+02 -0.56449414433E+01  0.17268709639E+03  0.17688400904E+03  0.00000000000E+00 0.  1.
          3    1    1    2  501    0 -0.47155230361E+01  0.43396656175E+02  0.45036587481E+02  0.62720013844E+02  0.00000000000E+00 0. -1.
<scales pt_clust_5="13000.00000" pt_clust_6="13000.00000" pt_clust_7="13000.00000" pt_clust_8="13000.00000" pt_clust_9="38.30299" pt_clust_10="42.92542"></scales>
<clustering>
<clus scale="   38.303">  1  9  2 -1</clus>
<clus scale="   42.925">  2 10  1 -1</clus>
<clus scale="   77.867">  5  6 -1 -1</clus>
<clus scale="   92.431">  7  8 -1 -1</clus>
<clus scale="  105.318">  2  5  1 -1</clus>
<clus scale="   42.925">  2  5  1 -1</clus>
</clustering>
</event>
<event>
10    4  0.2857708E-005  0.1355571E+03  0.7546771E-02  0.1221318E+00
          2   -1    0    0  502    0 -0.00000000000E+00  0.00000000000E+00  0.18131831854E+03  0.18131831854E+03  0.00000000000E+00 0. -1.
         21   -1    0    0  503  502  0.00000000000E+00 -0.00000000000E+00 -0.21419992858E+03  0.21419992858E+03  0.00000000000E+00 0. -1.
         24    2    1    2    0    0 -0.17327946143E+02  0.10037222561E+03  0.57719446104E+02  0.14234230343E+03  0.80962679637E+02 0.  0.
         23    2    1    2    0    0 -0.58520073289E+02 -0.10592121328E+03 -0.47862981156E+02  0.15775167132E+03  0.89167384389E+02 0.  0.
        -11    1    3    3    0    0 -0.32815938298E+02  0.29682810709E+02  0.54092432568E+02  0.69885236775E+02  0.00000000000E+00 0.  1.
         12    1    3    3    0    0  0.15487992155E+02  0.70689414905E+02  0.36270135364E+01  0.72457066652E+02  0.00000000000E+00 0. -1.
        -13    1    4    4    0    0 -0.84838411290E+01 -0.70898283598E+02 -0.62559455235E+02  0.94932753130E+02  0.00000000000E+00 0.  1.
         13    1    4    4    0    0 -0.50036232160E+02 -0.35022929685E+02  0.14696474080E+02  0.62818918193E+02  0.00000000000E+00 0. -1.
         21    1    1    2  503  501  0.24279188829E+02  0.14650554195E+02 -0.30503262457E+02  0.41648130437E+02  0.00000000000E+00 0. -1.
          1    1    1    2  501    0  0.51568830604E+02 -0.91015665260E+01 -0.12234812533E+02  0.53776141929E+02  0.00000000000E+00 0. -1.
<scales pt_clust_5="13000.00000" pt_clust_6="13000.00000" pt_clust_7="13000.00000" pt_clust_8="13000.00000" pt_clust_9="28.35697" pt_clust_10="56.43024"></scales>
<clustering>
<clus scale="   28.357">  2  9  1 -1</clus>
<clus scale="   56.430">  2 10  1 -1</clus>
<clus scale="   80.963">  5  6 -1 -1</clus>
<clus scale="   89.167">  7  8 -1 -1</clus>
<clus scale="  130.307">  1  5  2 -1</clus>
<clus scale="   28.357">  2  5  1 -1</clus>
</clustering>
</event>
<event>
10    4  0.2857708E-005  0.2652044E+03  0.7546771E-02  0.1140679E+00
          2   -1    0    0  503    0 -0.00000000000E+00  0.00000000000E+00  0.74509883419E+03  0.74509883419E+03  0.00000000000E+00 0. -1.
         21   -1    0    0  501  502  0.00000000000E+00 -0.00000000000E+00 -0.26187518850E+03  0.26187518850E+03  0.00000000000E+00 0. -1.
         23    2    1    2    0    0  0.60983700454E+02 -0.10690817675E+02  0.73860400369E+02  0.13316468675E+03  0.91892163703E+02 0.  0.
         24    2    1    2    0    0 -0.20632524518E+03  0.80831021226E+02  0.37113289993E+03  0.44052169250E+03  0.84946873757E+02 0.  0.
        -11    1    4    4    0    0 -0.91126807793E+02  0.79963094909E+02  0.20921182596E+03  0.24180111614E+03  0.00000000000E+00 0.  1.
         12    1    4    4    0    0 -0.11519843738E+03  0.86792631702E+00  0.16192107398E+03  0.19872057636E+03  0.00000000000E+00 0. -1.
        -11    1    3    3    0    0  0.77367093109E+02  0.16452393190E+02  0.52339545497E+02  0.94846066659E+02  0.00000000000E+00 0. -1.
         11    1    3    3    0    0 -0.16383392655E+02 -0.27143210865E+02  0.21520854873E+02  0.38318620088E+02  0.00000000000E+00 0.  1.
         21    1    1    2  503  502 -0.61701621181E+02  0.86822341304E+02  0.12043393946E+03  0.16077793001E+03  0.00000000000E+00 0. -1.
          1    1    1    2  501    0  0.20704316590E+03 -0.15696254486E+03 -0.82203594075E+02  0.27250971343E+03  0.00000000000E+00 0. -1.
<scales pt_clust_5="13000.00000" pt_clust_6="13000.00000" pt_clust_7="13000.00000" pt_clust_8="13000.00000" pt_clust_9="106.51389" pt_clust_10="251.23180"></scales>
<clustering>
<clus scale="   84.947">  5  6 -1 -1</clus>
<clus scale="   91.892">  7  8 -1 -1</clus>
<clus scale="  106.514">  1  9  2 -1</clus>
<clus scale="  106.514">  1  7  2 -1</clus>
<clus scale="  251.232">  2 10  1 -1</clus>
<clus scale="  251.232">  2  5  1 -1</clus>
</clustering>
</event>
<event>
10    4  0.2857708E-005  0.1041521E+03  0.7546771E-02  0.1277044E+00
          2   -1    0    0  503    0 -0.00000000000E+00  0.00000000000E+00  0.81323821981E+03  0.81323821981E+03  0.00000000000E+00 0. -1.
         21   -1    0    0  501  502  0.00000000000E+00 -0.00000000000E+00 -0.48738119792E+03  0.48738119792E+03  0.00000000000E+00 0. -1.
         24    2    1    2    0    0 -0.36657961145E+02 -0.21869847758E+02  0.59731167127E+03  0.60409741909E+03  0.79563576855E+02 0.  0.
         23    2    1    2    0    0  0.89141006241E+02  0.72973213072E+02  0.44170157329E+02  0.15340033362E+03  0.91156188699E+02 0.  0.
        -13    1    3    3    0    0 -0.22334160673E+02  0.12894244250E+02  0.57980121430E+02  0.63456841623E+02  0.00000000000E+00 0.  1.
         14    1    3    3    0    0 -0.14323800473E+02 -0.34764092009E+02  0.53933154984E+03  0.54064057747E+03  0.00000000000E+00 0. -1.
        -11    1    4    4    0    0  0.46237186499E+02  0.89465546431E+02  0.34298568959E+02  0.10638774951E+03  0.00000000000E+00 0.  1.
         11    1    4    4    0    0  0.42903819742E+02 -0.16492333359E+02  0.98715883699E+01  0.47012584113E+02  0.00000000000E+00 0. -1.
         21    1    1    2  503  502  0.19467319673E+02 -0.21428196458E+02  0.10830450039E+03  0.11210713155E+03  0.00000000000E+00 0. -1.
          1    1    1    2  501    0 -0.71950364768E+02 -0.29675168856E+02 -0.42392930710E+03  0.43101453347E+03  0.00000000000E+00 0. -1.
<scales pt_clust_5="13000.00000" pt_clust_6="13000.00000" pt_clust_7="13000.00000" pt_clust_8="13000.00000" pt_clust_9="28.95072" pt_clust_10="77.78036"></scales>
<clustering>
<clus scale="   28.951">  1  9  2 -1</clus>
<clus scale="   77.780">  2 10  1 -1</clus>
<clus scale="   79.564">  5  6 -1 -1</clus>
<clus scale="   91.156">  7  8 -1 -1</clus>
<clus scale="   94.173">  1  5  2 -1</clus>
<clus scale="   77.780">  2  5  1 -1</clus>
</clustering>
</event>
<event>
10    4  0.2857708E-005  0.9431508E+02  0.7546771E-02  0.1298862E+00
          2   -1    0    0  503    0 -0.00000000000E+00  0.00000000000E+00  0.51575152963E+03  0.51575152963E+03  0.00000000000E+00 0. -1.
         21   -1    0    0  501  502  0.00000000000E+00 -0.00000000000E+00 -0.11054614635E+03  0.11054614635E+03  0.00000000000E+00 0.  1.
         23    2    1    2    0    0  0.11619466702E+02  0.12609342920E+02  0.18756945880E+03  0.20944225310E+03  0.91595567444E+02 0.  0.
         24    2    1    2    0    0  0.83989179415E+02  0.23502464801E+02 -0.39645349407E+02  0.12552388657E+03  0.81104526747E+02 0.  0.
        -13    1    4    4    0    0  0.72286890441E+02  0.48953763061E+02 -0.42986883473E+02  0.97312576773E+02  0.00000000000E+00 0.  1.
         14    1    4    4    0    0  0.11702288974E+02 -0.25451298260E+02  0.33415340662E+01  0.28211309794E+02  0.00000000000E+00 0. -1.
        -11    1    3    3    0    0  0.28417039655E+02 -0.31352897924E+02  0.59602912875E+02  0.73096098215E+02  0.00000000000E+00 0.  1.
         11    1    3    3    0    0 -0.16797572953E+02  0.43962240844E+02  0.12796654592E+03  0.13634615489E+03  0.00000000000E+00 0. -1.
         21    1    1    2  503  502 -0.50235230274E+02 -0.15690866622E+02  0.34191218337E+02  0.62760027624E+02  0.00000000000E+00 0. -1.
          1    1    1    2  501    0 -0.45373415843E+02 -0.20420941099E+02  0.22309005555E+03  0.22857150869E+03  0.00000000000E+00 0. -1.
<scales pt_clust_5="13000.00000" pt_clust_6="13000.00000" pt_clust_7="13000.00000" pt_clust_8="13000.00000" pt_clust_9="59.17935" pt_clust_10="49.75705"></scales>
<clustering>
<clus scale="   49.757">  2 10  1 -1</clus>
<clus scale="   59.179">  1  9  2 -1</clus>
<clus scale="   81.105">  5  6 -1 -1</clus>
<clus scale="   84.164">  2  5  1 -1</clus>
<clus scale="   91.596">  7  8 -1 -1</clus>
<clus scale="   49.757">  2  5  1 -1</clus>
</clustering>
</event>
<event>
10    4  0.2857708E-005  0.2101240E+03  0.7546771E-02  0.1165645E+00
         -1   -1    0    0    0  501 -0.00000000000E+00  0.00000000000E+00  0.74753897775E+03  0.74753897775E+03  0.00000000000E+00 0.  1.
         21   -1    0    0  503  502  0.00000000000E+00 -0.00000000000E+00 -0.38731999756E+03  0.38731999756E+03  0.00000000000E+00 0. -1.
         23    2    1    2    0    0 -0.71902035910E+02  0.31626279080E+02  0.62612300986E+02  0.13438948006E+03  0.89275460348E+02 0.  0.
         24    2    1    2    0    0  0.91495647335E+02  0.16234193783E+03 -0.23982065944E+03  0.31434953587E+03  0.81088369988E+02 0.  0.
        -11    1    4    4    0    0 -0.22524747987E+01  0.57162884992E+02 -0.39811320627E+02  0.69696558835E+02  0.00000000000E+00 0.  1.
         12    1    4    4    0    0  0.93748122134E+02  0.10517905284E+03 -0.20000933881E+03  0.24465297703E+03  0.00000000000E+00 0. -1.
        -13    1    3    3    0    0  0.49452618871E+01  0.32498996836E+02  0.44684567824E+02  0.55473876844E+02  0.00000000000E+00 0.  1.
         13    1    3    3    0    0 -0.76847297797E+02 -0.87271775622E+00  0.17927733162E+02  0.78915603218E+02  0.00000000000E+00 0. -1.
         21    1    1    2  503  501  0.14715448843E+03  0.27043702232E+02  0.18321020646E+03  0.23654129670E+03  0.00000000000E+00 0. -1.
         -2    1    1    2    0  502 -0.16674809985E+03 -0.22101191914E+03  0.35421713217E+03  0.44957866268E+03  0.00000000000E+00 0.  1.
<scales pt_clust_5="13000.00000" pt_clust_6="13000.00000" pt_clust_7="13000.00000" pt_clust_8="13000.00000" pt_clust_9="129.38808" pt_clust_10="193.84742"></scales>
<clustering>
<clus scale="   81.088">  5  6 -1 -1</clus>
<clus scale="   89.275">  7  8 -1 -1</clus>
<clus scale="  118.913">  1  7  2 -1</clus>
<clus scale="  129.388">  1  9  2 -1</clus>
<clus scale="  193.847">  2 10  1 -1</clus>
<clus scale="  193.847">  2  5  1 -1</clus>
</clustering>
</event>
<event>
10    4  0.2857708E-005  0.1706704E+03  0.7546771E-02  0.1180215E+00
         21   -1    0    0  503  502  0.00000000000E+00  0.00000000000E+00  0.59480426364E+03  0.59480426364E+03  0.00000000000E+00 0.  1.
         -3   -1    0    0    0  501 -0.00000000000E+00 -0.00000000000E+00 -0.50616660358E+03  0.50616660358E+03  0.00000000000E+00 0.  1.
         23    2    1    2    0    0  0.25328256656E+02 -0.10434300843E+03 -0.29684816296E+03  0.33096315504E+03  0.99442416250E+02 0.  0.
         24    2    1    2    0    0  0.97408036582E+02  0.23201701716E+03  0.16611240474E+03  0.31152166330E+03  0.78308325589E+02 0.  0.
        -11    1    4    4    0    0  0.11002836405E+03  0.19273437467E+03  0.13409095110E+03  0.25929358504E+03  0.00000000000E+00 0.  1.
         12    1    4    4    0    0 -0.12620327463E+02  0.39282642484E+02  0.32021453649E+02  0.52228078268E+02  0.00000000000E+00 0. -1.
        -11    1    3    3    0    0 -0.15077530012E+02 -0.32963052752E+02 -0.18330762726E+02  0.40619104127E+02  0.00000000000E+00 0. -1.
         11    1    3    3    0    0  0.40405786668E+02 -0.71379955682E+02 -0.27851740023E+03  0.29034405092E+03  0.00000000000E+00 0.  1.
         21    1    1    2  503  501 -0.20596531970E+02 -0.31699314843E+02 -0.10151464424E+03  0.10832491258E+03  0.00000000000E+00 0. -1.
         -4    1    1    2    0  502 -0.10213976127E+03 -0.95974693879E+02  0.32088806252E+03  0.35016113628E+03  0.00000000000E+00 0.  1.
<scales pt_clust_5="13000.00000" pt_clust_6="13000.00000" pt_clust_7="13000.00000" pt_clust_8="13000.00000" pt_clust_9="37.80296" pt_clust_10="141.49561"></scales>
<clustering>
<clus scale="   37.803">  2  9  1 -1</clus>
<clus scale="   78.308">  5  6 -1 -1</clus>
<clus scale="   99.442">  7  8 -1 -1</clus>
<clus scale="  141.496">  1 10  2 -1</clus>
<clus scale="  159.285">  1  5  2 -1</clus>
<clus scale="  141.496">  1  5  2 -1</clus>
</clustering>
</event>
<event>
10    4  0.2857708E-005  0.1165210E+03  0.7546771E-02  0.1252457E+00
         21   -1    0    0  501  502  0.00000000000E+00  0.00000000000E+00  0.16914746829E+03  0.16914746829E+03  0.00000000000E+00 0. -1.
          2   -1    0    0  503    0 -0.00000000000E+00 -0.00000000000E+00 -0.32876882903E+03  0.32876882903E+03  0.00000000000E+00 0. -1.
         24    2    1    2    0    0 -0.54127431850E+02 -0.29535412479E+02 -0.21591965195E+03  0.23868832616E+03  0.80924047598E+02 0.  0.
         23    2    1    2    0    0  0.72923761312E+02 -0.12945770046E+02 -0.25327352772E+02  0.12020513874E+03  0.91226819828E+02 0.  0.
        -11    1    3    3    0    0 -0.33824700835E+02 -0.16272132830E+02 -0.22516843228E+02  0.43771005499E+02  0.00000000000E+00 0.  1.
         12    1    3    3    0    0 -0.20302731015E+02 -0.13263279649E+02 -0.19340280872E+03  0.19491732066E+03  0.00000000000E+00 0. -1.
        -11    1    4    4    0    0  0.64187362199E+02  0.30017461460E+02 -0.28025680752E+01  0.70914877468E+02  0.00000000000E+00 0.  1.
         11    1    4    4    0    0  0.87363991133E+01 -0.42963231506E+02 -0.22524784697E+02  0.49290261275E+02  0.00000000000E+00 0. -1.
         21    1    1    2  503  502 -0.19325292483E+02 -0.15468216522E+02 -0.13077322775E+02  0.27995517907E+02  0.00000000000E+00 0.  1.
          1    1    1    2  501    0  0.52896302070E+00  0.57949399047E+02  0.94702966763E+02  0.11102731450E+03  0.00000000000E+00 0. -1.
<scales pt_clust_5="13000.00000" pt_clust_6="13000.00000" pt_clust_7="13000.00000" pt_clust_8="13000.00000" pt_clust_9="24.75344" pt_clust_10="57.53979"></scales>
<clustering>
<clus scale="   24.753">  2  9  1 -1</clus>
<clus scale="   57.540">  1 10  2 -1</clus>
<clus scale="   80.924">  5  6 -1 -1</clus>
<clus scale="   91.227">  7  8 -1 -1</clus>
<clus scale="  108.644">  2  5  1 -1</clus>
<clus scale="   57.540">  1  5  2 -1</clus>
</clustering>
</event>
<event>
10    4  0.2857708E-005  0.1650868E+03  0.7546771E-02  0.1184788E+00
          2   -1    0    0  503    0 -0.00000000000E+00  0.00000000000E+00  0.56826985679E+03  0.56826985679E+03  0.00000000000E+00 0. -1.
         21   -1    0    0  501  502  0.00000000000E+00 -0.00000000000E+00 -0.27590971412E+03  0.27590971412E+03  0.00000000000E+00 0. -1.
         23    2    1    2    0    0 -0.70703705196E+02  0.14560610528E+03  0.37459167797E+03  0.41738429912E+03  0.87695929922E+02 0.  0.
         24    2    1    2    0    0  0.17489722182E+02 -0.98021206828E+02 -0.42011492161E+02  0.13174971034E+03  0.75358963178E+02 0.  0.
        -11    1    4    4    0    0  0.45815636584E+02 -0.44140070287E+02 -0.16335021535E+02  0.65682960417E+02  0.00000000000E+00 0.  1.
         12    1    4    4    0    0 -0.28325914402E+02 -0.53881136541E+02 -0.25676470626E+02  0.66066749924E+02  0.00000000000E+00 0. -1.
        -13    1    3    3    0    0 -0.12923624711E+02  0.43169082750E+02  0.32275917279E+02  0.55428554170E+02  0.00000000000E+00 0.  1.
         13    1    3    3    0    0 -0.57780080485E+02  0.10243702253E+03  0.34231576069E+03  0.36195574495E+03  0.00000000000E+00 0. -1.
         21    1    1    2  503  502  0.21364114857E+02 -0.66173811670E+01  0.12235885263E+03  0.12438610837E+03  0.00000000000E+00 0.  1.
          1    1    1    2  501    0  0.31849868156E+02 -0.40967517284E+02 -0.16257889577E+03  0.17065945308E+03  0.00000000000E+00 0. -1.
<scales pt_clust_5="13000.00000" pt_clust_6="13000.00000" pt_clust_7="13000.00000" pt_clust_8="13000.00000" pt_clust_9="22.36549" pt_clust_10="52.05838"></scales>
<clustering>
<clus scale="   22.365">  1  9  2 -1</clus>
<clus scale="   52.058">  2 10  1 -1</clus>
<clus scale="   75.359">  5  6 -1 -1</clus>
<clus scale="   87.696">  7  8 -1 -1</clus>
<clus scale="  158.877">  2  5  1 -1</clus>
<clus scale="   52.058">  2  5  1 -1</clus>
</clustering>
</event>
<event>
10    4  0.2857708E-005  0.1752155E+03  0.7546771E-02  0.1196552E+00
          2   -1    0    0  503    0 -0.00000000000E+00  0.00000000000E+00  0.25697873083E+03  0.25697873083E+03  0.00000000000E+00 0. -1.
         21   -1    0    0  501  502  0.00000000000E+00 -0.00000000000E+00 -0.31031198457E+03  0.31031198457E+03  0.00000000000E+00 0. -1.
         24    2    1    2    0    0  0.38831192490E+02 -0.44355449207E+02 -0.71359271804E+02  0.12423442293E+03  0.82866029134E+02 0.  0.
         23    2    1    2    0    0 -0.14983160837E+03  0.14172783589E+03  0.85389721843E+02  0.24155396760E+03  0.92307227957E+02 0.  0.
        -11    1    3    3    0    0  0.35098292325E+02  0.16347013908E+02 -0.15659930578E+02  0.41765397323E+02  0.00000000000E+00 0.  1.
         12    1    3    3    0    0  0.37329001642E+01 -0.60702463115E+02 -0.55699341226E+02  0.82469025609E+02  0.00000000000E+00 0. -1.
        -13    1    4    4    0    0 -0.89771080657E+02  0.85275628944E+02  0.98336985819E+02  0.15811686372E+03  0.00000000000E+00 0. -1.
         13    1    4    4    0    0 -0.60060527713E+02  0.56452206947E+02 -0.12947263977E+02  0.83437103874E+02  0.00000000000E+00 0.  1.
         21    1    1    2  503  502  0.32769661882E+02  0.14414978131E+02  0.18493553064E+02  0.40294588214E+02  0.00000000000E+00 0.  1.
          1    1    1    2  501    0  0.78230753998E+02 -0.11178736481E+03 -0.85857256847E+02  0.16120773665E+03  0.00000000000E+00 0. -1.
<scales pt_clust_5="13000.00000" pt_clust_6="13000.00000" pt_clust_7="13000.00000" pt_clust_8="13000.00000" pt_clust_9="35.80003" pt_clust_10="148.92903"></scales>
<clustering>
<clus scale="   35.800">  1  9  2 -1</clus>
<clus scale="   82.866">  5  6 -1 -1</clus>
<clus scale="   92.307">  7  8 -1 -1</clus>
<clus scale="  102.501">  1  5  2 -1</clus>
<clus scale="  148.929">  2 10  1 -1</clus>
<clus scale="  148.929">  2  5  1 -1</clus>
</clustering>
</event>
<event>
10    4  0.2857708E-005  0.1797189E+03  0.7546771E-02  0.1170923E+00
          2   -1    0    0  503    0 -0.00000000000E+00  0.00000000000E+00  0.52437396989E+03  0.52437396989E+03  0.00000000000E+00 0. -1.
         21   -1    0    0  501  502  0.00000000000E+00 -0.00000000000E+00 -0.10389181003E+03  0.10389181003E+03  0.00000000000E+00 0. -1.
         23    2    1    2    0    0 -0.14038134223E+03  0.11625671236E+02  0.15832448722E+03  0.23515606416E+03  0.10192965113E+03 0.  0.
         24    2    1    2    0    0  0.14499941343E+03 -0.37447222616E+02  0.58611173947E+02  0.17973325307E+03  0.80259878965E+02 0.  0.
        -11    1    4    4    0    0  0.41728250109E+02  0.13246199673E+02  0.46801015228E+02  0.64086220745E+02  0.00000000000E+00 0.  1.
         12    1    4    4    0    0  0.10327116332E+03 -0.50693422289E+02  0.11810158719E+02  0.11564703232E+03  0.00000000000E+00 0. -1.
        -13    1    3    3    0    0 -0.77596633484E+02 -0.36707770175E+01  0.15139784668E+03  0.17016468526E+03  0.00000000000E+00 0.  1.
         13    1    3    3    0    0 -0.62784708748E+02  0.15296448253E+02  0.69266405414E+01  0.64991378897E+02  0.00000000000E+00 0. -1.
         21    1    1    2  503  502 -0.22490798218E+02  0.62227529033E+01  0.16465878424E+03  0.16630416076E+03  0.00000000000E+00 0.  1.
          1    1    1    2  501    0  0.17872727023E+02  0.19598798477E+02  0.38887714460E+02  0.47072301929E+02  0.00000000000E+00 0. -1.
<scales pt_clust_5="13000.00000" pt_clust_6="13000.00000" pt_clust_7="13000.00000" pt_clust_8="13000.00000" pt_clust_9="23.33578" pt_clust_10="25.38288"></scales>
<clustering>
<clus scale="   23.336">  1  9  2 -1</clus>
<clus scale="   25.383">  2 10  1 -1</clus>
<clus scale="   80.260">  5  6 -1 -1</clus>
<clus scale="  101.930">  7  8 -1 -1</clus>
<clus scale="  168.377">  2  5  1 -1</clus>
<clus scale="   25.383">  2  5  1 -1</clus>
</clustering>
</event>
<event>
10    4  0.2857708E-005  0.9071697E+02  0.7546771E-02  0.1306498E+00
         21   -1    0    0  503  502  0.00000000000E+00  0.00000000000E+00  0.11382264831E+03  0.11382264831E+03  0.00000000000E+00 0. -1.
         -1   -1    0    0    0  501 -0.00000000000E+00 -0.00000000000E+00 -0.43021776402E+03  0.43021776402E+03  0.00000000000E+00 0.  1.
         24    2    1    2    0    0 -0.10580030778E+01  0.23619184585E+02 -0.36232188492E+03  0.37171437657E+03  0.79595503681E+02 0.  0.
         23    2    1    2    0    0 -0.10222303332E+02 -0.22341642557E+02  0.60152547331E+02  0.10967505198E+03  0.88355212632E+02 0.  0.
        -13    1    3    3    0    0 -0.19365241515E+02  0.48040513651E+02 -0.20366203006E+03  0.21014548775E+03  0.00000000000E+00 0.  1.
         14    1    3    3    0    0  0.18307238438E+02 -0.24421329067E+02 -0.15865985486E+03  0.16156888882E+03  0.00000000000E+00 0. -1.
        -11    1    4    4    0    0 -0.22817162785E+02  0.11748904303E+02 -0.12419638469E+02  0.28511525557E+02  0.00000000000E+00 0.  1.
         11    1    4    4    0    0  0.12594859453E+02 -0.34090546861E+02  0.72572185800E+02  0.81163526424E+02  0.00000000000E+00 0. -1.
         21    1    1    2  503  501 -0.17737615857E+02 -0.10987038588E+02 -0.22767406774E+02  0.30881917758E+02  0.00000000000E+00 0. -1.
         -2    1    1    2    0  502  0.29017922267E+02  0.97094965605E+01  0.85416286527E+01  0.31769066027E+02  0.00000000000E+00 0.  1.
<scales pt_clust_5="13000.00000" pt_clust_6="13000.00000" pt_clust_7="13000.00000" pt_clust_8="13000.00000" pt_clust_9="20.86476" pt_clust_10="30.01492"></scales>
<clustering>
<clus scale="   20.865">  2  9  1 -1</clus>
<clus scale="   30.015">  1 10  2 -1</clus>
<clus scale="   79.596">  5  6 -1 -1</clus>
<clus scale="   82.209">  2  5  1 -1</clus>
<clus scale="   88.355">  7  8 -1 -1</clus>
<clus scale="   30.015">  1  5  2 -1</clus>
</clustering>
</event>
<event>
10    4  0.2857708E-005  0.1071915E+03  0.7546771E-02  0.1270061E+00
         21   -1    0    0  501  502  0.00000000000E+00  0.00000000000E+00  0.82139452709E+02  0.82139452709E+02  0.00000000000E+00 0.  1.
          2   -1    0    0  503    0 -0.00000000000E+00 -0.00000000000E+00 -0.11483755521E+04  0.11483755521E+04  0.00000000000E+00 0. -1.
         24    2    1    2    0    0 -0.60074694380E+02  0.92386364095E+01 -0.37540774373E+03  0.38883412783E+03  0.81035076390E+02 0.  0.
         23    2    1    2    0    0  0.12062383702E+03 -0.43458661230E+02 -0.19328440584E+02  0.15845196579E+03  0.91075087451E+02 0.  0.
        -11    1    3    3    0    0 -0.58327608809E+02  0.34039471881E+02 -0.18755183544E+03  0.19934012785E+03  0.00000000000E+00 0.  1.
         12    1    3    3    0    0 -0.17470855704E+01 -0.24800835471E+02 -0.18785590829E+03  0.18949399998E+03  0.00000000000E+00 0. -1.
        -11    1    4    4    0    0  0.22988660362E+02 -0.40442895769E+02  0.23116703806E+02  0.51946976026E+02  0.00000000000E+00 0.  1.
         11    1    4    4    0    0  0.97635176660E+02 -0.30157654614E+01 -0.42445144391E+02  0.10650498977E+03  0.00000000000E+00 0. -1.
         21    1    1    2  503  502  0.26154813251E+02 -0.10375974875E+02 -0.17475033812E+03  0.17700117452E+03  0.00000000000E+00 0. -1.
          1    1    1    2  501    0 -0.86703955893E+02  0.44595999696E+02 -0.49674957696E+03  0.50622773666E+03  0.00000000000E+00 0. -1.
<scales pt_clust_5="13000.00000" pt_clust_6="13000.00000" pt_clust_7="13000.00000" pt_clust_8="13000.00000" pt_clust_9="28.13779" pt_clust_10="83.07164"></scales>
<clustering>
<clus scale="   28.138">  2  9  1 -1</clus>
<clus scale="   81.035">  5  6 -1 -1</clus>
<clus scale="   83.072">  1 10  2 -1</clus>
<clus scale="   91.075">  7  8 -1 -1</clus>
<clus scale="   98.803">  2  5  1 -1</clus>
<clus scale="   83.072">  1  5  2 -1</clus>
</clustering>
</event>
<event>
10    4  0.2857708E-005  0.1019291E+03  0.7546771E-02  0.1287313E+00
         21   -1    0    0  501  502  0.00000000000E+00  0.00000000000E+00  0.62678807574E+02  0.62678807574E+02  0.00000000000E+00 0. -1.
          2   -1    0    0  503    0 -0.00000000000E+00 -0.00000000000E+00 -0.80003477771E+03  0.80003477771E+03  0.00000000000E+00 0. -1.
         24    2    1    2    0    0 -0.45329685857E+01 -0.44558552690E+02 -0.33161988099E+03  0.34418675784E+03  0.80540464255E+02 0.  0.
         23    2    1    2    0    0 -0.52828690544E+02 -0.86887207503E+01 -0.21050242957E+03  0.23919886962E+03  0.10019212524E+03 0.  0.
        -11    1    3    3    0    0  0.14647850735E+02 -0.63470172227E+02 -0.22789090888E+03  0.23701748595E+03  0.00000000000E+00 0.  1.
         12    1    3    3    0    0 -0.19180819321E+02  0.18911619538E+02 -0.10372897211E+03  0.10716927189E+03  0.00000000000E+00 0. -1.
        -11    1    4    4    0    0  0.59228685485E+01  0.19528622582E+02 -0.17196354626E+01  0.20479370545E+02  0.00000000000E+00 0.  1.
         11    1    4    4    0    0 -0.58751559093E+02 -0.28217343332E+02 -0.20878279411E+03  0.21871949908E+03  0.00000000000E+00 0. -1.
         21    1    1    2  503  502 -0.55671836501E+01  0.49189051717E+02 -0.20900055731E+03  0.21478312154E+03  0.00000000000E+00 0. -1.
          1    1    1    2  501    0  0.62928842780E+02  0.40582217229E+01  0.13766897738E+02  0.64544836281E+02  0.00000000000E+00 0. -1.
<scales pt_clust_5="13000.00000" pt_clust_6="13000.00000" pt_clust_7="13000.00000" pt_clust_8="13000.00000" pt_clust_9="49.50309" pt_clust_10="62.99256"></scales>
<clustering>
<clus scale="   49.503">  2  9  1 -1</clus>
<clus scale="   62.993">  1 10  2 -1</clus>
<clus scale="   80.540">  5  6 -1 -1</clus>
<clus scale="   82.691">  2  5  1 -1</clus>
<clus scale="  100.192">  7  8 -1 -1</clus>
<clus scale="   62.993">  1  5  2 -1</clus>
</clustering>
</event>
<event>
10    4  0.2857708E-005  0.3542406E+03  0.7546771E-02  0.1090882E+00
         21   -1    0    0  501  502  0.00000000000E+00  0.00000000000E+00  0.10238178564E+03  0.10238178564E+03  0.00000000000E+00 0. -1.
          2   -1    0    0  503    0 -0.00000000000E+00 -0.00000000000E+00 -0.28615670328E+04  0.28615670328E+04  0.00000000000E+00 0. -1.
         23    2    1    2    0    0 -0.28017812105E+03 -0.22243530924E+03 -0.11806653024E+04  0.12368837835E+04  0.89071270799E+02 0.  0.
         24    2    1    2    0    0 -0.12923184811E+03  0.95851279520E+02 -0.31096911531E+03  0.35910119793E+03  0.79771807870E+02 0.  0.
        -13    1    4    4    0    0 -0.29848200361E+02  0.18069922326E+02 -0.16234407918E+02  0.38483673917E+02  0.00000000000E+00 0.  1.
         14    1    4    4    0    0 -0.99383647744E+02  0.77781357194E+02 -0.29473470739E+03  0.32061752402E+03  0.00000000000E+00 0. -1.
        -13    1    3    3    0    0 -0.54114795905E+02 -0.36081323290E+02 -0.35187468037E+03  0.35783524661E+03  0.00000000000E+00 0.  1.
         13    1    3    3    0    0 -0.22606332514E+03 -0.18635398595E+03 -0.82879062204E+03  0.87904853690E+03  0.00000000000E+00 0. -1.
         21    1    1    2  503  502  0.26342840667E+03  0.18405203395E+03 -0.58336601914E+03  0.66602221354E+03  0.00000000000E+00 0.  1.
          1    1    1    2  501    0  0.14598156249E+03 -0.57468004234E+02 -0.68418481033E+03  0.70194162349E+03  0.00000000000E+00 0. -1.
<scales pt_clust_5="13000.00000" pt_clust_6="13000.00000" pt_clust_7="13000.00000" pt_clust_8="13000.00000" pt_clust_9="342.85959" pt_clust_10="156.88599"></scales>
<clustering>
<clus scale="   79.772">  5  6 -1 -1</clus>
<clus scale="   89.071">  7  8 -1 -1</clus>
<clus scale="  156.886">  1 10  2 -1</clus>
<clus scale="  156.886">  1  5  2 -1</clus>
<clus scale="  342.860">  1  9  2 -1</clus>
<clus scale="  156.886">  1  5  2 -1</clus>
</clustering>
</event>
<event>
10    4  0.2857708E-005  0.3282347E+03  0.7546771E-02  0.1072237E+00
         21   -1    0    0  503  502  0.00000000000E+00  0.00000000000E+00  0.52134971850E+03  0.52134971850E+03  0.00000000000E+00 0.  1.
         -1   -1    0    0    0  501 -0.00000000000E+00 -0.00000000000E+00 -0.32149897152E+03  0.32149897152E+03  0.00000000000E+00 0.  1.
         24    2    1    2    0    0  0.27658019657E+03  0.42424866690E+02  0.89326815251E+02  0.30464717411E+03  0.80834066602E+02 0.  0.
         23    2    1    2    0    0 -0.35597360465E+03 -0.17361050633E+02  0.10751281704E+03  0.38335072071E+03  0.91543191744E+02 0.  0.
        -11    1    3    3    0    0  0.21702724524E+03  0.65092840457E+02  0.79784430289E+02  0.24021544158E+03  0.00000000000E+00 0.  1.
         12    1    3    3    0    0  0.59552951332E+02 -0.22667973767E+02  0.95423849620E+01  0.64431732538E+02  0.00000000000E+00 0. -1.
        -13    1    4    4    0    0 -0.55820180519E+02 -0.14712976026E+02  0.52816574165E+02  0.78242921234E+02  0.00000000000E+00 0. -1.
         13    1    4    4    0    0 -0.30015342413E+03 -0.26480746070E+01  0.54696242875E+02  0.30510779948E+03  0.00000000000E+00 0.  1.
         21    1    1    2  503  501  0.25316720444E+02  0.14256852465E+02 -0.57659345880E+02  0.64566201248E+02  0.00000000000E+00 0. -1.
         -2    1    1    2    0  502  0.54076687636E+02 -0.39320668522E+02  0.60670460566E+02  0.90284593946E+02  0.00000000000E+00 0.  1.
<scales pt_clust_5="13000.00000" pt_clust_6="13000.00000" pt_clust_7="13000.00000" pt_clust_8="13000.00000" pt_clust_9="29.05502" pt_clust_10="67.56538"></scales>
<clustering>
<clus scale="   29.055">  2  9  1 -1</clus>
<clus scale="   67.565">  1 10  2 -1</clus>
<clus scale="   80.834">  5  6 -1 -1</clus>
<clus scale="   91.543">  7  8 -1 -1</clus>
<clus scale="  325.411">  2  5  1 -1</clus>
<clus scale="   67.565">  1  5  2 -1</clus>
</clustering>
</event>
<event>
10    4  0.2857708E-005  0.3222354E+03  0.7546771E-02  0.1100320E+00
          2   -1    0    0  503    0 -0.00000000000E+00  0.00000000000E+00  0.86981702415E+03  0.86981702415E+03  0.00000000000E+00 0. -1.
         21   -1    0    0  501  502  0.00000000000E+00 -0.00000000000E+00 -0.38105283709E+03  0.38105283709E+03  0.00000000000E+00 0.  1.
         24    2    1    2    0    0  0.48051094914E+02  0.12820236860E+03  0.11148882396E+03  0.19377236671E+03  0.79832431991E+02 0.  0.
         23    2    1    2    0    0  0.15708151700E+03  0.12450789667E+03  0.54695406962E+03  0.58952016795E+03  0.90545319184E+02 0.  0.
        -11    1    3    3    0    0 -0.79820141070E+01  0.78835305010E+02  0.80391308048E+02  0.11287816563E+03  0.00000000000E+00 0.  1.
         12    1    3    3    0    0  0.56033109021E+02  0.49367063592E+02  0.31097515907E+02  0.80894201089E+02  0.00000000000E+00 0. -1.
        -13    1    4    4    0    0  0.49074713026E+02  0.28223242050E+02  0.28204920277E+03  0.28767452378E+03  0.00000000000E+00 0. -1.
         13    1    4    4    0    0  0.10800680398E+03  0.96284654621E+02  0.26490486685E+03  0.30184564417E+03  0.00000000000E+00 0.  1.
         21    1    1    2  503  502 -0.22628026639E+03 -0.28202674892E+03 -0.79213669511E+02  0.37015760360E+03  0.00000000000E+00 0.  1.
          1    1    1    2  501    0  0.21147654472E+02  0.29316483651E+02 -0.90465037010E+02  0.97419722975E+02  0.00000000000E+00 0. -1.
<scales pt_clust_5="13000.00000" pt_clust_6="13000.00000" pt_clust_7="13000.00000" pt_clust_8="13000.00000" pt_clust_9="309.25269" pt_clust_10="36.14802"></scales>
<clustering>
<clus scale="   36.148">  2 10  1 -1</clus>
<clus scale="   79.832">  5  6 -1 -1</clus>
<clus scale="   90.545">  7  8 -1 -1</clus>
<clus scale="  162.829">  1  5  2 -1</clus>
<clus scale="  309.253">  2  9  1 -1</clus>
<clus scale="   36.148">  2  5  1 -1</clus>
</clustering>
</event>
<event>
10    4  0.2857708E-005  0.1849540E+03  0.7546771E-02  0.1163776E+00
          2   -1    0    0  503    0 -0.00000000000E+00  0.00000000000E+00  0.43526290360E+03  0.43526290360E+03  0.00000000000E+00 0. -1.
         21   -1    0    0  501  502  0.00000000000E+00 -0.00000000000E+00 -0.29218991023E+03  0.29218991023E+03  0.00000000000E+00 0. -1.
         24    2    1    2    0    0 -0.13220643023E+03 -0.12639274151E+03  0.25700443941E+03  0.32584018036E+03  0.81650939738E+02 0.  0.
         23    2    1    2    0    0  0.10922531715E+03  0.95104183347E+02 -0.13458653865E+03  0.21637952229E+03  0.87929435826E+02 0.  0.
        -13    1    3    3    0    0 -0.24894817830E+02  0.78220909678E+01  0.18979925647E+02  0.32267237865E+02  0.00000000000E+00 0.  1.
         14    1    3    3    0    0 -0.10731161240E+03 -0.13421483248E+03  0.23802451376E+03  0.29357294249E+03  0.00000000000E+00 0. -1.
        -13    1    4    4    0    0  0.83745658056E+02  0.10623101437E+03 -0.85682406800E+02  0.16012444689E+03  0.00000000000E+00 0. -1.
         13    1    4    4    0    0  0.25479659093E+02 -0.11126831025E+02 -0.48904131846E+02  0.56255075396E+02  0.00000000000E+00 0.  1.
         21    1    1    2  503  502 -0.22275159260E+02  0.63521812035E+02  0.79588377595E+02  0.10423777229E+03  0.00000000000E+00 0.  1.
          1    1    1    2  501    0  0.45256272339E+02 -0.32233253872E+02 -0.58933284992E+02  0.80995338886E+02  0.00000000000E+00 0. -1.
<scales pt_clust_5="13000.00000" pt_clust_6="13000.00000" pt_clust_7="13000.00000" pt_clust_8="13000.00000" pt_clust_9="64.82106" pt_clust_10="55.56179"></scales>
<clustering>
<clus scale="   55.562">  2 10  1 -1</clus>
<clus scale="   64.821">  1  9  2 -1</clus>
<clus scale="   81.651">  5  6 -1 -1</clus>
<clus scale="   87.929">  7  8 -1 -1</clus>
<clus scale="  182.053">  1  5  2 -1</clus>
<clus scale="   55.562">  2  5  1 -1</clus>
</clustering>
</event>
<event>
10    4  0.2857708E-005  0.9794048E+02  0.7546771E-02  0.1289458E+00
          4   -1    0    0  503    0 -0.00000000000E+00  0.00000000000E+00  0.69895904197E+02  0.69895904197E+02  0.00000000000E+00 0. -1.
         21   -1    0    0  501  502  0.00000000000E+00 -0.00000000000E+00 -0.40639745928E+03  0.40639745928E+03  0.00000000000E+00 0.  1.
         24    2    1    2    0    0  0.44342615443E+02 -0.60771734948E+01 -0.24119424938E+02  0.94421346539E+02  0.79564090147E+02 0.  0.
         23    2    1    2    0    0 -0.28139095235E+01  0.29443938574E+02 -0.23501038523E+03  0.25300510696E+03  0.88920410360E+02 0.  0.
        -11    1    3    3    0    0  0.23560955621E+02  0.35151195781E+02 -0.23163012639E+02  0.48241583195E+02  0.00000000000E+00 0.  1.
         12    1    3    3    0    0  0.20781659822E+02 -0.41228369276E+02 -0.95641229969E+00  0.46179763345E+02  0.00000000000E+00 0. -1.
        -11    1    4    4    0    0  0.38153129067E+02  0.35565033463E+02 -0.13757207352E+03  0.14712786369E+03  0.00000000000E+00 0. -1.
         11    1    4    4    0    0 -0.40967038591E+02 -0.61210948884E+01 -0.97438311708E+02  0.10587724327E+03  0.00000000000E+00 0.  1.
         21    1    1    2  503  502  0.13889149243E+02  0.20591406486E+02 -0.11268157947E+01  0.24863310351E+02  0.00000000000E+00 0.  1.
          3    1    1    2  501    0 -0.55417855163E+02 -0.43958171565E+02 -0.76244929126E+02  0.10400359963E+03  0.00000000000E+00 0. -1.
<scales pt_clust_5="13000.00000" pt_clust_6="13000.00000" pt_clust_7="13000.00000" pt_clust_8="13000.00000" pt_clust_9="24.83776" pt_clust_10="65.09648"></scales>
<clustering>
<clus scale="   24.838">  1  9  2 -1</clus>
<clus scale="   65.096">  2 10  1 -1</clus>
<clus scale="   79.564">  5  6 -1 -1</clus>
<clus scale="   88.920">  7  8 -1 -1</clus>
<clus scale="   89.532">  1  5  2 -1</clus>
<clus scale="   65.096">  2  5  1 -1</clus>
</clustering>
</event>
<event>
10    4  0.2857708E-005  0.9860775E+02  0.7546771E-02  0.1290126E+00
          2   -1    0    0  503    0 -0.00000000000E+00  0.00000000000E+00  0.21299543735E+03  0.21299543735E+03  0.00000000000E+00 0. -1.
         21   -1    0    0  501  502  0.00000000000E+00 -0.00000000000E+00 -0.29423874760E+03  0.29423874760E+03  0.00000000000E+00 0. -1.
         23    2    1    2    0    0  0.42391519396E+02 -0.60735797701E+00  0.96338925897E+02  0.13981448094E+03  0.92029835585E+02 0.  0.
         24    2    1    2    0    0 -0.55572230650E+01  0.19903877696E+02 -0.69784937227E+02  0.10746474840E+03  0.79067614168E+02 0.  0.
        -11    1    4    4    0    0 -0.37327963155E+02 -0.84019487069E+01 -0.41069051376E+02  0.56130531410E+02  0.00000000000E+00 0.  1.
         12    1    4    4    0    0  0.31770740090E+02  0.28305826403E+02 -0.28715885850E+02  0.51334216994E+02  0.00000000000E+00 0. -1.
        -13    1    3    3    0    0  0.65585318231E+02 -0.21240302632E+02  0.76469510331E+02  0.10295712911E+03  0.00000000000E+00 0. -1.
         13    1    3    3    0    0 -0.23193798835E+02  0.20632944655E+02  0.19869415566E+02  0.36857351837E+02  0.00000000000E+00 0.  1.
         21    1    1    2  503  502 -0.61168894857E+02 -0.94421440197E+02  0.15470345039E+02  0.11356220165E+03  0.00000000000E+00 0. -1.
          1    1    1    2  501    0  0.24334598526E+02  0.75124920479E+02 -0.12326764396E+03  0.14639275395E+03  0.00000000000E+00 0. -1.
<scales pt_clust_5="13000.00000" pt_clust_6="13000.00000" pt_clust_7="13000.00000" pt_clust_8="13000.00000" pt_clust_9="89.25514" pt_clust_10="78.96788"></scales>
<clustering>
<clus scale="   78.968">  2 10  1 -1</clus>
<clus scale="   79.068">  5  6 -1 -1</clus>
<clus scale="   89.255">  2  9  1 -1</clus>
<clus scale="   86.635">  2  5  1 -1</clus>
<clus scale="   92.030">  7  8 -1 -1</clus>
<clus scale="   78.968">  2  5  1 -1</clus>
</clustering>
</event>
<event>
10    4  0.2857708E-005  0.1320906E+03  0.7546771E-02  0.1226155E+00
         -1   -1    0    0    0  501 -0.00000000000E+00  0.00000000000E+00  0.41731502635E+03  0.41731502635E+03  0.00000000000E+00 0.  1.
         21   -1    0    0  503  502  0.00000000000E+00 -0.00000000000E+00 -0.11114276690E+03  0.11114276690E+03  0.00000000000E+00 0. -1.
         24    2    1    2    0    0  0.70571865674E+02  0.55301334011E+02  0.14522280117E+03  0.18855260932E+03  0.80148604065E+02 0.  0.
         23    2    1    2    0    0 -0.10046475260E+03 -0.72299167695E+02 -0.18093911444E+02  0.15267641469E+03  0.87534917645E+02 0.  0.
        -13    1    3    3    0    0  0.83772447628E+02  0.47098735332E+02  0.91757200312E+02  0.13287399166E+03  0.00000000000E+00 0.  1.
         14    1    3    3    0    0 -0.13200581955E+02  0.82025986788E+01  0.53465600855E+02  0.55678617654E+02  0.00000000000E+00 0. -1.
        -13    1    4    4    0    0 -0.51818357243E+02  0.58830284042E+01 -0.29459253014E+02  0.59896575517E+02  0.00000000000E+00 0.  1.
         13    1    4    4    0    0 -0.48646395359E+02 -0.78182196099E+02  0.11365341569E+02  0.92779839175E+02  0.00000000000E+00 0. -1.
         21    1    1    2  503  501  0.16439468582E+02 -0.13023748882E+02  0.53993193528E+02  0.57923562645E+02  0.00000000000E+00 0.  1.
         -2    1    1    2    0  502  0.13453418346E+02  0.30021582566E+02  0.12505017620E+03  0.12930520660E+03  0.00000000000E+00 0.  1.
<scales pt_clust_5="13000.00000" pt_clust_6="13000.00000" pt_clust_7="13000.00000" pt_clust_8="13000.00000" pt_clust_9="20.97318" pt_clust_10="31.89415"></scales>
<clustering>
<clus scale="   20.973">  1  9  2 -1</clus>
<clus scale="   31.894">  2 10  1 -1</clus>
<clus scale="   80.149">  5  6 -1 -1</clus>
<clus scale="   87.535">  7  8 -1 -1</clus>
<clus scale="  127.316">  1  5  2 -1</clus>
<clus scale="   31.894">  2  5  1 -1</clus>
</clustering>
</event>
<event>
10    4  0.2857708E-005  0.1413385E+03  0.7546771E-02  0.1214332E+00
         21   -1    0    0  501  502  0.00000000000E+00  0.00000000000E+00  0.14242973004E+04  0.14242973004E+04  0.00000000000E+00 0.  1.
          2   -1    0    0  503    0 -0.00000000000E+00 -0.00000000000E+00 -0.37208703791E+02  0.37208703791E+02  0.00000000000E+00 0. -1.
         24    2    1    2    0    0 -0.66908258110E+02 -0.84658952546E+02  0.17472216088E+03  0.21967753249E+03  0.78016226055E+02 0.  0.
         23    2    1    2    0    0  0.10322243239E+03  0.53389768456E+02  0.72964950321E+03  0.74445681532E+03  0.91226171787E+02 0.  0.
        -13    1    3    3    0    0 -0.65620625211E+02 -0.30613002386E+02  0.13283046426E+03  0.15128501116E+03  0.00000000000E+00 0.  1.
         14    1    3    3    0    0 -0.12876328993E+01 -0.54045950160E+02  0.41891696626E+02  0.68392521327E+02  0.00000000000E+00 0. -1.
        -11    1    4    4    0    0  0.93472579589E+02  0.11517379039E+01  0.41963891916E+03  0.42992472842E+03  0.00000000000E+00 0.  1.
         11    1    4    4    0    0  0.97498527987E+01  0.52238030552E+02  0.31001058406E+03  0.31453208690E+03  0.00000000000E+00 0. -1.
         21    1    1    2  503  502  0.34595538875E+02 -0.98352354610E+01  0.10929911800E+03  0.11506467904E+03  0.00000000000E+00 0.  1.
          1    1    1    2  501    0 -0.70909713152E+02  0.41104419552E+02  0.37341781451E+03  0.38230697734E+03  0.00000000000E+00 0. -1.
<scales pt_clust_5="13000.00000" pt_clust_6="13000.00000" pt_clust_7="13000.00000" pt_clust_8="13000.00000" pt_clust_9="35.96642" pt_clust_10="71.96719"></scales>
<clustering>
<clus scale="   35.966">  1  9  2 -1</clus>
<clus scale="   71.967">  1 10  2 -1</clus>
<clus scale="   78.016">  5  6 -1 -1</clus>
<clus scale="   91.226">  7  8 -1 -1</clus>
<clus scale="  133.195">  2  5  1 -1</clus>
<clus scale="   35.966">  1  5  2 -1</clus>
</clustering>
</event>
<event>
10    4  0.2857708E-005  0.3291839E+03  0.7546771E-02  0.1115456E+00
          2   -1    0    0  503    0 -0.00000000000E+00  0.00000000000E+00  0.34522405896E+03  0.34522405896E+03  0.00000000000E+00 0. -1.
         21   -1    0    0  501  502  0.00000000000E+00 -0.00000000000E+00 -0.49804700744E+03  0.49804700744E+03  0.00000000000E+00 0. -1.
         23    2    1    2    0    0 -0.10574018008E+02  0.48369832154E+02  0.57197172902E+02  0.11845480984E+03  0.91151384334E+02 0.  0.
         24    2    1    2    0    0 -0.16582963696E+03  0.24994966576E+03 -0.26556379250E+01  0.30547552018E+03  0.57740255539E+02 0.  0.
        -13    1    4    4    0    0 -0.60161821858E+02  0.14242176361E+03  0.25404512860E+01  0.15462812633E+03  0.00000000000E+00 0.  1.
         14    1    4    4    0    0 -0.10566781510E+03  0.10752790215E+03 -0.51960892110E+01  0.15084739385E+03  0.00000000000E+00 0. -1.
        -13    1    3    3    0    0 -0.36055945794E+02 -0.98327090081E+01  0.83049338999E+01  0.38284269885E+02  0.00000000000E+00 0. -1.
         13    1    3    3    0    0  0.25481927787E+02  0.58202541162E+02  0.48892239002E+02  0.80170539951E+02  0.00000000000E+00 0.  1.
         21    1    1    2  503  502  0.25467667725E+02  0.45831622037E+01 -0.11434559989E+02  0.28290575061E+02  0.00000000000E+00 0. -1.
          1    1    1    2  501    0  0.15093598724E+03 -0.30290266012E+03 -0.19592992347E+03  0.39105016131E+03  0.00000000000E+00 0. -1.
<scales pt_clust_5="13000.00000" pt_clust_6="13000.00000" pt_clust_7="13000.00000" pt_clust_8="13000.00000" pt_clust_9="25.87677" pt_clust_10="324.08044"></scales>
<clustering>
<clus scale="   25.877">  2  9  1 -1</clus>
<clus scale="   57.740">  5  6 -1 -1</clus>
<clus scale="   91.151">  7  8 -1 -1</clus>
<clus scale="  103.714">  1  7  2 -1</clus>
<clus scale="  324.080">  2 10  1 -1</clus>
<clus scale="   25.877">  2  5  1 -1</clus>
</clustering>
</event>
<event>
10    4  0.2857708E-005  0.2977072E+03  0.7546771E-02  0.1117282E+00
          2   -1    0    0  503    0 -0.00000000000E+00  0.00000000000E+00  0.21080011285E+04  0.21080011285E+04  0.00000000000E+00 0. -1.
         21   -1    0    0  501  502  0.00000000000E+00 -0.00000000000E+00 -0.98947434810E+02  0.98947434810E+02  0.00000000000E+00 0. -1.
         23    2    1    2    0    0 -0.98073881089E+02 -0.13798449554E+02  0.25238444398E+03  0.28570994875E+03  0.90129816859E+02 0.  0.
         24    2    1    2    0    0 -0.33619466616E+02  0.25931307627E+03  0.37887223215E+03  0.46727159483E+03  0.80156315902E+02 0.  0.
        -11    1    4    4    0    0  0.14699950588E+02  0.16763575437E+03  0.20956789620E+03  0.26876855808E+03  0.00000000000E+00 0.  1.
         12    1    4    4    0    0 -0.48319417204E+02  0.91677321894E+02  0.16930433595E+03  0.19850303675E+03  0.00000000000E+00 0. -1.
        -11    1    3    3    0    0 -0.69070766899E+02 -0.41225689088E+02  0.10081858061E+03  0.12897563521E+03  0.00000000000E+00 0. -1.
         11    1    3    3    0    0 -0.29003114190E+02  0.27427239534E+02  0.15156586337E+03  0.15673431354E+03  0.00000000000E+00 0.  1.
         21    1    1    2  503  502 -0.21664151679E+02 -0.30065618697E+03  0.88709146214E+03  0.93690700736E+03  0.00000000000E+00 0. -1.
          1    1    1    2  501    0  0.15335749938E+03  0.55141560258E+02  0.49070555542E+03  0.51706001239E+03  0.00000000000E+00 0. -1.
<scales pt_clust_5="13000.00000" pt_clust_6="13000.00000" pt_clust_7="13000.00000" pt_clust_8="13000.00000" pt_clust_9="286.71333" pt_clust_10="136.51496"></scales>
<clustering>
<clus scale="   80.156">  5  6 -1 -1</clus>
<clus scale="   90.130">  7  8 -1 -1</clus>
<clus scale="  133.911">  1  7  2 -1</clus>
<clus scale="  136.515">  2 10  1 -1</clus>
<clus scale="  286.713">  1  9  2 -1</clus>
<clus scale="  136.515">  2  5  1 -1</clus>
</clustering>
</event>
<event>
10    4  0.2857708E-005  0.2241230E+03  0.7546771E-02  0.1159581E+00
          2   -1    0    0  503    0 -0.00000000000E+00  0.00000000000E+00  0.15182745032E+04  0.15182745032E+04  0.00000000000E+00 0. -1.
         21   -1    0    0  501  502  0.00000000000E+00 -0.00000000000E+00 -0.66396175350E+02  0.66396175350E+02  0.00000000000E+00 0. -1.
         24    2    1    2    0    0  0.80241368015E+02 -0.28161490249E+02  0.20907690400E+03  0.23882718590E+03  0.78061041910E+02 0.  0.
         23    2    1    2    0    0 -0.10229005281E+03 -0.18396042956E+03  0.84847643360E+03  0.87898490268E+03  0.91637908152E+02 0.  0.
        -13    1    3    3    0    0  0.69167890852E+02 -0.23334282577E+02  0.21375291772E+03  0.22587384908E+03  0.00000000000E+00 0.  1.
         14    1    3    3    0    0  0.11073477163E+02 -0.48272076713E+01 -0.46760137144E+01  0.12953336815E+02  0.00000000000E+00 0. -1.
        -11    1    4    4    0    0 -0.78848634967E+02 -0.11344070141E+03  0.69331643166E+03  0.70694665597E+03  0.00000000000E+00 0.  1.
         11    1    4    4    0    0 -0.23441417843E+02 -0.70519728152E+02  0.15516000194E+03  0.17203824671E+03  0.00000000000E+00 0. -1.
         21    1    1    2  503  502 -0.19867558947E+02  0.11547654806E+02  0.13202438756E+03  0.13400935468E+03  0.00000000000E+00 0. -1.
          1    1    1    2  501    0  0.41916243742E+02  0.20057426501E+03  0.26230060272E+03  0.33284923533E+03  0.00000000000E+00 0. -1.
<scales pt_clust_5="13000.00000" pt_clust_6="13000.00000" pt_clust_7="13000.00000" pt_clust_8="13000.00000" pt_clust_9="22.97974" pt_clust_10="204.53269"></scales>
<clustering>
<clus scale="   22.980">  1  9  2 -1</clus>
<clus scale="   78.061">  5  6 -1 -1</clus>
<clus scale="   91.638">  7  8 -1 -1</clus>
<clus scale="  112.776">  1  5  2 -1</clus>
<clus scale="  204.533">  2 10  1 -1</clus>
<clus scale="  204.533">  2  5  1 -1</clus>
</clustering>
</event>
<event>
10    4  0.2857708E-005  0.3387673E+03  0.7546771E-02  0.1067633E+00
         21   -1    0    0  501  502  0.00000000000E+00  0.00000000000E+00  0.13058955812E+03  0.13058955812E+03  0.00000000000E+00 0. -1.
          2   -1    0    0  503    0 -0.00000000000E+00 -0.00000000000E+00 -0.14799484395E+04  0.14799484395E+04  0.00000000000E+00 0. -1.
         23    2    1    2    0    0 -0.31256307447E+03  0.57597421590E+02 -0.10498889051E+04  0.11008831158E+04  0.93079445366E+02 0.  0.
         24    2    1    2    0    0  0.31109142058E+03 -0.37474917024E+02 -0.24607914335E+03  0.40675757009E+03  0.81942264290E+02 0.  0.
        -11    1    4    4    0    0  0.13257750554E+02 -0.21939998396E+02 -0.20065321365E+02  0.32553780132E+02  0.00000000000E+00 0.  1.
         12    1    4    4    0    0  0.29783367002E+03 -0.15534918628E+02 -0.22601382198E+03  0.37420378996E+03  0.00000000000E+00 0. -1.
        -13    1    3    3    0    0 -0.22689801622E+03  0.45614332370E+02 -0.88403746995E+03  0.91383019504E+03  0.00000000000E+00 0. -1.
         13    1    3    3    0    0 -0.85665058251E+02  0.11983089220E+02 -0.16585143513E+03  0.18705292076E+03  0.00000000000E+00 0.  1.
         21    1    1    2  503  502 -0.21279381860E+02 -0.15114317712E+02 -0.69722002192E+02  0.74447379281E+02  0.00000000000E+00 0.  1.
          1    1    1    2  501    0  0.22751035756E+02 -0.50081868544E+01  0.16331169277E+02  0.28449932399E+02  0.00000000000E+00 0. -1.
<scales pt_clust_5="13000.00000" pt_clust_6="13000.00000" pt_clust_7="13000.00000" pt_clust_8="13000.00000" pt_clust_9="25.76191" pt_clust_10="23.29574"></scales>
<clustering>
<clus scale="   23.296">  1 10  2 -1</clus>
<clus scale="   25.762">  2  9  1 -1</clus>
<clus scale="   81.942">  5  6 -1 -1</clus>
<clus scale="   93.079">  7  8 -1 -1</clus>
<clus scale="  335.878">  1  5  2 -1</clus>
<clus scale="   23.296">  1  5  2 -1</clus>
</clustering>
</event>
<event>
10    4  0.2857708E-005  0.1477951E+03  0.7546771E-02  0.1229308E+00
          2   -1    0    0  503    0 -0.00000000000E+00  0.00000000000E+00  0.13237918397E+04  0.13237918397E+04  0.00000000000E+00 0. -1.
         21   -1    0    0  501  502  0.00000000000E+00 -0.00000000000E+00 -0.67334548172E+02  0.67334548172E+02  0.00000000000E+00 0. -1.
         24    2    1    2    0    0  0.56001396574E+01 -0.13319985559E+02  0.50213045458E+03  0.50880155736E+03  0.80840879400E+02 0.  0.
         23    2    1    2    0    0 -0.77232506794E+02 -0.13377214452E+01  0.35062254102E+03  0.37000241477E+03  0.89436966942E+02 0.  0.
        -13    1    3    3    0    0  0.36910407782E+02  0.77493024927E+01  0.15058380874E+03  0.15523502615E+03  0.00000000000E+00 0.  1.
         14    1    3    3    0    0 -0.31310268124E+02 -0.21069288052E+02  0.35154664584E+03  0.35356653121E+03  0.00000000000E+00 0. -1.
        -13    1    4    4    0    0  0.16675021875E+02 -0.12879003767E+02  0.38925815164E+02  0.44262220671E+02  0.00000000000E+00 0.  1.
         13    1    4    4    0    0 -0.93907528670E+02  0.11541282322E+02  0.31169672586E+03  0.32574019409E+03  0.00000000000E+00 0. -1.
         21    1    1    2  503  502 -0.48747128355E+02  0.57154732024E+02  0.37371054553E+03  0.38118567360E+03  0.00000000000E+00 0. -1.
          1    1    1    2  501    0  0.12037949549E+03 -0.42497025019E+02  0.29993750365E+02  0.13113674211E+03  0.00000000000E+00 0. -1.
<scales pt_clust_5="13000.00000" pt_clust_6="13000.00000" pt_clust_7="13000.00000" pt_clust_8="13000.00000" pt_clust_9="75.11954" pt_clust_10="117.66238"></scales>
<clustering>
<clus scale="   75.120">  1  9  2 -1</clus>
<clus scale="   80.841">  5  6 -1 -1</clus>
<clus scale="   85.141">  1  5  2 -1</clus>
<clus scale="   89.437">  7  8 -1 -1</clus>
<clus scale="  117.662">  2 10  1 -1</clus>
<clus scale="  117.662">  2  5  1 -1</clus>
</clustering>
</event>
<event>
10    4  0.2857708E-005  0.9767594E+02  0.7546771E-02  0.1294852E+00
         21   -1    0    0  503  502  0.00000000000E+00  0.00000000000E+00  0.74811615754E+02  0.74811615754E+02  0.00000000000E+00 0.  1.
         -1   -1    0    0    0  501 -0.00000000000E+00 -0.00000000000E+00 -0.74080808062E+03  0.74080808062E+03  0.00000000000E+00 0.  1.
         24    2    1    2    0    0  0.71816769084E+02 -0.23962761542E+02 -0.27367022613E+03  0.29351516053E+03  0.74322907186E+02 0.  0.
         23    2    1    2    0    0 -0.84020691794E+01 -0.24215796732E+02 -0.11322032651E+03  0.14791633816E+03  0.91670066996E+02 0.  0.
        -13    1    3    3    0    0  0.48093992418E+02 -0.15411743700E+02 -0.25994404158E+03  0.26480456700E+03  0.00000000000E+00 0.  1.
         14    1    3    3    0    0  0.23722776665E+02 -0.85510178417E+01 -0.13726184545E+02  0.28710593533E+02  0.00000000000E+00 0. -1.
        -13    1    4    4    0    0 -0.26881628360E+02 -0.75288284393E+01  0.38923673889E+01  0.28186090982E+02  0.00000000000E+00 0.  1.
         13    1    4    4    0    0  0.18479559180E+02 -0.16686968292E+02 -0.11711269390E+03  0.11973024718E+03  0.00000000000E+00 0. -1.
         21    1    1    2  503  501 -0.49839478204E+02  0.18702781728E+02 -0.31863134943E+03  0.32304752665E+03  0.00000000000E+00 0. -1.
         -2    1    1    2    0  502 -0.13575221700E+02  0.29475776546E+02  0.39525437202E+02  0.51140671028E+02  0.00000000000E+00 0.  1.
<scales pt_clust_5="13000.00000" pt_clust_6="13000.00000" pt_clust_7="13000.00000" pt_clust_8="13000.00000" pt_clust_9="54.98747" pt_clust_10="32.45163"></scales>
<clustering>
<clus scale="   32.452">  1 10  2 -1</clus>
<clus scale="   54.987">  2  9  1 -1</clus>
<clus scale="   74.323">  5  6 -1 -1</clus>
<clus scale="   81.615">  2  5  1 -1</clus>
<clus scale="   91.670">  7  8 -1 -1</clus>
<clus scale="   32.452">  1  5  2 -1</clus>
</clustering>
</event>
<event>
10    4  0.2857708E-005  0.1287476E+03  0.7546771E-02  0.1268553E+00
         21   -1    0    0  503  502  0.00000000000E+00  0.00000000000E+00  0.48260313281E+03  0.48260313281E+03  0.00000000000E+00 0.  1.
         -3   -1    0    0    0  501 -0.00000000000E+00 -0.00000000000E+00 -0.75751531031E+02  0.75751531031E+02  0.00000000000E+00 0.  1.
         23    2    1    2    0    0 -0.10000468987E+02 -0.59418709785E+01  0.40780554659E+02  0.70159227121E+02  0.55892291967E+02 0.  0.
         24    2    1    2    0    0 -0.47892040025E+02 -0.91084290611E+02  0.28036620810E+03  0.30824041290E+03  0.76268905922E+02 0.  0.
        -11    1    4    4    0    0 -0.20232439913E+02 -0.94221933500E+02  0.18109669988E+03  0.20514175364E+03  0.00000000000E+00 0.  1.
         12    1    4    4    0    0 -0.27659600112E+02  0.31376428887E+01  0.99269508216E+02  0.10309865927E+03  0.00000000000E+00 0. -1.
        -13    1    3    3    0    0 -0.69504734723E+01  0.24681611694E+02  0.13228222443E+02  0.28852675895E+02  0.00000000000E+00 0.  1.
         13    1    3    3    0    0 -0.30499955144E+01 -0.30623482673E+02  0.27552332216E+02  0.41306551226E+02  0.00000000000E+00 0. -1.
         21    1    1    2  503  501 -0.31241365411E+02  0.28669464884E+02  0.74393034365E+01  0.43050021662E+02  0.00000000000E+00 0.  1.
         -4    1    1    2    0  502  0.89133874423E+02  0.68356696706E+02  0.78265535586E+02  0.13690500215E+03  0.00000000000E+00 0.  1.
<scales pt_clust_5="13000.00000" pt_clust_6="13000.00000" pt_clust_7="13000.00000" pt_clust_8="13000.00000" pt_clust_9="42.40237" pt_clust_10="103.72559"></scales>
<clustering>
<clus scale="   42.402">  2  9  1 -1</clus>
<clus scale="   55.892">  7  8 -1 -1</clus>
<clus scale="   58.710">  2  7  1 -1</clus>
<clus scale="   76.269">  5  6 -1 -1</clus>
<clus scale="  103.726">  1 10  2 -1</clus>
<clus scale="  103.726">  1  5  2 -1</clus>
</clustering>
</event>
<event>
10    4  0.2857708E-005  0.1414146E+03  0.7546771E-02  0.1229291E+00
          2   -1    0    0  503    0 -0.00000000000E+00  0.00000000000E+00  0.89574136737E+03  0.89574136737E+03  0.00000000000E+00 0. -1.
         21   -1    0    0  501  502  0.00000000000E+00 -0.00000000000E+00 -0.37113268304E+03  0.37113268304E+03  0.00000000000E+00 0.  1.
         24    2    1    2    0    0 -0.26047014987E+02 -0.45277460225E+02 -0.35376188024E+01  0.98001576231E+02  0.82845028837E+02 0.  0.
         23    2    1    2    0    0 -0.94167831656E+02 -0.47837033064E+02 -0.29591275553E+03  0.32780561895E+03  0.93467655794E+02 0.  0.
        -13    1    3    3    0    0 -0.44495414838E+02  0.15992493729E+01  0.10420520555E+02  0.45727309005E+02  0.00000000000E+00 0.  1.
         14    1    3    3    0    0  0.18448399851E+02 -0.46876709597E+02 -0.13958139358E+02  0.52274267227E+02  0.00000000000E+00 0. -1.
        -13    1    4    4    0    0 -0.95978094016E+02 -0.22200637686E+02 -0.28171895625E+03  0.29844636563E+03  0.00000000000E+00 0.  1.
         13    1    4    4    0    0  0.18102623595E+01 -0.25636395377E+02 -0.14193799277E+02  0.29359253323E+02  0.00000000000E+00 0. -1.
         21    1    1    2  503  502  0.96297106417E+01  0.22243195008E+02  0.45959311617E+02  0.51959112536E+02  0.00000000000E+00 0. -1.
          1    1    1    2  501    0  0.11058513600E+03  0.70871298280E+02  0.77809974704E+03  0.78910774269E+03  0.00000000000E+00 0. -1.
<scales pt_clust_5="13000.00000" pt_clust_6="13000.00000" pt_clust_7="13000.00000" pt_clust_8="13000.00000" pt_clust_9="24.23821" pt_clust_10="106.12215"></scales>
<clustering>
<clus scale="   24.238">  1  9  2 -1</clus>
<clus scale="   82.845">  5  6 -1 -1</clus>
<clus scale="   93.468">  7  8 -1 -1</clus>
<clus scale="   97.228">  1  5  2 -1</clus>
<clus scale="  106.122">  2 10  1 -1</clus>
<clus scale="  106.122">  2  5  1 -1</clus>
</clustering>
</event>
<event>
10    4  0.2857708E-005  0.1097164E+03  0.7546771E-02  0.1272400E+00
         21   -1    0    0  501  502  0.00000000000E+00  0.00000000000E+00  0.81393975148E+02  0.81393975148E+02  0.00000000000E+00 0.  1.
          2   -1    0    0  503    0 -0.00000000000E+00 -0.00000000000E+00 -0.33775932441E+03  0.33775932441E+03  0.00000000000E+00 0. -1.
         24    2    1    2    0    0 -0.10462571290E+02  0.56855875780E+02 -0.22094115912E+03  0.23705544714E+03  0.63547094500E+02 0.  0.
         23    2    1    2    0    0  0.44077993626E+02 -0.32372665314E+02 -0.15092677350E+02  0.10741664516E+03  0.91212322453E+02 0.  0.
        -11    1    3    3    0    0  0.62908055439E+00  0.68660429506E+02 -0.16250247384E+03  0.17641344713E+03  0.00000000000E+00 0.  1.
         12    1    3    3    0    0 -0.11091651844E+02 -0.11804553726E+02 -0.58438685276E+02  0.60642000017E+02  0.00000000000E+00 0. -1.
        -11    1    4    4    0    0 -0.15761266614E+02  0.13675698353E+02  0.15452790116E+02  0.25965957966E+02  0.00000000000E+00 0. -1.
         11    1    4    4    0    0  0.59839260240E+02 -0.46048363667E+02 -0.30545467466E+02  0.81450687199E+02  0.00000000000E+00 0.  1.
         21    1    1    2  503  502 -0.20525249612E+02  0.30419569268E+01 -0.35129317790E+02  0.40799612032E+02  0.00000000000E+00 0.  1.
          1    1    1    2  501    0 -0.13090172724E+02 -0.27525167393E+02  0.14797804994E+02  0.33881595219E+02  0.00000000000E+00 0. -1.
<scales pt_clust_5="13000.00000" pt_clust_6="13000.00000" pt_clust_7="13000.00000" pt_clust_8="13000.00000" pt_clust_9="20.74944" pt_clust_10="30.67893"></scales>
<clustering>
<clus scale="   20.749">  2  9  1 -1</clus>
<clus scale="   30.679">  1 10  2 -1</clus>
<clus scale="   63.547">  5  6 -1 -1</clus>
<clus scale="   88.070">  2  5  1 -1</clus>
<clus scale="   91.212">  7  8 -1 -1</clus>
<clus scale="   30.679">  1  5  2 -1</clus>
</clustering>
</event>
<event>
10    4  0.2857708E-005  0.2025274E+03  0.7546771E-02  0.1180898E+00
          2   -1    0    0  503    0 -0.00000000000E+00  0.00000000000E+00  0.40968895250E+03  0.40968895250E+03  0.00000000000E+00 0. -1.
         21   -1    0    0  501  502  0.00000000000E+00 -0.00000000000E+00 -0.16226781389E+03  0.16226781389E+03  0.00000000000E+00 0.  1.
         24    2    1    2    0    0  0.17270668629E+02 -0.46143715525E+02  0.29444251477E+02  0.98809550647E+02  0.80429129529E+02 0.  0.
         23    2    1    2    0    0 -0.88823516527E+01  0.20074740295E+03  0.14090381321E+03  0.26197540025E+03  0.91645020568E+02 0.  0.
        -13    1    3    3    0    0  0.41115398140E+02 -0.35815597859E+02  0.43054085358E+02  0.69475803559E+02  0.00000000000E+00 0.  1.
         14    1    3    3    0    0 -0.23844729511E+02 -0.10328117666E+02 -0.13609833880E+02  0.29333747088E+02  0.00000000000E+00 0. -1.
        -13    1    4    4    0    0  0.39456888230E+02  0.63441940523E+02  0.38933592244E+02  0.84246961080E+02  0.00000000000E+00 0. -1.
         13    1    4    4    0    0 -0.48339239883E+02  0.13730546243E+03  0.10197022096E+03  0.17772843917E+03  0.00000000000E+00 0.  1.
         21    1    1    2  503  502  0.18856261682E+02  0.13485201640E+02  0.22633281447E+02  0.32398683568E+02  0.00000000000E+00 0. -1.
          1    1    1    2  501    0 -0.27244578659E+02 -0.16808888907E+03  0.54439792473E+02  0.17877313193E+03  0.00000000000E+00 0. -1.
<scales pt_clust_5="13000.00000" pt_clust_6="13000.00000" pt_clust_7="13000.00000" pt_clust_8="13000.00000" pt_clust_9="23.18209" pt_clust_10="180.60598"></scales>
<clustering>
<clus scale="   23.182">  1  9  2 -1</clus>
<clus scale="   80.429">  5  6 -1 -1</clus>
<clus scale="   91.645">  7  8 -1 -1</clus>
<clus scale="   93.872">  1  5  2 -1</clus>
<clus scale="  180.606">  2 10  1 -1</clus>
<clus scale="  180.606">  2  5  1 -1</clus>
</clustering>
</event>
<event>
10    4  0.2857708E-005  0.1614853E+03  0.7546771E-02  0.1212444E+00
         -1   -1    0    0    0  501 -0.00000000000E+00  0.00000000000E+00  0.31437126554E+03  0.31437126554E+03  0.00000000000E+00 0.  1.
         21   -1    0    0  503  502  0.00000000000E+00 -0.00000000000E+00 -0.29237846412E+03  0.29237846412E+03  0.00000000000E+00 0. -1.
         24    2    1    2    0    0 -0.11529285798E+02 -0.31040389186E+02  0.16515796956E+03  0.18641032664E+03  0.79845004719E+02 0.  0.
         23    2    1    2    0    0 -0.10621968376E+03 -0.55760954516E+02 -0.15530636889E+03  0.21637538484E+03  0.91139089744E+02 0.  0.
        -13    1    3    3    0    0 -0.26701405429E+02 -0.72199440032E+01  0.15330762730E+03  0.15578292985E+03  0.00000000000E+00 0.  1.
         14    1    3    3    0    0  0.15172119631E+02 -0.23820445183E+02  0.11850342257E+02  0.30627396795E+02  0.00000000000E+00 0. -1.
        -13    1    4    4    0    0  0.33617884545E+01 -0.35609252144E+02 -0.59531767127E+02  0.69450354622E+02  0.00000000000E+00 0.  1.
         13    1    4    4    0    0 -0.10958147221E+03 -0.20151702371E+02 -0.95774601765E+02  0.14692503022E+03  0.00000000000E+00 0. -1.
         21    1    1    2  503  501 -0.15574299128E+02 -0.18937379645E+02  0.22779658868E+02  0.33467835294E+02  0.00000000000E+00 0. -1.
         -2    1    1    2    0  502  0.13332326868E+03  0.10573872335E+03 -0.10638458119E+02  0.17049618289E+03  0.00000000000E+00 0.  1.
<scales pt_clust_5="13000.00000" pt_clust_6="13000.00000" pt_clust_7="13000.00000" pt_clust_8="13000.00000" pt_clust_9="24.51904" pt_clust_10="133.30858"></scales>
<clustering>
<clus scale="   24.519">  1  9  2 -1</clus>
<clus scale="   79.845">  5  6 -1 -1</clus>
<clus scale="   91.139">  7  8 -1 -1</clus>
<clus scale="   92.956">  1  5  2 -1</clus>
<clus scale="  133.309">  2 10  1 -1</clus>
<clus scale="  133.309">  2  5  1 -1</clus>
</clustering>
</event>
<event>
10    4  0.2857708E-005  0.1591291E+03  0.7546771E-02  0.1193597E+00
         21   -1    0    0  503  502  0.00000000000E+00  0.00000000000E+00  0.23561075539E+03  0.23561075539E+03  0.00000000000E+00 0. -1.
         -1   -1    0    0    0  501 -0.00000000000E+00 -0.00000000000E+00 -0.31610750260E+03  0.31610750260E+03  0.00000000000E+00 0.  1.
         23    2    1    2    0    0 -0.83120647694E+02 -0.22829799083E+02 -0.40235732847E+02  0.13963186665E+03  0.10221498024E+03 0.  0.
         24    2    1    2    0    0  0.15067897276E+03  0.57004602163E+02  0.12601928279E+03  0.21970822567E+03  0.80231959309E+02 0.  0.
        -13    1    4    4    0    0  0.75311329678E+01  0.32724953799E+02  0.34137883049E+02  0.47885651546E+02  0.00000000000E+00 0.  1.
         14    1    4    4    0    0  0.14314783979E+03  0.24279648364E+02  0.91881399741E+02  0.17182257413E+03  0.00000000000E+00 0. -1.
        -13    1    3    3    0    0 -0.13693701654E+02  0.30112880905E+02 -0.40536713178E+02  0.52321393107E+02  0.00000000000E+00 0.  1.
         13    1    3    3    0    0 -0.69426946040E+02 -0.52942679988E+02  0.30098033005E+00  0.87310473541E+02  0.00000000000E+00 0. -1.
         21    1    1    2  503  501 -0.34472214208E+02 -0.40830788941E+02 -0.13921058704E+03  0.14911429985E+03  0.00000000000E+00 0.  1.
         -2    1    1    2    0  502 -0.33086110856E+02  0.66559858609E+01 -0.27069710113E+02  0.43263865812E+02  0.00000000000E+00 0.  1.
<scales pt_clust_5="13000.00000" pt_clust_6="13000.00000" pt_clust_7="13000.00000" pt_clust_8="13000.00000" pt_clust_9="53.79447" pt_clust_10="33.74899"></scales>
<clustering>
<clus scale="   33.749">  1 10  2 -1</clus>
<clus scale="   53.794">  2  9  1 -1</clus>
<clus scale="   80.232">  5  6 -1 -1</clus>
<clus scale="  102.215">  7  8 -1 -1</clus>
<clus scale="  145.984">  1  5  2 -1</clus>
<clus scale="   33.749">  1  5  2 -1</clus>
</clustering>
</event>
<event>
10    4  0.2857708E-005  0.3417220E+03  0.7546771E-02  0.1089006E+00
         21   -1    0    0  503  502  0.00000000000E+00  0.00000000000E+00  0.97998384259E+02  0.97998384259E+02  0.00000000000E+00 0.  1.
          2   -1    0    0  502    0 -0.00000000000E+00 -0.00000000000E+00 -0.24804957280E+04  0.24804957280E+04  0.00000000000E+00 0. -1.
         23    2    1    2    0    0 -0.14555534298E+03  0.92689170444E+02 -0.25871925151E+03  0.32376025668E+03  0.90041171219E+02 0.  0.
         24    2    1    2    0    0 -0.25181215645E+03 -0.62806484593E+02 -0.13318786136E+04  0.13593092009E+04  0.80416700165E+02 0.  0.
        -11    1    4    4    0    0 -0.10204082766E+03 -0.64218180167E+02 -0.52728975917E+03  0.54089813764E+03  0.00000000000E+00 0.  1.
         12    1    4    4    0    0 -0.14977132879E+03  0.14116955734E+01 -0.80458885441E+03  0.81841106325E+03  0.00000000000E+00 0. -1.
        -13    1    3    3    0    0 -0.74240747843E+02  0.38865768310E+02 -0.52160566606E+02  0.98706439988E+02  0.00000000000E+00 0.  1.
         13    1    3    3    0    0 -0.71314595140E+02  0.53823402134E+02 -0.20655868491E+03  0.22505381669E+03  0.00000000000E+00 0. -1.
         21    1    1    2  503  501  0.22683503677E+02 -0.29109052139E+02 -0.34995340953E+02  0.50858157103E+02  0.00000000000E+00 0.  1.
          1    1    1    2  501    0  0.37468399575E+03 -0.77363371226E+00 -0.75690413767E+03  0.84456649756E+03  0.00000000000E+00 0. -1.
<scales pt_clust_5="13000.00000" pt_clust_6="13000.00000" pt_clust_7="13000.00000" pt_clust_8="13000.00000" pt_clust_9="36.90363" pt_clust_10="332.12505"></scales>
<clustering>
<clus scale="   36.904">  1  9  2 -1</clus>
<clus scale="   80.417">  5  6 -1 -1</clus>
<clus scale="   90.041">  7  8 -1 -1</clus>
<clus scale="  183.657">  2  7  1 -1</clus>
<clus scale="  332.125">  1 10  2 -1</clus>
<clus scale="   36.904">  1  5  2 -1</clus>
</clustering>
</event>
<event>
10    4  0.2857708E-005  0.1752054E+03  0.7546771E-02  0.1173912E+00
          2   -1    0    0  503    0 -0.00000000000E+00  0.00000000000E+00  0.68549116407E+02  0.68549116407E+02  0.00000000000E+00 0. -1.
         21   -1    0    0  501  502  0.00000000000E+00 -0.00000000000E+00 -0.77680431410E+03  0.77680431410E+03  0.00000000000E+00 0.  1.
         23    2    1    2    0    0  0.12826063302E+03  0.11597932851E+03 -0.27581085420E+03  0.33800956996E+03  0.90977181005E+02 0.  0.
         24    2    1    2    0    0 -0.10786847083E+03 -0.70794517101E+02 -0.26665238315E+03  0.30684097361E+03  0.80002618705E+02 0.  0.
        -13    1    4    4    0    0 -0.69722031606E+02 -0.58743498894E+02 -0.24486759286E+03  0.26128930017E+03  0.00000000000E+00 0.  1.
         14    1    4    4    0    0 -0.38146439222E+02 -0.12051018207E+02 -0.21784790288E+02  0.45551673438E+02  0.00000000000E+00 0. -1.
        -13    1    3    3    0    0  0.86628604850E+02  0.12530857411E+03 -0.22401003377E+03  0.27090081055E+03  0.00000000000E+00 0.  1.
         13    1    3    3    0    0  0.41632028165E+02 -0.93292455974E+01 -0.51800820425E+02  0.67108759408E+02  0.00000000000E+00 0. -1.
         21    1    1    2  503  502  0.48649467789E+01 -0.21455511269E+02  0.79089744314E+01  0.23378591650E+02  0.00000000000E+00 0.  1.
          1    1    1    2  501    0 -0.25257108967E+02 -0.23729300143E+02 -0.17370093477E+03  0.17712429528E+03  0.00000000000E+00 0. -1.
<scales pt_clust_5="13000.00000" pt_clust_6="13000.00000" pt_clust_7="13000.00000" pt_clust_8="13000.00000" pt_clust_9="22.00015" pt_clust_10="35.02144"></scales>
<clustering>
<clus scale="   22.000">  1  9  2 -1</clus>
<clus scale="   35.021">  2 10  1 -1</clus>
<clus scale="   80.003">  5  6 -1 -1</clus>
<clus scale="   90.977">  7  8 -1 -1</clus>
<clus scale="  169.766">  2  5  1 -1</clus>
<clus scale="   35.021">  2  5  1 -1</clus>
</clustering>
</event>
<event>
10    4  0.2857708E-005  0.1864265E+03  0.7546771E-02  0.1162874E+00
          2   -1    0    0  503    0 -0.00000000000E+00  0.00000000000E+00  0.65403894831E+03  0.65403894831E+03  0.00000000000E+00 0. -1.
         21   -1    0    0  501  502  0.00000000000E+00 -0.00000000000E+00 -0.12266077191E+03  0.12266077191E+03  0.00000000000E+00 0.  1.
         23    2    1    2    0    0 -0.12697773158E+03 -0.92195182708E+02  0.16061989925E+03  0.24245574446E+03  0.91448017771E+02 0.  0.
         24    2    1    2    0    0  0.15844993097E+03  0.96355963625E+02  0.53551778167E+02  0.20932716903E+03  0.80989001712E+02 0.  0.
        -11    1    4    4    0    0  0.13761034275E+03  0.10046081079E+03  0.22719592322E+02  0.17188705830E+03  0.00000000000E+00 0.  1.
         12    1    4    4    0    0  0.20839588225E+02 -0.41048471636E+01  0.30832185845E+02  0.37440110732E+02  0.00000000000E+00 0. -1.
        -13    1    3    3    0    0 -0.72418611320E+01 -0.56017628029E+02  0.47227877340E+02  0.73626704399E+02  0.00000000000E+00 0.  1.
         13    1    3    3    0    0 -0.11973587045E+03 -0.36177554679E+02  0.11339202191E+03  0.16882904006E+03  0.00000000000E+00 0. -1.
         21    1    1    2  503  502  0.14714078898E+02  0.13692223002E+02  0.11444792726E+03  0.11619943693E+03  0.00000000000E+00 0. -1.
          1    1    1    2  501    0 -0.46186278290E+02 -0.17853003919E+02  0.20275857172E+03  0.20871736980E+03  0.00000000000E+00 0. -1.
<scales pt_clust_5="13000.00000" pt_clust_6="13000.00000" pt_clust_7="13000.00000" pt_clust_8="13000.00000" pt_clust_9="20.09928" pt_clust_10="42.48573"></scales>
<clustering>
<clus scale="   20.099">  1  9  2 -1</clus>
<clus scale="   42.486">  2 10  1 -1</clus>
<clus scale="   80.989">  5  6 -1 -1</clus>
<clus scale="   91.448">  7  8 -1 -1</clus>
<clus scale="  181.525">  2  5  1 -1</clus>
<clus scale="   42.486">  2  5  1 -1</clus>
</clustering>
</event>
<event>
10    4  0.2857708E-005  0.1141561E+03  0.7546771E-02  0.1259919E+00
         21   -1    0    0  501  502  0.00000000000E+00  0.00000000000E+00  0.38507825584E+02  0.38507825584E+02  0.00000000000E+00 0. -1.
          2   -1    0    0  503    0 -0.00000000000E+00 -0.00000000000E+00 -0.92597714528E+03  0.92597714528E+03  0.00000000000E+00 0. -1.
         23    2    1    2    0    0  0.30403238686E+02  0.22502948340E+02 -0.11439854192E+03  0.15019991133E+03  0.89678578068E+02 0.  0.
         24    2    1    2    0    0  0.54038094379E+02 -0.70296478846E+01 -0.27702371809E+03  0.29340397071E+03  0.79838700231E+02 0.  0.
        -11    1    4    4    0    0  0.64612025517E+02 -0.96973148205E+01 -0.27455617198E+03  0.28222303827E+03  0.00000000000E+00 0.  1.
         12    1    4    4    0    0 -0.10573931138E+02  0.26676669359E+01 -0.24675461065E+01  0.11180932447E+02  0.00000000000E+00 0. -1.
        -13    1    3    3    0    0  0.30965393749E+02 -0.10169313649E+02 -0.14557688945E+01  0.32624987559E+02  0.00000000000E+00 0.  1.
         13    1    3    3    0    0 -0.56215506287E+00  0.32672261989E+02 -0.11294277303E+03  0.11757492377E+03  0.00000000000E+00 0. -1.
         21    1    1    2  503  502  0.20091511384E+02  0.22514994627E+02 -0.23773021336E+03  0.23963774360E+03  0.00000000000E+00 0. -1.
          1    1    1    2  501    0 -0.10453284445E+03 -0.37988295082E+02 -0.25831684633E+03  0.28124334522E+03  0.00000000000E+00 0. -1.
<scales pt_clust_5="13000.00000" pt_clust_6="13000.00000" pt_clust_7="13000.00000" pt_clust_8="13000.00000" pt_clust_9="30.17605" pt_clust_10="81.59288"></scales>
<clustering>
<clus scale="   30.176">  2  9  1 -1</clus>
<clus scale="   79.839">  5  6 -1 -1</clus>
<clus scale="   89.679">  7  8 -1 -1</clus>
<clus scale="   99.684">  2  7  1 -1</clus>
<clus scale="   81.593">  1 10  2 -1</clus>
<clus scale="   81.593">  1  5  2 -1</clus>
</clustering>
</event>
<event>
10    4  0.2857708E-005  0.9008449E+02  0.7546771E-02  0.1306529E+00
         21   -1    0    0  501  502  0.00000000000E+00  0.00000000000E+00  0.24687075029E+03  0.24687075029E+03  0.00000000000E+00 0.  1.
          4   -1    0    0  503    0 -0.00000000000E+00 -0.00000000000E+00 -0.12778509042E+03  0.12778509042E+03  0.00000000000E+00 0. -1.
         24    2    1    2    0    0  0.59124534620E+01 -0.17069572546E+02  0.16503917589E+02  0.82273066017E+02  0.78550306704E+02 0.  0.
         23    2    1    2    0    0 -0.23385760626E+02  0.46344377436E+02  0.17098947882E+03  0.19793238991E+03  0.85118352814E+02 0.  0.
        -13    1    3    3    0    0  0.19359502042E+02  0.24310025159E+02  0.22479605554E+02  0.38354925478E+02  0.00000000000E+00 0.  1.
         14    1    3    3    0    0 -0.13447048580E+02 -0.41379597705E+02 -0.59756879655E+01  0.43918140539E+02  0.00000000000E+00 0. -1.
        -11    1    4    4    0    0 -0.46055253542E+02  0.47874878875E+02  0.79196196251E+02  0.10336889235E+03  0.00000000000E+00 0.  1.
         11    1    4    4    0    0  0.22669492916E+02 -0.15305014391E+01  0.91793282571E+02  0.94563497550E+02  0.00000000000E+00 0. -1.
         21    1    1    2  503  502  0.28220216156E+02 -0.51305875275E+01 -0.10058829289E+02  0.30395453195E+02  0.00000000000E+00 0. -1.
          3    1    1    2  501    0 -0.10746908992E+02 -0.24144217363E+02 -0.58348907250E+02  0.64054931599E+02  0.00000000000E+00 0. -1.
<scales pt_clust_5="13000.00000" pt_clust_6="13000.00000" pt_clust_7="13000.00000" pt_clust_8="13000.00000" pt_clust_9="28.44230" pt_clust_10="26.42802"></scales>
<clustering>
<clus scale="   26.428">  1 10  2 -1</clus>
<clus scale="   28.442">  2  9  1 -1</clus>
<clus scale="   78.550">  5  6 -1 -1</clus>
<clus scale="   83.906">  2  5  1 -1</clus>
<clus scale="   85.118">  7  8 -1 -1</clus>
<clus scale="   26.428">  1  5  2 -1</clus>
</clustering>
</event>
<event>
10    4  0.2857708E-005  0.1524748E+03  0.7546771E-02  0.1211136E+00
         21   -1    0    0  503  502  0.00000000000E+00  0.00000000000E+00  0.24800999910E+03  0.24800999910E+03  0.00000000000E+00 0.  1.
         -1   -1    0    0    0  501 -0.00000000000E+00 -0.00000000000E+00 -0.33386105680E+03  0.33386105680E+03  0.00000000000E+00 0.  1.
         23    2    1    2    0    0  0.36520938950E+02 -0.64095575432E+02 -0.75496752730E+02  0.13797236169E+03  0.88851511775E+02 0.  0.
         24    2    1    2    0    0  0.11026978259E+03  0.12877619709E+02  0.13403288108E+03  0.18672411626E+03  0.67644839715E+02 0.  0.
        -11    1    4    4    0    0  0.44665978443E+02  0.22030443948E+02  0.10120687856E+03  0.11279726220E+03  0.00000000000E+00 0.  1.
         12    1    4    4    0    0  0.65603804147E+02 -0.91528242398E+01  0.32826002518E+02  0.73926854062E+02  0.00000000000E+00 0. -1.
        -13    1    3    3    0    0  0.21103315012E+01  0.22337627960E+02 -0.13766416769E+02  0.26323703246E+02  0.00000000000E+00 0. -1.
         13    1    3    3    0    0  0.34410607448E+02 -0.86433203392E+02 -0.61730335961E+02  0.11164865844E+03  0.00000000000E+00 0.  1.
         21    1    1    2  503  501 -0.16693295996E+03  0.11831675042E+02 -0.12496534452E+03  0.20886105187E+03  0.00000000000E+00 0.  1.
         -2    1    1    2    0  502  0.20142238425E+02  0.39386280682E+02 -0.19421841520E+02  0.48313526085E+02  0.00000000000E+00 0.  1.
<scales pt_clust_5="13000.00000" pt_clust_6="13000.00000" pt_clust_7="13000.00000" pt_clust_8="13000.00000" pt_clust_9="136.64828" pt_clust_10="44.23789"></scales>
<clustering>
<clus scale="   44.238">  1 10  2 -1</clus>
<clus scale="   67.645">  5  6 -1 -1</clus>
<clus scale="   88.852">  7  8 -1 -1</clus>
<clus scale="  113.548">  2  7  1 -1</clus>
<clus scale="  136.648">  2  9  1 -1</clus>
<clus scale="   44.238">  1  5  2 -1</clus>
</clustering>
</event>
<event>
10    4  0.2857708E-005  0.1927362E+03  0.7546771E-02  0.1165478E+00
         21   -1    0    0  501  502  0.00000000000E+00  0.00000000000E+00  0.34942758164E+03  0.34942758164E+03  0.00000000000E+00 0.  1.
          2   -1    0    0  503    0 -0.00000000000E+00 -0.00000000000E+00 -0.38392587151E+03  0.38392587151E+03  0.00000000000E+00 0. -1.
         23    2    1    2    0    0  0.90589310470E+02  0.12190884798E+03  0.80763357240E+02  0.19528737505E+03  0.92445922539E+02 0.  0.
         24    2    1    2    0    0  0.32615328600E+02 -0.14878247737E+03 -0.55472864835E+02  0.18224473362E+03  0.83282164758E+02 0.  0.
        -13    1    4    4    0    0  0.48449718855E+02 -0.14165681658E+03 -0.32079662487E+02  0.15311150736E+03  0.00000000000E+00 0.  1.
         14    1    4    4    0    0 -0.15834390254E+02 -0.71256607963E+01 -0.23393202348E+02  0.29133226265E+02  0.00000000000E+00 0. -1.
        -11    1    3    3    0    0  0.10856924310E+03  0.92223409743E+02  0.58142704106E+02  0.15386036491E+03  0.00000000000E+00 0. -1.
         11    1    3    3    0    0 -0.17979932625E+02  0.29685438242E+02  0.22620653134E+02  0.41427010139E+02  0.00000000000E+00 0.  1.
         21    1    1    2  503  502 -0.37436997588E+02 -0.14948122741E+03 -0.36291710439E+02  0.15831378456E+03  0.00000000000E+00 0.  1.
          1    1    1    2  501    0 -0.85767641482E+02  0.17635485680E+03 -0.23497071834E+02  0.19750755992E+03  0.00000000000E+00 0. -1.
<scales pt_clust_5="13000.00000" pt_clust_6="13000.00000" pt_clust_7="13000.00000" pt_clust_8="13000.00000" pt_clust_9="154.09791" pt_clust_10="173.81416"></scales>
<clustering>
<clus scale="   83.282">  5  6 -1 -1</clus>
<clus scale="   92.446">  7  8 -1 -1</clus>
<clus scale="  154.098">  2  9  1 -1</clus>
<clus scale="  154.680">  2  7  1 -1</clus>
<clus scale="  173.814">  1 10  2 -1</clus>
<clus scale="  173.814">  1  5  2 -1</clus>
</clustering>
</event>
<event>
10    4  0.2857708E-005  0.9533435E+02  0.7546771E-02  0.1297153E+00
         21   -1    0    0  501  502  0.00000000000E+00  0.00000000000E+00  0.37802896759E+03  0.37802896759E+03  0.00000000000E+00 0.  1.
          2   -1    0    0  503    0 -0.00000000000E+00 -0.00000000000E+00 -0.10419606282E+03  0.10419606282E+03  0.00000000000E+00 0. -1.
         24    2    1    2    0    0 -0.22184286623E+02 -0.18489447132E+02 -0.32946982866E+02  0.90614195760E+02  0.79318513381E+02 0.  0.
         23    2    1    2    0    0 -0.24006425693E+02  0.44731024334E+02  0.26287945218E+03  0.28282198214E+03  0.91134484098E+02 0.  0.
        -13    1    3    3    0    0 -0.25907216644E+02  0.27756179713E+02 -0.13298017401E+02  0.40229673791E+02  0.00000000000E+00 0.  1.
         14    1    3    3    0    0  0.37229300209E+01 -0.46245626845E+02 -0.19648965465E+02  0.50384521969E+02  0.00000000000E+00 0. -1.
        -11    1    4    4    0    0 -0.46272883663E+02  0.20857274025E+02  0.66028866444E+02  0.83282752393E+02  0.00000000000E+00 0. -1.
         11    1    4    4    0    0  0.22266457971E+02  0.23873750309E+02  0.19685058573E+03  0.19953922975E+03  0.00000000000E+00 0.  1.
         21    1    1    2  503  502  0.40502674479E+02 -0.39302067683E+01 -0.16681184013E+02  0.43979257216E+02  0.00000000000E+00 0. -1.
          1    1    1    2  501    0  0.56880378374E+01 -0.22311370434E+02  0.60581619470E+02  0.64809595298E+02  0.00000000000E+00 0. -1.
<scales pt_clust_5="13000.00000" pt_clust_6="13000.00000" pt_clust_7="13000.00000" pt_clust_8="13000.00000" pt_clust_9="41.04195" pt_clust_10="23.02501"></scales>
<clustering>
<clus scale="   23.025">  1 10  2 -1</clus>
<clus scale="   41.042">  2  9  1 -1</clus>
<clus scale="   79.319">  5  6 -1 -1</clus>
<clus scale="   84.110">  2  5  1 -1</clus>
<clus scale="   91.134">  7  8 -1 -1</clus>
<clus scale="   23.025">  1  5  2 -1</clus>
</clustering>
</event>
<event>
10    4  0.2857708E-005  0.9150275E+02  0.7546771E-02  0.1304060E+00
         -1   -1    0    0    0  501 -0.00000000000E+00  0.00000000000E+00  0.42410021436E+02  0.42410021436E+02  0.00000000000E+00 0.  1.
         21   -1    0    0  501  502  0.00000000000E+00 -0.00000000000E+00 -0.36950915613E+03  0.36950915613E+03  0.00000000000E+00 0.  1.
         24    2    1    2    0    0  0.43264402334E+02 -0.15171577762E+02 -0.80466219583E+02  0.12291925911E+03  0.80822932909E+02 0.  0.
         23    2    1    2    0    0 -0.41864101277E+02 -0.37124751062E+02 -0.17408618085E+03  0.19650031804E+03  0.71941132265E+02 0.  0.
        -11    1    3    3    0    0  0.38630985170E+02 -0.44793610293E+02 -0.35856300356E+02  0.69170042746E+02  0.00000000000E+00 0.  1.
         12    1    3    3    0    0  0.46334171634E+01  0.29622032530E+02 -0.44609919228E+02  0.53749216360E+02  0.00000000000E+00 0. -1.
        -11    1    4    4    0    0  0.13782015052E+02 -0.32379407902E+02 -0.62837276828E+02  0.72020089934E+02  0.00000000000E+00 0. -1.
         11    1    4    4    0    0 -0.55646116329E+02 -0.47453431592E+01 -0.11124890402E+03  0.12448022811E+03  0.00000000000E+00 0.  1.
         21    1    1    2  503  502 -0.12403858941E+02  0.24850875686E+02 -0.36916108696E+02  0.46197627863E+02  0.00000000000E+00 0.  1.
         -2    1    1    2    0  503  0.11003557884E+02  0.27445453138E+02 -0.35630625562E+02  0.46301972550E+02  0.00000000000E+00 0.  1.
<scales pt_clust_5="13000.00000" pt_clust_6="13000.00000" pt_clust_7="13000.00000" pt_clust_8="13000.00000" pt_clust_9="22.85867" pt_clust_10="57.38598"></scales>
<clustering>
<clus scale="   22.859">  9 10 -1 -1</clus>
<clus scale="   57.386">  2  9  1 -1</clus>
<clus scale="   71.941">  7  8 -1 -1</clus>
<clus scale="   80.823">  5  6 -1 -1</clus>
<clus scale="   83.761">  2  7  1 -1</clus>
<clus scale="   57.386">  2  5  1 -1</clus>
</clustering>
</event>
<event>
10    4  0.2857708E-005  0.1473372E+03  0.7546771E-02  0.1218826E+00
          4   -1    0    0  503    0 -0.00000000000E+00  0.00000000000E+00  0.83924185519E+03  0.83924185519E+03  0.00000000000E+00 0. -1.
         21   -1    0    0  501  502  0.00000000000E+00 -0.00000000000E+00 -0.69948851788E+02  0.69948851788E+02  0.00000000000E+00 0. -1.
         23    2    1    2    0    0  0.44434725528E+02 -0.40453966745E+02  0.62084446583E+02  0.12405855962E+03  0.89022915310E+02 0.  0.
         24    2    1    2    0    0 -0.64402560899E+02  0.13268867485E+03  0.43635757930E+03  0.46784737910E+03  0.81971085348E+02 0.  0.
        -13    1    4    4    0    0 -0.78307964952E+02  0.71814793942E+02  0.28009381118E+03  0.29956976661E+03  0.00000000000E+00 0.  1.
         14    1    4    4    0    0  0.13905404053E+02  0.60873880908E+02  0.15626376812E+03  0.16827761249E+03  0.00000000000E+00 0. -1.
        -11    1    3    3    0    0  0.57209721034E+02  0.45398228331E+01  0.49074297307E+02  0.75510587525E+02  0.00000000000E+00 0. -1.
         11    1    3    3    0    0 -0.12774995506E+02 -0.44993789578E+02  0.13010149276E+02  0.48547972100E+02  0.00000000000E+00 0.  1.
         21    1    1    2  503  502  0.12171392040E+02  0.23955673556E+02  0.13812417038E+03  0.14071355131E+03  0.00000000000E+00 0. -1.
          3    1    1    2  501    0  0.77964433317E+01 -0.11619038166E+03  0.13272680714E+03  0.17657121694E+03  0.00000000000E+00 0. -1.
<scales pt_clust_5="13000.00000" pt_clust_6="13000.00000" pt_clust_7="13000.00000" pt_clust_8="13000.00000" pt_clust_9="26.87038" pt_clust_10="122.42951"></scales>
<clustering>
<clus scale="   26.870">  1  9  2 -1</clus>
<clus scale="   81.971">  5  6 -1 -1</clus>
<clus scale="   89.023">  7  8 -1 -1</clus>
<clus scale="  106.934">  1  7  2 -1</clus>
<clus scale="  122.430">  2 10  1 -1</clus>
<clus scale="  122.430">  2  5  1 -1</clus>
</clustering>
</event>
<event>
10    4  0.2857708E-005  0.1360237E+03  0.7546771E-02  0.1221125E+00
         21   -1    0    0  501  502  0.00000000000E+00  0.00000000000E+00  0.38368260391E+03  0.38368260391E+03  0.00000000000E+00 0.  1.
          2   -1    0    0  503    0 -0.00000000000E+00 -0.00000000000E+00 -0.20881262550E+03  0.20881262550E+03  0.00000000000E+00 0. -1.
         23    2    1    2    0    0 -0.56649706232E+02  0.11635361596E+03 -0.83316393280E+02  0.17856661011E+03  0.90537614813E+02 0.  0.
         24    2    1    2    0    0  0.55044390112E+02 -0.77143815602E+02  0.26464155860E+03  0.29236840262E+03  0.80393253083E+02 0.  0.
        -11    1    4    4    0    0  0.43705716473E+00 -0.60762690303E+02  0.18274000193E+03  0.19257778651E+03  0.00000000000E+00 0.  1.
         12    1    4    4    0    0  0.54607332947E+02 -0.16381125299E+02  0.81901556672E+02  0.99790616106E+02  0.00000000000E+00 0. -1.
        -13    1    3    3    0    0 -0.80884029285E+01  0.50574711207E+02  0.12385806398E+02  0.52693755567E+02  0.00000000000E+00 0.  1.
         13    1    3    3    0    0 -0.48561303303E+02  0.65778904751E+02 -0.95702199678E+02  0.12587285455E+03  0.00000000000E+00 0. -1.
         21    1    1    2  503  502  0.18472994169E+02 -0.24989314462E+02 -0.57828766539E+02  0.65649703657E+02  0.00000000000E+00 0.  1.
          1    1    1    2  501    0 -0.16867678050E+02 -0.14220485893E+02  0.51373579628E+02  0.55910513016E+02  0.00000000000E+00 0. -1.
<scales pt_clust_5="13000.00000" pt_clust_6="13000.00000" pt_clust_7="13000.00000" pt_clust_8="13000.00000" pt_clust_9="31.09377" pt_clust_10="22.06220"></scales>
<clustering>
<clus scale="   22.062">  1 10  2 -1</clus>
<clus scale="   31.094">  2  9  1 -1</clus>
<clus scale="   80.393">  5  6 -1 -1</clus>
<clus scale="   90.538">  7  8 -1 -1</clus>
<clus scale="  129.493">  1  5  2 -1</clus>
<clus scale="   22.062">  1  5  2 -1</clus>
</clustering>
</event>
<event>
10    4  0.2857708E-005  0.8723893E+02  0.7546771E-02  0.1314245E+00
         -1   -1    0    0    0  501 -0.00000000000E+00  0.00000000000E+00  0.12199212863E+03  0.12199212863E+03  0.00000000000E+00 0.  1.
         21   -1    0    0  503  502  0.00000000000E+00 -0.00000000000E+00 -0.39616290194E+03  0.39616290194E+03  0.00000000000E+00 0. -1.
         23    2    1    2    0    0  0.82657734812E+01 -0.13201231229E+02 -0.23701870025E+02  0.91147295064E+02  0.86622486905E+02 0.  0.
         24    2    1    2    0    0  0.40009329949E+02 -0.26863267776E+02 -0.19394007227E+03  0.21512668990E+03  0.79651487337E+02 0.  0.
        -13    1    4    4    0    0  0.62199936592E+02 -0.32523946449E+02 -0.14709248781E+03  0.16298110067E+03  0.00000000000E+00 0.  1.
         14    1    4    4    0    0 -0.22190606643E+02  0.56606786736E+01 -0.46847584457E+02  0.52145589226E+02  0.00000000000E+00 0. -1.
        -13    1    3    3    0    0  0.29606226233E+02 -0.37396935485E+02  0.50088836358E+01  0.47959861662E+02  0.00000000000E+00 0.  1.
         13    1    3    3    0    0 -0.21340452751E+02  0.24195704256E+02 -0.28710753660E+02  0.43187433402E+02  0.00000000000E+00 0. -1.
         21    1    1    2  503  501 -0.98336627282E+01  0.21872725773E+02  0.72321302023E+02  0.76193751592E+02  0.00000000000E+00 0.  1.
         -2    1    1    2    0  502 -0.38441440702E+02  0.18191773232E+02 -0.12885013303E+03  0.13568729402E+03  0.00000000000E+00 0.  1.
<scales pt_clust_5="13000.00000" pt_clust_6="13000.00000" pt_clust_7="13000.00000" pt_clust_8="13000.00000" pt_clust_9="23.98160" pt_clust_10="43.84943"></scales>
<clustering>
<clus scale="   23.982">  1  9  2 -1</clus>
<clus scale="   43.849">  2 10  1 -1</clus>
<clus scale="   79.651">  5  6 -1 -1</clus>
<clus scale="   80.321">  2  5  1 -1</clus>
<clus scale="   86.622">  7  8 -1 -1</clus>
<clus scale="   43.849">  2  5  1 -1</clus>
</clustering>
</event>
<event>
10    4  0.2857708E-005  0.3014795E+03  0.7546771E-02  0.1123641E+00
          2   -1    0    0  503    0 -0.00000000000E+00  0.00000000000E+00  0.10985969828E+04  0.10985969828E+04  0.00000000000E+00 0. -1.
         21   -1    0    0  501  502  0.00000000000E+00 -0.00000000000E+00 -0.19882233666E+03  0.19882233666E+03  0.00000000000E+00 0. -1.
         23    2    1    2    0    0 -0.34701201320E+02  0.50810177265E+02  0.12894407295E+03  0.16949211891E+03  0.91187482339E+02 0.  0.
         24    2    1    2    0    0  0.66380839278E+02 -0.66017853709E+02  0.35028469591E+01  0.12173432797E+03  0.77731614141E+02 0.  0.
        -13    1    4    4    0    0  0.23347345324E+02  0.14244513640E+02  0.12787092713E+02  0.30191297464E+02  0.00000000000E+00 0.  1.
         14    1    4    4    0    0  0.43033493955E+02 -0.80262367349E+02 -0.92842457543E+01  0.91543030503E+02  0.00000000000E+00 0. -1.
        -13    1    3    3    0    0  0.30756625215E+02  0.24797161678E+02  0.43680211118E+02  0.58896774659E+02  0.00000000000E+00 0.  1.
         13    1    3    3    0    0 -0.65457826535E+02  0.26013015587E+02  0.85263861834E+02  0.11059534425E+03  0.00000000000E+00 0. -1.
         21    1    1    2  503  502 -0.27112484966E+03  0.17986094150E+03  0.56539367134E+03  0.65232556747E+03  0.00000000000E+00 0. -1.
          1    1    1    2  501    0  0.23944521171E+03 -0.16465326506E+03  0.20193405486E+03  0.35386730510E+03  0.00000000000E+00 0. -1.
<scales pt_clust_5="13000.00000" pt_clust_6="13000.00000" pt_clust_7="13000.00000" pt_clust_8="13000.00000" pt_clust_9="301.47948" pt_clust_10="13000.00000"></scales>
<clustering>
<clus scale="   77.732">  5  6 -1 -1</clus>
<clus scale="   91.187">  7  8 -1 -1</clus>
<clus scale="  110.005">  1  7  2 -1</clus>
<clus scale="  118.647">  1  5  2 -1</clus>
<clus scale="  301.479">  1  9  2 -1</clus>
<clus scale="  301.479">  2  5  1 -1</clus>
</clustering>
</event>
<event>
10    4  0.2857708E-005  0.4067518E+03  0.7546771E-02  0.1087804E+00
          2   -1    0    0  503    0 -0.00000000000E+00  0.00000000000E+00  0.59689776733E+03  0.59689776733E+03  0.00000000000E+00 0. -1.
         21   -1    0    0  501  502  0.00000000000E+00 -0.00000000000E+00 -0.10053582378E+04  0.10053582378E+04  0.00000000000E+00 0. -1.
         23    2    1    2    0    0  0.90449032646E+01 -0.84581395718E+02  0.83386681912E+02  0.14836971691E+03  0.88455703026E+02 0.  0.
         24    2    1    2    0    0  0.31540542936E+03  0.28655292852E+03 -0.31524163060E+03  0.53628212731E+03  0.81412951599E+02 0.  0.
        -11    1    4    4    0    0  0.20809928776E+02  0.30494139041E+02 -0.58210385933E+02  0.68930361104E+02  0.00000000000E+00 0.  1.
         12    1    4    4    0    0  0.29459550059E+03  0.25605878948E+03 -0.25703124467E+03  0.46735176620E+03  0.00000000000E+00 0. -1.
        -11    1    3    3    0    0  0.33138513539E+02 -0.73631430294E+02  0.90180404270E+02  0.12104649487E+03  0.00000000000E+00 0.  1.
         11    1    3    3    0    0 -0.24093610274E+02 -0.10949965424E+02 -0.67937223577E+01  0.27323222034E+02  0.00000000000E+00 0. -1.
         21    1    1    2  503  502 -0.27583824807E+02  0.38505700673E+02  0.30172962725E+03  0.30542482600E+03  0.00000000000E+00 0. -1.
          1    1    1    2  501    0 -0.29686650782E+03 -0.24047723347E+03 -0.47833514899E+03  0.61217933487E+03  0.00000000000E+00 0. -1.
<scales pt_clust_5="13000.00000" pt_clust_6="13000.00000" pt_clust_7="13000.00000" pt_clust_8="13000.00000" pt_clust_9="47.36619" pt_clust_10="398.52095"></scales>
<clustering>
<clus scale="   47.366">  1  9  2 -1</clus>
<clus scale="   81.413">  5  6 -1 -1</clus>
<clus scale="   88.456">  7  8 -1 -1</clus>
<clus scale="  112.428">  1  7  2 -1</clus>
<clus scale="  398.521">  2 10  1 -1</clus>
<clus scale="  398.521">  2  5  1 -1</clus>
</clustering>
</event>
<event>
10    4  0.2857708E-005  0.9482587E+02  0.7546771E-02  0.1299667E+00
         21   -1    0    0  503  502  0.00000000000E+00  0.00000000000E+00  0.95291070382E+02  0.95291070382E+02  0.00000000000E+00 0. -1.
         -1   -1    0    0    0  501 -0.00000000000E+00 -0.00000000000E+00 -0.22900545714E+03  0.22900545714E+03  0.00000000000E+00 0.  1.
         24    2    1    2    0    0 -0.19860609887E+02 -0.12520391300E+02 -0.45961772383E+02  0.93298788747E+02  0.77723712197E+02 0.  0.
         23    2    1    2    0    0  0.17505454502E+02 -0.25416073496E+02  0.16912692626E+02  0.98053393305E+02  0.91520549810E+02 0.  0.
        -11    1    3    3    0    0 -0.23845612703E+02 -0.39257915512E+02 -0.78891495527E+01  0.46605105473E+02  0.00000000000E+00 0.  1.
         12    1    3    3    0    0  0.39850028159E+01  0.26737524212E+02 -0.38072622830E+02  0.46693683273E+02  0.00000000000E+00 0. -1.
        -13    1    4    4    0    0 -0.26194799136E+02 -0.15130094827E+02  0.37902740879E+02  0.48494381503E+02  0.00000000000E+00 0.  1.
         13    1    4    4    0    0  0.43700253637E+02 -0.10285978668E+02 -0.20990048253E+02  0.49559011802E+02  0.00000000000E+00 0. -1.
         21    1    1    2  503  501 -0.17217310294E+02  0.25399847155E+02 -0.10531270996E+03  0.10969209127E+03  0.00000000000E+00 0.  1.
         -2    1    1    2    0  502  0.19572465680E+02  0.12536617641E+02  0.64740295712E+00  0.23252254197E+02  0.00000000000E+00 0.  1.
<scales pt_clust_5="13000.00000" pt_clust_6="13000.00000" pt_clust_7="13000.00000" pt_clust_8="13000.00000" pt_clust_9="30.67549" pt_clust_10="23.24324"></scales>
<clustering>
<clus scale="   23.243">  1 10  2 -1</clus>
<clus scale="   30.675">  2  9  1 -1</clus>
<clus scale="   77.724">  5  6 -1 -1</clus>
<clus scale="   81.590">  2  5  1 -1</clus>
<clus scale="   91.521">  7  8 -1 -1</clus>
<clus scale="   23.243">  1  5  2 -1</clus>
</clustering>
</event>
<event>
10    4  0.2857708E-005  0.1404536E+03  0.7546771E-02  0.1214657E+00
          2   -1    0    0  503    0 -0.00000000000E+00  0.00000000000E+00  0.12138847747E+04  0.12138847747E+04  0.00000000000E+00 0. -1.
         21   -1    0    0  501  502  0.00000000000E+00 -0.00000000000E+00 -0.28928640815E+02  0.28928640815E+02  0.00000000000E+00 0.  1.
         24    2    1    2    0    0 -0.11776955506E+03 -0.58836629411E+02  0.79665285665E+03  0.81142689514E+03  0.80164924257E+02 0.  0.
         23    2    1    2    0    0  0.83401132768E+02  0.23124554901E+02  0.21258715522E+03  0.24630756725E+03  0.89351133934E+02 0.  0.
        -11    1    3    3    0    0 -0.26880772639E+02  0.18612279237E+02  0.12293769305E+03  0.12721112077E+03  0.00000000000E+00 0.  1.
         12    1    3    3    0    0 -0.90888782423E+02 -0.77448908648E+02  0.67371516360E+03  0.68421577436E+03  0.00000000000E+00 0. -1.
        -13    1    4    4    0    0  0.68478679880E+02  0.49295959606E+02  0.19227189915E+03  0.20997119906E+03  0.00000000000E+00 0. -1.
         13    1    4    4    0    0  0.14922452888E+02 -0.26171404705E+02  0.20315256073E+02  0.36336368196E+02  0.00000000000E+00 0.  1.
         21    1    1    2  503  502  0.15651448462E+02  0.18431688011E+02  0.13427068547E+03  0.13643061218E+03  0.00000000000E+00 0.  1.
          1    1    1    2  501    0  0.18716973833E+02  0.17280386499E+02  0.41445436550E+02  0.48648340957E+02  0.00000000000E+00 0. -1.
<scales pt_clust_5="13000.00000" pt_clust_6="13000.00000" pt_clust_7="13000.00000" pt_clust_8="13000.00000" pt_clust_9="24.18047" pt_clust_10="26.47704"></scales>
<clustering>
<clus scale="   24.180">  1  9  2 -1</clus>
<clus scale="   26.477">  2 10  1 -1</clus>
<clus scale="   80.165">  5  6 -1 -1</clus>
<clus scale="   89.351">  7  8 -1 -1</clus>
<clus scale="  134.796">  1  5  2 -1</clus>
<clus scale="   26.477">  2  5  1 -1</clus>
</clustering>
</event>
<event>
10    4  0.2857708E-005  0.1038604E+03  0.7546771E-02  0.1275114E+00
          2   -1    0    0  503    0 -0.00000000000E+00  0.00000000000E+00  0.29910513309E+03  0.29910513309E+03  0.00000000000E+00 0. -1.
         21   -1    0    0  501  502  0.00000000000E+00 -0.00000000000E+00 -0.54402467107E+03  0.54402467107E+03  0.00000000000E+00 0. -1.
         23    2    1    2    0    0 -0.29408015320E+02  0.69058512488E+02  0.16205489491E+03  0.19897787157E+03  0.87729669427E+02 0.  0.
         24    2    1    2    0    0  0.27497639308E+02 -0.34545491967E+01 -0.81639278600E+02  0.11854926579E+03  0.81368928542E+02 0.  0.
        -11    1    4    4    0    0 -0.20404951296E+02  0.17138170475E+02 -0.70888793826E+01  0.27574102624E+02  0.00000000000E+00 0.  1.
         12    1    4    4    0    0  0.47902590604E+02 -0.20592719672E+02 -0.74550399218E+02  0.90975163169E+02  0.00000000000E+00 0. -1.
        -13    1    3    3    0    0 -0.28382009062E+02  0.93796287936E+01  0.41623664177E+01  0.30180145276E+02  0.00000000000E+00 0.  1.
         13    1    3    3    0    0 -0.10260062584E+01  0.59678883695E+02  0.15789252850E+03  0.16879772630E+03  0.00000000000E+00 0. -1.
         21    1    1    2  503  502  0.62770958291E+02 -0.85878916573E+00  0.85049069429E+02  0.10570844306E+03  0.00000000000E+00 0.  1.
          1    1    1    2  501    0 -0.60860582279E+02 -0.64745174126E+02 -0.41038422372E+03  0.41989422374E+03  0.00000000000E+00 0. -1.
<scales pt_clust_5="13000.00000" pt_clust_6="13000.00000" pt_clust_7="13000.00000" pt_clust_8="13000.00000" pt_clust_9="62.77683" pt_clust_10="87.87695"></scales>
<clustering>
<clus scale="   62.777">  1  9  2 -1</clus>
<clus scale="   81.369">  5  6 -1 -1</clus>
<clus scale="   87.730">  7  8 -1 -1</clus>
<clus scale="   87.877">  2 10  1 -1</clus>
<clus scale="   98.546">  2  5  1 -1</clus>
<clus scale="   87.877">  2  5  1 -1</clus>
</clustering>
</event>
<event>
10    4  0.2857708E-005  0.4547589E+03  0.7546771E-02  0.1026312E+00
         21   -1    0    0  501  502  0.00000000000E+00  0.00000000000E+00  0.17799740719E+03  0.17799740719E+03  0.00000000000E+00 0. -1.
          2   -1    0    0  503    0 -0.00000000000E+00 -0.00000000000E+00 -0.15614097700E+04  0.15614097700E+04  0.00000000000E+00 0. -1.
         24    2    1    2    0    0  0.12635034154E+02  0.88019819758E+02 -0.30260257871E+03  0.32552537135E+03  0.80568691144E+02 0.  0.
         23    2    1    2    0    0 -0.11414789701E+03  0.24872300346E+03 -0.39219654333E+03  0.48652226970E+03  0.89403106591E+02 0.  0.
        -11    1    3    3    0    0  0.22458579579E+02  0.11750457550E+02 -0.18987622195E+02  0.31670030723E+02  0.00000000000E+00 0.  1.
         12    1    3    3    0    0 -0.98235454252E+01  0.76269362208E+02 -0.28361495652E+03  0.29385534063E+03  0.00000000000E+00 0. -1.
        -11    1    4    4    0    0 -0.77793075316E+02  0.75732758695E+02 -0.18151068555E+03  0.21150258219E+03  0.00000000000E+00 0.  1.
         11    1    4    4    0    0 -0.36354821692E+02  0.17299024477E+03 -0.21068585779E+03  0.27501968751E+03  0.00000000000E+00 0. -1.
         21    1    1    2  503  502 -0.45507413728E+02  0.48177102192E+02 -0.44245051652E+03  0.44738620615E+03  0.00000000000E+00 0. -1.
          1    1    1    2  501    0  0.14702027658E+03 -0.38491992541E+03 -0.24616272425E+03  0.47997333000E+03  0.00000000000E+00 0. -1.
<scales pt_clust_5="13000.00000" pt_clust_6="13000.00000" pt_clust_7="13000.00000" pt_clust_8="13000.00000" pt_clust_9="66.27185" pt_clust_10="392.21255"></scales>
<clustering>
<clus scale="   66.272">  2  9  1 -1</clus>
<clus scale="   80.569">  5  6 -1 -1</clus>
<clus scale="   89.403">  7  8 -1 -1</clus>
<clus scale="  123.190">  5  7 -1 -1</clus>
<clus scale="  392.213">  1 10  2 -1</clus>
<clus scale="  392.213">  1  5  2 -1</clus>
</clustering>
</event>
<event>
10    4  0.2857708E-005  0.1903341E+03  0.7546771E-02  0.1195854E+00
          2   -1    0    0  503    0 -0.00000000000E+00  0.00000000000E+00  0.53823876053E+03  0.53823876053E+03  0.00000000000E+00 0. -1.
         21   -1    0    0  501  502  0.00000000000E+00 -0.00000000000E+00 -0.23198182869E+03  0.23198182869E+03  0.00000000000E+00 0. -1.
         24    2    1    2    0    0 -0.17742885023E+02 -0.37014703902E+02  0.14885847818E+03  0.17344287417E+03  0.78985351797E+02 0.  0.
         23    2    1    2    0    0  0.14867711415E+02  0.17085313805E+03 -0.72002092340E+02  0.20148183502E+03  0.77451823217E+02 0.  0.
        -11    1    3    3    0    0 -0.55220863995E+01 -0.28821951351E+02  0.61572277556E+01  0.29985159188E+02  0.00000000000E+00 0.  1.
         12    1    3    3    0    0 -0.12220798624E+02 -0.81927525502E+01  0.14270125043E+03  0.14345771498E+03  0.00000000000E+00 0. -1.
        -11    1    4    4    0    0 -0.22845572827E+02  0.85425666048E+02 -0.61061315411E+02  0.10746138310E+03  0.00000000000E+00 0. -1.
         11    1    4    4    0    0  0.37713284241E+02  0.85427472000E+02 -0.10940776928E+02  0.94020451926E+02  0.00000000000E+00 0.  1.
         21    1    1    2  503  502  0.49050596815E+02  0.39353057582E+02  0.20496675027E+03  0.21439681179E+03  0.00000000000E+00 0. -1.
          1    1    1    2  501    0 -0.46175423206E+02 -0.17319149173E+03  0.24433795730E+02  0.18089906824E+03  0.00000000000E+00 0. -1.
<scales pt_clust_5="13000.00000" pt_clust_6="13000.00000" pt_clust_7="13000.00000" pt_clust_8="13000.00000" pt_clust_9="62.88580" pt_clust_10="173.86289"></scales>
<clustering>
<clus scale="   62.886">  1  9  2 -1</clus>
<clus scale="   77.452">  7  8 -1 -1</clus>
<clus scale="   78.985">  5  6 -1 -1</clus>
<clus scale="   81.193">  1  5  2 -1</clus>
<clus scale="  173.863">  2 10  1 -1</clus>
<clus scale="  173.863">  2  5  1 -1</clus>
</clustering>
</event>
<event>
10    4  0.2857708E-005  0.1015770E+03  0.7546771E-02  0.1283486E+00
         -1   -1    0    0    0  501 -0.00000000000E+00  0.00000000000E+00  0.23352931404E+03  0.23352931404E+03  0.00000000000E+00 0.  1.
         21   -1    0    0  503  502  0.00000000000E+00 -0.00000000000E+00 -0.14161657587E+03  0.14161657587E+03  0.00000000000E+00 0.  1.
         23    2    1    2    0    0 -0.33710052328E+02 -0.99613903271E+01  0.13934808501E+03  0.17023389597E+03  0.91247430740E+02 0.  0.
         24    2    1    2    0    0  0.48952018992E+02  0.11557076715E+02 -0.40098921864E+02  0.10105381302E+03  0.77936406164E+02 0.  0.
        -11    1    4    4    0    0  0.67769646751E+02  0.19314553454E+02 -0.22015732943E+02  0.73827295040E+02  0.00000000000E+00 0.  1.
         12    1    4    4    0    0 -0.18817627759E+02 -0.77574767392E+01 -0.18083188921E+02  0.27226517981E+02  0.00000000000E+00 0. -1.
        -11    1    3    3    0    0 -0.45547195511E+02  0.15730704016E+02  0.28830206383E+02  0.56153208883E+02  0.00000000000E+00 0.  1.
         11    1    3    3    0    0  0.11837143183E+02 -0.25692094343E+02  0.11051787863E+03  0.11408068709E+03  0.00000000000E+00 0. -1.
         21    1    1    2  503  501 -0.11824664032E+02  0.27768632606E+02  0.38742687436E+02  0.49111256002E+02  0.00000000000E+00 0.  1.
         -2    1    1    2    0  502 -0.34173026322E+01 -0.29364318994E+02 -0.46079112415E+02  0.54746924920E+02  0.00000000000E+00 0.  1.
<scales pt_clust_5="13000.00000" pt_clust_6="13000.00000" pt_clust_7="13000.00000" pt_clust_8="13000.00000" pt_clust_9="28.73390" pt_clust_10="29.56250"></scales>
<clustering>
<clus scale="   29.562">  2 10  1 -1</clus>
<clus scale="   28.734">  1  9  2 -1</clus>
<clus scale="   77.936">  5  6 -1 -1</clus>
<clus scale="   89.810">  2  5  1 -1</clus>
<clus scale="   91.247">  7  8 -1 -1</clus>
<clus scale="   29.562">  2  5  1 -1</clus>
</clustering>
</event>
<event>
10    4  0.3016856E-005  0.3270175E+03  0.7546771E-02  0.1124942E+00
         21   -1    0    0  501  502  0.00000000000E+00  0.00000000000E+00  0.29183595118E+03  0.29183595118E+03  0.00000000000E+00 0. -1.
          2   -1    0    0  503    0 -0.00000000000E+00 -0.00000000000E+00 -0.22775802926E+04  0.22775802926E+04  0.00000000000E+00 0. -1.
         24    2    1    2    0    0 -0.31159608018E+00 -0.82185387302E+01 -0.68410078020E+03  0.68912818609E+03  0.82680940513E+02 0.  0.
         23    2    1    2    0    0 -0.97006205097E+02 -0.32640949839E+03 -0.11102582828E+04  0.11649629152E+04  0.92259280987E+02 0.  0.
        -11    1    3    3    0    0  0.29757406311E+02 -0.93575541563E+01 -0.11275030884E+03  0.11698589314E+03  0.00000000000E+00 0.  1.
         12    1    3    3    0    0 -0.30069002391E+02  0.11390154261E+01 -0.57135047136E+03  0.57214229295E+03  0.00000000000E+00 0. -1.
        -13    1    4    4    0    0  0.10005277074E+02 -0.26666808898E+02 -0.45730169040E+02  0.53874600941E+02  0.00000000000E+00 0.  1.
         13    1    4    4    0    0 -0.10701148217E+03 -0.29974268949E+03 -0.10645281137E+04  0.11110883143E+04  0.00000000000E+00 0. -1.
         21    1    1    2  503  502 -0.20652953044E+02  0.46155704019E+02 -0.35825203666E+03  0.36180300615E+03  0.00000000000E+00 0. -1.
          1    1    1    2  501    0  0.11797075422E+03  0.28847233310E+03  0.16686675826E+03  0.35352213626E+03  0.00000000000E+00 0. -1.
<scales pt_clust_5="13000.00000" pt_clust_6="13000.00000" pt_clust_7="13000.00000" pt_clust_8="13000.00000" pt_clust_9="50.56573" pt_clust_10="313.73339"></scales>
<clustering>
<clus scale="   50.566">  2  9  1 -1</clus>
<clus scale="   82.681">  5  6 -1 -1</clus>
<clus scale="   83.454">  2  5  1 -1</clus>
<clus scale="   92.259">  7  8 -1 -1</clus>
<clus scale="  313.733">  1 10  2 -1</clus>
<clus scale="  313.733">  1  5  2 -1</clus>
</clustering>
</event>
<event>
10    4  0.2857708E-005  0.1796712E+03  0.7546771E-02  0.1169839E+00
          2   -1    0    0  503    0 -0.00000000000E+00  0.00000000000E+00  0.30897897999E+03  0.30897897999E+03  0.00000000000E+00 0. -1.
         21   -1    0    0  501  502  0.00000000000E+00 -0.00000000000E+00 -0.29161999476E+03  0.29161999476E+03  0.00000000000E+00 0. -1.
         24    2    1    2    0    0 -0.16655596636E+03 -0.20172300093E+02  0.82291193239E+02  0.20320811881E+03  0.79836629720E+02 0.  0.
         23    2    1    2    0    0  0.11273415030E+03 -0.18151955687E+02 -0.87403313722E+02  0.17174132017E+03  0.93900264456E+02 0.  0.
        -11    1    3    3    0    0 -0.12753187516E+02 -0.19074754917E+02  0.35811610993E+02  0.42531888612E+02  0.00000000000E+00 0.  1.
         12    1    3    3    0    0 -0.15380277884E+03 -0.10975451752E+01  0.46479582245E+02  0.16067623020E+03  0.00000000000E+00 0. -1.
        -13    1    4    4    0    0  0.94561277436E+02  0.26978940561E+02 -0.49643929434E+02  0.11015542725E+03  0.00000000000E+00 0.  1.
         13    1    4    4    0    0  0.18172872865E+02 -0.45130896248E+02 -0.37759384288E+02  0.61585892915E+02  0.00000000000E+00 0. -1.
         21    1    1    2  503  502 -0.13447720611E+02  0.25169791076E+02  0.11047529073E+03  0.11410148744E+03  0.00000000000E+00 0.  1.
          1    1    1    2  501    0  0.67269536669E+02  0.13154464704E+02 -0.88004185021E+02  0.11154804833E+03  0.00000000000E+00 0. -1.
<scales pt_clust_5="13000.00000" pt_clust_6="13000.00000" pt_clust_7="13000.00000" pt_clust_8="13000.00000" pt_clust_9="28.53699" pt_clust_10="68.06244"></scales>
<clustering>
<clus scale="   28.537">  1  9  2 -1</clus>
<clus scale="   68.062">  2 10  1 -1</clus>
<clus scale="   79.837">  5  6 -1 -1</clus>
<clus scale="   93.900">  7  8 -1 -1</clus>
<clus scale="  172.738">  1  5  2 -1</clus>
<clus scale="   68.062">  2  5  1 -1</clus>
</clustering>
</event>
<event>
10    4  0.2857708E-005  0.9174139E+02  0.7546771E-02  0.1305205E+00
          2   -1    0    0  503    0 -0.00000000000E+00  0.00000000000E+00  0.38814369424E+03  0.38814369424E+03  0.00000000000E+00 0. -1.
         21   -1    0    0  501  502  0.00000000000E+00 -0.00000000000E+00 -0.74484782744E+02  0.74484782744E+02  0.00000000000E+00 0. -1.
         24    2    1    2    0    0  0.69988157695E+01 -0.13687557094E+02  0.90456806002E+02  0.12219526787E+03  0.80702646158E+02 0.  0.
         23    2    1    2    0    0  0.83996228378E+01  0.17483094700E+02 -0.16074112014E+02  0.94553226046E+02  0.91135740599E+02 0.  0.
        -11    1    3    3    0    0 -0.25949680469E+02  0.16545378672E+02  0.14425390622E+02  0.33988635842E+02  0.00000000000E+00 0.  1.
         12    1    3    3    0    0  0.32948496238E+02 -0.30232935766E+02  0.76031415380E+02  0.88206632030E+02  0.00000000000E+00 0. -1.
        -13    1    4    4    0    0  0.32822269258E+02  0.39595209062E+02  0.10177525814E+02  0.52427702330E+02  0.00000000000E+00 0. -1.
         13    1    4    4    0    0 -0.24422646420E+02 -0.22112114361E+02 -0.26251637828E+02  0.42125523716E+02  0.00000000000E+00 0.  1.
         21    1    1    2  503  502  0.65665077590E+00  0.21306620294E+02  0.51236121096E+02  0.55493633541E+02  0.00000000000E+00 0. -1.
          1    1    1    2  501    0 -0.16055089383E+02 -0.25102157901E+02  0.18804009641E+03  0.19038634952E+03  0.00000000000E+00 0. -1.
<scales pt_clust_5="13000.00000" pt_clust_6="13000.00000" pt_clust_7="13000.00000" pt_clust_8="13000.00000" pt_clust_9="21.31674" pt_clust_10="20.40950"></scales>
<clustering>
<clus scale="   21.317">  1  9  2 -1</clus>
<clus scale="   20.410">  2 10  1 -1</clus>
<clus scale="   80.703">  5  6 -1 -1</clus>
<clus scale="   81.386">  1  5  2 -1</clus>
<clus scale="   91.136">  7  8 -1 -1</clus>
<clus scale="   20.410">  2  5  1 -1</clus>
</clustering>
</event>
<event>
10    4  0.2857708E-005  0.1323408E+03  0.7546771E-02  0.1227237E+00
          2   -1    0    0  503    0 -0.00000000000E+00  0.00000000000E+00  0.51668426387E+03  0.51668426387E+03  0.00000000000E+00 0. -1.
         21   -1    0    0  501  502  0.00000000000E+00 -0.00000000000E+00 -0.60641188007E+02  0.60641188007E+02  0.00000000000E+00 0.  1.
         24    2    1    2    0    0  0.57632105507E+02 -0.70401638085E+02  0.18077703299E+03  0.21748033776E+03  0.79621048900E+02 0.  0.
         23    2    1    2    0    0 -0.61863849271E+02  0.74461446821E+02  0.77701063557E+02  0.15472759520E+03  0.92366284587E+02 0.  0.
        -11    1    3    3    0    0  0.47449099153E+02 -0.54150316824E+02  0.55931044465E+02  0.91169926826E+02  0.00000000000E+00 0.  1.
         12    1    3    3    0    0  0.10183006354E+02 -0.16251321261E+02  0.12484598852E+03  0.12631041094E+03  0.00000000000E+00 0. -1.
        -11    1    4    4    0    0 -0.53580218203E+02  0.40114345769E+02 -0.26146983427E+01  0.66983857507E+02  0.00000000000E+00 0.  1.
         11    1    4    4    0    0 -0.82836310689E+01  0.34347101052E+02  0.80315761899E+02  0.87743737690E+02  0.00000000000E+00 0. -1.
         21    1    1    2  503  502  0.23421925322E+02  0.10806431992E+02  0.14422560451E+03  0.14651413090E+03  0.00000000000E+00 0.  1.
          1    1    1    2  501    0 -0.19190181557E+02 -0.14866240727E+02  0.53339374810E+02  0.58603388013E+02  0.00000000000E+00 0. -1.
<scales pt_clust_5="13000.00000" pt_clust_6="13000.00000" pt_clust_7="13000.00000" pt_clust_8="13000.00000" pt_clust_9="25.32834" pt_clust_10="24.27486"></scales>
<clustering>
<clus scale="   24.275">  2 10  1 -1</clus>
<clus scale="   25.328">  1  9  2 -1</clus>
<clus scale="   79.621">  5  6 -1 -1</clus>
<clus scale="   92.366">  7  8 -1 -1</clus>
<clus scale="  123.782">  1  5  2 -1</clus>
<clus scale="   24.275">  2  5  1 -1</clus>
</clustering>
</event>
<event>
10    4  0.2857708E-005  0.1609742E+03  0.7546771E-02  0.1189509E+00
         21   -1    0    0  501  502  0.00000000000E+00  0.00000000000E+00  0.27410591196E+03  0.27410591196E+03  0.00000000000E+00 0.  1.
          2   -1    0    0  503    0 -0.00000000000E+00 -0.00000000000E+00 -0.74228711815E+03  0.74228711815E+03  0.00000000000E+00 0. -1.
         23    2    1    2    0    0 -0.16322884862E+03 -0.47646967740E+02 -0.58293897650E+03  0.61427089955E+03  0.92719993303E+02 0.  0.
         24    2    1    2    0    0  0.15151390969E+03  0.15025483644E+02  0.11675483724E+03  0.20811351643E+03  0.80605916131E+02 0.  0.
        -11    1    4    4    0    0  0.12930148313E+03  0.41667133907E+02  0.10425638087E+03  0.17124373431E+03  0.00000000000E+00 0.  1.
         12    1    4    4    0    0  0.22212426562E+02 -0.26641650263E+02  0.12498456371E+02  0.36869782128E+02  0.00000000000E+00 0. -1.
        -11    1    3    3    0    0 -0.83480718770E+02  0.14275375214E+02 -0.35514516997E+03  0.36510396943E+03  0.00000000000E+00 0.  1.
         11    1    3    3    0    0 -0.79748129846E+02 -0.61922342954E+02 -0.22779380654E+03  0.24916693013E+03  0.00000000000E+00 0. -1.
         21    1    1    2  503  502  0.49555996329E+02 -0.76804871334E+01 -0.82384397143E+02  0.96446749802E+02  0.00000000000E+00 0.  1.
          1    1    1    2  501    0 -0.37841057400E+02  0.40301971229E+02  0.80387330215E+02  0.97561864318E+02  0.00000000000E+00 0. -1.
<scales pt_clust_5="13000.00000" pt_clust_6="13000.00000" pt_clust_7="13000.00000" pt_clust_8="13000.00000" pt_clust_9="50.14765" pt_clust_10="54.76455"></scales>
<clustering>
<clus scale="   50.148">  2  9  1 -1</clus>
<clus scale="   54.765">  1 10  2 -1</clus>
<clus scale="   80.606">  5  6 -1 -1</clus>
<clus scale="   92.720">  7  8 -1 -1</clus>
<clus scale="  154.315">  1  5  2 -1</clus>
<clus scale="   54.765">  1  5  2 -1</clus>
</clustering>
</event>
<event>
10    4  0.2857708E-005  0.1163024E+03  0.7546771E-02  0.1252758E+00
          2   -1    0    0  503    0 -0.00000000000E+00  0.00000000000E+00  0.59628645004E+03  0.59628645004E+03  0.00000000000E+00 0. -1.
         21   -1    0    0  501  502  0.00000000000E+00 -0.00000000000E+00 -0.58391498099E+02  0.58391498099E+02  0.00000000000E+00 0. -1.
         24    2    1    2    0    0  0.37611906239E+02 -0.76757451222E+02  0.26857467864E+03  0.29268085379E+03  0.78888290398E+02 0.  0.
         23    2    1    2    0    0 -0.23564583061E+02  0.43401007898E+02  0.89385826671E+02  0.13558447486E+03  0.89187368793E+02 0.  0.
        -13    1    3    3    0    0  0.47020547867E+02 -0.18244139650E+02  0.76161858905E+02  0.91347738369E+02  0.00000000000E+00 0.  1.
         14    1    3    3    0    0 -0.94086416270E+01 -0.58513311573E+02  0.19241281973E+03  0.20133311542E+03  0.00000000000E+00 0. -1.
        -11    1    4    4    0    0  0.37618005849E+01  0.51484646314E+02  0.93488389711E+02  0.10679372154E+03  0.00000000000E+00 0. -1.
         11    1    4    4    0    0 -0.27326383646E+02 -0.80836384165E+01 -0.41025630401E+01  0.28790753320E+02  0.00000000000E+00 0.  1.
         21    1    1    2  503  502  0.51354845688E+02  0.14956532749E+02  0.13432296220E+03  0.14458103686E+03  0.00000000000E+00 0. -1.
          1    1    1    2  501    0 -0.65402168866E+02  0.18399910576E+02  0.45611484433E+02  0.81831582618E+02  0.00000000000E+00 0. -1.
<scales pt_clust_5="13000.00000" pt_clust_6="13000.00000" pt_clust_7="13000.00000" pt_clust_8="13000.00000" pt_clust_9="53.48849" pt_clust_10="61.73699"></scales>
<clustering>
<clus scale="   53.488">  1  9  2 -1</clus>
<clus scale="   61.737">  2 10  1 -1</clus>
<clus scale="   78.888">  5  6 -1 -1</clus>
<clus scale="   89.187">  7  8 -1 -1</clus>
<clus scale="  108.606">  1  5  2 -1</clus>
<clus scale="   61.737">  2  5  1 -1</clus>
</clustering>
</event>
<event>
10    4  0.2857708E-005  0.1317439E+03  0.7546771E-02  0.1244982E+00
         21   -1    0    0  503  502  0.00000000000E+00  0.00000000000E+00  0.14149728926E+03  0.14149728926E+03  0.00000000000E+00 0.  1.
         -1   -1    0    0    0  501 -0.00000000000E+00 -0.00000000000E+00 -0.28323388025E+03  0.28323388025E+03  0.00000000000E+00 0.  1.
         24    2    1    2    0    0  0.17249365438E+02  0.34860699911E+02 -0.41268233195E+02  0.96980964525E+02  0.78672939458E+02 0.  0.
         23    2    1    2    0    0  0.39609279445E+02  0.39045663124E+02 -0.15042770107E+03  0.18879550201E+03  0.99608179912E+02 0.  0.
        -13    1    3    3    0    0  0.65627034209E+01  0.59741004584E+02 -0.33519468649E+02  0.68815779320E+02  0.00000000000E+00 0.  1.
         14    1    3    3    0    0  0.10686662017E+02 -0.24880304673E+02 -0.77487645462E+01  0.28165185206E+02  0.00000000000E+00 0. -1.
        -11    1    4    4    0    0  0.15115980726E+02  0.50194264265E+02 -0.15302929212E+03  0.16175883681E+03  0.00000000000E+00 0.  1.
         11    1    4    4    0    0  0.24493298719E+02 -0.11148601141E+02  0.26015910523E+01  0.27036665207E+02  0.00000000000E+00 0. -1.
         21    1    1    2  503  501  0.19677118028E+02 -0.16614292540E+02  0.32997826347E+02  0.41857857495E+02  0.00000000000E+00 0.  1.
         -2    1    1    2    0  502 -0.76535762910E+02 -0.57292070494E+02  0.16961516930E+02  0.97096845481E+02  0.00000000000E+00 0.  1.
<scales pt_clust_5="13000.00000" pt_clust_6="13000.00000" pt_clust_7="13000.00000" pt_clust_8="13000.00000" pt_clust_9="25.75313" pt_clust_10="86.22443"></scales>
<clustering>
<clus scale="   25.753">  1  9  2 -1</clus>
<clus scale="   78.673">  5  6 -1 -1</clus>
<clus scale="   87.301">  2  5  1 -1</clus>
<clus scale="   86.224">  1 10  2 -1</clus>
<clus scale="   99.608">  7  8 -1 -1</clus>
<clus scale="   25.753">  1  5  2 -1</clus>
</clustering>
</event>
<event>
10    4  0.2857708E-005  0.9705088E+02  0.7546771E-02  0.1292316E+00
          2   -1    0    0  503    0 -0.00000000000E+00  0.00000000000E+00  0.70947433731E+03  0.70947433731E+03  0.00000000000E+00 0. -1.
         21   -1    0    0  501  502  0.00000000000E+00 -0.00000000000E+00 -0.89807724144E+02  0.89807724144E+02  0.00000000000E+00 0. -1.
         24    2    1    2    0    0  0.59678694398E+01  0.38621098093E+02  0.31059047510E+03  0.32344184455E+03  0.81369397828E+02 0.  0.
         23    2    1    2    0    0  0.25511660245E+02 -0.81514556385E+01  0.12696331136E+03  0.15895971467E+03  0.91821660953E+02 0.  0.
        -11    1    3    3    0    0 -0.32292107285E+02  0.33397139822E+02  0.11413376282E+03  0.12322607255E+03  0.00000000000E+00 0.  1.
         12    1    3    3    0    0  0.38259976725E+02  0.52239582716E+01  0.19645671227E+03  0.20021577200E+03  0.00000000000E+00 0. -1.
        -11    1    4    4    0    0  0.21479525889E+02 -0.49551593693E+02  0.69296466507E+02  0.87856307345E+02  0.00000000000E+00 0.  1.
         11    1    4    4    0    0  0.40321343553E+01  0.41400138055E+02  0.57666844851E+02  0.71103407327E+02  0.00000000000E+00 0. -1.
         21    1    1    2  503  502 -0.34729751423E+02 -0.60722205513E+01  0.24594929872E+03  0.24846344809E+03  0.00000000000E+00 0. -1.
          1    1    1    2  501    0  0.32502217385E+01 -0.24397421904E+02 -0.63836472015E+02  0.68417054132E+02  0.00000000000E+00 0. -1.
<scales pt_clust_5="13000.00000" pt_clust_6="13000.00000" pt_clust_7="13000.00000" pt_clust_8="13000.00000" pt_clust_9="35.33382" pt_clust_10="24.61297"></scales>
<clustering>
<clus scale="   24.613">  2 10  1 -1</clus>
<clus scale="   35.334">  1  9  2 -1</clus>
<clus scale="   81.369">  5  6 -1 -1</clus>
<clus scale="   87.227">  1  5  2 -1</clus>
<clus scale="   91.822">  7  8 -1 -1</clus>
<clus scale="   24.613">  2  5  1 -1</clus>
</clustering>
</event>
<event>
10    4  0.2857708E-005  0.1019584E+03  0.7546771E-02  0.1279960E+00
          2   -1    0    0  503    0 -0.00000000000E+00  0.00000000000E+00  0.55166268132E+03  0.55166268132E+03  0.00000000000E+00 0. -1.
         21   -1    0    0  501  502  0.00000000000E+00 -0.00000000000E+00 -0.83563441644E+02  0.83563441644E+02  0.00000000000E+00 0.  1.
         24    2    1    2    0    0 -0.23713833383E+02 -0.46665156036E+02  0.23595451888E+03  0.25535808810E+03  0.82421086491E+02 0.  0.
         23    2    1    2    0    0 -0.11143265167E+02  0.98782064982E+02  0.37567893884E+02  0.13952089568E+03  0.90402792871E+02 0.  0.
        -11    1    3    3    0    0 -0.10645960682E+01  0.20653286462E+02  0.98386236498E+02  0.10053627772E+03  0.00000000000E+00 0.  1.
         12    1    3    3    0    0 -0.22649237315E+02 -0.67318442499E+02  0.13756828238E+03  0.15482181038E+03  0.00000000000E+00 0. -1.
        -11    1    4    4    0    0 -0.24686185803E+02 -0.33871609562E+01 -0.89101430058E+01  0.26462639272E+02  0.00000000000E+00 0. -1.
         11    1    4    4    0    0  0.13542920637E+02  0.10216922594E+03  0.46478036890E+02  0.11305825640E+03  0.00000000000E+00 0.  1.
         21    1    1    2  503  502  0.42259720265E+02  0.18634412557E+02  0.14868058148E+03  0.15568892253E+03  0.00000000000E+00 0. -1.
          1    1    1    2  501    0 -0.74026217155E+01 -0.70751321502E+02  0.45896245429E+02  0.84658216654E+02  0.00000000000E+00 0. -1.
<scales pt_clust_5="13000.00000" pt_clust_6="13000.00000" pt_clust_7="13000.00000" pt_clust_8="13000.00000" pt_clust_9="46.18577" pt_clust_10="67.70817"></scales>
<clustering>
<clus scale="   46.186">  1  9  2 -1</clus>
<clus scale="   67.708">  2 10  1 -1</clus>
<clus scale="   82.421">  5  6 -1 -1</clus>
<clus scale="   90.403">  7  8 -1 -1</clus>
<clus scale="   94.953">  1  5  2 -1</clus>
<clus scale="   67.708">  2  5  1 -1</clus>
</clustering>
</event>
