<event>
 9    1  0.2374319E-005  0.1131364E+03  0.7546771E-02  0.1259183E+00
          1   -1    0    0  502    0  0.00000000000E+00  0.00000000000E+00  0.39621283500E+03  0.39621283500E+03  0.00000000000E+00 0. -1.
         -2   -1    0    0    0  501 -0.00000000000E+00 -0.00000000000E+00 -0.55489135695E+02  0.55489135695E+02  0.00000000000E+00 0.  1.
        -24    2    1    2    0    0  0.23083660885E+02  0.50859092952E+02  0.57495310809E+02  0.11351070629E+03  0.80370809012E+02 0.  0.
         23    2    1    2    0    0 -0.64726940115E+02 -0.61567343433E+02  0.14569253812E+03  0.19409081516E+03  0.92004425506E+02 0.  0.
         11    1    3    3    0    0  0.96060994907E+01  0.55623794030E+02  0.73093940897E+02  0.92352627497E+02  0.00000000000E+00 0. -1.
        -12    1    3    3    0    0  0.13477561395E+02 -0.47647010779E+01 -0.15598630088E+02  0.21158078791E+02  0.00000000000E+00 0.  1.
        -13    1    4    4    0    0  0.12015048929E+02 -0.42681941368E+02  0.28397130665E+02  0.52654596663E+02  0.00000000000E+00 0.  1.
         13    1    4    4    0    0 -0.76741989044E+02 -0.18885402064E+02  0.11729540745E+03  0.14143621850E+03  0.00000000000E+00 0. -1.
         21    1    1    2  502  501  0.41643279229E+02  0.10708250481E+02  0.13753585038E+03  0.14410044925E+03  0.00000000000E+00 0.  1.
<scales pt_clust_5="13000.00000" pt_clust_6="13000.00000" pt_clust_7="13000.00000" pt_clust_8="13000.00000" pt_clust_9="42.99802"></scales>
<clustering>
<clus scale="   42.998">  1  9  2 -1</clus>
<clus scale="   80.371">  5  6 -1 -1</clus>
<clus scale="   92.004">  7  8 -1 -1</clus>
<clus scale="  103.897">  2  5  1 -1</clus>
<clus scale="   42.998">  1  5  2 -1</clus>
</clustering>
</event>
<event>
 9    1  0.2374319E-005  0.1027737E+03  0.7546771E-02  0.1281541E+00
          1   -1    0    0  502    0  0.00000000000E+00  0.00000000000E+00  0.66013450506E+03  0.66013450506E+03  0.00000000000E+00 0. -1.
         -2   -1    0    0    0  501 -0.00000000000E+00 -0.00000000000E+00 -0.19968540401E+02  0.19968540401E+02  0.00000000000E+00 0.  1.
        -24    2    1    2    0    0 -0.22668061353E+02 -0.26934445835E+02  0.16513934851E+03  0.18697014948E+03  0.80296494261E+02 0.  0.
         23    2    1    2    0    0  0.20229911341E+02  0.49463514964E+02  0.36441454190E+03  0.38022348761E+03  0.94424856648E+02 0.  0.
         11    1    3    3    0    0  0.23863127301E+02  0.95775621334E+01  0.30371398076E+02  0.39794476528E+02  0.00000000000E+00 0. -1.
        -12    1    3    3    0    0 -0.46531188654E+02 -0.36512007968E+02  0.13476795044E+03  0.14717567295E+03  0.00000000000E+00 0.  1.
        -13    1    4    4    0    0 -0.26794426494E+02  0.46053000502E+01  0.34276540581E+02  0.43749643586E+02  0.00000000000E+00 0.  1.
         13    1    4    4    0    0  0.47024337835E+02  0.44858214913E+02  0.33013800132E+03  0.33647384402E+03  0.00000000000E+00 0. -1.
         21    1    1    2  502  501  0.24381500122E+01 -0.22529069129E+02  0.11061207424E+03  0.11290940837E+03  0.00000000000E+00 0.  1.
<scales pt_clust_5="13000.00000" pt_clust_6="13000.00000" pt_clust_7="13000.00000" pt_clust_8="13000.00000" pt_clust_9="22.66062"></scales>
<clustering>
<clus scale="   22.661">  1  9  2 -1</clus>
<clus scale="   80.296">  5  6 -1 -1</clus>
<clus scale="   89.966">  2  5  1 -1</clus>
<clus scale="   94.425">  7  8 -1 -1</clus>
<clus scale="   22.661">  1  5  2 -1</clus>
</clustering>
</event>
<event>
 9    1  0.2374319E-005  0.1376145E+03  0.7546771E-02  0.1237627E+00
         -2   -1    0    0    0  501 -0.00000000000E+00  0.00000000000E+00  0.18237293732E+03  0.18237293732E+03  0.00000000000E+00 0.  1.
          1   -1    0    0  502    0  0.00000000000E+00 -0.00000000000E+00 -0.58773558864E+03  0.58773558864E+03  0.00000000000E+00 0. -1.
        -24    2    1    2    0    0 -0.21960737163E+02  0.29944943369E+02  0.11661217283E+03  0.14664003894E+03  0.80783219538E+02 0.  0.
         23    2    1    2    0    0 -0.61328883116E+02  0.35034102167E+02 -0.30097794814E+02  0.12037560375E+03  0.92713475318E+02 0.  0.
         11    1    3    3    0    0 -0.50176934737E+02  0.26613610029E+02  0.95981020801E+02  0.11152741982E+03  0.00000000000E+00 0. -1.
        -12    1    3    3    0    0  0.28216197575E+02  0.33313333397E+01  0.20631152029E+02  0.35112619120E+02  0.00000000000E+00 0.  1.
        -11    1    4    4    0    0 -0.19373042946E+02 -0.31148656820E+02 -0.18753566388E+02  0.41197692495E+02  0.00000000000E+00 0. -1.
         11    1    4    4    0    0 -0.41955840170E+02  0.66182758986E+02 -0.11344228426E+02  0.79177911250E+02  0.00000000000E+00 0.  1.
         21    1    1    2  502  501  0.83289620278E+02 -0.64979045536E+02 -0.49187702934E+03  0.50309288327E+03  0.00000000000E+00 0. -1.
<scales pt_clust_5="13000.00000" pt_clust_6="13000.00000" pt_clust_7="13000.00000" pt_clust_8="13000.00000" pt_clust_9="101.69545"></scales>
<clustering>
<clus scale="   80.783">  5  6 -1 -1</clus>
<clus scale="   88.910">  1  5  2 -1</clus>
<clus scale="   92.713">  7  8 -1 -1</clus>
<clus scale="  101.695">  2  9  1 -1</clus>
<clus scale="  101.695">  2  5  1 -1</clus>
</clustering>
</event>
<event>
 9    1  0.2374319E-005  0.9328426E+02  0.7546771E-02  0.1301107E+00
          1   -1    0    0  502    0  0.00000000000E+00  0.00000000000E+00  0.34477588110E+03  0.34477588110E+03  0.00000000000E+00 0. -1.
         -2   -1    0    0    0  501 -0.00000000000E+00 -0.00000000000E+00 -0.60901678994E+02  0.60901678994E+02  0.00000000000E+00 0.  1.
        -24    2    1    2    0    0  0.80303248583E+01  0.19577051754E+02  0.28004620514E+00  0.82272590103E+02  0.79504424931E+02 0.  0.
         23    2    1    2    0    0 -0.53341603501E+02 -0.26336329679E+02  0.22095828134E+03  0.24580308475E+03  0.89764499985E+02 0.  0.
         11    1    3    3    0    0  0.30970445599E+02  0.28786824688E+02  0.23485381359E+02  0.48367477853E+02  0.00000000000E+00 0. -1.
        -12    1    3    3    0    0 -0.22940120741E+02 -0.92097729342E+01 -0.23205335154E+02  0.33905112250E+02  0.00000000000E+00 0.  1.
        -11    1    4    4    0    0 -0.62957376014E+02  0.11458811544E+02  0.16992110071E+03  0.18157124228E+03  0.00000000000E+00 0.  1.
         11    1    4    4    0    0  0.96157725127E+01 -0.37795141223E+02  0.51037180623E+02  0.64231842470E+02  0.00000000000E+00 0. -1.
         21    1    1    2  502  501  0.45311278643E+02  0.67592779251E+01  0.62635874564E+02  0.77601885239E+02  0.00000000000E+00 0. -1.
<scales pt_clust_5="13000.00000" pt_clust_6="13000.00000" pt_clust_7="13000.00000" pt_clust_8="13000.00000" pt_clust_9="45.81266"></scales>
<clustering>
<clus scale="   45.813">  1  9  2 -1</clus>
<clus scale="   79.504">  5  6 -1 -1</clus>
<clus scale="   83.458">  2  5  1 -1</clus>
<clus scale="   89.764">  7  8 -1 -1</clus>
<clus scale="   45.813">  1  5  2 -1</clus>
</clustering>
</event>
<event>
 9    1  0.2374319E-005  0.1011039E+03  0.7546771E-02  0.1287658E+00
          1   -1    0    0  502    0  0.00000000000E+00  0.00000000000E+00  0.11571785654E+03  0.11571785654E+03  0.00000000000E+00 0. -1.
         -2   -1    0    0    0  501 -0.00000000000E+00 -0.00000000000E+00 -0.20368787120E+03  0.20368787120E+03  0.00000000000E+00 0.  1.
        -24    2    1    2    0    0 -0.12785141767E+00 -0.29115075268E+02 -0.11678295063E+03  0.14523588214E+03  0.81286529931E+02 0.  0.
         23    2    1    2    0    0 -0.12124752173E+01  0.42965397825E+01 -0.35682653877E+02  0.10505083744E+03  0.98704084562E+02 0.  0.
         13    1    3    3    0    0 -0.35968603993E+02 -0.10114284556E+02 -0.25190457915E+02  0.45062161458E+02  0.00000000000E+00 0. -1.
        -14    1    3    3    0    0  0.35840752575E+02 -0.19000790712E+02 -0.91592492714E+02  0.10017372068E+03  0.00000000000E+00 0.  1.
        -13    1    4    4    0    0 -0.33334071782E+02  0.22292508104E+02  0.14645845766E+02  0.42692119382E+02  0.00000000000E+00 0. -1.
         13    1    4    4    0    0  0.32121596565E+02 -0.17995968321E+02 -0.50328499643E+02  0.62358718059E+02  0.00000000000E+00 0.  1.
         21    1    1    2  502  501  0.13403266350E+01  0.24818535485E+02  0.64495589851E+02  0.69119008162E+02  0.00000000000E+00 0.  1.
<scales pt_clust_5="13000.00000" pt_clust_6="13000.00000" pt_clust_7="13000.00000" pt_clust_8="13000.00000" pt_clust_9="24.85470"></scales>
<clustering>
<clus scale="   24.855">  1  9  2 -1</clus>
<clus scale="   81.287">  5  6 -1 -1</clus>
<clus scale="   84.184">  2  5  1 -1</clus>
<clus scale="   98.704">  7  8 -1 -1</clus>
<clus scale="   24.855">  1  5  2 -1</clus>
</clustering>
</event>
<event>
 9    1  0.2374319E-005  0.9496326E+02  0.7546771E-02  0.1298062E+00
          1   -1    0    0  502    0  0.00000000000E+00  0.00000000000E+00  0.31430118782E+03  0.31430118782E+03  0.00000000000E+00 0. -1.
         -2   -1    0    0    0  501 -0.00000000000E+00 -0.00000000000E+00 -0.11654782141E+03  0.11654782141E+03  0.00000000000E+00 0.  1.
         23    2    1    2    0    0  0.23081404167E+02  0.43194637087E+01 -0.81346264212E+02  0.12494046770E+03  0.91877618514E+02 0.  0.
        -24    2    1    2    0    0 -0.33572591239E+02  0.20470930648E+02  0.25348402243E+03  0.26874958511E+03  0.80162410053E+02 0.  0.
         11    1    4    4    0    0 -0.46517445737E+02  0.20458614209E+02  0.25031660629E+03  0.25542284753E+03  0.00000000000E+00 0. -1.
        -12    1    4    4    0    0  0.12944854498E+02  0.12316438469E-01  0.31674161406E+01  0.13326737586E+02  0.00000000000E+00 0.  1.
        -11    1    3    3    0    0 -0.27311877685E+02 -0.19324252508E+02 -0.10966152836E+02  0.35208264735E+02  0.00000000000E+00 0. -1.
         11    1    3    3    0    0  0.50393281851E+02  0.23643716217E+02 -0.70380111376E+02  0.89732202969E+02  0.00000000000E+00 0.  1.
         21    1    1    2  502  501  0.10491187073E+02 -0.24790394356E+02  0.25615608189E+02  0.37158956409E+02  0.00000000000E+00 0.  1.
<scales pt_clust_5="13000.00000" pt_clust_6="13000.00000" pt_clust_7="13000.00000" pt_clust_8="13000.00000" pt_clust_9="26.91893"></scales>
<clustering>
<clus scale="   26.919">  1  9  2 -1</clus>
<clus scale="   80.162">  5  6 -1 -1</clus>
<clus scale="   83.681">  1  5  2 -1</clus>
<clus scale="   91.878">  7  8 -1 -1</clus>
<clus scale="   26.919">  1  5  2 -1</clus>
</clustering>
</event>
<event>
 9    1  0.2374319E-005  0.1204935E+03  0.7546771E-02  0.1248179E+00
         -2   -1    0    0    0  501 -0.00000000000E+00  0.00000000000E+00  0.34832816944E+02  0.34832816944E+02  0.00000000000E+00 0.  1.
          1   -1    0    0  502    0  0.00000000000E+00 -0.00000000000E+00 -0.68784024352E+03  0.68784024352E+03  0.00000000000E+00 0. -1.
        -24    2    1    2    0    0 -0.60098278617E+02 -0.84440812121E+02 -0.21008787373E+03  0.24496450612E+03  0.71614528740E+02 0.  0.
         23    2    1    2    0    0 -0.52028206147E+01  0.60844025547E+02 -0.25652791143E+03  0.27880434150E+03  0.90533014464E+02 0.  0.
         13    1    3    3    0    0 -0.51289598685E+02 -0.11588667299E+02 -0.85921414901E+02  0.10073435204E+03  0.00000000000E+00 0. -1.
        -14    1    3    3    0    0 -0.88086799319E+01 -0.72852144822E+02 -0.12416645882E+03  0.14423015407E+03  0.00000000000E+00 0.  1.
        -11    1    4    4    0    0 -0.39933024795E+02  0.13176134388E+01 -0.10480688149E+03  0.11216445508E+03  0.00000000000E+00 0.  1.
         11    1    4    4    0    0  0.34730204181E+02  0.59526412108E+02 -0.15172102994E+03  0.16663988642E+03  0.00000000000E+00 0. -1.
         21    1    1    2  502  501  0.65301099231E+02  0.23596786574E+02 -0.18639164142E+03  0.19890421285E+03  0.00000000000E+00 0. -1.
<scales pt_clust_5="13000.00000" pt_clust_6="13000.00000" pt_clust_7="13000.00000" pt_clust_8="13000.00000" pt_clust_9="69.43372"></scales>
<clustering>
<clus scale="   69.434">  2  9  1 -1</clus>
<clus scale="   71.615">  5  6 -1 -1</clus>
<clus scale="   90.533">  7  8 -1 -1</clus>
<clus scale="  107.010">  1  5  2 -1</clus>
<clus scale="   69.434">  2  5  1 -1</clus>
</clustering>
</event>
<event>
 9    1  0.2374319E-005  0.1110474E+03  0.7546771E-02  0.1266161E+00
         -2   -1    0    0    0  501 -0.00000000000E+00  0.00000000000E+00  0.11960103730E+03  0.11960103730E+03  0.00000000000E+00 0.  1.
          1   -1    0    0  502    0  0.00000000000E+00 -0.00000000000E+00 -0.27910250456E+03  0.27910250456E+03  0.00000000000E+00 0. -1.
        -24    2    1    2    0    0  0.49354872382E+02 -0.24916486081E+02  0.75005200372E+02  0.12297809906E+03  0.80256451817E+02 0.  0.
         23    2    1    2    0    0 -0.24379086936E+02  0.65118401264E+01 -0.21862427390E+03  0.24087187366E+03  0.97907826261E+02 0.  0.
         13    1    3    3    0    0  0.29567252555E+02  0.25901885569E+02  0.15475045363E+02  0.42244610646E+02  0.00000000000E+00 0. -1.
        -14    1    3    3    0    0  0.19787619828E+02 -0.50818371650E+02  0.59530155009E+02  0.80733488411E+02  0.00000000000E+00 0.  1.
        -11    1    4    4    0    0  0.23387935670E+02  0.30864767303E+02 -0.14312363165E+03  0.14827003518E+03  0.00000000000E+00 0. -1.
         11    1    4    4    0    0 -0.47767022606E+02 -0.24352927176E+02 -0.75500642248E+02  0.92601838484E+02  0.00000000000E+00 0.  1.
         21    1    1    2  502  501 -0.24975785446E+02  0.18404645955E+02 -0.15882393726E+02  0.34853569140E+02  0.00000000000E+00 0.  1.
<scales pt_clust_5="13000.00000" pt_clust_6="13000.00000" pt_clust_7="13000.00000" pt_clust_8="13000.00000" pt_clust_9="31.02452"></scales>
<clustering>
<clus scale="   31.025">  2  9  1 -1</clus>
<clus scale="   80.256">  5  6 -1 -1</clus>
<clus scale="   95.847">  1  5  2 -1</clus>
<clus scale="   97.908">  7  8 -1 -1</clus>
<clus scale="   31.025">  2  5  1 -1</clus>
</clustering>
</event>
<event>
 9    1  0.2374319E-005  0.1239332E+03  0.7546771E-02  0.1239921E+00
          1   -1    0    0  502    0  0.00000000000E+00  0.00000000000E+00  0.48728439403E+02  0.48728439403E+02  0.00000000000E+00 0. -1.
         -2   -1    0    0    0  501 -0.00000000000E+00 -0.00000000000E+00 -0.79577609682E+03  0.79577609682E+03  0.00000000000E+00 0.  1.
        -24    2    1    2    0    0 -0.15153504794E+02 -0.83983366869E+02 -0.49931628948E+03  0.51291602741E+03  0.80518691080E+02 0.  0.
         23    2    1    2    0    0  0.89095187608E+02  0.55037634496E+02 -0.13541971847E+03  0.19404166412E+03  0.91359584051E+02 0.  0.
         13    1    3    3    0    0  0.16798199665E+02 -0.42610328806E+02 -0.97598801458E+02  0.10781162126E+03  0.00000000000E+00 0. -1.
        -14    1    3    3    0    0 -0.31951704459E+02 -0.41373038063E+02 -0.40171748802E+03  0.40510440614E+03  0.00000000000E+00 0.  1.
        -11    1    4    4    0    0  0.61718784365E+02  0.67772478442E+02 -0.52135891320E+02  0.10545363124E+03  0.00000000000E+00 0. -1.
         11    1    4    4    0    0  0.27376403243E+02 -0.12734843946E+02 -0.83283827153E+02  0.88588032883E+02  0.00000000000E+00 0.  1.
         21    1    1    2  502  501 -0.73941682814E+02  0.28945732373E+02 -0.11231164946E+03  0.13754684469E+03  0.00000000000E+00 0. -1.
<scales pt_clust_5="13000.00000" pt_clust_6="13000.00000" pt_clust_7="13000.00000" pt_clust_8="13000.00000" pt_clust_9="79.40547"></scales>
<clustering>
<clus scale="   79.405">  1  9  2 -1</clus>
<clus scale="   80.519">  5  6 -1 -1</clus>
<clus scale="   91.360">  7  8 -1 -1</clus>
<clus scale="  116.173">  2  5  1 -1</clus>
<clus scale="   79.405">  1  5  2 -1</clus>
</clustering>
</event>
<event>
 9    1  0.2374319E-005  0.9307077E+02  0.7546771E-02  0.1301769E+00
         -2   -1    0    0    0  501 -0.00000000000E+00  0.00000000000E+00  0.12930240620E+02  0.12930240620E+02  0.00000000000E+00 0.  1.
          1   -1    0    0  502    0  0.00000000000E+00 -0.00000000000E+00 -0.10275985280E+04  0.10275985280E+04  0.00000000000E+00 0. -1.
         23    2    1    2    0    0  0.74494517564E+01  0.11720324545E+02 -0.22206822607E+03  0.24042811233E+03  0.91096211946E+02 0.  0.
        -24    2    1    2    0    0 -0.25644154681E+02 -0.22942936704E+02 -0.65073362153E+03  0.65663260767E+03  0.80796870310E+02 0.  0.
         13    1    4    4    0    0 -0.18052592075E+02 -0.49215863918E+02 -0.27816244807E+03  0.28305908369E+03  0.00000000000E+00 0. -1.
        -14    1    4    4    0    0 -0.75915626060E+01  0.26272927213E+02 -0.37257117346E+03  0.37357352399E+03  0.00000000000E+00 0.  1.
        -13    1    3    3    0    0 -0.41881754075E+02  0.66471196530E+01 -0.10925625425E+03  0.11719724663E+03  0.00000000000E+00 0. -1.
         13    1    3    3    0    0  0.49331205832E+02  0.50732048922E+01 -0.11281197182E+03  0.12323086571E+03  0.00000000000E+00 0.  1.
         21    1    1    2  502  501  0.18194702925E+02  0.11222612159E+02 -0.14186643981E+03  0.14346804865E+03  0.00000000000E+00 0. -1.
<scales pt_clust_5="13000.00000" pt_clust_6="13000.00000" pt_clust_7="13000.00000" pt_clust_8="13000.00000" pt_clust_9="21.37742"></scales>
<clustering>
<clus scale="   21.377">  2  9  1 -1</clus>
<clus scale="   80.797">  5  6 -1 -1</clus>
<clus scale="   83.017">  2  5  1 -1</clus>
<clus scale="   91.096">  7  8 -1 -1</clus>
<clus scale="   21.377">  2  5  1 -1</clus>
</clustering>
</event>
<event>
 9    1  0.2374319E-005  0.2802088E+03  0.7546771E-02  0.1120289E+00
         -2   -1    0    0    0  501 -0.00000000000E+00  0.00000000000E+00  0.91507714884E+03  0.91507714884E+03  0.00000000000E+00 0.  1.
          1   -1    0    0  502    0  0.00000000000E+00 -0.00000000000E+00 -0.20178218669E+03  0.20178218669E+03  0.00000000000E+00 0. -1.
         23    2    1    2    0    0  0.16276213876E+02 -0.11644038896E+03  0.12497710210E+03  0.19442907739E+03  0.91433641338E+02 0.  0.
        -24    2    1    2    0    0  0.22497210170E+03 -0.26812475058E+02  0.59475407698E+03  0.64178179884E+03  0.82583956528E+02 0.  0.
         11    1    4    4    0    0  0.31709968189E+02 -0.67196084672E+01  0.28651260784E+02  0.43261645427E+02  0.00000000000E+00 0. -1.
        -12    1    4    4    0    0  0.19326213351E+03 -0.20092866591E+02  0.56610281619E+03  0.59852015341E+03  0.00000000000E+00 0.  1.
        -11    1    3    3    0    0  0.32264801264E+02 -0.94700174973E+02  0.44404638874E+02  0.10945735468E+03  0.00000000000E+00 0.  1.
         11    1    3    3    0    0 -0.15988587388E+02 -0.21740213988E+02  0.80572463222E+02  0.84971722711E+02  0.00000000000E+00 0. -1.
         21    1    1    2  502  501 -0.24124831558E+03  0.14325286402E+03 -0.64362169180E+01  0.28064845930E+03  0.00000000000E+00 0. -1.
<scales pt_clust_5="13000.00000" pt_clust_6="13000.00000" pt_clust_7="13000.00000" pt_clust_8="13000.00000" pt_clust_9="267.76272"></scales>
<clustering>
<clus scale="   82.584">  5  6 -1 -1</clus>
<clus scale="   91.434">  7  8 -1 -1</clus>
<clus scale="  148.941">  1  7  2 -1</clus>
<clus scale="  267.763">  2  9  1 -1</clus>
<clus scale="  267.763">  2  5  1 -1</clus>
</clustering>
</event>
<event>
 9    1  0.2374319E-005  0.1698001E+03  0.7546771E-02  0.1179495E+00
         -2   -1    0    0    0  501 -0.00000000000E+00  0.00000000000E+00  0.18238407119E+03  0.18238407119E+03  0.00000000000E+00 0.  1.
          1   -1    0    0  502    0  0.00000000000E+00 -0.00000000000E+00 -0.32304066322E+03  0.32304066322E+03  0.00000000000E+00 0. -1.
         23    2    1    2    0    0  0.14015005246E+03  0.74497581772E+01  0.99171667614E+02  0.19482006030E+03  0.91773090475E+02 0.  0.
        -24    2    1    2    0    0 -0.15562054646E+03  0.56240408397E+01 -0.20208505610E+03  0.26776999402E+03  0.81320449352E+02 0.  0.
         13    1    4    4    0    0 -0.12987246304E+03  0.24015305052E+02 -0.19471405185E+03  0.23528100969E+03  0.00000000000E+00 0. -1.
        -14    1    4    4    0    0 -0.25748083424E+02 -0.18391264212E+02 -0.73710042499E+01  0.32488984333E+02  0.00000000000E+00 0.  1.
        -13    1    3    3    0    0  0.36631613682E+02  0.42638607386E+02  0.48793816825E+02  0.74436298411E+02  0.00000000000E+00 0.  1.
         13    1    3    3    0    0  0.10351843878E+03 -0.35188849209E+02  0.50377850789E+02  0.12038376188E+03  0.00000000000E+00 0. -1.
         21    1    1    2  502  501  0.15470494006E+02 -0.13073799017E+02 -0.37743203543E+02  0.42834680099E+02  0.00000000000E+00 0. -1.
<scales pt_clust_5="13000.00000" pt_clust_6="13000.00000" pt_clust_7="13000.00000" pt_clust_8="13000.00000" pt_clust_9="20.25489"></scales>
<clustering>
<clus scale="   20.255">  2  9  1 -1</clus>
<clus scale="   81.320">  5  6 -1 -1</clus>
<clus scale="   91.773">  7  8 -1 -1</clus>
<clus scale="  164.386">  2  5  1 -1</clus>
<clus scale="   20.255">  2  5  1 -1</clus>
</clustering>
</event>
<event>
 9    1  0.2374319E-005  0.1789372E+03  0.7546771E-02  0.1169975E+00
         -2   -1    0    0    0  501 -0.00000000000E+00  0.00000000000E+00  0.98471656624E+02  0.98471656624E+02  0.00000000000E+00 0.  1.
          1   -1    0    0  502    0  0.00000000000E+00 -0.00000000000E+00 -0.11602965712E+04  0.11602965712E+04  0.00000000000E+00 0. -1.
         23    2    1    2    0    0  0.12722253090E+03 -0.88839102560E+02 -0.43996498587E+00  0.18021819633E+03  0.91653948128E+02 0.  0.
        -24    2    1    2    0    0 -0.10002178451E+03  0.97958700244E+02 -0.92958950797E+03  0.94366828293E+03  0.82297694636E+02 0.  0.
         13    1    4    4    0    0 -0.49224135160E+02  0.93773088306E+02 -0.50189523816E+03  0.51294759738E+03  0.00000000000E+00 0. -1.
        -14    1    4    4    0    0 -0.50797649352E+02  0.41856119382E+01 -0.42769426981E+03  0.43072068554E+03  0.00000000000E+00 0.  1.
        -11    1    3    3    0    0  0.76894343267E+02 -0.77686022924E+02  0.38206290789E+02  0.11579110000E+03  0.00000000000E+00 0.  1.
         11    1    3    3    0    0  0.50328187629E+02 -0.11153079636E+02 -0.38646255775E+02  0.64427096324E+02  0.00000000000E+00 0. -1.
         21    1    1    2  502  501 -0.27200746384E+02 -0.91195976841E+01 -0.13179544165E+03  0.13488174860E+03  0.00000000000E+00 0. -1.
<scales pt_clust_5="13000.00000" pt_clust_6="13000.00000" pt_clust_7="13000.00000" pt_clust_8="13000.00000" pt_clust_9="28.68881"></scales>
<clustering>
<clus scale="   28.689">  2  9  1 -1</clus>
<clus scale="   82.298">  5  6 -1 -1</clus>
<clus scale="   91.654">  7  8 -1 -1</clus>
<clus scale="  174.330">  2  5  1 -1</clus>
<clus scale="   28.689">  2  5  1 -1</clus>
</clustering>
</event>
<event>
 9    1  0.2374319E-005  0.1024171E+03  0.7546771E-02  0.1279883E+00
          1   -1    0    0  502    0  0.00000000000E+00  0.00000000000E+00  0.50168196804E+02  0.50168196804E+02  0.00000000000E+00 0. -1.
         -2   -1    0    0    0  501 -0.00000000000E+00 -0.00000000000E+00 -0.33546373329E+03  0.33546373329E+03  0.00000000000E+00 0.  1.
         23    2    1    2    0    0  0.49653470558E+02  0.14422447043E+02 -0.25008713474E+03  0.27116047245E+03  0.91164426935E+02 0.  0.
        -24    2    1    2    0    0 -0.28510031105E+02 -0.11960254645E+02 -0.23497808376E+02  0.90176490671E+02  0.81386626091E+02 0.  0.
         13    1    4    4    0    0  0.18860233942E+01 -0.39426228853E+02 -0.28808995244E+02  0.48866581759E+02  0.00000000000E+00 0. -1.
        -14    1    4    4    0    0 -0.30396054500E+02  0.27465974208E+02  0.53111868685E+01  0.41309908912E+02  0.00000000000E+00 0.  1.
        -11    1    3    3    0    0  0.59589632193E+02 -0.15036379734E+02 -0.21793883761E+03  0.22643841087E+03  0.00000000000E+00 0. -1.
         11    1    3    3    0    0 -0.99361616355E+01  0.29458826778E+02 -0.32148297138E+02  0.44722061581E+02  0.00000000000E+00 0.  1.
         21    1    1    2  502  501 -0.21143439452E+02 -0.24621923980E+01 -0.11710593369E+02  0.24294966975E+02  0.00000000000E+00 0. -1.
<scales pt_clust_5="13000.00000" pt_clust_6="13000.00000" pt_clust_7="13000.00000" pt_clust_8="13000.00000" pt_clust_9="21.28632"></scales>
<clustering>
<clus scale="   21.286">  1  9  2 -1</clus>
<clus scale="   81.387">  5  6 -1 -1</clus>
<clus scale="   91.164">  7  8 -1 -1</clus>
<clus scale="   93.820">  1  5  2 -1</clus>
<clus scale="   21.286">  1  5  2 -1</clus>
</clustering>
</event>
<event>
 9    1  0.2374319E-005  0.1014811E+03  0.7546771E-02  0.1282422E+00
          3   -1    0    0  502    0  0.00000000000E+00  0.00000000000E+00  0.36117963433E+03  0.36117963433E+03  0.00000000000E+00 0. -1.
         -4   -1    0    0    0  501 -0.00000000000E+00 -0.00000000000E+00 -0.45665228484E+02  0.45665228484E+02  0.00000000000E+00 0.  1.
         23    2    1    2    0    0 -0.32745739422E+02  0.36740603977E+02  0.66889069196E+02  0.12361999374E+03  0.91572920908E+02 0.  0.
        -24    2    1    2    0    0  0.93767332475E+01 -0.38376313396E+02  0.10753703218E+03  0.14020495559E+03  0.80824202596E+02 0.  0.
         13    1    4    4    0    0  0.37580591901E+02  0.24890061833E+01  0.63540306587E+02  0.73863838247E+02  0.00000000000E+00 0. -1.
        -14    1    4    4    0    0 -0.28203858653E+02 -0.40865319579E+02  0.43996725591E+02  0.66341117340E+02  0.00000000000E+00 0.  1.
        -11    1    3    3    0    0 -0.60418416639E+02  0.31967690559E+02  0.66747744012E+02  0.95538367369E+02  0.00000000000E+00 0. -1.
         11    1    3    3    0    0  0.27672677217E+02  0.47729134183E+01  0.14132518409E+00  0.28081626372E+02  0.00000000000E+00 0.  1.
         21    1    1    2  502  501  0.23369006174E+02  0.16357094183E+01  0.14108830447E+03  0.14301991349E+03  0.00000000000E+00 0. -1.
<scales pt_clust_5="13000.00000" pt_clust_6="13000.00000" pt_clust_7="13000.00000" pt_clust_8="13000.00000" pt_clust_9="23.42618"></scales>
<clustering>
<clus scale="   23.426">  1  9  2 -1</clus>
<clus scale="   80.824">  5  6 -1 -1</clus>
<clus scale="   91.573">  7  8 -1 -1</clus>
<clus scale="   91.899">  1  5  2 -1</clus>
<clus scale="   23.426">  1  5  2 -1</clus>
</clustering>
</event>
<event>
 9    1  0.2374319E-005  0.1035568E+03  0.7546771E-02  0.1284142E+00
          1   -1    0    0  502    0  0.00000000000E+00  0.00000000000E+00  0.28099985666E+03  0.28099985666E+03  0.00000000000E+00 0. -1.
         -2   -1    0    0    0  501 -0.00000000000E+00 -0.00000000000E+00 -0.43770449999E+02  0.43770449999E+02  0.00000000000E+00 0.  1.
        -24    2    1    2    0    0 -0.23777466363E+02  0.36726239913E+02  0.45996798382E+02  0.93573516647E+02  0.68746730479E+02 0.  0.
         23    2    1    2    0    0  0.17968960711E+02 -0.56075391762E+02  0.15268657462E+03  0.18767753995E+03  0.91882184465E+02 0.  0.
         11    1    3    3    0    0  0.20027120641E+02  0.26713575350E+02  0.70805428471E+01  0.34129675594E+02  0.00000000000E+00 0. -1.
        -12    1    3    3    0    0 -0.43804587005E+02  0.10012664563E+02  0.38916255535E+02  0.59443841053E+02  0.00000000000E+00 0.  1.
        -11    1    4    4    0    0  0.19742022039E+02 -0.16591412135E+02 -0.39880158603E+01  0.26094571491E+02  0.00000000000E+00 0.  1.
         11    1    4    4    0    0 -0.17730613281E+01 -0.39483979627E+02  0.15667459048E+03  0.16158296846E+03  0.00000000000E+00 0. -1.
         21    1    1    2  502  501  0.58085056526E+01  0.19349151850E+02  0.38546033664E+02  0.43519250067E+02  0.00000000000E+00 0. -1.
<scales pt_clust_5="13000.00000" pt_clust_6="13000.00000" pt_clust_7="13000.00000" pt_clust_8="13000.00000" pt_clust_9="20.20219"></scales>
<clustering>
<clus scale="   20.202">  1  9  2 -1</clus>
<clus scale="   68.747">  5  6 -1 -1</clus>
<clus scale="   83.713">  2  5  1 -1</clus>
<clus scale="   91.882">  7  8 -1 -1</clus>
<clus scale="   20.202">  1  5  2 -1</clus>
</clustering>
</event>
<event>
 9    1  0.2374319E-005  0.1009377E+03  0.7546771E-02  0.1286640E+00
         -2   -1    0    0    0  501 -0.00000000000E+00  0.00000000000E+00  0.46556679247E+02  0.46556679247E+02  0.00000000000E+00 0.  1.
          1   -1    0    0  502    0  0.00000000000E+00 -0.00000000000E+00 -0.34004136599E+03  0.34004136599E+03  0.00000000000E+00 0. -1.
         23    2    1    2    0    0  0.11121036931E+02 -0.26025408340E+02 -0.51526859555E+02  0.11176943697E+03  0.95059930792E+02 0.  0.
        -24    2    1    2    0    0 -0.45080251714E+02  0.25060400437E+02 -0.15640543439E+03  0.18277769072E+03  0.79276551095E+02 0.  0.
         13    1    4    4    0    0 -0.11532846812E+02  0.50250386427E+02 -0.72421696530E+02  0.88898875246E+02  0.00000000000E+00 0. -1.
        -14    1    4    4    0    0 -0.33547404902E+02 -0.25189985990E+02 -0.83983737861E+02  0.93878815475E+02  0.00000000000E+00 0.  1.
        -11    1    3    3    0    0 -0.28202244301E+02 -0.32625543331E+02  0.41090706210E+01  0.43320631605E+02  0.00000000000E+00 0.  1.
         11    1    3    3    0    0  0.39323281232E+02  0.66001349911E+01 -0.55635930176E+02  0.68448805360E+02  0.00000000000E+00 0. -1.
         21    1    1    2  502  501  0.33959214783E+02  0.96500790327E+00 -0.85552392801E+02  0.92050917556E+02  0.00000000000E+00 0.  1.
<scales pt_clust_5="13000.00000" pt_clust_6="13000.00000" pt_clust_7="13000.00000" pt_clust_8="13000.00000" pt_clust_9="33.97292"></scales>
<clustering>
<clus scale="   33.973">  2  9  1 -1</clus>
<clus scale="   79.277">  5  6 -1 -1</clus>
<clus scale="   86.237">  2  5  1 -1</clus>
<clus scale="   95.060">  7  8 -1 -1</clus>
<clus scale="   33.973">  2  5  1 -1</clus>
</clustering>
</event>
<event>
 9    1  0.2374319E-005  0.1133675E+03  0.7546771E-02  0.1258435E+00
         -2   -1    0    0    0  501 -0.00000000000E+00  0.00000000000E+00  0.53598210009E+02  0.53598210009E+02  0.00000000000E+00 0.  1.
          1   -1    0    0  502    0  0.00000000000E+00 -0.00000000000E+00 -0.35999487800E+03  0.35999487800E+03  0.00000000000E+00 0. -1.
        -24    2    1    2    0    0  0.68541721879E+02  0.70074454023E+01 -0.38209057370E+02  0.11272941421E+03  0.80628263251E+02 0.  0.
         23    2    1    2    0    0 -0.61943893478E+02  0.16706023705E+02 -0.22021494427E+03  0.24694487676E+03  0.91493241888E+02 0.  0.
         13    1    3    3    0    0  0.19517574995E+02  0.41602591204E+02 -0.19021016283E+02  0.49734398448E+02  0.00000000000E+00 0. -1.
        -14    1    3    3    0    0  0.49024146884E+02 -0.34595145801E+02 -0.19188041086E+02  0.62995015767E+02  0.00000000000E+00 0.  1.
        -11    1    4    4    0    0 -0.79222935530E+02  0.26976396539E+02 -0.20592671582E+03  0.22228317924E+03  0.00000000000E+00 0. -1.
         11    1    4    4    0    0  0.17279042051E+02 -0.10270372834E+02 -0.14288228448E+02  0.24661697519E+02  0.00000000000E+00 0.  1.
         21    1    1    2  502  501 -0.65978284001E+01 -0.23713469107E+02 -0.47972666348E+02  0.53918797031E+02  0.00000000000E+00 0. -1.
<scales pt_clust_5="13000.00000" pt_clust_6="13000.00000" pt_clust_7="13000.00000" pt_clust_8="13000.00000" pt_clust_9="24.61422"></scales>
<clustering>
<clus scale="   24.614">  2  9  1 -1</clus>
<clus scale="   80.628">  5  6 -1 -1</clus>
<clus scale="   91.493">  7  8 -1 -1</clus>
<clus scale="  104.795">  1  5  2 -1</clus>
<clus scale="   24.614">  2  5  1 -1</clus>
</clustering>
</event>
<event>
 9    1  0.2374319E-005  0.1261986E+03  0.7546771E-02  0.1239213E+00
         -2   -1    0    0    0  501 -0.00000000000E+00  0.00000000000E+00  0.39117579101E+03  0.39117579101E+03  0.00000000000E+00 0.  1.
          1   -1    0    0  502    0  0.00000000000E+00 -0.00000000000E+00 -0.11858790203E+03  0.11858790203E+03  0.00000000000E+00 0. -1.
        -24    2    1    2    0    0 -0.74981844805E+02  0.18799889315E+02  0.32304023316E+03  0.34282733320E+03  0.84852078683E+02 0.  0.
         23    2    1    2    0    0  0.41782954938E+02 -0.12407436628E+02 -0.76046802309E+01  0.11235658295E+03  0.10327831701E+03 0.  0.
         11    1    3    3    0    0 -0.54007159225E+02 -0.57784767901E+01  0.74511550875E+02  0.92207023894E+02  0.00000000000E+00 0. -1.
        -12    1    3    3    0    0 -0.20974685580E+02  0.24578366106E+02  0.24852868229E+03  0.25062030930E+03  0.00000000000E+00 0.  1.
        -13    1    4    4    0    0  0.23176393983E+02  0.96010676137E+01  0.45487597631E+02  0.51946580980E+02  0.00000000000E+00 0.  1.
         13    1    4    4    0    0  0.18606560956E+02 -0.22008504241E+02 -0.53092277861E+02  0.60410001970E+02  0.00000000000E+00 0. -1.
         21    1    1    2  502  501  0.33198889867E+02 -0.63924526878E+01 -0.42847663948E+02  0.54579776892E+02  0.00000000000E+00 0. -1.
<scales pt_clust_5="13000.00000" pt_clust_6="13000.00000" pt_clust_7="13000.00000" pt_clust_8="13000.00000" pt_clust_9="33.80872"></scales>
<clustering>
<clus scale="   33.809">  2  9  1 -1</clus>
<clus scale="   84.852">  5  6 -1 -1</clus>
<clus scale="  103.278">  7  8 -1 -1</clus>
<clus scale="  111.622">  1  5  2 -1</clus>
<clus scale="   33.809">  2  5  1 -1</clus>
</clustering>
</event>
<event>
 9    1  0.2374319E-005  0.9567153E+02  0.7546771E-02  0.1296131E+00
         -2   -1    0    0    0  501 -0.00000000000E+00  0.00000000000E+00  0.25501883283E+03  0.25501883283E+03  0.00000000000E+00 0.  1.
          1   -1    0    0  502    0  0.00000000000E+00 -0.00000000000E+00 -0.36055674565E+03  0.36055674565E+03  0.00000000000E+00 0. -1.
         23    2    1    2    0    0 -0.29635597830E+02  0.92700147260E+01  0.23394647868E+03  0.25279789239E+03  0.90617976567E+02 0.  0.
        -24    2    1    2    0    0  0.27798492603E+02  0.25877151327E+02 -0.28245566982E+03  0.29576296133E+03  0.79070479498E+02 0.  0.
         13    1    4    4    0    0  0.50704157472E+02  0.32587505383E+02 -0.23547909695E+03  0.24307048812E+03  0.00000000000E+00 0. -1.
        -14    1    4    4    0    0 -0.22905664869E+02 -0.67103540565E+01 -0.46976572866E+02  0.52692473209E+02  0.00000000000E+00 0.  1.
        -11    1    3    3    0    0  0.29656486823E+02 -0.11216785951E+02  0.99643399883E+02  0.10456639344E+03  0.00000000000E+00 0. -1.
         11    1    3    3    0    0 -0.59292084653E+02  0.20486800677E+02  0.13430307880E+03  0.14823149895E+03  0.00000000000E+00 0.  1.
         21    1    1    2  502  501  0.18371052271E+01 -0.35147166053E+02 -0.57028721693E+02  0.67014724763E+02  0.00000000000E+00 0.  1.
<scales pt_clust_5="13000.00000" pt_clust_6="13000.00000" pt_clust_7="13000.00000" pt_clust_8="13000.00000" pt_clust_9="35.19515"></scales>
<clustering>
<clus scale="   35.195">  2  9  1 -1</clus>
<clus scale="   79.070">  5  6 -1 -1</clus>
<clus scale="   84.815">  2  5  1 -1</clus>
<clus scale="   90.618">  7  8 -1 -1</clus>
<clus scale="   35.195">  2  5  1 -1</clus>
</clustering>
</event>
<event>
 9    1  0.2374319E-005  0.9933372E+02  0.7546771E-02  0.1287464E+00
         -2   -1    0    0    0  501 -0.00000000000E+00  0.00000000000E+00  0.52693629841E+03  0.52693629841E+03  0.00000000000E+00 0.  1.
          1   -1    0    0  502    0  0.00000000000E+00 -0.00000000000E+00 -0.82350627218E+02  0.82350627218E+02  0.00000000000E+00 0. -1.
        -24    2    1    2    0    0  0.36419053934E+02 -0.13027657958E+02  0.46290469341E+03  0.47150294332E+03  0.80859155428E+02 0.  0.
         23    2    1    2    0    0 -0.69941894274E+01  0.34064017163E+02 -0.23765665223E+02  0.10120506789E+03  0.92023817420E+02 0.  0.
         13    1    3    3    0    0  0.31215225654E+02 -0.26100351974E+02  0.95222714964E+02  0.10355184272E+03  0.00000000000E+00 0. -1.
        -14    1    3    3    0    0  0.52038282801E+01  0.13072694016E+02  0.36768197844E+03  0.36795110060E+03  0.00000000000E+00 0.  1.
        -13    1    4    4    0    0  0.35782434388E+01  0.64927453567E+02 -0.99775935237E+01  0.65787008028E+02  0.00000000000E+00 0.  1.
         13    1    4    4    0    0 -0.10572432866E+02 -0.30863436404E+02 -0.13788071699E+02  0.35418059864E+02  0.00000000000E+00 0. -1.
         21    1    1    2  502  501 -0.29424864507E+02 -0.21036359205E+02  0.54466430043E+01  0.36578914416E+02  0.00000000000E+00 0. -1.
<scales pt_clust_5="13000.00000" pt_clust_6="13000.00000" pt_clust_7="13000.00000" pt_clust_8="13000.00000" pt_clust_9="36.17114"></scales>
<clustering>
<clus scale="   36.171">  2  9  1 -1</clus>
<clus scale="   80.859">  5  6 -1 -1</clus>
<clus scale="   89.090">  1  5  2 -1</clus>
<clus scale="   92.024">  7  8 -1 -1</clus>
<clus scale="   36.171">  2  5  1 -1</clus>
</clustering>
</event>
<event>
 9    1  0.2374319E-005  0.1101792E+03  0.7546771E-02  0.1263529E+00
          1   -1    0    0  502    0  0.00000000000E+00  0.00000000000E+00  0.69764667182E+02  0.69764667182E+02  0.00000000000E+00 0. -1.
         -2   -1    0    0    0  501 -0.00000000000E+00 -0.00000000000E+00 -0.60240052364E+03  0.60240052364E+03  0.00000000000E+00 0.  1.
        -24    2    1    2    0    0  0.51396316456E+02 -0.41403905841E+02 -0.52868718306E+03  0.53888597876E+03  0.80821382146E+02 0.  0.
         23    2    1    2    0    0 -0.30705261995E+02  0.33130038906E+02  0.18217640813E+02  0.10184798405E+03  0.89446726186E+02 0.  0.
         13    1    3    3    0    0  0.58611319101E+02  0.34896817166E+01 -0.28302422917E+03  0.28905047812E+03  0.00000000000E+00 0. -1.
        -14    1    3    3    0    0 -0.72150026452E+01 -0.44893587557E+02 -0.24566295389E+03  0.24983550064E+03  0.00000000000E+00 0.  1.
        -13    1    4    4    0    0 -0.13852261794E+02  0.57333388794E+02  0.34324580971E+02  0.68243530728E+02  0.00000000000E+00 0. -1.
         13    1    4    4    0    0 -0.16853000201E+02 -0.24203349888E+02 -0.16106940158E+02  0.33604453319E+02  0.00000000000E+00 0.  1.
         21    1    1    2  502  501 -0.20691054461E+02  0.82738669346E+01 -0.22166314216E+02  0.31431228017E+02  0.00000000000E+00 0.  1.
<scales pt_clust_5="13000.00000" pt_clust_6="13000.00000" pt_clust_7="13000.00000" pt_clust_8="13000.00000" pt_clust_9="22.28400"></scales>
<clustering>
<clus scale="   22.284">  1  9  2 -1</clus>
<clus scale="   80.821">  5  6 -1 -1</clus>
<clus scale="   89.447">  7  8 -1 -1</clus>
<clus scale="  103.300">  2  5  1 -1</clus>
<clus scale="   22.284">  1  5  2 -1</clus>
</clustering>
</event>
<event>
 9    1  0.2374319E-005  0.1244346E+03  0.7546771E-02  0.1239462E+00
         -2   -1    0    0    0  501 -0.00000000000E+00  0.00000000000E+00  0.12888513361E+03  0.12888513361E+03  0.00000000000E+00 0.  1.
          1   -1    0    0  502    0  0.00000000000E+00 -0.00000000000E+00 -0.61577289826E+03  0.61577289826E+03  0.00000000000E+00 0. -1.
        -24    2    1    2    0    0 -0.43919264808E+01 -0.98712144360E+02  0.70315416044E+02  0.14482030536E+03  0.79153563724E+02 0.  0.
         23    2    1    2    0    0 -0.31690951869E+02  0.30037060123E+02 -0.12539176902E+03  0.16111305594E+03  0.91256669042E+02 0.  0.
         13    1    3    3    0    0  0.89637281652E+01 -0.96887452241E+02  0.29255272059E+02  0.10160412279E+03  0.00000000000E+00 0. -1.
        -14    1    3    3    0    0 -0.13355654646E+02 -0.18246921182E+01  0.41060143985E+02  0.43216182576E+02  0.00000000000E+00 0.  1.
        -11    1    4    4    0    0 -0.41326890681E+02  0.54496620919E+02 -0.61322334185E+02  0.91859796728E+02  0.00000000000E+00 0. -1.
         11    1    4    4    0    0  0.96359388114E+01 -0.24459560797E+02 -0.64069434840E+02  0.69253259214E+02  0.00000000000E+00 0.  1.
         21    1    1    2  502  501  0.36082878350E+02  0.68675084237E+02 -0.43181141167E+03  0.43872467056E+03  0.00000000000E+00 0. -1.
<scales pt_clust_5="13000.00000" pt_clust_6="13000.00000" pt_clust_7="13000.00000" pt_clust_8="13000.00000" pt_clust_9="77.57732"></scales>
<clustering>
<clus scale="   77.577">  2  9  1 -1</clus>
<clus scale="   79.154">  5  6 -1 -1</clus>
<clus scale="   91.257">  7  8 -1 -1</clus>
<clus scale="  115.851">  1  5  2 -1</clus>
<clus scale="   77.577">  2  5  1 -1</clus>
</clustering>
</event>
<event>
 9    1  0.2374319E-005  0.3789628E+03  0.7546771E-02  0.1051654E+00
         -2   -1    0    0    0  501 -0.00000000000E+00  0.00000000000E+00  0.33562274345E+03  0.33562274345E+03  0.00000000000E+00 0.  1.
          1   -1    0    0  502    0  0.00000000000E+00 -0.00000000000E+00 -0.56385737721E+03  0.56385737721E+03  0.00000000000E+00 0. -1.
         23    2    1    2    0    0 -0.18952710155E+03  0.32432084056E+03  0.70396595361E+02  0.39315470739E+03  0.92251902242E+02 0.  0.
        -24    2    1    2    0    0  0.18334802321E+03 -0.30015924480E+03 -0.21531260529E+03  0.41935440203E+03  0.76069222738E+02 0.  0.
         11    1    4    4    0    0  0.15873943746E+03 -0.27583151195E+03 -0.21620137290E+03  0.38473921770E+03  0.00000000000E+00 0. -1.
        -12    1    4    4    0    0  0.24608585748E+02 -0.24327732849E+02  0.88876761315E+00  0.34615184326E+02  0.00000000000E+00 0.  1.
        -11    1    3    3    0    0 -0.20960216004E+02  0.47036106017E+02 -0.21633988910E+02  0.55854770614E+02  0.00000000000E+00 0. -1.
         11    1    3    3    0    0 -0.16856688554E+03  0.27728473454E+03  0.92030584271E+02  0.33729993678E+03  0.00000000000E+00 0.  1.
         21    1    1    2  502  501  0.61790783339E+01 -0.24161595755E+02 -0.83318623832E+02  0.86971011238E+02  0.00000000000E+00 0. -1.
<scales pt_clust_5="13000.00000" pt_clust_6="13000.00000" pt_clust_7="13000.00000" pt_clust_8="13000.00000" pt_clust_9="24.93920"></scales>
<clustering>
<clus scale="   24.939">  2  9  1 -1</clus>
<clus scale="   76.069">  5  6 -1 -1</clus>
<clus scale="   92.252">  7  8 -1 -1</clus>
<clus scale="  375.352">  2  5  1 -1</clus>
<clus scale="   24.939">  2  5  1 -1</clus>
</clustering>
</event>
<event>
 9    1  0.2374319E-005  0.9051832E+02  0.7546771E-02  0.1311788E+00
          1   -1    0    0  502    0  0.00000000000E+00  0.00000000000E+00  0.44538166328E+03  0.44538166328E+03  0.00000000000E+00 0. -1.
         -2   -1    0    0    0  501 -0.00000000000E+00 -0.00000000000E+00 -0.35022252803E+02  0.35022252803E+02  0.00000000000E+00 0.  1.
         23    2    1    2    0    0 -0.18300783301E+02  0.30207683162E+02  0.44047113135E+02  0.10154655866E+03  0.84404576940E+02 0.  0.
        -24    2    1    2    0    0  0.25526597248E+02 -0.11455772625E+02  0.23900482390E+03  0.24997353637E+03  0.67680286223E+02 0.  0.
         11    1    4    4    0    0  0.43980910997E+02 -0.20853471115E+01  0.20857767933E+03  0.21317438289E+03  0.00000000000E+00 0. -1.
        -12    1    4    4    0    0 -0.18454313749E+02 -0.93704255131E+01  0.30427144575E+02  0.36799153485E+02  0.00000000000E+00 0.  1.
        -11    1    3    3    0    0 -0.17437177860E+02 -0.25761557784E+02  0.31316805112E+02  0.44141310738E+02  0.00000000000E+00 0. -1.
         11    1    3    3    0    0 -0.86360544101E+00  0.55969240947E+02  0.12730308022E+02  0.57405247921E+02  0.00000000000E+00 0.  1.
         21    1    1    2  502  501 -0.72258139465E+01 -0.18751910538E+02  0.12730747344E+03  0.12888382106E+03  0.00000000000E+00 0. -1.
<scales pt_clust_5="13000.00000" pt_clust_6="13000.00000" pt_clust_7="13000.00000" pt_clust_8="13000.00000" pt_clust_9="20.09593"></scales>
<clustering>
<clus scale="   20.096">  1  9  2 -1</clus>
<clus scale="   67.680">  5  6 -1 -1</clus>
<clus scale="   75.167">  1  5  2 -1</clus>
<clus scale="   84.405">  7  8 -1 -1</clus>
<clus scale="   20.096">  1  5  2 -1</clus>
</clustering>
</event>
<event>
 9    1  0.2374319E-005  0.2409970E+03  0.7546771E-02  0.1119815E+00
         -2   -1    0    0    0  501 -0.00000000000E+00  0.00000000000E+00  0.15419486800E+03  0.15419486800E+03  0.00000000000E+00 0.  1.
          1   -1    0    0  502    0  0.00000000000E+00 -0.00000000000E+00 -0.72960625099E+03  0.72960625099E+03  0.00000000000E+00 0. -1.
         23    2    1    2    0    0  0.63076456009E+02  0.22748708390E+03 -0.51408318528E+02  0.25821742520E+03  0.91128540113E+02 0.  0.
        -24    2    1    2    0    0 -0.20779909668E+02 -0.20335098800E+03 -0.19663730815E+03  0.29461558753E+03  0.79678632598E+02 0.  0.
         11    1    4    4    0    0 -0.15355534836E+02 -0.23192048001E+02  0.75512459817E-01  0.27814910439E+02  0.00000000000E+00 0. -1.
        -12    1    4    4    0    0 -0.54243748319E+01 -0.18015894000E+03 -0.19671282061E+03  0.26680067709E+03  0.00000000000E+00 0.  1.
        -13    1    3    3    0    0  0.57921587322E+02  0.87881484947E+02 -0.54410436381E+02  0.11848443468E+03  0.00000000000E+00 0. -1.
         13    1    3    3    0    0  0.51548686863E+01  0.13960559895E+03  0.30021178530E+01  0.13973299052E+03  0.00000000000E+00 0.  1.
         21    1    1    2  502  501 -0.42296546340E+02 -0.24136095895E+02 -0.32736575631E+03  0.33096810626E+03  0.00000000000E+00 0. -1.
<scales pt_clust_5="13000.00000" pt_clust_6="13000.00000" pt_clust_7="13000.00000" pt_clust_8="13000.00000" pt_clust_9="48.69855"></scales>
<clustering>
<clus scale="   48.699">  2  9  1 -1</clus>
<clus scale="   79.679">  5  6 -1 -1</clus>
<clus scale="   91.129">  7  8 -1 -1</clus>
<clus scale="  236.905">  2  5  1 -1</clus>
<clus scale="   48.699">  2  5  1 -1</clus>
</clustering>
</event>
<event>
 9    1  0.2374319E-005  0.1549974E+03  0.7546771E-02  0.1219448E+00
         -2   -1    0    0    0  501 -0.00000000000E+00  0.00000000000E+00  0.48362683626E+03  0.48362683626E+03  0.00000000000E+00 0.  1.
          1   -1    0    0  502    0  0.00000000000E+00 -0.00000000000E+00 -0.19481437569E+03  0.19481437569E+03  0.00000000000E+00 0. -1.
         23    2    1    2    0    0 -0.10165191867E+01 -0.20654646215E+01  0.35412898730E+03  0.36554867712E+03  0.90626686181E+02 0.  0.
        -24    2    1    2    0    0 -0.22749808196E+02  0.12946206418E+03  0.20503829376E+02  0.15745809394E+03  0.84229831380E+02 0.  0.
         11    1    4    4    0    0 -0.43411577824E+02  0.66268892703E+02 -0.17140848481E+02  0.81055165880E+02  0.00000000000E+00 0. -1.
        -12    1    4    4    0    0  0.20661769628E+02  0.63193171473E+02  0.37644677858E+02  0.76402928059E+02  0.00000000000E+00 0.  1.
        -13    1    3    3    0    0  0.43604105150E+02  0.45245430544E+01  0.20999795165E+03  0.21452489173E+03  0.00000000000E+00 0.  1.
         13    1    3    3    0    0 -0.44620624336E+02 -0.65900076759E+01  0.14413103564E+03  0.15102378539E+03  0.00000000000E+00 0. -1.
         21    1    1    2  502  501  0.23766327383E+02 -0.12739659955E+03 -0.85820356101E+02  0.15543444090E+03  0.00000000000E+00 0.  1.
<scales pt_clust_5="13000.00000" pt_clust_6="13000.00000" pt_clust_7="13000.00000" pt_clust_8="13000.00000" pt_clust_9="130.11357"></scales>
<clustering>
<clus scale="   84.230">  5  6 -1 -1</clus>
<clus scale="   90.627">  7  8 -1 -1</clus>
<clus scale="   90.656">  1  7  2 -1</clus>
<clus scale="  130.114">  2  9  1 -1</clus>
<clus scale="  130.114">  2  5  1 -1</clus>
</clustering>
</event>
<event>
 9    1  0.2374319E-005  0.1034904E+03  0.7546771E-02  0.1284635E+00
          1   -1    0    0  502    0  0.00000000000E+00  0.00000000000E+00  0.13507523913E+03  0.13507523913E+03  0.00000000000E+00 0. -1.
         -2   -1    0    0    0  501 -0.00000000000E+00 -0.00000000000E+00 -0.17441900443E+03  0.17441900443E+03  0.00000000000E+00 0.  1.
        -24    2    1    2    0    0 -0.51520641087E+01  0.18806885459E+02 -0.12885610058E+03  0.15359722042E+03  0.81289413559E+02 0.  0.
         23    2    1    2    0    0 -0.12426618287E+02 -0.31451367954E+01  0.63775364628E+02  0.12101590927E+03  0.10204528620E+03 0.  0.
         13    1    3    3    0    0  0.29384036199E+02  0.34391322919E+02 -0.78168496621E+02  0.90313335336E+02  0.00000000000E+00 0. -1.
        -14    1    3    3    0    0 -0.34536100308E+02 -0.15584437460E+02 -0.50687603963E+02  0.63283885081E+02  0.00000000000E+00 0.  1.
        -11    1    4    4    0    0  0.41940606021E+02  0.14633142082E+02  0.37218792164E+02  0.57951546750E+02  0.00000000000E+00 0. -1.
         11    1    4    4    0    0 -0.54367224308E+02 -0.17778278878E+02  0.26556572464E+02  0.63064362518E+02  0.00000000000E+00 0.  1.
         21    1    1    2  502  501  0.17578682396E+02 -0.15661748663E+02  0.25736970657E+02  0.34881113866E+02  0.00000000000E+00 0. -1.
<scales pt_clust_5="13000.00000" pt_clust_6="13000.00000" pt_clust_7="13000.00000" pt_clust_8="13000.00000" pt_clust_9="23.54359"></scales>
<clustering>
<clus scale="   23.544">  1  9  2 -1</clus>
<clus scale="   81.289">  5  6 -1 -1</clus>
<clus scale="   83.096">  2  5  1 -1</clus>
<clus scale="  102.045">  7  8 -1 -1</clus>
<clus scale="   23.544">  1  5  2 -1</clus>
</clustering>
</event>
<event>
 9    1  0.2374319E-005  0.1000869E+03  0.7546771E-02  0.1285751E+00
         -4   -1    0    0    0  501 -0.00000000000E+00  0.00000000000E+00  0.88019570782E+02  0.88019570782E+02  0.00000000000E+00 0.  1.
          3   -1    0    0  502    0  0.00000000000E+00 -0.00000000000E+00 -0.17045775976E+03  0.17045775976E+03  0.00000000000E+00 0. -1.
        -24    2    1    2    0    0  0.73119069647E+01  0.34110859430E+02  0.19011612672E+02  0.89777624770E+02  0.80508172123E+02 0.  0.
         23    2    1    2    0    0 -0.25738787769E+02 -0.49221785340E+02 -0.65705806064E+02  0.12574015225E+03  0.91695493840E+02 0.  0.
         13    1    3    3    0    0 -0.21141589663E+02  0.14815456687E+00  0.36470391591E+02  0.42155405657E+02  0.00000000000E+00 0. -1.
        -14    1    3    3    0    0  0.28453496628E+02  0.33962704863E+02 -0.17458778919E+02  0.47622219114E+02  0.00000000000E+00 0.  1.
        -13    1    4    4    0    0  0.23043931379E+02  0.45024000764E+01  0.54539404367E+01  0.24104768120E+02  0.00000000000E+00 0.  1.
         13    1    4    4    0    0 -0.48782719148E+02 -0.53724185416E+02 -0.71159746501E+02  0.10163538413E+03  0.00000000000E+00 0. -1.
         21    1    1    2  502  501  0.18426880805E+02  0.15110925910E+02 -0.35743995590E+02  0.42959553522E+02  0.00000000000E+00 0. -1.
<scales pt_clust_5="13000.00000" pt_clust_6="13000.00000" pt_clust_7="13000.00000" pt_clust_8="13000.00000" pt_clust_9="23.83044"></scales>
<clustering>
<clus scale="   23.830">  2  9  1 -1</clus>
<clus scale="   80.508">  5  6 -1 -1</clus>
<clus scale="   89.949">  1  5  2 -1</clus>
<clus scale="   91.695">  7  8 -1 -1</clus>
<clus scale="   23.830">  2  5  1 -1</clus>
</clustering>
</event>
<event>
 9    1  0.2374319E-005  0.1391197E+03  0.7546771E-02  0.1216543E+00
         -2   -1    0    0    0  501 -0.00000000000E+00  0.00000000000E+00  0.13722994296E+03  0.13722994296E+03  0.00000000000E+00 0.  1.
          1   -1    0    0  502    0  0.00000000000E+00 -0.00000000000E+00 -0.20487070562E+03  0.20487070562E+03  0.00000000000E+00 0. -1.
        -24    2    1    2    0    0  0.57986431139E+01  0.90296255316E+02  0.47950012465E+02  0.13110290510E+03  0.81864094961E+02 0.  0.
         23    2    1    2    0    0 -0.15305625102E+02 -0.10961708049E+03 -0.12233524045E+03  0.18843306301E+03  0.91054608255E+02 0.  0.
         11    1    3    3    0    0  0.65358667086E-01  0.47070802590E+02 -0.19365555025E+02  0.50898815799E+02  0.00000000000E+00 0. -1.
        -12    1    3    3    0    0  0.57332844468E+01  0.43225452726E+02  0.67315567490E+02  0.80204089300E+02  0.00000000000E+00 0.  1.
        -13    1    4    4    0    0 -0.39819399005E+02 -0.47724218245E+02 -0.18069587661E+02  0.64727857545E+02  0.00000000000E+00 0.  1.
         13    1    4    4    0    0  0.24513773903E+02 -0.61892862249E+02 -0.10426565279E+03  0.12370520546E+03  0.00000000000E+00 0. -1.
         21    1    1    2  502  501  0.95069819877E+01  0.19320825177E+02  0.67444653223E+01  0.22564680466E+02  0.00000000000E+00 0. -1.
<scales pt_clust_5="13000.00000" pt_clust_6="13000.00000" pt_clust_7="13000.00000" pt_clust_8="13000.00000" pt_clust_9="21.53316"></scales>
<clustering>
<clus scale="   21.533">  1  9  2 -1</clus>
<clus scale="   81.864">  5  6 -1 -1</clus>
<clus scale="   91.055">  7  8 -1 -1</clus>
<clus scale="  133.286">  1  5  2 -1</clus>
<clus scale="  139.120">  2  5  1 -1</clus>
</clustering>
</event>
<event>
 9    1  0.2374319E-005  0.1048173E+03  0.7546771E-02  0.1275678E+00
         -2   -1    0    0    0  501 -0.00000000000E+00  0.00000000000E+00  0.43571779990E+03  0.43571779990E+03  0.00000000000E+00 0.  1.
          1   -1    0    0  502    0  0.00000000000E+00 -0.00000000000E+00 -0.17084997745E+03  0.17084997745E+03  0.00000000000E+00 0. -1.
        -24    2    1    2    0    0 -0.34224729304E+02  0.35135054413E+02  0.40604923133E+03  0.41713491173E+03  0.81974094522E+02 0.  0.
         23    2    1    2    0    0  0.11810274889E+02 -0.15842701519E+02 -0.95324285601E+02  0.13486659029E+03  0.93337044984E+02 0.  0.
         13    1    3    3    0    0  0.20586431029E+02 -0.11057545241E+02  0.11887132645E+03  0.12114645146E+03  0.00000000000E+00 0. -1.
        -14    1    3    3    0    0 -0.54811160333E+02  0.46192599654E+02  0.28717790488E+03  0.29598846027E+03  0.00000000000E+00 0.  1.
        -13    1    4    4    0    0  0.29978302262E+02  0.26926396149E+02 -0.72843973407E+02  0.83246464657E+02  0.00000000000E+00 0.  1.
         13    1    4    4    0    0 -0.18168027372E+02 -0.42769097668E+02 -0.22480312194E+02  0.51620125632E+02  0.00000000000E+00 0. -1.
         21    1    1    2  502  501  0.22414454414E+02 -0.19292352894E+02 -0.45857123283E+02  0.54566275323E+02  0.00000000000E+00 0. -1.
<scales pt_clust_5="13000.00000" pt_clust_6="13000.00000" pt_clust_7="13000.00000" pt_clust_8="13000.00000" pt_clust_9="29.57368"></scales>
<clustering>
<clus scale="   29.574">  2  9  1 -1</clus>
<clus scale="   81.974">  5  6 -1 -1</clus>
<clus scale="   93.337">  7  8 -1 -1</clus>
<clus scale="   94.840">  1  5  2 -1</clus>
<clus scale="   29.574">  2  5  1 -1</clus>
</clustering>
</event>
<event>
 9    1  0.2374319E-005  0.9926349E+02  0.7546771E-02  0.1286532E+00
         -4   -1    0    0    0  501 -0.00000000000E+00  0.00000000000E+00  0.42252556038E+03  0.42252556038E+03  0.00000000000E+00 0.  1.
          3   -1    0    0  502    0  0.00000000000E+00 -0.00000000000E+00 -0.41572130193E+02  0.41572130193E+02  0.00000000000E+00 0. -1.
        -24    2    1    2    0    0 -0.33352716165E+02 -0.34396430261E+02  0.29674763411E+03  0.31143689821E+03  0.81475549256E+02 0.  0.
         23    2    1    2    0    0  0.17097502989E+02  0.35898710940E+01  0.63625273218E+02  0.11220298763E+03  0.90753089518E+02 0.  0.
         13    1    3    3    0    0  0.10898484358E+02 -0.31201249797E+02  0.45128961385E+02  0.55936733064E+02  0.00000000000E+00 0. -1.
        -14    1    3    3    0    0 -0.44251200523E+02 -0.31951804644E+01  0.25161867272E+03  0.25550016514E+03  0.00000000000E+00 0.  1.
        -13    1    4    4    0    0 -0.26967861218E+02 -0.64002026983E+01  0.60931280419E+02  0.66939144503E+02  0.00000000000E+00 0.  1.
         13    1    4    4    0    0  0.44065364207E+02  0.99900737922E+01  0.26939927991E+01  0.45263843123E+02  0.00000000000E+00 0. -1.
         21    1    1    2  502  501  0.16255213176E+02  0.30806559167E+02  0.20580522861E+02  0.40457804739E+02  0.00000000000E+00 0.  1.
<scales pt_clust_5="13000.00000" pt_clust_6="13000.00000" pt_clust_7="13000.00000" pt_clust_8="13000.00000" pt_clust_9="34.83211"></scales>
<clustering>
<clus scale="   34.832">  2  9  1 -1</clus>
<clus scale="   81.476">  5  6 -1 -1</clus>
<clus scale="   90.753">  7  8 -1 -1</clus>
<clus scale="   90.859">  1  5  2 -1</clus>
<clus scale="   34.832">  2  5  1 -1</clus>
</clustering>
</event>
<event>
 9    1  0.2374319E-005  0.1337160E+03  0.7546771E-02  0.1244887E+00
          1   -1    0    0  502    0  0.00000000000E+00  0.00000000000E+00  0.95383302519E+03  0.95383302519E+03  0.00000000000E+00 0. -1.
         -2   -1    0    0    0  501 -0.00000000000E+00 -0.00000000000E+00 -0.12522785261E+03  0.12522785261E+03  0.00000000000E+00 0.  1.
        -24    2    1    2    0    0 -0.15657991575E+02  0.11561349861E+02 -0.66479144131E+02  0.10685360977E+03  0.81359571079E+02 0.  0.
         23    2    1    2    0    0 -0.22257386367E+02 -0.10114712514E+03  0.98323390142E+02  0.16952977294E+03  0.91360400019E+02 0.  0.
         13    1    3    3    0    0  0.14400587962E+02 -0.29003756936E+02 -0.33242907152E+02  0.46407819664E+02  0.00000000000E+00 0. -1.
        -14    1    3    3    0    0 -0.30058579537E+02  0.40565106797E+02 -0.33236236979E+02  0.60445790108E+02  0.00000000000E+00 0.  1.
        -11    1    4    4    0    0 -0.52853322260E+02 -0.31909208734E+02  0.35926453097E+02  0.71430954831E+02  0.00000000000E+00 0.  1.
         11    1    4    4    0    0  0.30595935893E+02 -0.69237916409E+02  0.62396937045E+02  0.98098818110E+02  0.00000000000E+00 0. -1.
         21    1    1    2  502  501  0.37915377942E+02  0.89585775282E+02  0.79676092657E+03  0.80267749509E+03  0.00000000000E+00 0. -1.
<scales pt_clust_5="13000.00000" pt_clust_6="13000.00000" pt_clust_7="13000.00000" pt_clust_8="13000.00000" pt_clust_9="97.63832"></scales>
<clustering>
<clus scale="   81.360">  5  6 -1 -1</clus>
<clus scale="   83.655">  2  5  1 -1</clus>
<clus scale="   91.360">  7  8 -1 -1</clus>
<clus scale="   97.638">  1  9  2 -1</clus>
<clus scale="   97.638">  1  5  2 -1</clus>
</clustering>
</event>
<event>
 9    1  0.2374319E-005  0.2043512E+03  0.7546771E-02  0.1170969E+00
         -2   -1    0    0    0  501 -0.00000000000E+00  0.00000000000E+00  0.50531485571E+03  0.50531485571E+03  0.00000000000E+00 0.  1.
          1   -1    0    0  502    0  0.00000000000E+00 -0.00000000000E+00 -0.18373633869E+03  0.18373633869E+03  0.00000000000E+00 0. -1.
        -24    2    1    2    0    0  0.10053359402E+03  0.94567068071E+02 -0.66606636670E+02  0.17277419005E+03  0.79778084761E+02 0.  0.
         23    2    1    2    0    0  0.69399418234E+02  0.11385867797E+02  0.53612079335E+02  0.12635086344E+03  0.90246154517E+02 0.  0.
         11    1    3    3    0    0  0.10623899094E+03  0.61359002804E+02 -0.65468566672E+02  0.13906035971E+03  0.00000000000E+00 0. -1.
        -12    1    3    3    0    0 -0.57053969162E+01  0.33208065267E+02 -0.11380699978E+01  0.33713830338E+02  0.00000000000E+00 0.  1.
        -13    1    4    4    0    0  0.13592431806E+02 -0.33710478797E+02 -0.71307131685E+00  0.36354629056E+02  0.00000000000E+00 0.  1.
         13    1    4    4    0    0  0.55806986428E+02  0.45096346593E+02  0.54325150652E+02  0.89996234386E+02  0.00000000000E+00 0. -1.
         21    1    1    2  502  501 -0.16993301226E+03 -0.10595293587E+03  0.33457307436E+03  0.38992614090E+03  0.00000000000E+00 0.  1.
<scales pt_clust_5="13000.00000" pt_clust_6="13000.00000" pt_clust_7="13000.00000" pt_clust_8="13000.00000" pt_clust_9="188.13523"></scales>
<clustering>
<clus scale="   79.778">  5  6 -1 -1</clus>
<clus scale="   90.246">  7  8 -1 -1</clus>
<clus scale="  114.413">  2  7  1 -1</clus>
<clus scale="  188.135">  1  9  2 -1</clus>
<clus scale="  114.413">  2  5  1 -1</clus>
</clustering>
</event>
<event>
 9    1  0.2374319E-005  0.9567889E+02  0.7546771E-02  0.1298123E+00
          3   -1    0    0  502    0  0.00000000000E+00  0.00000000000E+00  0.49069729429E+02  0.49069729429E+02  0.00000000000E+00 0. -1.
         -4   -1    0    0    0  501 -0.00000000000E+00 -0.00000000000E+00 -0.45279787828E+03  0.45279787828E+03  0.00000000000E+00 0.  1.
         23    2    1    2    0    0 -0.47321351264E+01  0.18002969730E+02 -0.36810146413E+03  0.38038172264E+03  0.94048216397E+02 0.  0.
        -24    2    1    2    0    0  0.28667055662E+02 -0.12562237308E+01 -0.16037916643E+02  0.86314110053E+02  0.79809351868E+02 0.  0.
         11    1    4    4    0    0  0.49331199399E+02  0.19719166182E+02 -0.73720298653E+00  0.53131499294E+02  0.00000000000E+00 0. -1.
        -12    1    4    4    0    0 -0.20664143736E+02 -0.20975389913E+02 -0.15300713657E+02  0.33182610758E+02  0.00000000000E+00 0.  1.
        -11    1    3    3    0    0  0.11946080142E+02  0.54183646719E+02 -0.19387975055E+03  0.20166292192E+03  0.00000000000E+00 0.  1.
         11    1    3    3    0    0 -0.16678215268E+02 -0.36180676989E+02 -0.17422171357E+03  0.17871880072E+03  0.00000000000E+00 0. -1.
         21    1    1    2  502  501 -0.23934920536E+02 -0.16746746000E+02 -0.19588768086E+02  0.35171775016E+02  0.00000000000E+00 0. -1.
<scales pt_clust_5="13000.00000" pt_clust_6="13000.00000" pt_clust_7="13000.00000" pt_clust_8="13000.00000" pt_clust_9="29.21188"></scales>
<clustering>
<clus scale="   29.212">  1  9  2 -1</clus>
<clus scale="   79.809">  5  6 -1 -1</clus>
<clus scale="   81.725">  1  5  2 -1</clus>
<clus scale="   94.048">  7  8 -1 -1</clus>
<clus scale="   29.212">  1  5  2 -1</clus>
</clustering>
</event>
<event>
 9    1  0.2374319E-005  0.1599984E+03  0.7546771E-02  0.1190165E+00
         -2   -1    0    0    0  501 -0.00000000000E+00  0.00000000000E+00  0.15904550561E+03  0.15904550561E+03  0.00000000000E+00 0.  1.
          1   -1    0    0  502    0  0.00000000000E+00 -0.00000000000E+00 -0.29073884474E+03  0.29073884474E+03  0.00000000000E+00 0. -1.
        -24    2    1    2    0    0 -0.61413694025E+02 -0.12080673671E+03  0.34118722893E+02  0.16120709735E+03  0.80360012032E+02 0.  0.
         23    2    1    2    0    0 -0.67469057911E+01  0.13721756080E+03 -0.13258730826E+03  0.21099460818E+03  0.89806183756E+02 0.  0.
         11    1    3    3    0    0 -0.25343648630E+02 -0.11589266542E+03  0.13570993723E+02  0.11940511838E+03  0.00000000000E+00 0. -1.
        -12    1    3    3    0    0 -0.36070045395E+02 -0.49140712910E+01  0.20547729171E+02  0.41801978967E+02  0.00000000000E+00 0.  1.
        -11    1    4    4    0    0 -0.19864852343E+02  0.85638523082E+02 -0.25702352372E+02  0.91592466457E+02  0.00000000000E+00 0.  1.
         11    1    4    4    0    0  0.13117946552E+02  0.51579037721E+02 -0.10688495589E+03  0.11940214173E+03  0.00000000000E+00 0. -1.
         21    1    1    2  502  501  0.68160599816E+02 -0.16410824088E+02 -0.33224753764E+02  0.77582644820E+02  0.00000000000E+00 0. -1.
<scales pt_clust_5="13000.00000" pt_clust_6="13000.00000" pt_clust_7="13000.00000" pt_clust_8="13000.00000" pt_clust_9="70.10836"></scales>
<clustering>
<clus scale="   70.108">  2  9  1 -1</clus>
<clus scale="   80.360">  5  6 -1 -1</clus>
<clus scale="   89.806">  7  8 -1 -1</clus>
<clus scale="  154.894">  1  5  2 -1</clus>
<clus scale="   70.108">  2  5  1 -1</clus>
</clustering>
</event>
<event>
 9    1  0.2374319E-005  0.1546072E+03  0.7546771E-02  0.1197731E+00
          1   -1    0    0  502    0  0.00000000000E+00  0.00000000000E+00  0.47864492489E+03  0.47864492489E+03  0.00000000000E+00 0. -1.
         -2   -1    0    0    0  501 -0.00000000000E+00 -0.00000000000E+00 -0.63766243462E+02  0.63766243462E+02  0.00000000000E+00 0.  1.
         23    2    1    2    0    0 -0.17567824765E+02 -0.11854744357E+03  0.96269514758E+02  0.17957680274E+03  0.92832557680E+02 0.  0.
        -24    2    1    2    0    0  0.32190993457E+01  0.13269149813E+03  0.28734520779E+03  0.32564061177E+03  0.76531975775E+02 0.  0.
         11    1    4    4    0    0  0.20421911787E+02  0.92950447310E+01  0.17614977271E+02  0.28526124199E+02  0.00000000000E+00 0. -1.
        -12    1    4    4    0    0 -0.17202812441E+02  0.12339645340E+03  0.26973023052E+03  0.29711448757E+03  0.00000000000E+00 0.  1.
        -11    1    3    3    0    0  0.21489099017E+02 -0.10899506417E+03  0.65690652319E+02  0.12906187350E+03  0.00000000000E+00 0. -1.
         11    1    3    3    0    0 -0.39056923782E+02 -0.95523794013E+01  0.30578862439E+02  0.50514929235E+02  0.00000000000E+00 0.  1.
         21    1    1    2  502  501  0.14348725420E+02 -0.14144054560E+02  0.31263958878E+02  0.37193753848E+02  0.00000000000E+00 0. -1.
<scales pt_clust_5="13000.00000" pt_clust_6="13000.00000" pt_clust_7="13000.00000" pt_clust_8="13000.00000" pt_clust_9="20.14796"></scales>
<clustering>
<clus scale="   20.148">  1  9  2 -1</clus>
<clus scale="   76.532">  5  6 -1 -1</clus>
<clus scale="   92.833">  7  8 -1 -1</clus>
<clus scale="  145.405">  1  5  2 -1</clus>
<clus scale="   20.148">  1  5  2 -1</clus>
</clustering>
</event>
<event>
 9    1  0.2374319E-005  0.9380910E+02  0.7546771E-02  0.1300347E+00
         -2   -1    0    0    0  501 -0.00000000000E+00  0.00000000000E+00  0.18023617610E+03  0.18023617610E+03  0.00000000000E+00 0.  1.
          1   -1    0    0  502    0  0.00000000000E+00 -0.00000000000E+00 -0.96229742477E+02  0.96229742477E+02  0.00000000000E+00 0. -1.
        -24    2    1    2    0    0 -0.20233885602E+02  0.11296149963E+02  0.12203059436E+03  0.14793071680E+03  0.80343125915E+02 0.  0.
         23    2    1    2    0    0  0.22673331983E+02  0.15811419078E+02 -0.26453903732E+02  0.98960854027E+02  0.91265331045E+02 0.  0.
         13    1    3    3    0    0  0.14181117430E+01  0.30978010764E+02  0.11319391520E+03  0.11736486114E+03  0.00000000000E+00 0. -1.
        -14    1    3    3    0    0 -0.21651997345E+02 -0.19681860802E+02  0.88366791613E+01  0.30565855660E+02  0.00000000000E+00 0.  1.
        -13    1    4    4    0    0  0.38615704487E+02 -0.16182481502E+02 -0.42605751388E+02  0.59735210654E+02  0.00000000000E+00 0. -1.
         13    1    4    4    0    0 -0.15942372504E+02  0.31993900580E+02  0.16151847655E+02  0.39225643373E+02  0.00000000000E+00 0.  1.
         21    1    1    2  502  501 -0.24394463811E+01 -0.27107569040E+02 -0.11570257002E+02  0.29574347753E+02  0.00000000000E+00 0. -1.
<scales pt_clust_5="13000.00000" pt_clust_6="13000.00000" pt_clust_7="13000.00000" pt_clust_8="13000.00000" pt_clust_9="27.21711"></scales>
<clustering>
<clus scale="   27.217">  2  9  1 -1</clus>
<clus scale="   80.343">  5  6 -1 -1</clus>
<clus scale="   83.221">  1  5  2 -1</clus>
<clus scale="   91.265">  7  8 -1 -1</clus>
<clus scale="   27.217">  2  5  1 -1</clus>
</clustering>
</event>
<event>
 9    1  0.2374319E-005  0.1202219E+03  0.7546771E-02  0.1247052E+00
          1   -1    0    0  502    0  0.00000000000E+00  0.00000000000E+00  0.14396619449E+03  0.14396619449E+03  0.00000000000E+00 0. -1.
         -2   -1    0    0    0  501 -0.00000000000E+00 -0.00000000000E+00 -0.39721178911E+03  0.39721178911E+03  0.00000000000E+00 0.  1.
        -24    2    1    2    0    0 -0.27098033703E+02  0.51283429112E+02 -0.34095707466E+03  0.36118545795E+03  0.10411010872E+03 0.  0.
         23    2    1    2    0    0  0.36500231788E+02 -0.77007616543E+02  0.86535340187E+02  0.15257868877E+03  0.92355028229E+02 0.  0.
         13    1    3    3    0    0 -0.35455598618E+02  0.32791953671E+01 -0.30370144765E+02  0.46799554364E+02  0.00000000000E+00 0. -1.
        -14    1    3    3    0    0  0.83575649152E+01  0.48004233745E+02 -0.31058692990E+03  0.31438590358E+03  0.00000000000E+00 0.  1.
        -11    1    4    4    0    0  0.49617464232E+02 -0.99952029298E+01  0.13059134601E+02  0.52271769006E+02  0.00000000000E+00 0.  1.
         11    1    4    4    0    0 -0.13117232444E+02 -0.67012413613E+02  0.73476205586E+02  0.10030691976E+03  0.00000000000E+00 0. -1.
         21    1    1    2  502  501 -0.94021980853E+01  0.25724187431E+02  0.11761398507E+01  0.27413836885E+02  0.00000000000E+00 0. -1.
<scales pt_clust_5="13000.00000" pt_clust_6="13000.00000" pt_clust_7="13000.00000" pt_clust_8="13000.00000" pt_clust_9="27.38860"></scales>
<clustering>
<clus scale="   27.389">  1  9  2 -1</clus>
<clus scale="   92.355">  7  8 -1 -1</clus>
<clus scale="  104.110">  5  6 -1 -1</clus>
<clus scale="  110.199">  1  7  2 -1</clus>
<clus scale="   27.389">  1  5  2 -1</clus>
</clustering>
</event>
<event>
 9    1  0.2374319E-005  0.1207086E+03  0.7546771E-02  0.1243923E+00
         -2   -1    0    0    0  501 -0.00000000000E+00  0.00000000000E+00  0.18540004639E+03  0.18540004639E+03  0.00000000000E+00 0.  1.
          1   -1    0    0  502    0  0.00000000000E+00 -0.00000000000E+00 -0.62695143673E+03  0.62695143673E+03  0.00000000000E+00 0. -1.
         23    2    1    2    0    0 -0.76021917622E+02 -0.13655820676E+02  0.14032896764E+03  0.18469032763E+03  0.91937394817E+02 0.  0.
        -24    2    1    2    0    0  0.10835006966E+03 -0.60078703568E+02 -0.43252818771E+03  0.45799100419E+03  0.85591696661E+02 0.  0.
         13    1    4    4    0    0  0.33337962759E+02 -0.55913548838E+02 -0.28612390805E+03  0.29343591372E+03  0.00000000000E+00 0. -1.
        -14    1    4    4    0    0  0.75012106905E+02 -0.41651547301E+01 -0.14640427967E+03  0.16455509047E+03  0.00000000000E+00 0.  1.
        -11    1    3    3    0    0 -0.59105688071E+02  0.28938415240E+02  0.11454700224E+03  0.13210575294E+03  0.00000000000E+00 0.  1.
         11    1    3    3    0    0 -0.16916229551E+02 -0.42594235916E+02  0.25781965401E+02  0.52584574692E+02  0.00000000000E+00 0. -1.
         21    1    1    2  502  501 -0.32328152042E+02  0.73734524244E+02 -0.14935217026E+03  0.16967015130E+03  0.00000000000E+00 0.  1.
<scales pt_clust_5="13000.00000" pt_clust_6="13000.00000" pt_clust_7="13000.00000" pt_clust_8="13000.00000" pt_clust_9="80.51018"></scales>
<clustering>
<clus scale="   80.510">  2  9  1 -1</clus>
<clus scale="   85.592">  5  6 -1 -1</clus>
<clus scale="   91.937">  7  8 -1 -1</clus>
<clus scale="  115.948">  2  5  1 -1</clus>
<clus scale="   80.510">  2  5  1 -1</clus>
</clustering>
</event>
<event>
 9    1  0.2374319E-005  0.1006472E+03  0.7546771E-02  0.1284114E+00
          1   -1    0    0  502    0  0.00000000000E+00  0.00000000000E+00  0.21884384908E+03  0.21884384908E+03  0.00000000000E+00 0. -1.
         -2   -1    0    0    0  501 -0.00000000000E+00 -0.00000000000E+00 -0.20934188305E+03  0.20934188305E+03  0.00000000000E+00 0.  1.
        -24    2    1    2    0    0  0.17637092811E+02  0.41247115537E+02 -0.11607741114E+03  0.14838038087E+03  0.80810769499E+02 0.  0.
         23    2    1    2    0    0 -0.44819841977E+02  0.67541221003E+01  0.17708821928E+03  0.20433229989E+03  0.91307255853E+02 0.  0.
         11    1    3    3    0    0  0.39706446404E+02  0.37546721967E+02 -0.11335233862E+03  0.12583763701E+03  0.00000000000E+00 0. -1.
        -12    1    3    3    0    0 -0.22069353594E+02  0.37003935700E+01 -0.27250725191E+01  0.22542743862E+02  0.00000000000E+00 0.  1.
        -11    1    4    4    0    0 -0.60146643022E+02 -0.25972580156E+02  0.10666965414E+03  0.12518230187E+03  0.00000000000E+00 0.  1.
         11    1    4    4    0    0  0.15326801045E+02  0.32726702256E+02  0.70418565142E+02  0.79149998025E+02  0.00000000000E+00 0. -1.
         21    1    1    2  502  501  0.27182749166E+02 -0.48001237638E+02 -0.51508842110E+02  0.75473051366E+02  0.00000000000E+00 0.  1.
<scales pt_clust_5="13000.00000" pt_clust_6="13000.00000" pt_clust_7="13000.00000" pt_clust_8="13000.00000" pt_clust_9="55.16358"></scales>
<clustering>
<clus scale="   55.164">  2  9  1 -1</clus>
<clus scale="   80.811">  5  6 -1 -1</clus>
<clus scale="   91.232">  2  5  1 -1</clus>
<clus scale="   91.307">  7  8 -1 -1</clus>
<clus scale="  100.647">  1  5  2 -1</clus>
</clustering>
</event>
<event>
 9    1  0.2374319E-005  0.1013052E+03  0.7546771E-02  0.1284324E+00
          1   -1    0    0  502    0  0.00000000000E+00  0.00000000000E+00  0.15744220989E+03  0.15744220989E+03  0.00000000000E+00 0. -1.
         -2   -1    0    0    0  501 -0.00000000000E+00 -0.00000000000E+00 -0.14745999803E+03  0.14745999803E+03  0.00000000000E+00 0.  1.
         23    2    1    2    0    0  0.50686421763E+02 -0.29713687217E+02 -0.65474553867E+02  0.12939140045E+03  0.94885197718E+02 0.  0.
        -24    2    1    2    0    0  0.13424810389E+02 -0.87099246166E+01  0.46184475114E+02  0.95239448746E+02  0.81740189228E+02 0.  0.
         13    1    4    4    0    0 -0.26844639675E+02 -0.26974353655E+02  0.28807533126E+02  0.47729701436E+02  0.00000000000E+00 0. -1.
        -14    1    4    4    0    0  0.40269450064E+02  0.18264429038E+02  0.17376941988E+02  0.47509747310E+02  0.00000000000E+00 0.  1.
        -11    1    3    3    0    0 -0.37163054560E+01 -0.38687708555E+02  0.57816485183E+01  0.39293475019E+02  0.00000000000E+00 0. -1.
         11    1    3    3    0    0  0.54402727219E+02  0.89740213377E+01 -0.71256202386E+02  0.90097925427E+02  0.00000000000E+00 0.  1.
         21    1    1    2  502  501 -0.64111232152E+02  0.38423611834E+02  0.29272290618E+02  0.80271358731E+02  0.00000000000E+00 0. -1.
<scales pt_clust_5="13000.00000" pt_clust_6="13000.00000" pt_clust_7="13000.00000" pt_clust_8="13000.00000" pt_clust_9="74.74372"></scales>
<clustering>
<clus scale="   74.744">  1  9  2 -1</clus>
<clus scale="   81.740">  5  6 -1 -1</clus>
<clus scale="   89.112">  1  5  2 -1</clus>
<clus scale="   94.885">  7  8 -1 -1</clus>
<clus scale="   74.744">  1  5  2 -1</clus>
</clustering>
</event>
<event>
 9    1  0.2374319E-005  0.9112989E+02  0.7546771E-02  0.1303595E+00
          1   -1    0    0  502    0  0.00000000000E+00  0.00000000000E+00  0.60880811952E+03  0.60880811952E+03  0.00000000000E+00 0. -1.
         -2   -1    0    0    0  501 -0.00000000000E+00 -0.00000000000E+00 -0.25071742543E+02  0.25071742543E+02  0.00000000000E+00 0.  1.
        -24    2    1    2    0    0 -0.18765825501E+02 -0.65679401306E+01  0.12015193879E+03  0.14561084736E+03  0.79816893149E+02 0.  0.
         23    2    1    2    0    0  0.40703778893E+02  0.47736755726E+02  0.33687068236E+03  0.35324116167E+03  0.85801318178E+02 0.  0.
         11    1    3    3    0    0  0.24624490880E+02 -0.51785765994E+01  0.88167956217E+02  0.91688449164E+02  0.00000000000E+00 0. -1.
        -12    1    3    3    0    0 -0.43390316382E+02 -0.13893635311E+01  0.31983982569E+02  0.53922398201E+02  0.00000000000E+00 0.  1.
        -11    1    4    4    0    0  0.14800008693E+02 -0.22185543031E+02  0.14418455762E+03  0.14663023301E+03  0.00000000000E+00 0. -1.
         11    1    4    4    0    0  0.25903770201E+02  0.69922298757E+02  0.19268612474E+03  0.20661092866E+03  0.00000000000E+00 0.  1.
         21    1    1    2  502  501 -0.21937953392E+02 -0.41168815595E+02  0.12671375583E+03  0.13502785303E+03  0.00000000000E+00 0.  1.
<scales pt_clust_5="13000.00000" pt_clust_6="13000.00000" pt_clust_7="13000.00000" pt_clust_8="13000.00000" pt_clust_9="46.64917"></scales>
<clustering>
<clus scale="   46.649">  1  9  2 -1</clus>
<clus scale="   79.817">  5  6 -1 -1</clus>
<clus scale="   85.519">  2  5  1 -1</clus>
<clus scale="   85.801">  7  8 -1 -1</clus>
<clus scale="   46.649">  1  5  2 -1</clus>
</clustering>
</event>
<event>
 9    1  0.2374319E-005  0.1062052E+03  0.7546771E-02  0.1272624E+00
         -2   -1    0    0    0  501 -0.00000000000E+00  0.00000000000E+00  0.22405449025E+03  0.22405449025E+03  0.00000000000E+00 0.  1.
          1   -1    0    0  502    0  0.00000000000E+00 -0.00000000000E+00 -0.29336527174E+03  0.29336527174E+03  0.00000000000E+00 0. -1.
         23    2    1    2    0    0  0.56198560246E+02  0.90311644006E+01  0.19669288418E+03  0.22415172039E+03  0.91192450148E+02 0.  0.
        -24    2    1    2    0    0 -0.27320444556E+02  0.71599914097E+01 -0.14630082066E+03  0.16907114069E+03  0.79896485028E+02 0.  0.
         13    1    4    4    0    0 -0.32614841727E+02  0.93827640655E+01 -0.15498667980E+03  0.15865886385E+03  0.00000000000E+00 0. -1.
        -14    1    4    4    0    0  0.52943971706E+01 -0.22227726557E+01  0.86858591478E+01  0.10412276831E+02  0.00000000000E+00 0.  1.
        -13    1    3    3    0    0 -0.38176525190E+01 -0.32646539792E+02  0.79753677630E+02  0.86261347814E+02  0.00000000000E+00 0.  1.
         13    1    3    3    0    0  0.60016212765E+02  0.41677704193E+02  0.11693920655E+03  0.13789037258E+03  0.00000000000E+00 0. -1.
         21    1    1    2  502  501 -0.28878115690E+02 -0.16191155810E+02 -0.11970284501E+03  0.12419690091E+03  0.00000000000E+00 0. -1.
<scales pt_clust_5="13000.00000" pt_clust_6="13000.00000" pt_clust_7="13000.00000" pt_clust_8="13000.00000" pt_clust_9="33.10739"></scales>
<clustering>
<clus scale="   33.107">  2  9  1 -1</clus>
<clus scale="   79.896">  5  6 -1 -1</clus>
<clus scale="   91.192">  7  8 -1 -1</clus>
<clus scale="   96.679">  2  5  1 -1</clus>
<clus scale="   33.107">  2  5  1 -1</clus>
</clustering>
</event>
<event>
 9    1  0.2374319E-005  0.1266639E+03  0.7546771E-02  0.1242776E+00
         -2   -1    0    0    0  501 -0.00000000000E+00  0.00000000000E+00  0.31861053387E+02  0.31861053387E+02  0.00000000000E+00 0.  1.
          1   -1    0    0  502    0  0.00000000000E+00 -0.00000000000E+00 -0.10385003554E+04  0.10385003554E+04  0.00000000000E+00 0. -1.
        -24    2    1    2    0    0 -0.58013672660E+02  0.33147232142E+02 -0.23085998915E+03  0.25267465137E+03  0.77998843849E+02 0.  0.
         23    2    1    2    0    0 -0.52626972552E+01  0.73334148788E+02 -0.52390158665E+03  0.53700086102E+03  0.92149112211E+02 0.  0.
         13    1    3    3    0    0 -0.13208577741E+02 -0.22825820045E+02 -0.33114608395E+02  0.42332751810E+02  0.00000000000E+00 0. -1.
        -14    1    3    3    0    0 -0.44805094920E+02  0.55973052187E+02 -0.19774538075E+03  0.21034189956E+03  0.00000000000E+00 0.  1.
        -11    1    4    4    0    0  0.39228327227E+02  0.46845219274E+02 -0.35894954447E+03  0.36411277333E+03  0.00000000000E+00 0. -1.
         11    1    4    4    0    0 -0.44491024482E+02  0.26488929514E+02 -0.16495204218E+03  0.17288808769E+03  0.00000000000E+00 0.  1.
         21    1    1    2  502  501  0.63276369916E+02 -0.10648138093E+03 -0.25187772625E+03  0.28068589643E+03  0.00000000000E+00 0. -1.
<scales pt_clust_5="13000.00000" pt_clust_6="13000.00000" pt_clust_7="13000.00000" pt_clust_8="13000.00000" pt_clust_9="86.90383"></scales>
<clustering>
<clus scale="   77.999">  5  6 -1 -1</clus>
<clus scale="   92.149">  7  8 -1 -1</clus>
<clus scale="  102.704">  1  5  2 -1</clus>
<clus scale="   86.904">  1  9  2 -1</clus>
<clus scale="  126.664">  2  5  1 -1</clus>
</clustering>
</event>
<event>
 9    1  0.2374319E-005  0.9182060E+02  0.7546771E-02  0.1305399E+00
          1   -1    0    0  502    0  0.00000000000E+00  0.00000000000E+00  0.97235779608E+02  0.97235779608E+02  0.00000000000E+00 0. -1.
         -2   -1    0    0    0  501 -0.00000000000E+00 -0.00000000000E+00 -0.14371914227E+03  0.14371914227E+03  0.00000000000E+00 0.  1.
        -24    2    1    2    0    0 -0.19061483867E+02  0.36544580246E+00 -0.85348301840E+02  0.11826548893E+03  0.79617331825E+02 0.  0.
         23    2    1    2    0    0 -0.15481745303E+01  0.24342578367E+01  0.16661364174E+02  0.92265838442E+02  0.90703150065E+02 0.  0.
         13    1    3    3    0    0 -0.20743989194E+02  0.29457962666E+02 -0.98690828120E+01  0.37356170142E+02  0.00000000000E+00 0. -1.
        -14    1    3    3    0    0  0.16825053271E+01 -0.29092516864E+02 -0.75479219028E+02  0.80909318788E+02  0.00000000000E+00 0.  1.
        -11    1    4    4    0    0 -0.43932802169E+02 -0.11537501559E+02  0.26908276837E+01  0.45502149425E+02  0.00000000000E+00 0.  1.
         11    1    4    4    0    0  0.42384627639E+02  0.13971759395E+02  0.13970536490E+02  0.46763689017E+02  0.00000000000E+00 0. -1.
         21    1    1    2  502  501  0.20609658397E+02 -0.27997036392E+01  0.22203575004E+02  0.30423594506E+02  0.00000000000E+00 0. -1.
<scales pt_clust_5="13000.00000" pt_clust_6="13000.00000" pt_clust_7="13000.00000" pt_clust_8="13000.00000" pt_clust_9="20.79895"></scales>
<clustering>
<clus scale="   20.799">  1  9  2 -1</clus>
<clus scale="   79.617">  5  6 -1 -1</clus>
<clus scale="   80.888">  2  5  1 -1</clus>
<clus scale="   90.703">  7  8 -1 -1</clus>
<clus scale="   20.799">  1  5  2 -1</clus>
</clustering>
</event>
<event>
 9    1  0.2374319E-005  0.1002954E+03  0.7546771E-02  0.1282492E+00
          1   -1    0    0  502    0  0.00000000000E+00  0.00000000000E+00  0.25530736314E+03  0.25530736314E+03  0.00000000000E+00 0. -1.
         -2   -1    0    0    0  501 -0.00000000000E+00 -0.00000000000E+00 -0.46441082776E+03  0.46441082776E+03  0.00000000000E+00 0.  1.
        -24    2    1    2    0    0  0.58414477064E+02  0.58723398940E+01 -0.40559253655E+03  0.41781367901E+03  0.81340206291E+02 0.  0.
         23    2    1    2    0    0  0.21982880757E+02  0.10889406257E+02  0.20040327312E+01  0.90790510110E+02  0.87390356240E+02 0.  0.
         11    1    3    3    0    0 -0.48687168356E+00  0.34563952699E+02 -0.15379443888E+03  0.15763132081E+03  0.00000000000E+00 0. -1.
        -12    1    3    3    0    0  0.58901348748E+02 -0.28691612805E+02 -0.25179809767E+03  0.26018235820E+03  0.00000000000E+00 0.  1.
        -13    1    4    4    0    0  0.39439434974E+02  0.26994065982E+02 -0.25728240408E+02  0.54277905116E+02  0.00000000000E+00 0.  1.
         13    1    4    4    0    0 -0.17456554217E+02 -0.16104659725E+02  0.27732273139E+02  0.36512604994E+02  0.00000000000E+00 0. -1.
         21    1    1    2  502  501 -0.80397357822E+02 -0.16761746151E+02  0.19448503920E+03  0.21111400178E+03  0.00000000000E+00 0. -1.
<scales pt_clust_5="13000.00000" pt_clust_6="13000.00000" pt_clust_7="13000.00000" pt_clust_8="13000.00000" pt_clust_9="82.12607"></scales>
<clustering>
<clus scale="   81.340">  5  6 -1 -1</clus>
<clus scale="   82.126">  1  9  2 -1</clus>
<clus scale="   87.390">  7  8 -1 -1</clus>
<clus scale="   95.070">  2  5  1 -1</clus>
<clus scale="   82.126">  1  5  2 -1</clus>
</clustering>
</event>
<event>
 9    1  0.2374319E-005  0.9538527E+02  0.7546771E-02  0.1297601E+00
          1   -1    0    0  502    0  0.00000000000E+00  0.00000000000E+00  0.89032300377E+02  0.89032300377E+02  0.00000000000E+00 0. -1.
         -2   -1    0    0    0  501 -0.00000000000E+00 -0.00000000000E+00 -0.20323741718E+03  0.20323741718E+03  0.00000000000E+00 0.  1.
        -24    2    1    2    0    0  0.20811954627E+02  0.32720438045E+01 -0.12259893566E+03  0.14918647910E+03  0.82354494701E+02 0.  0.
         23    2    1    2    0    0  0.23823392316E+02 -0.83386497789E+01  0.44479921852E+01  0.97988291501E+02  0.94577130085E+02 0.  0.
         11    1    3    3    0    0  0.10816865792E+02 -0.37948116993E+02 -0.39197175966E+02  0.55619086405E+02  0.00000000000E+00 0. -1.
        -12    1    3    3    0    0  0.99950888347E+01  0.41220160798E+02 -0.83401759691E+02  0.93567392699E+02  0.00000000000E+00 0.  1.
        -13    1    4    4    0    0  0.21100769699E+02 -0.50971064608E+02  0.21974956048E+01  0.55209789857E+02  0.00000000000E+00 0. -1.
         13    1    4    4    0    0  0.27226226169E+01  0.42632414829E+02  0.22504965804E+01  0.42778501644E+02  0.00000000000E+00 0.  1.
         21    1    1    2  502  501 -0.44635346943E+02  0.50666059744E+01  0.39458266648E+01  0.45094946955E+02  0.00000000000E+00 0. -1.
<scales pt_clust_5="13000.00000" pt_clust_6="13000.00000" pt_clust_7="13000.00000" pt_clust_8="13000.00000" pt_clust_9="44.92198"></scales>
<clustering>
<clus scale="   44.922">  1  9  2 -1</clus>
<clus scale="   82.354">  5  6 -1 -1</clus>
<clus scale="   83.281">  2  5  1 -1</clus>
<clus scale="   94.577">  7  8 -1 -1</clus>
<clus scale="   44.922">  1  5  2 -1</clus>
</clustering>
</event>
<event>
 9    1  0.2374319E-005  0.1198729E+03  0.7546771E-02  0.1246071E+00
         -2   -1    0    0    0  501 -0.00000000000E+00  0.00000000000E+00  0.21087421538E+03  0.21087421538E+03  0.00000000000E+00 0.  1.
          1   -1    0    0  502    0  0.00000000000E+00 -0.00000000000E+00 -0.12423886636E+03  0.12423886636E+03  0.00000000000E+00 0. -1.
         23    2    1    2    0    0  0.67595474260E+02  0.42673597595E+02  0.13095332108E+03  0.17806470807E+03  0.90377452295E+02 0.  0.
        -24    2    1    2    0    0 -0.43270686652E+02 -0.68117912844E+02 -0.40330676903E+02  0.12162229581E+03  0.81566028255E+02 0.  0.
         11    1    4    4    0    0 -0.13824200529E+02 -0.66049187103E+02  0.48485567510E+01  0.67654357878E+02  0.00000000000E+00 0. -1.
        -12    1    4    4    0    0 -0.29446486123E+02 -0.20687257406E+01 -0.45179233654E+02  0.53967937933E+02  0.00000000000E+00 0.  1.
        -13    1    3    3    0    0  0.82784916769E+02  0.20830195636E+02  0.66096420018E+02  0.10796284654E+03  0.00000000000E+00 0.  1.
         13    1    3    3    0    0 -0.15189442509E+02  0.21843401959E+02  0.64856901067E+02  0.70101861522E+02  0.00000000000E+00 0. -1.
         21    1    1    2  502  501 -0.24324787608E+02  0.25444315249E+02 -0.39872951615E+01  0.35426077872E+02  0.00000000000E+00 0.  1.
<scales pt_clust_5="13000.00000" pt_clust_6="13000.00000" pt_clust_7="13000.00000" pt_clust_8="13000.00000" pt_clust_9="35.20097"></scales>
<clustering>
<clus scale="   35.201">  2  9  1 -1</clus>
<clus scale="   81.566">  5  6 -1 -1</clus>
<clus scale="   90.377">  7  8 -1 -1</clus>
<clus scale="  113.377">  2  5  1 -1</clus>
<clus scale="   35.201">  2  5  1 -1</clus>
</clustering>
</event>
<event>
 9    1  0.2374319E-005  0.9929892E+02  0.7546771E-02  0.1288413E+00
          1   -1    0    0  502    0  0.00000000000E+00  0.00000000000E+00  0.24855950638E+03  0.24855950638E+03  0.00000000000E+00 0. -1.
         -2   -1    0    0    0  501 -0.00000000000E+00 -0.00000000000E+00 -0.13346778423E+03  0.13346778423E+03  0.00000000000E+00 0.  1.
        -24    2    1    2    0    0 -0.44564482876E+01  0.38416601097E+02 -0.86016045606E+02  0.12411711555E+03  0.80688308314E+02 0.  0.
         23    2    1    2    0    0 -0.38988403091E+02 -0.77399489868E+01  0.93632033181E+02  0.13799543193E+03  0.93251161980E+02 0.  0.
         13    1    3    3    0    0  0.19556729272E+02  0.49566463707E+02 -0.81328641562E+02  0.97229871555E+02  0.00000000000E+00 0. -1.
        -14    1    3    3    0    0 -0.24013177560E+02 -0.11149862610E+02 -0.46874040437E+01  0.26887243991E+02  0.00000000000E+00 0.  1.
        -11    1    4    4    0    0  0.12259694750E+02  0.20566000306E+02 -0.38828030732E+01  0.24255651788E+02  0.00000000000E+00 0.  1.
         11    1    4    4    0    0 -0.51248097841E+02 -0.28305949293E+02  0.97514836255E+02  0.11373978014E+03  0.00000000000E+00 0. -1.
         21    1    1    2  502  501  0.43444851379E+02 -0.30676652111E+02  0.10747573458E+03  0.11991474313E+03  0.00000000000E+00 0. -1.
<scales pt_clust_5="13000.00000" pt_clust_6="13000.00000" pt_clust_7="13000.00000" pt_clust_8="13000.00000" pt_clust_9="53.18376"></scales>
<clustering>
<clus scale="   53.184">  1  9  2 -1</clus>
<clus scale="   80.688">  5  6 -1 -1</clus>
<clus scale="   87.608">  2  5  1 -1</clus>
<clus scale="   93.251">  7  8 -1 -1</clus>
<clus scale="   53.184">  1  5  2 -1</clus>
</clustering>
</event>
<event>
 9    1  0.2374319E-005  0.1207565E+03  0.7546771E-02  0.1245718E+00
         -2   -1    0    0    0  501 -0.00000000000E+00  0.00000000000E+00  0.11785209116E+03  0.11785209116E+03  0.00000000000E+00 0.  1.
          1   -1    0    0  502    0  0.00000000000E+00 -0.00000000000E+00 -0.16180103773E+03  0.16180103773E+03  0.00000000000E+00 0. -1.
        -24    2    1    2    0    0  0.25275908138E+02 -0.79962417401E+02  0.38350521748E+02  0.12232237042E+03  0.80368775388E+02 0.  0.
         23    2    1    2    0    0 -0.16438149080E+02  0.61284857277E+02 -0.61262908290E+02  0.12784357320E+03  0.92546144166E+02 0.  0.
         13    1    3    3    0    0  0.26336093377E+02 -0.89121577094E+02  0.11145535786E+02  0.93597373286E+02  0.00000000000E+00 0. -1.
        -14    1    3    3    0    0 -0.10601852395E+01  0.91591596932E+01  0.27204985961E+02  0.28724997131E+02  0.00000000000E+00 0.  1.
        -11    1    4    4    0    0 -0.42336406257E+02  0.32694381091E+01 -0.45960084334E+01  0.42710464921E+02  0.00000000000E+00 0.  1.
         11    1    4    4    0    0  0.25898257177E+02  0.58015419168E+02 -0.56666899856E+02  0.85133108280E+02  0.00000000000E+00 0. -1.
         21    1    1    2  502  501 -0.88377590582E+01  0.18677560123E+02 -0.21036560029E+02  0.29487185271E+02  0.00000000000E+00 0. -1.
<scales pt_clust_5="13000.00000" pt_clust_6="13000.00000" pt_clust_7="13000.00000" pt_clust_8="13000.00000" pt_clust_9="20.66294"></scales>
<clustering>
<clus scale="   20.663">  2  9  1 -1</clus>
<clus scale="   80.369">  5  6 -1 -1</clus>
<clus scale="   92.546">  7  8 -1 -1</clus>
<clus scale="  111.698">  1  5  2 -1</clus>
<clus scale="   20.663">  2  5  1 -1</clus>
</clustering>
</event>
<event>
 9    1  0.2374319E-005  0.1077730E+03  0.7546771E-02  0.1266651E+00
         -2   -1    0    0    0  501 -0.00000000000E+00  0.00000000000E+00  0.58504126895E+02  0.58504126895E+02  0.00000000000E+00 0.  1.
          1   -1    0    0  502    0  0.00000000000E+00 -0.00000000000E+00 -0.73970423834E+03  0.73970423834E+03  0.00000000000E+00 0. -1.
         23    2    1    2    0    0  0.97980695709E+01  0.58888829222E+02 -0.69722810620E+01  0.11060488423E+03  0.92848970583E+02 0.  0.
        -24    2    1    2    0    0  0.93103936200E+01 -0.20679976234E+02 -0.41613656937E+03  0.42600044428E+03  0.88274511118E+02 0.  0.
         13    1    4    4    0    0  0.46035363389E+02  0.29406550177E+01 -0.17714129463E+03  0.18304901091E+03  0.00000000000E+00 0. -1.
        -14    1    4    4    0    0 -0.36724969769E+02 -0.23620631252E+02 -0.23899527474E+03  0.24295143337E+03  0.00000000000E+00 0.  1.
        -13    1    3    3    0    0 -0.40462409527E+02  0.25155056927E+02  0.78454340209E+01  0.48285963889E+02  0.00000000000E+00 0.  1.
         13    1    3    3    0    0  0.50260479098E+02  0.33733772295E+02 -0.14817715083E+02  0.62318920343E+02  0.00000000000E+00 0. -1.
         21    1    1    2  502  501 -0.19108463191E+02 -0.38208852988E+02 -0.25809126101E+03  0.26160303673E+03  0.00000000000E+00 0.  1.
<scales pt_clust_5="13000.00000" pt_clust_6="13000.00000" pt_clust_7="13000.00000" pt_clust_8="13000.00000" pt_clust_9="42.72060"></scales>
<clustering>
<clus scale="   42.721">  2  9  1 -1</clus>
<clus scale="   88.275">  5  6 -1 -1</clus>
<clus scale="   92.849">  7  8 -1 -1</clus>
<clus scale="  103.858">  2  5  1 -1</clus>
<clus scale="   42.721">  2  5  1 -1</clus>
</clustering>
</event>
<event>
 9    1  0.2374319E-005  0.1146157E+03  0.7546771E-02  0.1258398E+00
          1   -1    0    0  502    0  0.00000000000E+00  0.00000000000E+00  0.83610189772E+03  0.83610189772E+03  0.00000000000E+00 0. -1.
         -2   -1    0    0    0  501 -0.00000000000E+00 -0.00000000000E+00 -0.29201557168E+02  0.29201557168E+02  0.00000000000E+00 0.  1.
         23    2    1    2    0    0  0.11022383564E+02  0.23847802720E+02  0.11622270972E+03  0.15261467726E+03  0.95358852901E+02 0.  0.
        -24    2    1    2    0    0 -0.21778578526E+01 -0.74256443406E+02  0.58839430707E+03  0.59831598798E+03  0.79091076825E+02 0.  0.
         13    1    4    4    0    0  0.20262539912E+02 -0.45854005806E+02  0.14451539084E+03  0.15296358574E+03  0.00000000000E+00 0. -1.
        -14    1    4    4    0    0 -0.22440397765E+02 -0.28402437599E+02  0.44387891622E+03  0.44535240224E+03  0.00000000000E+00 0.  1.
        -11    1    3    3    0    0 -0.14724521529E+02  0.50234644646E+02  0.33771273934E+02  0.62296308078E+02  0.00000000000E+00 0.  1.
         11    1    3    3    0    0  0.25746905093E+02 -0.26386841927E+02  0.82451435784E+02  0.90318369182E+02  0.00000000000E+00 0. -1.
         21    1    1    2  502  501 -0.88445257114E+01  0.50408640686E+02  0.10228332377E+03  0.11437278965E+03  0.00000000000E+00 0. -1.
<scales pt_clust_5="13000.00000" pt_clust_6="13000.00000" pt_clust_7="13000.00000" pt_clust_8="13000.00000" pt_clust_9="51.17867"></scales>
<clustering>
<clus scale="   51.179">  2  9  1 -1</clus>
<clus scale="   79.091">  5  6 -1 -1</clus>
<clus scale="   95.359">  7  8 -1 -1</clus>
<clus scale="  101.483">  1  5  2 -1</clus>
<clus scale="  101.483">  1  5  2 -1</clus>
</clustering>
</event>
<event>
 9    1  0.2374319E-005  0.9163152E+02  0.7546771E-02  0.1305122E+00
         -2   -1    0    0    0  501 -0.00000000000E+00  0.00000000000E+00  0.11717730499E+04  0.11717730499E+04  0.00000000000E+00 0.  1.
          1   -1    0    0  502    0  0.00000000000E+00 -0.00000000000E+00 -0.39228389037E+02  0.39228389037E+02  0.00000000000E+00 0. -1.
        -24    2    1    2    0    0  0.12512395476E+02  0.49080818110E+01  0.96516296764E+03  0.96859367804E+03  0.80333739663E+02 0.  0.
         23    2    1    2    0    0 -0.37106691011E+02 -0.46671977437E+02  0.58047318086E+02  0.12281215923E+03  0.90322507284E+02 0.  0.
         13    1    3    3    0    0 -0.24208104547E+02 -0.25216304390E+01  0.11225569669E+03  0.11486397340E+03  0.00000000000E+00 0. -1.
        -14    1    3    3    0    0  0.36720500023E+02  0.74297122500E+01  0.85290727095E+03  0.85372970464E+03  0.00000000000E+00 0.  1.
        -11    1    4    4    0    0  0.28081917981E+02 -0.17676022014E+01  0.83644040253E+01  0.29354416869E+02  0.00000000000E+00 0.  1.
         11    1    4    4    0    0 -0.65188608992E+02 -0.44904375236E+02  0.49682914061E+02  0.93457742361E+02  0.00000000000E+00 0. -1.
         21    1    1    2  502  501  0.24594295535E+02  0.41763895626E+02  0.10933437512E+03  0.11959560164E+03  0.00000000000E+00 0.  1.
<scales pt_clust_5="13000.00000" pt_clust_6="13000.00000" pt_clust_7="13000.00000" pt_clust_8="13000.00000" pt_clust_9="48.46754"></scales>
<clustering>
<clus scale="   48.468">  2  9  1 -1</clus>
<clus scale="   80.334">  5  6 -1 -1</clus>
<clus scale="   81.803">  1  5  2 -1</clus>
<clus scale="   90.323">  7  8 -1 -1</clus>
<clus scale="   48.468">  2  5  1 -1</clus>
</clustering>
</event>
<event>
 9    1  0.2374319E-005  0.1257423E+03  0.7546771E-02  0.1235847E+00
         -2   -1    0    0    0  501 -0.00000000000E+00  0.00000000000E+00  0.46436516857E+02  0.46436516857E+02  0.00000000000E+00 0.  1.
          1   -1    0    0  502    0  0.00000000000E+00 -0.00000000000E+00 -0.71343161460E+03  0.71343161460E+03  0.00000000000E+00 0. -1.
        -24    2    1    2    0    0 -0.52807371782E+02 -0.32584652083E+02 -0.86482678822E+02  0.14364845914E+03  0.96463713444E+02 0.  0.
         23    2    1    2    0    0  0.78784197672E+02  0.74153752504E+02 -0.34763139752E+03  0.37823573227E+03  0.10251317870E+03 0.  0.
         13    1    3    3    0    0 -0.59263140978E+02 -0.13922992018E+02 -0.10182967250E+03  0.11863916632E+03  0.00000000000E+00 0. -1.
        -14    1    3    3    0    0  0.64557691966E+01 -0.18661660065E+02  0.15346993675E+02  0.25009292816E+02  0.00000000000E+00 0.  1.
        -13    1    4    4    0    0  0.39278296217E+02  0.13508538329E+02 -0.27008914847E+02  0.49545399814E+02  0.00000000000E+00 0.  1.
         13    1    4    4    0    0  0.39505901455E+02  0.60645214175E+02 -0.32062248268E+03  0.32869033246E+03  0.00000000000E+00 0. -1.
         21    1    1    2  502  501 -0.25976825890E+02 -0.41569100421E+02 -0.23288102139E+03  0.23798394004E+03  0.00000000000E+00 0.  1.
<scales pt_clust_5="13000.00000" pt_clust_6="13000.00000" pt_clust_7="13000.00000" pt_clust_8="13000.00000" pt_clust_9="49.01822"></scales>
<clustering>
<clus scale="   49.018">  2  9  1 -1</clus>
<clus scale="   96.464">  5  6 -1 -1</clus>
<clus scale="  102.513">  7  8 -1 -1</clus>
<clus scale="  120.861">  1  5  2 -1</clus>
<clus scale="   49.018">  2  5  1 -1</clus>
</clustering>
</event>
<event>
 9    1  0.2374319E-005  0.1149317E+03  0.7546771E-02  0.1257137E+00
          1   -1    0    0  502    0  0.00000000000E+00  0.00000000000E+00  0.49438380482E+03  0.49438380482E+03  0.00000000000E+00 0. -1.
         -2   -1    0    0    0  501 -0.00000000000E+00 -0.00000000000E+00 -0.30617831986E+02  0.30617831986E+02  0.00000000000E+00 0.  1.
        -24    2    1    2    0    0 -0.72928771982E+02 -0.35071347335E+02  0.15439821732E+03  0.18943121532E+03  0.74140209322E+02 0.  0.
         23    2    1    2    0    0  0.52094405186E+02  0.24583879718E+02  0.25499250604E+03  0.27640349177E+03  0.89774817922E+02 0.  0.
         13    1    3    3    0    0 -0.38278262794E+02 -0.28947922660E+02  0.22655883799E+02  0.53070676456E+02  0.00000000000E+00 0. -1.
        -14    1    3    3    0    0 -0.34650509189E+02 -0.61234246756E+01  0.13174233352E+03  0.13636053886E+03  0.00000000000E+00 0.  1.
        -11    1    4    4    0    0  0.39500307105E+02 -0.23996564790E+02  0.18231426931E+03  0.18808137116E+03  0.00000000000E+00 0. -1.
         11    1    4    4    0    0  0.12594098081E+02  0.48580444508E+02  0.72678236726E+02  0.88322120608E+02  0.00000000000E+00 0.  1.
         21    1    1    2  502  501  0.20834366797E+02  0.10487467617E+02  0.54375249469E+02  0.59166929713E+02  0.00000000000E+00 0.  1.
<scales pt_clust_5="13000.00000" pt_clust_6="13000.00000" pt_clust_7="13000.00000" pt_clust_8="13000.00000" pt_clust_9="23.32505"></scales>
<clustering>
<clus scale="   23.325">  1  9  2 -1</clus>
<clus scale="   74.140">  5  6 -1 -1</clus>
<clus scale="   89.775">  7  8 -1 -1</clus>
<clus scale="  103.182">  2  5  1 -1</clus>
<clus scale="   23.325">  1  5  2 -1</clus>
</clustering>
</event>
<event>
 9    1  0.2374319E-005  0.9636311E+02  0.7546771E-02  0.1295496E+00
          1   -1    0    0  502    0  0.00000000000E+00  0.00000000000E+00  0.45501287838E+03  0.45501287838E+03  0.00000000000E+00 0. -1.
         -2   -1    0    0    0  501 -0.00000000000E+00 -0.00000000000E+00 -0.42629847105E+02  0.42629847105E+02  0.00000000000E+00 0.  1.
        -24    2    1    2    0    0  0.19181583084E+01 -0.32692672661E+02  0.24484096403E+02  0.88930598650E+02  0.78972718216E+02 0.  0.
         23    2    1    2    0    0 -0.18674081076E+02  0.34754386200E+01  0.30769544720E+03  0.32172358076E+03  0.92025943157E+02 0.  0.
         13    1    3    3    0    0 -0.13831638700E+02  0.16874250861E+02 -0.12469105171E+02  0.25130323416E+02  0.00000000000E+00 0. -1.
        -14    1    3    3    0    0  0.15749797008E+02 -0.49566923523E+02  0.36953201574E+02  0.63800275233E+02  0.00000000000E+00 0.  1.
        -13    1    4    4    0    0 -0.24007821774E+02 -0.35279510555E+02  0.79786315100E+02  0.90481354148E+02  0.00000000000E+00 0.  1.
         13    1    4    4    0    0  0.53337406978E+01  0.38754949175E+02  0.22790913210E+03  0.23124222661E+03  0.00000000000E+00 0. -1.
         21    1    1    2  502  501  0.16755922767E+02  0.29217234041E+02  0.80203487676E+02  0.86988546075E+02  0.00000000000E+00 0. -1.
<scales pt_clust_5="13000.00000" pt_clust_6="13000.00000" pt_clust_7="13000.00000" pt_clust_8="13000.00000" pt_clust_9="33.68097"></scales>
<clustering>
<clus scale="   33.681">  1  9  2 -1</clus>
<clus scale="   78.973">  5  6 -1 -1</clus>
<clus scale="   83.987">  2  5  1 -1</clus>
<clus scale="   92.026">  7  8 -1 -1</clus>
<clus scale="   33.681">  1  5  2 -1</clus>
</clustering>
</event>
<event>
 9    1  0.2374319E-005  0.1096169E+03  0.7546771E-02  0.1267105E+00
          1   -1    0    0  502    0  0.00000000000E+00  0.00000000000E+00  0.63379772959E+02  0.63379772959E+02  0.00000000000E+00 0. -1.
         -2   -1    0    0    0  501 -0.00000000000E+00 -0.00000000000E+00 -0.25426597249E+03  0.25426597249E+03  0.00000000000E+00 0.  1.
         23    2    1    2    0    0  0.64085098812E+02  0.12972958114E+02 -0.16186076025E+03  0.19828158527E+03  0.94029164719E+02 0.  0.
        -24    2    1    2    0    0 -0.39060413632E+02 -0.36905579993E+01 -0.22264555813E+02  0.91830410599E+02  0.79986109630E+02 0.  0.
         13    1    4    4    0    0  0.18187041808E+02  0.11566028951E+02 -0.24387602928E+02  0.32546838433E+02  0.00000000000E+00 0. -1.
        -14    1    4    4    0    0 -0.57247455440E+02 -0.15256586950E+02  0.21230471148E+01  0.59283572166E+02  0.00000000000E+00 0.  1.
        -13    1    3    3    0    0  0.28486882159E+02  0.82045309470E+01  0.27743145883E+01  0.29774378325E+02  0.00000000000E+00 0. -1.
         13    1    3    3    0    0  0.35598216653E+02  0.47684271667E+01 -0.16463507484E+03  0.16850720695E+03  0.00000000000E+00 0.  1.
         21    1    1    2  502  501 -0.25024685180E+02 -0.92824001143E+01 -0.67608834619E+01  0.27533749571E+02  0.00000000000E+00 0.  1.
<scales pt_clust_5="13000.00000" pt_clust_6="13000.00000" pt_clust_7="13000.00000" pt_clust_8="13000.00000" pt_clust_9="26.69078"></scales>
<clustering>
<clus scale="   26.691">  1  9  2 -1</clus>
<clus scale="   79.986">  5  6 -1 -1</clus>
<clus scale="   94.029">  7  8 -1 -1</clus>
<clus scale="   97.837">  1  5  2 -1</clus>
<clus scale="   26.691">  1  5  2 -1</clus>
</clustering>
</event>
<event>
 9    1  0.2374319E-005  0.3161201E+03  0.7546771E-02  0.1077885E+00
         -2   -1    0    0    0  501 -0.00000000000E+00  0.00000000000E+00  0.16322038019E+04  0.16322038019E+04  0.00000000000E+00 0.  1.
          1   -1    0    0  502    0  0.00000000000E+00 -0.00000000000E+00 -0.28145607014E+03  0.28145607014E+03  0.00000000000E+00 0. -1.
         23    2    1    2    0    0 -0.22338684674E+03 -0.20187674677E+03  0.14753067224E+04  0.15085983687E+04  0.93183736269E+02 0.  0.
        -24    2    1    2    0    0  0.26954306034E+03  0.17232985179E+03 -0.11642056483E+03  0.34965708978E+03  0.79720093592E+02 0.  0.
         11    1    4    4    0    0  0.13262388427E+03  0.12639780166E+03 -0.84483361879E+02  0.20174968990E+03  0.00000000000E+00 0. -1.
        -12    1    4    4    0    0  0.13691917607E+03  0.45932050132E+02 -0.31937202950E+02  0.14790739987E+03  0.00000000000E+00 0.  1.
        -13    1    3    3    0    0 -0.86952064569E+02 -0.38624038090E+02  0.31921845209E+03  0.33309592913E+03  0.00000000000E+00 0.  1.
         13    1    3    3    0    0 -0.13643478217E+03 -0.16325270869E+03  0.11560882704E+04  0.11755024396E+04  0.00000000000E+00 0. -1.
         21    1    1    2  502  501 -0.46156213593E+02  0.29546894986E+02 -0.81384259023E+01  0.55404413477E+02  0.00000000000E+00 0. -1.
<scales pt_clust_5="13000.00000" pt_clust_6="13000.00000" pt_clust_7="13000.00000" pt_clust_8="13000.00000" pt_clust_9="54.80342"></scales>
<clustering>
<clus scale="   54.803">  2  9  1 -1</clus>
<clus scale="   79.720">  5  6 -1 -1</clus>
<clus scale="   93.184">  7  8 -1 -1</clus>
<clus scale="  312.416">  2  5  1 -1</clus>
<clus scale="   54.803">  2  5  1 -1</clus>
</clustering>
</event>
<event>
 9    1  0.2374319E-005  0.1036565E+03  0.7546771E-02  0.1276367E+00
          1   -1    0    0  502    0  0.00000000000E+00  0.00000000000E+00  0.28510147916E+03  0.28510147916E+03  0.00000000000E+00 0. -1.
         -2   -1    0    0    0  501 -0.00000000000E+00 -0.00000000000E+00 -0.15164462847E+03  0.15164462847E+03  0.00000000000E+00 0.  1.
         23    2    1    2    0    0 -0.32738430743E+02 -0.44918627001E+02 -0.10443491036E+03  0.14825073171E+03  0.89342828761E+02 0.  0.
        -24    2    1    2    0    0  0.50679323605E+02 -0.93451181891E+01  0.19358391354E+03  0.21617929866E+03  0.81259045725E+02 0.  0.
         13    1    4    4    0    0  0.10254713678E+02  0.34222790474E+02  0.88736559444E+02  0.95658431528E+02  0.00000000000E+00 0. -1.
        -14    1    4    4    0    0  0.40424609928E+02 -0.43567908663E+02  0.10484735410E+03  0.12052086713E+03  0.00000000000E+00 0.  1.
        -11    1    3    3    0    0 -0.58510491363E+02 -0.50587571067E+02 -0.88011628018E+02  0.11716922212E+03  0.00000000000E+00 0.  1.
         11    1    3    3    0    0  0.25772060620E+02  0.56689440656E+01 -0.16423282347E+02  0.31081509591E+02  0.00000000000E+00 0. -1.
         21    1    1    2  502  501 -0.17940892862E+02  0.54263745190E+02  0.44307847513E+02  0.72316077258E+02  0.00000000000E+00 0. -1.
<scales pt_clust_5="13000.00000" pt_clust_6="13000.00000" pt_clust_7="13000.00000" pt_clust_8="13000.00000" pt_clust_9="57.15269"></scales>
<clustering>
<clus scale="   57.153">  1  9  2 -1</clus>
<clus scale="   81.259">  5  6 -1 -1</clus>
<clus scale="   89.343">  7  8 -1 -1</clus>
<clus scale="   96.776">  1  5  2 -1</clus>
<clus scale="   57.153">  1  5  2 -1</clus>
</clustering>
</event>
<event>
 9    1  0.2374319E-005  0.1097776E+03  0.7546771E-02  0.1273502E+00
         -2   -1    0    0    0  501 -0.00000000000E+00  0.00000000000E+00  0.13430803845E+03  0.13430803845E+03  0.00000000000E+00 0.  1.
          1   -1    0    0  502    0  0.00000000000E+00 -0.00000000000E+00 -0.48824546082E+03  0.48824546082E+03  0.00000000000E+00 0. -1.
         23    2    1    2    0    0  0.19565417710E+02 -0.58624369972E+02  0.93231739404E+02  0.14290365549E+03  0.88936354737E+02 0.  0.
        -24    2    1    2    0    0  0.17035450948E+02 -0.20209396834E+02 -0.24089807110E+03  0.25581474997E+03  0.81918736151E+02 0.  0.
         13    1    4    4    0    0  0.31107314459E+02 -0.30072972810E+02 -0.59306688687E+02  0.73412070053E+02  0.00000000000E+00 0. -1.
        -14    1    4    4    0    0 -0.14071863511E+02  0.98635759754E+01 -0.18159138241E+03  0.18240267992E+03  0.00000000000E+00 0.  1.
        -11    1    3    3    0    0 -0.13970718853E+02 -0.19640605084E+02  0.87969103601E+02  0.91211279684E+02  0.00000000000E+00 0.  1.
         11    1    3    3    0    0  0.33536136562E+02 -0.38983764888E+02  0.52626358038E+01  0.51692375801E+02  0.00000000000E+00 0. -1.
         21    1    1    2  502  501 -0.36600868657E+02  0.78833766806E+02 -0.20627109067E+03  0.22383509381E+03  0.00000000000E+00 0. -1.
<scales pt_clust_5="13000.00000" pt_clust_6="13000.00000" pt_clust_7="13000.00000" pt_clust_8="13000.00000" pt_clust_9="64.35406"></scales>
<clustering>
<clus scale="   81.919">  5  6 -1 -1</clus>
<clus scale="   86.077">  2  5  1 -1</clus>
<clus scale="   64.354">  2  9  1 -1</clus>
<clus scale="   88.936">  7  8 -1 -1</clus>
<clus scale="   86.077">  2  5  1 -1</clus>
</clustering>
</event>
<event>
 9    1  0.2374319E-005  0.1028340E+03  0.7546771E-02  0.1284947E+00
         -2   -1    0    0    0  501 -0.00000000000E+00  0.00000000000E+00  0.15900214875E+03  0.15900214875E+03  0.00000000000E+00 0.  1.
          1   -1    0    0  502    0  0.00000000000E+00 -0.00000000000E+00 -0.86439641699E+02  0.86439641699E+02  0.00000000000E+00 0. -1.
         23    2    1    2    0    0 -0.22964630525E+02  0.35245218658E+02  0.78935668310E+02  0.13030944220E+03  0.94763449189E+02 0.  0.
        -24    2    1    2    0    0  0.37206945479E+02 -0.16756410068E+02  0.11955538268E+02  0.85457092484E+02  0.74127226377E+02 0.  0.
         11    1    4    4    0    0  0.43551358078E+02 -0.21179411691E+02 -0.20135416454E+02  0.52447338024E+02  0.00000000000E+00 0. -1.
        -12    1    4    4    0    0 -0.63444125987E+01  0.44230016234E+01  0.32090954722E+02  0.33009754460E+02  0.00000000000E+00 0.  1.
        -13    1    3    3    0    0 -0.10198837899E+02  0.66677048297E+02  0.64869601342E+02  0.93583707142E+02  0.00000000000E+00 0.  1.
         13    1    3    3    0    0 -0.12765792625E+02 -0.31431829639E+02  0.14066066969E+02  0.36725735061E+02  0.00000000000E+00 0. -1.
         21    1    1    2  502  501 -0.14242314954E+02 -0.18488808590E+02 -0.18328699525E+02  0.29675255764E+02  0.00000000000E+00 0.  1.
<scales pt_clust_5="13000.00000" pt_clust_6="13000.00000" pt_clust_7="13000.00000" pt_clust_8="13000.00000" pt_clust_9="23.33837"></scales>
<clustering>
<clus scale="   23.338">  2  9  1 -1</clus>
<clus scale="   74.127">  5  6 -1 -1</clus>
<clus scale="   84.200">  2  5  1 -1</clus>
<clus scale="   94.763">  7  8 -1 -1</clus>
<clus scale="   23.338">  2  5  1 -1</clus>
</clustering>
</event>
<event>
 9    1  0.2374319E-005  0.1455997E+03  0.7546771E-02  0.1207839E+00
          1   -1    0    0  502    0  0.00000000000E+00  0.00000000000E+00  0.13494465651E+03  0.13494465651E+03  0.00000000000E+00 0. -1.
         -2   -1    0    0    0  501 -0.00000000000E+00 -0.00000000000E+00 -0.23151520398E+03  0.23151520398E+03  0.00000000000E+00 0.  1.
         23    2    1    2    0    0  0.13239403797E+03  0.34134278404E+02 -0.91919365039E+02  0.18818601992E+03  0.90947667226E+02 0.  0.
        -24    2    1    2    0    0 -0.84293990950E+02 -0.33718503480E+02 -0.27381581611E+02  0.12507178762E+03  0.81552355322E+02 0.  0.
         11    1    4    4    0    0  0.28362644583E+01 -0.28940365443E+02  0.91320082007E+01  0.30479217867E+02  0.00000000000E+00 0. -1.
        -12    1    4    4    0    0 -0.87130255408E+02 -0.47781380372E+01 -0.36513589812E+02  0.94592569748E+02  0.00000000000E+00 0.  1.
        -11    1    3    3    0    0  0.95590370137E+02  0.25269542101E+02 -0.10855650788E+03  0.14683522746E+03  0.00000000000E+00 0.  1.
         11    1    3    3    0    0  0.36803667828E+02  0.88647363025E+01  0.16637142838E+02  0.41350792461E+02  0.00000000000E+00 0. -1.
         21    1    1    2  502  501 -0.48100047016E+02 -0.41577492400E+00  0.22730399173E+02  0.53202052952E+02  0.00000000000E+00 0.  1.
<scales pt_clust_5="13000.00000" pt_clust_6="13000.00000" pt_clust_7="13000.00000" pt_clust_8="13000.00000" pt_clust_9="48.10184"></scales>
<clustering>
<clus scale="   48.102">  1  9  2 -1</clus>
<clus scale="   81.552">  5  6 -1 -1</clus>
<clus scale="   90.948">  7  8 -1 -1</clus>
<clus scale="  139.924">  1  5  2 -1</clus>
<clus scale="   48.102">  1  5  2 -1</clus>
</clustering>
</event>
<event>
 9    1  0.2374319E-005  0.1017536E+03  0.7546771E-02  0.1278837E+00
         -2   -1    0    0    0  501 -0.00000000000E+00  0.00000000000E+00  0.57575628871E+02  0.57575628871E+02  0.00000000000E+00 0.  1.
          1   -1    0    0  502    0  0.00000000000E+00 -0.00000000000E+00 -0.31836897125E+03  0.31836897125E+03  0.00000000000E+00 0. -1.
        -24    2    1    2    0    0 -0.34635909720E+02 -0.36616906791E+02 -0.19247309589E+02  0.10121119760E+03  0.85631790171E+02 0.  0.
         23    2    1    2    0    0  0.41994706663E+02  0.65764746636E+01 -0.17923109507E+03  0.20516522792E+03  0.90344783468E+02 0.  0.
         13    1    3    3    0    0 -0.48103600193E+02 -0.13687116486E+02 -0.42694552752E+02  0.65758028741E+02  0.00000000000E+00 0. -1.
        -14    1    3    3    0    0  0.13467690472E+02 -0.22929790305E+02  0.23447243164E+02  0.35453168858E+02  0.00000000000E+00 0.  1.
        -11    1    4    4    0    0 -0.17181424029E+02  0.17036558268E+02 -0.11372505607E+03  0.11627052089E+03  0.00000000000E+00 0.  1.
         11    1    4    4    0    0  0.59176130692E+02 -0.10460083604E+02 -0.65506039002E+02  0.88894707032E+02  0.00000000000E+00 0. -1.
         21    1    1    2  502  501 -0.73587969427E+01  0.30040432127E+02 -0.62314937719E+02  0.69568174604E+02  0.00000000000E+00 0.  1.
<scales pt_clust_5="13000.00000" pt_clust_6="13000.00000" pt_clust_7="13000.00000" pt_clust_8="13000.00000" pt_clust_9="30.92862"></scales>
<clustering>
<clus scale="   30.929">  2  9  1 -1</clus>
<clus scale="   85.632">  5  6 -1 -1</clus>
<clus scale="   90.345">  7  8 -1 -1</clus>
<clus scale="   97.593">  1  5  2 -1</clus>
<clus scale="   30.929">  2  5  1 -1</clus>
</clustering>
</event>
<event>
 9    1  0.2374319E-005  0.1455864E+03  0.7546771E-02  0.1212702E+00
         -2   -1    0    0    0  501 -0.00000000000E+00  0.00000000000E+00  0.12976319312E+03  0.12976319312E+03  0.00000000000E+00 0.  1.
          1   -1    0    0  502    0  0.00000000000E+00 -0.00000000000E+00 -0.35256385482E+03  0.35256385482E+03  0.00000000000E+00 0. -1.
         23    2    1    2    0    0  0.10828801688E+03  0.28576204722E+01  0.49819297849E+02  0.15071125194E+03  0.92181659935E+02 0.  0.
        -24    2    1    2    0    0 -0.12939450367E+03 -0.37344970675E+02 -0.19066542369E+03  0.24022976285E+03  0.56740204043E+02 0.  0.
         13    1    4    4    0    0 -0.92758507477E+02 -0.73415203483E+01 -0.15562656778E+03  0.18132199875E+03  0.00000000000E+00 0. -1.
        -14    1    4    4    0    0 -0.36635996189E+02 -0.30003450326E+02 -0.35038855907E+02  0.58907764102E+02  0.00000000000E+00 0.  1.
        -13    1    3    3    0    0  0.32218072696E+02  0.40857108797E+02 -0.24985016833E+00  0.52032393493E+02  0.00000000000E+00 0.  1.
         13    1    3    3    0    0  0.76069944187E+02 -0.37999488325E+02  0.50069148017E+02  0.98678858448E+02  0.00000000000E+00 0. -1.
         21    1    1    2  502  501  0.21106486783E+02  0.34487350202E+02 -0.81954535859E+02  0.91386033157E+02  0.00000000000E+00 0. -1.
<scales pt_clust_5="13000.00000" pt_clust_6="13000.00000" pt_clust_7="13000.00000" pt_clust_8="13000.00000" pt_clust_9="40.43342"></scales>
<clustering>
<clus scale="   40.433">  2  9  1 -1</clus>
<clus scale="   56.740">  5  6 -1 -1</clus>
<clus scale="   92.182">  7  8 -1 -1</clus>
<clus scale="  126.164">  2  5  1 -1</clus>
<clus scale="   40.433">  2  5  1 -1</clus>
</clustering>
</event>
<event>
 9    1  0.2374319E-005  0.9943178E+02  0.7546771E-02  0.1287408E+00
         -2   -1    0    0    0  501 -0.00000000000E+00  0.00000000000E+00  0.28777165969E+02  0.28777165969E+02  0.00000000000E+00 0.  1.
          1   -1    0    0  502    0  0.00000000000E+00 -0.00000000000E+00 -0.52583270918E+03  0.52583270918E+03  0.00000000000E+00 0. -1.
        -24    2    1    2    0    0 -0.33282304241E+02 -0.13008437848E+02 -0.80673545224E+02  0.11958939235E+03  0.80724659389E+02 0.  0.
         23    2    1    2    0    0  0.32261626182E+02  0.33303379210E+02 -0.37473370811E+03  0.38867928645E+03  0.92175420453E+02 0.  0.
         13    1    3    3    0    0 -0.30302130817E+02 -0.21664784333E+02 -0.95307100072E+02  0.10232802811E+03  0.00000000000E+00 0. -1.
        -14    1    3    3    0    0 -0.29801734245E+01  0.86563464856E+01  0.14633554848E+02  0.17261364245E+02  0.00000000000E+00 0.  1.
        -13    1    4    4    0    0 -0.24487928963E+02  0.36769563797E+02 -0.20397054614E+03  0.20869988782E+03  0.00000000000E+00 0. -1.
         13    1    4    4    0    0  0.56749555145E+02 -0.34661845871E+01 -0.17076316197E+03  0.17997939863E+03  0.00000000000E+00 0.  1.
         21    1    1    2  502  501  0.10206780592E+01 -0.20294941362E+02 -0.41648289885E+02  0.46341196348E+02  0.00000000000E+00 0. -1.
<scales pt_clust_5="13000.00000" pt_clust_6="13000.00000" pt_clust_7="13000.00000" pt_clust_8="13000.00000" pt_clust_9="20.32059"></scales>
<clustering>
<clus scale="   20.321">  2  9  1 -1</clus>
<clus scale="   80.725">  5  6 -1 -1</clus>
<clus scale="   88.920">  1  5  2 -1</clus>
<clus scale="   92.175">  7  8 -1 -1</clus>
<clus scale="   20.321">  2  5  1 -1</clus>
</clustering>
</event>
<event>
 9    1  0.2374319E-005  0.9267158E+02  0.7546771E-02  0.1300879E+00
         -2   -1    0    0    0  501 -0.00000000000E+00  0.00000000000E+00  0.30285641382E+02  0.30285641382E+02  0.00000000000E+00 0.  1.
          1   -1    0    0  502    0  0.00000000000E+00 -0.00000000000E+00 -0.47830057902E+03  0.47830057902E+03  0.00000000000E+00 0. -1.
        -24    2    1    2    0    0  0.19160922592E+02  0.99180696606E+01 -0.73353302754E+02  0.11167125521E+03  0.81389515023E+02 0.  0.
         23    2    1    2    0    0 -0.23728113432E+02 -0.32005503029E+02 -0.21987776159E+03  0.24049641969E+03  0.88909629678E+02 0.  0.
         11    1    3    3    0    0  0.44314118542E+02 -0.50162812924E+00 -0.71832048685E+02  0.84402819569E+02  0.00000000000E+00 0. -1.
        -12    1    3    3    0    0 -0.25153195951E+02  0.10419697790E+02 -0.15212540692E+01  0.27268435645E+02  0.00000000000E+00 0.  1.
        -13    1    4    4    0    0 -0.22358764814E+02 -0.54898272498E+02 -0.20441677842E+03  0.21283785844E+03  0.00000000000E+00 0. -1.
         13    1    4    4    0    0 -0.13693486178E+01  0.22892769468E+02 -0.15460983173E+02  0.27658561247E+02  0.00000000000E+00 0.  1.
         21    1    1    2  502  501  0.45671908401E+01  0.22087433369E+02 -0.15478387330E+03  0.15641854550E+03  0.00000000000E+00 0.  1.
<scales pt_clust_5="13000.00000" pt_clust_6="13000.00000" pt_clust_7="13000.00000" pt_clust_8="13000.00000" pt_clust_9="22.55469"></scales>
<clustering>
<clus scale="   22.555">  2  9  1 -1</clus>
<clus scale="   81.390">  5  6 -1 -1</clus>
<clus scale="   85.483">  1  5  2 -1</clus>
<clus scale="   88.910">  7  8 -1 -1</clus>
<clus scale="   22.555">  2  5  1 -1</clus>
</clustering>
</event>
<event>
 9    1  0.2374319E-005  0.1019173E+03  0.7546771E-02  0.1282621E+00
          1   -1    0    0  502    0  0.00000000000E+00  0.00000000000E+00  0.40335841794E+03  0.40335841794E+03  0.00000000000E+00 0. -1.
         -2   -1    0    0    0  501 -0.00000000000E+00 -0.00000000000E+00 -0.12722562600E+03  0.12722562600E+03  0.00000000000E+00 0.  1.
         23    2    1    2    0    0  0.15349913670E+02 -0.10214756976E+01 -0.68353779838E+02  0.12159284940E+03  0.99377656168E+02 0.  0.
        -24    2    1    2    0    0 -0.71113362721E+02  0.72152012412E+02  0.21634133571E+03  0.25217819434E+03  0.80791366573E+02 0.  0.
         11    1    4    4    0    0 -0.36028457556E+02  0.21237777589E+02  0.16956387828E+03  0.17464536000E+03  0.00000000000E+00 0. -1.
        -12    1    4    4    0    0 -0.35084905164E+02  0.50914234822E+02  0.46777457424E+02  0.77532834341E+02  0.00000000000E+00 0.  1.
        -13    1    3    3    0    0 -0.60867161648E+01 -0.20315257129E+02 -0.85465850976E+02  0.88057762117E+02  0.00000000000E+00 0.  1.
         13    1    3    3    0    0  0.21436629835E+02  0.19293781432E+02  0.17112071138E+02  0.33535087286E+02  0.00000000000E+00 0. -1.
         21    1    1    2  502  501  0.55763449050E+02 -0.71130536714E+02  0.12814523606E+03  0.15681300019E+03  0.00000000000E+00 0.  1.
<scales pt_clust_5="13000.00000" pt_clust_6="13000.00000" pt_clust_7="13000.00000" pt_clust_8="13000.00000" pt_clust_9="90.38316"></scales>
<clustering>
<clus scale="   80.791">  5  6 -1 -1</clus>
<clus scale="   90.383">  1  9  2 -1</clus>
<clus scale="   90.383">  1  5  2 -1</clus>
<clus scale="   99.378">  7  8 -1 -1</clus>
<clus scale="   90.383">  1  5  2 -1</clus>
</clustering>
</event>
<event>
 9    1  0.2374319E-005  0.1457615E+03  0.7546771E-02  0.1214210E+00
         -2   -1    0    0    0  501 -0.00000000000E+00  0.00000000000E+00  0.92428835840E+02  0.92428835840E+02  0.00000000000E+00 0.  1.
          1   -1    0    0  502    0  0.00000000000E+00 -0.00000000000E+00 -0.26196852668E+03  0.26196852668E+03  0.00000000000E+00 0. -1.
         23    2    1    2    0    0  0.27264822237E+02  0.11066714520E+03 -0.90269261751E+02  0.18404467972E+03  0.11284199997E+03 0.  0.
        -24    2    1    2    0    0 -0.29564325545E+02 -0.72287516061E+02 -0.67006082467E+02  0.12999555399E+03  0.79432327457E+02 0.  0.
         13    1    4    4    0    0  0.11220942180E+02 -0.50181302877E+02 -0.37575128972E+01  0.51557653214E+02  0.00000000000E+00 0. -1.
        -14    1    4    4    0    0 -0.40785267726E+02 -0.22106213184E+02 -0.63248569570E+02  0.78437900771E+02  0.00000000000E+00 0.  1.
        -11    1    3    3    0    0  0.21465100410E+02  0.39707304298E+01 -0.72510484619E+02  0.75725079171E+02  0.00000000000E+00 0. -1.
         11    1    3    3    0    0  0.57997218265E+01  0.10669641477E+03 -0.17758777132E+02  0.10831960055E+03  0.00000000000E+00 0.  1.
         21    1    1    2  502  501  0.22995033089E+01 -0.38379629136E+02 -0.12264346617E+02  0.40357128813E+02  0.00000000000E+00 0.  1.
<scales pt_clust_5="13000.00000" pt_clust_6="13000.00000" pt_clust_7="13000.00000" pt_clust_8="13000.00000" pt_clust_9="38.44845"></scales>
<clustering>
<clus scale="   38.448">  1  9  2 -1</clus>
<clus scale="   79.432">  5  6 -1 -1</clus>
<clus scale="  112.842">  7  8 -1 -1</clus>
<clus scale="  121.748">  2  5  1 -1</clus>
<clus scale="  121.748">  2  5  1 -1</clus>
</clustering>
</event>
<event>
 9    1  0.2374319E-005  0.2569474E+03  0.7546771E-02  0.1109628E+00
         -2   -1    0    0    0  501 -0.00000000000E+00  0.00000000000E+00  0.15568462039E+04  0.15568462039E+04  0.00000000000E+00 0.  1.
          1   -1    0    0  502    0  0.00000000000E+00 -0.00000000000E+00 -0.60436943889E+02  0.60436943889E+02  0.00000000000E+00 0. -1.
         23    2    1    2    0    0 -0.13583368903E+02 -0.25503266792E+03  0.67838329426E+03  0.73048476961E+03  0.90431936237E+02 0.  0.
        -24    2    1    2    0    0 -0.68248082867E+02  0.22534935218E+03  0.51646928709E+03  0.57292911211E+03  0.77891666146E+02 0.  0.
         11    1    4    4    0    0 -0.41529830199E+02  0.10923066505E+03  0.16795614007E+03  0.20461019029E+03  0.00000000000E+00 0. -1.
        -12    1    4    4    0    0 -0.26718252668E+02  0.11611868713E+03  0.34851314701E+03  0.36831892182E+03  0.00000000000E+00 0.  1.
        -13    1    3    3    0    0  0.89622064746E+01 -0.41660005070E+02  0.22365839917E+03  0.22768170037E+03  0.00000000000E+00 0.  1.
         13    1    3    3    0    0 -0.22545575377E+02 -0.21337266285E+03  0.45472489509E+03  0.50280306924E+03  0.00000000000E+00 0. -1.
         21    1    1    2  502  501  0.81831451770E+02  0.29683315737E+02  0.30155667863E+03  0.31386926603E+03  0.00000000000E+00 0.  1.
<scales pt_clust_5="13000.00000" pt_clust_6="13000.00000" pt_clust_7="13000.00000" pt_clust_8="13000.00000" pt_clust_9="87.04875"></scales>
<clustering>
<clus scale="   77.892">  5  6 -1 -1</clus>
<clus scale="   87.049">  1  9  2 -1</clus>
<clus scale="   90.432">  7  8 -1 -1</clus>
<clus scale="  252.807">  2  5  1 -1</clus>
<clus scale="  252.807">  2  5  1 -1</clus>
</clustering>
</event>
<event>
 9    1  0.2374319E-005  0.1775581E+03  0.7546771E-02  0.1203118E+00
         -2   -1    0    0    0  501 -0.00000000000E+00  0.00000000000E+00  0.94070832942E+02  0.94070832942E+02  0.00000000000E+00 0.  1.
          1   -1    0    0  502    0  0.00000000000E+00 -0.00000000000E+00 -0.12899401680E+04  0.12899401680E+04  0.00000000000E+00 0. -1.
        -24    2    1    2    0    0 -0.27709231259E+02  0.17056289262E+02  0.45330842581E+02  0.96687522465E+02  0.78961213332E+02 0.  0.
         23    2    1    2    0    0 -0.88594773824E+02  0.98841617542E+02 -0.41319106164E+03  0.44319194691E+03  0.89852930295E+02 0.  0.
         11    1    3    3    0    0 -0.10278188490E+02  0.33626011372E+02 -0.98315485275E+01  0.36510397777E+02  0.00000000000E+00 0. -1.
        -12    1    3    3    0    0 -0.17431042769E+02 -0.16569722109E+02  0.55162391109E+02  0.60177124687E+02  0.00000000000E+00 0.  1.
        -11    1    4    4    0    0 -0.58443416345E+02  0.10545198123E+03 -0.25561798598E+03  0.28262396929E+03  0.00000000000E+00 0.  1.
         11    1    4    4    0    0 -0.30151357480E+02 -0.66103636893E+01 -0.15757307565E+03  0.16056797762E+03  0.00000000000E+00 0. -1.
         21    1    1    2  502  501  0.11630400508E+03 -0.11589790680E+03 -0.82800911600E+03  0.84413153157E+03  0.00000000000E+00 0. -1.
<scales pt_clust_5="13000.00000" pt_clust_6="13000.00000" pt_clust_7="13000.00000" pt_clust_8="13000.00000" pt_clust_9="153.14485"></scales>
<clustering>
<clus scale="   78.961">  5  6 -1 -1</clus>
<clus scale="   85.403">  1  5  2 -1</clus>
<clus scale="   89.853">  7  8 -1 -1</clus>
<clus scale="  153.145">  2  9  1 -1</clus>
<clus scale="  153.145">  2  5  1 -1</clus>
</clustering>
</event>
<event>
 9    1  0.2374319E-005  0.1150521E+03  0.7546771E-02  0.1254631E+00
         -2   -1    0    0    0  501 -0.00000000000E+00  0.00000000000E+00  0.23078953875E+02  0.23078953875E+02  0.00000000000E+00 0.  1.
          1   -1    0    0  502    0  0.00000000000E+00 -0.00000000000E+00 -0.10222181384E+04  0.10222181384E+04  0.00000000000E+00 0. -1.
         23    2    1    2    0    0  0.49003836661E+02  0.48410609989E+02 -0.22933454857E+03  0.25594656516E+03  0.90384433858E+02 0.  0.
        -24    2    1    2    0    0 -0.87596767590E+02 -0.12286194123E+02 -0.58030079170E+03  0.59261188137E+03  0.81336884855E+02 0.  0.
         13    1    4    4    0    0 -0.10156399222E+03 -0.16010399458E+02 -0.54216743746E+03  0.55183068748E+03  0.00000000000E+00 0. -1.
        -14    1    4    4    0    0  0.13967224634E+02  0.37242053349E+01 -0.38133354241E+02  0.40781193889E+02  0.00000000000E+00 0.  1.
        -13    1    3    3    0    0 -0.21216703465E+02  0.36496368921E+02 -0.92817502484E+02  0.10196677016E+03  0.00000000000E+00 0. -1.
         13    1    3    3    0    0  0.70220540126E+02  0.11914241068E+02 -0.13651704609E+03  0.15397979500E+03  0.00000000000E+00 0.  1.
         21    1    1    2  502  501  0.38592930929E+02 -0.36124415865E+02 -0.18950384421E+03  0.19673864569E+03  0.00000000000E+00 0.  1.
<scales pt_clust_5="13000.00000" pt_clust_6="13000.00000" pt_clust_7="13000.00000" pt_clust_8="13000.00000" pt_clust_9="52.86197"></scales>
<clustering>
<clus scale="   52.862">  2  9  1 -1</clus>
<clus scale="   81.337">  5  6 -1 -1</clus>
<clus scale="   90.384">  7  8 -1 -1</clus>
<clus scale="  108.089">  2  5  1 -1</clus>
<clus scale="   52.862">  2  5  1 -1</clus>
</clustering>
</event>
<event>
 9    1  0.2374319E-005  0.9935741E+02  0.7546771E-02  0.1282437E+00
          1   -1    0    0  502    0  0.00000000000E+00  0.00000000000E+00  0.22309078417E+03  0.22309078417E+03  0.00000000000E+00 0. -1.
         -2   -1    0    0    0  501 -0.00000000000E+00 -0.00000000000E+00 -0.11226908636E+03  0.11226908636E+03  0.00000000000E+00 0.  1.
         23    2    1    2    0    0 -0.29641847288E+02 -0.43860034270E+02 -0.53373169893E+02  0.11566508720E+03  0.87905491391E+02 0.  0.
        -24    2    1    2    0    0  0.34320407575E+02  0.80996243530E+01  0.63552839140E+02  0.11278587932E+03  0.86244982003E+02 0.  0.
         13    1    4    4    0    0 -0.24714200428E+02  0.20567027183E+00 -0.12795680204E+01  0.24748157455E+02  0.00000000000E+00 0. -1.
        -14    1    4    4    0    0  0.59034608004E+02  0.78939540812E+01  0.64832407161E+02  0.88037721866E+02  0.00000000000E+00 0.  1.
        -13    1    3    3    0    0  0.25695891388E+02  0.77802379601E+01 -0.12031011551E+02  0.29420336094E+02  0.00000000000E+00 0.  1.
         13    1    3    3    0    0 -0.55337738676E+02 -0.51640272230E+02 -0.41342158342E+02  0.86244751110E+02  0.00000000000E+00 0. -1.
         21    1    1    2  502  501 -0.46785602871E+01  0.35760409917E+02  0.10064202856E+03  0.10690890401E+03  0.00000000000E+00 0.  1.
<scales pt_clust_5="13000.00000" pt_clust_6="13000.00000" pt_clust_7="13000.00000" pt_clust_8="13000.00000" pt_clust_9="36.06516"></scales>
<clustering>
<clus scale="   36.065">  1  9  2 -1</clus>
<clus scale="   86.245">  5  6 -1 -1</clus>
<clus scale="   87.905">  7  8 -1 -1</clus>
<clus scale="   97.891">  1  5  2 -1</clus>
<clus scale="   36.065">  1  5  2 -1</clus>
</clustering>
</event>
<event>
 9    1  0.2374319E-005  0.2228058E+03  0.7546771E-02  0.1156462E+00
          1   -1    0    0  502    0  0.00000000000E+00  0.00000000000E+00  0.18457607099E+04  0.18457607099E+04  0.00000000000E+00 0. -1.
         -2   -1    0    0    0  501 -0.00000000000E+00 -0.00000000000E+00 -0.27551974046E+03  0.27551974046E+03  0.00000000000E+00 0.  1.
         23    2    1    2    0    0 -0.15185810554E+03  0.13455716437E+03 -0.21147612800E+03  0.30737072465E+03  0.92671975043E+02 0.  0.
        -24    2    1    2    0    0 -0.53320695303E+02 -0.72496581937E+02  0.55086123126E+03  0.56452747054E+03  0.84524067278E+02 0.  0.
         11    1    4    4    0    0 -0.61346499905E+02 -0.79148121273E+02  0.54096085539E+03  0.55015131120E+03  0.00000000000E+00 0. -1.
        -12    1    4    4    0    0  0.80258046024E+01  0.66515393355E+01  0.99003758770E+01  0.14376159346E+02  0.00000000000E+00 0.  1.
        -11    1    3    3    0    0 -0.61559204812E+02  0.11530340275E+03 -0.12602209505E+03  0.18156535689E+03  0.00000000000E+00 0.  1.
         11    1    3    3    0    0 -0.90298900727E+02  0.19253761612E+02 -0.85454032957E+02  0.12580536776E+03  0.00000000000E+00 0. -1.
         21    1    1    2  502  501  0.20517880084E+03 -0.62060582428E+02  0.12308558662E+04  0.12493822552E+04  0.00000000000E+00 0. -1.
<scales pt_clust_5="13000.00000" pt_clust_6="13000.00000" pt_clust_7="13000.00000" pt_clust_8="13000.00000" pt_clust_9="202.61866"></scales>
<clustering>
<clus scale="   84.524">  5  6 -1 -1</clus>
<clus scale="   92.672">  7  8 -1 -1</clus>
<clus scale="  123.463">  1  5  2 -1</clus>
<clus scale="  202.619">  1  9  2 -1</clus>
<clus scale="  123.463">  1  5  2 -1</clus>
</clustering>
</event>
<event>
 9    1  0.2374319E-005  0.1343258E+03  0.7546771E-02  0.1231697E+00
         -2   -1    0    0    0  501 -0.00000000000E+00  0.00000000000E+00  0.10936754554E+03  0.10936754554E+03  0.00000000000E+00 0.  1.
          1   -1    0    0  502    0  0.00000000000E+00 -0.00000000000E+00 -0.82837774961E+03  0.82837774961E+03  0.00000000000E+00 0. -1.
         23    2    1    2    0    0  0.68557184104E+02  0.31587388864E+02 -0.49396232490E+02  0.12928281009E+03  0.92607810539E+02 0.  0.
        -24    2    1    2    0    0 -0.12429388222E+02  0.70281774090E+02 -0.68291605618E+03  0.69139583189E+03  0.80992833587E+02 0.  0.
         13    1    4    4    0    0 -0.23466949814E+02  0.79932523660E+02 -0.42642793544E+03  0.43448899894E+03  0.00000000000E+00 0. -1.
        -14    1    4    4    0    0  0.11037561592E+02 -0.96507495697E+01 -0.25648812074E+03  0.25690683295E+03  0.00000000000E+00 0.  1.
        -13    1    3    3    0    0  0.67050547145E+02 -0.16883973955E+02 -0.17783171230E+02  0.71393876684E+02  0.00000000000E+00 0.  1.
         13    1    3    3    0    0  0.15066369588E+01  0.48471362820E+02 -0.31613061261E+02  0.57888933405E+02  0.00000000000E+00 0. -1.
         21    1    1    2  502  501 -0.56127795882E+02 -0.10186916295E+03  0.13302084600E+02  0.11706665318E+03  0.00000000000E+00 0.  1.
<scales pt_clust_5="13000.00000" pt_clust_6="13000.00000" pt_clust_7="13000.00000" pt_clust_8="13000.00000" pt_clust_9="97.29963"></scales>
<clustering>
<clus scale="   80.993">  5  6 -1 -1</clus>
<clus scale="   92.608">  7  8 -1 -1</clus>
<clus scale="  107.953">  2  5  1 -1</clus>
<clus scale="   97.300">  1  9  2 -1</clus>
<clus scale="  107.953">  2  5  1 -1</clus>
</clustering>
</event>
<event>
 9    1  0.2374319E-005  0.1087740E+03  0.7546771E-02  0.1267365E+00
         -4   -1    0    0    0  501 -0.00000000000E+00  0.00000000000E+00  0.83417352813E+02  0.83417352813E+02  0.00000000000E+00 0.  1.
          3   -1    0    0  502    0  0.00000000000E+00 -0.00000000000E+00 -0.30151964174E+03  0.30151964174E+03  0.00000000000E+00 0. -1.
        -24    2    1    2    0    0 -0.17216485569E+02  0.54556847925E+02  0.25648354898E+02  0.10178945506E+03  0.80189762569E+02 0.  0.
         23    2    1    2    0    0 -0.23354135004E+01 -0.73204610121E+02 -0.19882306467E+03  0.23072137083E+03  0.91309204434E+02 0.  0.
         13    1    3    3    0    0 -0.69149661890E+01 -0.20997236760E+02  0.80944516963E+01  0.23541895786E+02  0.00000000000E+00 0. -1.
        -14    1    3    3    0    0 -0.10301519380E+02  0.75554084685E+02  0.17553903202E+02  0.78247559270E+02  0.00000000000E+00 0.  1.
        -13    1    4    4    0    0  0.27976586897E+02 -0.20745871279E+00 -0.10181830362E+03  0.10559213704E+03  0.00000000000E+00 0.  1.
         13    1    4    4    0    0 -0.30312000397E+02 -0.72997151409E+02 -0.97004761053E+02  0.12512923379E+03  0.00000000000E+00 0. -1.
         21    1    1    2  502  501  0.19551899069E+02  0.18647762196E+02 -0.44927579154E+02  0.52426168664E+02  0.00000000000E+00 0.  1.
<scales pt_clust_5="13000.00000" pt_clust_6="13000.00000" pt_clust_7="13000.00000" pt_clust_8="13000.00000" pt_clust_9="27.01880"></scales>
<clustering>
<clus scale="   27.019">  2  9  1 -1</clus>
<clus scale="   80.190">  5  6 -1 -1</clus>
<clus scale="   91.309">  7  8 -1 -1</clus>
<clus scale="   99.623">  1  5  2 -1</clus>
<clus scale="   27.019">  2  5  1 -1</clus>
</clustering>
</event>
<event>
 9    1  0.2374319E-005  0.2730168E+03  0.7546771E-02  0.1100131E+00
         -2   -1    0    0    0  501 -0.00000000000E+00  0.00000000000E+00  0.18090827164E+03  0.18090827164E+03  0.00000000000E+00 0.  1.
          1   -1    0    0  502    0  0.00000000000E+00 -0.00000000000E+00 -0.10622354813E+04  0.10622354813E+04  0.00000000000E+00 0. -1.
        -24    2    1    2    0    0 -0.10820818077E+03  0.21403425911E+03 -0.82402425590E+01  0.25295885137E+03  0.80003777605E+02 0.  0.
         23    2    1    2    0    0  0.12510689193E+03 -0.31908151220E+03 -0.60070782627E+03  0.69776245341E+03  0.92508394263E+02 0.  0.
         11    1    3    3    0    0 -0.98922144604E+01  0.20720382578E+02 -0.26796453878E+02  0.35287959725E+02  0.00000000000E+00 0. -1.
        -12    1    3    3    0    0 -0.98315966311E+02  0.19331387653E+03  0.18556211319E+02  0.21767089165E+03  0.00000000000E+00 0.  1.
        -11    1    4    4    0    0 -0.10439476788E+02 -0.71965536685E+02 -0.10978296606E+03  0.13168265179E+03  0.00000000000E+00 0.  1.
         11    1    4    4    0    0  0.13554636871E+03 -0.24711597552E+03 -0.49092486021E+03  0.56607980162E+03  0.00000000000E+00 0. -1.
         21    1    1    2  502  501 -0.16898711154E+02  0.10504725309E+03 -0.27237914084E+03  0.29242244815E+03  0.00000000000E+00 0.  1.
<scales pt_clust_5="13000.00000" pt_clust_6="13000.00000" pt_clust_7="13000.00000" pt_clust_8="13000.00000" pt_clust_9="106.39780"></scales>
<clustering>
<clus scale="   80.004">  5  6 -1 -1</clus>
<clus scale="   92.508">  7  8 -1 -1</clus>
<clus scale="  106.398">  2  9  1 -1</clus>
<clus scale="  269.037">  1  5  2 -1</clus>
<clus scale="  106.398">  2  5  1 -1</clus>
</clustering>
</event>
<event>
 9    1  0.2420697E-005  0.9283843E+02  0.7546771E-02  0.1301417E+00
          1   -1    0    0  502    0  0.00000000000E+00  0.00000000000E+00  0.31771502186E+03  0.31771502186E+03  0.00000000000E+00 0. -1.
         -2   -1    0    0    0  501 -0.00000000000E+00 -0.00000000000E+00 -0.22832991015E+03  0.22832991015E+03  0.00000000000E+00 0.  1.
         23    2    1    2    0    0  0.22260596905E+02  0.94469392138E+01 -0.20836207183E+03  0.22803575030E+03  0.89447032385E+02 0.  0.
        -24    2    1    2    0    0 -0.35372459345E+02 -0.24997951571E+02  0.24474888013E+03  0.26124145244E+03  0.80429930295E+02 0.  0.
         13    1    4    4    0    0 -0.52220478474E+02  0.89206106881E+01  0.12901042186E+03  0.13946413379E+03  0.00000000000E+00 0. -1.
        -14    1    4    4    0    0  0.16848019128E+02 -0.33918562259E+02  0.11573845827E+03  0.12177731865E+03  0.00000000000E+00 0.  1.
        -13    1    3    3    0    0  0.55851876869E+02  0.40166888721E+01 -0.15440609111E+03  0.16424617777E+03  0.00000000000E+00 0.  1.
         13    1    3    3    0    0 -0.33591279964E+02  0.54302503416E+01 -0.53955980718E+02  0.63789572531E+02  0.00000000000E+00 0. -1.
         21    1    1    2  502  501  0.13111862440E+02  0.15551012357E+02  0.52998303411E+02  0.56767729270E+02  0.00000000000E+00 0.  1.
<scales pt_clust_5="13000.00000" pt_clust_6="13000.00000" pt_clust_7="13000.00000" pt_clust_8="13000.00000" pt_clust_9="20.34097"></scales>
<clustering>
<clus scale="   20.341">  1  9  2 -1</clus>
<clus scale="   80.430">  5  6 -1 -1</clus>
<clus scale="   84.185">  1  5  2 -1</clus>
<clus scale="   89.447">  7  8 -1 -1</clus>
<clus scale="   20.341">  1  5  2 -1</clus>
</clustering>
</event>
<event>
 9    1  0.2374319E-005  0.9804949E+02  0.7546771E-02  0.1286025E+00
          1   -1    0    0  502    0  0.00000000000E+00  0.00000000000E+00  0.50363283303E+03  0.50363283303E+03  0.00000000000E+00 0. -1.
         -2   -1    0    0    0  501 -0.00000000000E+00 -0.00000000000E+00 -0.50378602290E+02  0.50378602290E+02  0.00000000000E+00 0.  1.
        -24    2    1    2    0    0 -0.11791693003E+02 -0.28285149100E+02  0.25044722440E+02  0.95918530809E+02  0.87372952033E+02 0.  0.
         23    2    1    2    0    0  0.26443987279E+02  0.58658485308E+02  0.21246552228E+03  0.23972922442E+03  0.90489781303E+02 0.  0.
         13    1    3    3    0    0 -0.13226547450E+02 -0.47854459898E+02  0.45663937553E+02  0.67455067136E+02  0.00000000000E+00 0. -1.
        -14    1    3    3    0    0  0.14348544469E+01  0.19569310797E+02 -0.20619215113E+02  0.28463463673E+02  0.00000000000E+00 0.  1.
        -11    1    4    4    0    0 -0.17463352318E+02  0.40034553401E+02  0.17112870145E+03  0.17661474061E+03  0.00000000000E+00 0. -1.
         11    1    4    4    0    0  0.43907339597E+02  0.18623931906E+02  0.41336820829E+02  0.63114483809E+02  0.00000000000E+00 0.  1.
         21    1    1    2  502  501 -0.14652294276E+02 -0.30373336207E+02  0.21574398602E+03  0.21836368009E+03  0.00000000000E+00 0. -1.
<scales pt_clust_5="13000.00000" pt_clust_6="13000.00000" pt_clust_7="13000.00000" pt_clust_8="13000.00000" pt_clust_9="33.72283"></scales>
<clustering>
<clus scale="   33.723">  1  9  2 -1</clus>
<clus scale="   87.373">  5  6 -1 -1</clus>
<clus scale="   90.490">  7  8 -1 -1</clus>
<clus scale="   95.181">  2  5  1 -1</clus>
<clus scale="   33.723">  1  5  2 -1</clus>
</clustering>
</event>
<event>
 9    1  0.2374319E-005  0.9191378E+02  0.7546771E-02  0.1300251E+00
         -2   -1    0    0    0  501 -0.00000000000E+00  0.00000000000E+00  0.50128130759E+02  0.50128130759E+02  0.00000000000E+00 0.  1.
          1   -1    0    0  502    0  0.00000000000E+00 -0.00000000000E+00 -0.42607819237E+03  0.42607819237E+03  0.00000000000E+00 0. -1.
        -24    2    1    2    0    0  0.13441465701E+02 -0.15180019257E+02 -0.90282461179E+01  0.89823001600E+02  0.87037672325E+02 0.  0.
         23    2    1    2    0    0  0.76951342004E+01 -0.16708569131E+01 -0.31557678353E+03  0.32835729125E+03  0.90375868227E+02 0.  0.
         13    1    3    3    0    0  0.16895848367E+02  0.21170912596E+02 -0.35549799538E+02  0.44693013765E+02  0.00000000000E+00 0. -1.
        -14    1    3    3    0    0 -0.34543826657E+01 -0.36350931853E+02  0.26521553420E+02  0.45129987835E+02  0.00000000000E+00 0.  1.
        -11    1    4    4    0    0  0.47058096579E+02  0.61091546257E+01 -0.21278051076E+03  0.21800764203E+03  0.00000000000E+00 0.  1.
         11    1    4    4    0    0 -0.39362962379E+02 -0.77800115387E+01 -0.10279627278E+03  0.11034964922E+03  0.00000000000E+00 0. -1.
         21    1    1    2  502  501 -0.21136599902E+02  0.16850876170E+02 -0.51345031960E+02  0.58026030280E+02  0.00000000000E+00 0.  1.
<scales pt_clust_5="13000.00000" pt_clust_6="13000.00000" pt_clust_7="13000.00000" pt_clust_8="13000.00000" pt_clust_9="27.03161"></scales>
<clustering>
<clus scale="   27.032">  2  9  1 -1</clus>
<clus scale="   87.038">  5  6 -1 -1</clus>
<clus scale="   88.634">  1  5  2 -1</clus>
<clus scale="   90.376">  7  8 -1 -1</clus>
<clus scale="   27.032">  2  5  1 -1</clus>
</clustering>
</event>
<event>
 9    1  0.2374319E-005  0.1311786E+03  0.7546771E-02  0.1227798E+00
          1   -1    0    0  502    0  0.00000000000E+00  0.00000000000E+00  0.12356687559E+03  0.12356687559E+03  0.00000000000E+00 0. -1.
         -2   -1    0    0    0  501 -0.00000000000E+00 -0.00000000000E+00 -0.34399874893E+03  0.34399874893E+03  0.00000000000E+00 0.  1.
         23    2    1    2    0    0  0.89941062884E+02  0.90762263103E+02 -0.12252423441E+03  0.19928318660E+03  0.91511842126E+02 0.  0.
        -24    2    1    2    0    0 -0.87849435505E+02  0.33030631187E+02 -0.57196130602E+02  0.13795023739E+03  0.83368607555E+02 0.  0.
         13    1    4    4    0    0 -0.41382390427E+02  0.25152850964E+02  0.15906026363E+02  0.50972245622E+02  0.00000000000E+00 0. -1.
        -14    1    4    4    0    0 -0.46467045079E+02  0.78777802226E+01 -0.73102156965E+02  0.86977991771E+02  0.00000000000E+00 0.  1.
        -11    1    3    3    0    0  0.47389513452E+02  0.48204541348E+02 -0.12156375703E+03  0.13909417966E+03  0.00000000000E+00 0. -1.
         11    1    3    3    0    0  0.42551549432E+02  0.42557721755E+02 -0.96047737677E+00  0.60189006943E+02  0.00000000000E+00 0.  1.
         21    1    1    2  502  501 -0.20916273787E+01 -0.12379289429E+03 -0.40711508330E+02  0.13033220052E+03  0.00000000000E+00 0. -1.
<scales pt_clust_5="13000.00000" pt_clust_6="13000.00000" pt_clust_7="13000.00000" pt_clust_8="13000.00000" pt_clust_9="123.81056"></scales>
<clustering>
<clus scale="   83.369">  5  6 -1 -1</clus>
<clus scale="   91.512">  7  8 -1 -1</clus>
<clus scale="  123.811">  1  9  2 -1</clus>
<clus scale="  125.633">  1  5  2 -1</clus>
<clus scale="  123.811">  1  5  2 -1</clus>
</clustering>
</event>
<event>
 9    1  0.2374319E-005  0.1522356E+03  0.7546771E-02  0.1210893E+00
         -2   -1    0    0    0  501 -0.00000000000E+00  0.00000000000E+00  0.25366966685E+03  0.25366966685E+03  0.00000000000E+00 0.  1.
          1   -1    0    0  502    0  0.00000000000E+00 -0.00000000000E+00 -0.56634431094E+03  0.56634431094E+03  0.00000000000E+00 0. -1.
        -24    2    1    2    0    0  0.48698923914E+02 -0.12947648503E+03  0.17780146338E+03  0.23907445001E+03  0.80046779458E+02 0.  0.
         23    2    1    2    0    0 -0.66583277107E+02  0.15118458039E+02 -0.43993995231E+03  0.45464023481E+03  0.92134037738E+02 0.  0.
         11    1    3    3    0    0 -0.21634672968E+02 -0.44388370402E+02  0.52246994934E+02  0.71889741834E+02  0.00000000000E+00 0. -1.
        -12    1    3    3    0    0  0.70333596882E+02 -0.85088114633E+02  0.12555446844E+03  0.16718470818E+03  0.00000000000E+00 0.  1.
        -13    1    4    4    0    0  0.20917045396E+02 -0.87533472236E+01 -0.11848057841E+03  0.12063080592E+03  0.00000000000E+00 0.  1.
         13    1    4    4    0    0 -0.87500322502E+02  0.23871805263E+02 -0.32145937389E+03  0.33400942889E+03  0.00000000000E+00 0. -1.
         21    1    1    2  502  501  0.17884353193E+02  0.11435802700E+03 -0.50536155152E+02  0.12629929297E+03  0.00000000000E+00 0. -1.
<scales pt_clust_5="13000.00000" pt_clust_6="13000.00000" pt_clust_7="13000.00000" pt_clust_8="13000.00000" pt_clust_9="129.49205"></scales>
<clustering>
<clus scale="   80.047">  5  6 -1 -1</clus>
<clus scale="   92.134">  7  8 -1 -1</clus>
<clus scale="  114.676">  2  7  1 -1</clus>
<clus scale="  129.492">  2  9  1 -1</clus>
<clus scale="  114.676">  2  5  1 -1</clus>
</clustering>
</event>
<event>
 9    1  0.2374319E-005  0.9916122E+02  0.7546771E-02  0.1289138E+00
          1   -1    0    0  502    0  0.00000000000E+00  0.00000000000E+00  0.23284842593E+02  0.23284842593E+02  0.00000000000E+00 0. -1.
         -2   -1    0    0    0  501 -0.00000000000E+00 -0.00000000000E+00 -0.55154516018E+03  0.55154516018E+03  0.00000000000E+00 0.  1.
         23    2    1    2    0    0 -0.30251590461E+02  0.18322417336E+02 -0.37809136620E+03  0.39142486255E+03  0.94918239128E+02 0.  0.
        -24    2    1    2    0    0  0.97688720265E+01 -0.14538599097E+02 -0.12817486497E+03  0.15311324573E+03  0.81902797778E+02 0.  0.
         11    1    4    4    0    0  0.20882164638E+02  0.30455315590E+02 -0.65070279968E+02  0.74817995046E+02  0.00000000000E+00 0. -1.
        -12    1    4    4    0    0 -0.11113292611E+02 -0.44993914687E+02 -0.63104585005E+02  0.78295250687E+02  0.00000000000E+00 0.  1.
        -11    1    3    3    0    0  0.10134873980E+02 -0.29154334605E+02 -0.62135225231E+02  0.69379226800E+02  0.00000000000E+00 0.  1.
         11    1    3    3    0    0 -0.40386464441E+02  0.47476751941E+02 -0.31595614097E+03  0.32204563575E+03  0.00000000000E+00 0. -1.
         21    1    1    2  502  501  0.20482718435E+02 -0.37838182393E+01 -0.21994086411E+02  0.30291894493E+02  0.00000000000E+00 0. -1.
<scales pt_clust_5="13000.00000" pt_clust_6="13000.00000" pt_clust_7="13000.00000" pt_clust_8="13000.00000" pt_clust_9="20.82928"></scales>
<clustering>
<clus scale="   20.829">  1  9  2 -1</clus>
<clus scale="   81.903">  5  6 -1 -1</clus>
<clus scale="   86.784">  1  5  2 -1</clus>
<clus scale="   94.918">  7  8 -1 -1</clus>
<clus scale="   20.829">  1  5  2 -1</clus>
</clustering>
</event>
<event>
 9    1  0.2374319E-005  0.1093916E+03  0.7546771E-02  0.1266028E+00
          1   -1    0    0  502    0  0.00000000000E+00  0.00000000000E+00  0.35029230291E+03  0.35029230291E+03  0.00000000000E+00 0. -1.
         -2   -1    0    0    0  501 -0.00000000000E+00 -0.00000000000E+00 -0.17521690152E+03  0.17521690152E+03  0.00000000000E+00 0.  1.
        -24    2    1    2    0    0  0.27648229915E+02 -0.46796438663E+02 -0.13649256416E+03  0.16928249969E+03  0.84095263500E+02 0.  0.
         23    2    1    2    0    0 -0.66108661166E+02  0.39228538760E+02  0.28179764321E+03  0.30700526658E+03  0.94515018168E+02 0.  0.
         13    1    3    3    0    0 -0.25775800367E+02 -0.10488599725E+02 -0.14823384336E+02  0.31529911702E+02  0.00000000000E+00 0. -1.
        -14    1    3    3    0    0  0.53424030282E+02 -0.36307838937E+02 -0.12166917982E+03  0.13775258799E+03  0.00000000000E+00 0.  1.
        -11    1    4    4    0    0 -0.34686181674E+01  0.49306760374E+02  0.68499427486E+02  0.84471057152E+02  0.00000000000E+00 0.  1.
         11    1    4    4    0    0 -0.62640042998E+02 -0.10078221614E+02  0.21329821572E+03  0.22253420943E+03  0.00000000000E+00 0. -1.
         21    1    1    2  502  501  0.38460431251E+02  0.75678999021E+01  0.29770322346E+02  0.49221438150E+02  0.00000000000E+00 0.  1.
<scales pt_clust_5="13000.00000" pt_clust_6="13000.00000" pt_clust_7="13000.00000" pt_clust_8="13000.00000" pt_clust_9="39.19793"></scales>
<clustering>
<clus scale="   39.198">  1  9  2 -1</clus>
<clus scale="   84.095">  5  6 -1 -1</clus>
<clus scale="   94.515">  7  8 -1 -1</clus>
<clus scale="  100.526">  2  5  1 -1</clus>
<clus scale="   39.198">  1  5  2 -1</clus>
</clustering>
</event>
<event>
 9    1  0.2374319E-005  0.1000876E+03  0.7546771E-02  0.1285715E+00
          1   -1    0    0  502    0  0.00000000000E+00  0.00000000000E+00  0.43046107653E+03  0.43046107653E+03  0.00000000000E+00 0. -1.
         -2   -1    0    0    0  501 -0.00000000000E+00 -0.00000000000E+00 -0.11819574801E+03  0.11819574801E+03  0.00000000000E+00 0.  1.
         23    2    1    2    0    0 -0.50060482216E+02 -0.13591277798E+02 -0.68900517333E+02  0.12622093447E+03  0.92161099696E+02 0.  0.
        -24    2    1    2    0    0 -0.24753489069E+02 -0.30203271525E+02  0.14288611067E+03  0.16887657739E+03  0.81104161030E+02 0.  0.
         11    1    4    4    0    0 -0.43467247867E+02  0.62020341260E+01  0.45466020041E+02  0.63206216805E+02  0.00000000000E+00 0. -1.
        -12    1    4    4    0    0  0.18713758798E+02 -0.36405305651E+02  0.97420090625E+02  0.10567036058E+03  0.00000000000E+00 0.  1.
        -11    1    3    3    0    0 -0.20802058049E+02 -0.22927945325E+02 -0.85766284445E+02  0.91182629066E+02  0.00000000000E+00 0.  1.
         11    1    3    3    0    0 -0.29258424166E+02  0.93366675268E+01  0.16865767111E+02  0.35038305402E+02  0.00000000000E+00 0. -1.
         21    1    1    2  502  501  0.74813971284E+02  0.43794549323E+02  0.23827973519E+03  0.25355931269E+03  0.00000000000E+00 0. -1.
<scales pt_clust_5="13000.00000" pt_clust_6="13000.00000" pt_clust_7="13000.00000" pt_clust_8="13000.00000" pt_clust_9="86.68964"></scales>
<clustering>
<clus scale="   81.104">  5  6 -1 -1</clus>
<clus scale="   86.690">  1  9  2 -1</clus>
<clus scale="   90.010">  1  5  2 -1</clus>
<clus scale="   92.161">  7  8 -1 -1</clus>
<clus scale="   86.690">  1  5  2 -1</clus>
</clustering>
</event>
<event>
 9    1  0.2374319E-005  0.1011672E+03  0.7546771E-02  0.1282809E+00
         -4   -1    0    0    0  501 -0.00000000000E+00  0.00000000000E+00  0.15626965527E+03  0.15626965527E+03  0.00000000000E+00 0.  1.
          3   -1    0    0  502    0  0.00000000000E+00 -0.00000000000E+00 -0.12409615743E+03  0.12409615743E+03  0.00000000000E+00 0. -1.
        -24    2    1    2    0    0  0.58366708458E+01  0.45078715077E+02  0.99974600661E+02  0.13570429955E+03  0.79715612387E+02 0.  0.
         23    2    1    2    0    0  0.14353269452E+02 -0.50965162400E+02 -0.65958431185E+02  0.12355039310E+03  0.90059540684E+02 0.  0.
         13    1    3    3    0    0  0.31361125397E+02  0.20390788581E+02  0.96233999302E+01  0.38625306100E+02  0.00000000000E+00 0. -1.
        -14    1    3    3    0    0 -0.25524454551E+02  0.24687926496E+02  0.90351200731E+02  0.97078993445E+02  0.00000000000E+00 0.  1.
        -13    1    4    4    0    0 -0.34468510979E+02 -0.14202163864E+02 -0.56799572215E+01  0.37709967138E+02  0.00000000000E+00 0.  1.
         13    1    4    4    0    0  0.48821780431E+02 -0.36762998536E+02 -0.60278473964E+02  0.85840425961E+02  0.00000000000E+00 0. -1.
         21    1    1    2  502  501 -0.20189940297E+02  0.58864473231E+01 -0.18426716399E+01  0.21111120057E+02  0.00000000000E+00 0.  1.
<scales pt_clust_5="13000.00000" pt_clust_6="13000.00000" pt_clust_7="13000.00000" pt_clust_8="13000.00000" pt_clust_9="21.03055"></scales>
<clustering>
<clus scale="   21.031">  2  9  1 -1</clus>
<clus scale="   79.716">  5  6 -1 -1</clus>
<clus scale="   90.060">  7  8 -1 -1</clus>
<clus scale="   92.080">  1  5  2 -1</clus>
<clus scale="   21.031">  2  5  1 -1</clus>
</clustering>
</event>
<event>
 9    1  0.2374319E-005  0.9741357E+02  0.7546771E-02  0.1292822E+00
         -2   -1    0    0    0  501 -0.00000000000E+00  0.00000000000E+00  0.35619301714E+03  0.35619301714E+03  0.00000000000E+00 0.  1.
          1   -1    0    0  502    0  0.00000000000E+00 -0.00000000000E+00 -0.87985278618E+02  0.87985278618E+02  0.00000000000E+00 0. -1.
        -24    2    1    2    0    0 -0.43237760292E+02 -0.22294752346E+02  0.23665161774E+03  0.25419200790E+03  0.79012839488E+02 0.  0.
         23    2    1    2    0    0 -0.38491951147E+02 -0.41618819814E+01  0.29993507741E+02  0.10406690127E+03  0.91822425739E+02 0.  0.
         11    1    3    3    0    0 -0.23429465423E+02  0.11903201657E+02  0.17658573350E+02  0.31661510900E+02  0.00000000000E+00 0. -1.
        -12    1    3    3    0    0 -0.19808294868E+02 -0.34197954004E+02  0.21899304439E+03  0.22253049700E+03  0.00000000000E+00 0.  1.
        -11    1    4    4    0    0  0.21123180607E+02  0.20826346684E+02 -0.57301808564E+01  0.30211925589E+02  0.00000000000E+00 0. -1.
         11    1    4    4    0    0 -0.59615131753E+02 -0.24988228665E+02  0.35723688597E+02  0.73854975681E+02  0.00000000000E+00 0.  1.
         21    1    1    2  502  501  0.81729711438E+02  0.26456634328E+02  0.15626130382E+01  0.85919386585E+02  0.00000000000E+00 0. -1.
<scales pt_clust_5="13000.00000" pt_clust_6="13000.00000" pt_clust_7="13000.00000" pt_clust_8="13000.00000" pt_clust_9="85.90518"></scales>
<clustering>
<clus scale="   79.013">  5  6 -1 -1</clus>
<clus scale="   85.905">  2  9  1 -1</clus>
<clus scale="   85.446">  1  5  2 -1</clus>
<clus scale="   91.822">  7  8 -1 -1</clus>
<clus scale="   85.905">  2  5  1 -1</clus>
</clustering>
</event>
<event>
 9    1  0.2374319E-005  0.1467059E+03  0.7546771E-02  0.1206738E+00
         -2   -1    0    0    0  501 -0.00000000000E+00  0.00000000000E+00  0.72155729169E+02  0.72155729169E+02  0.00000000000E+00 0.  1.
          1   -1    0    0  502    0  0.00000000000E+00 -0.00000000000E+00 -0.10394376521E+04  0.10394376521E+04  0.00000000000E+00 0. -1.
        -24    2    1    2    0    0 -0.83460794684E+02 -0.88052359062E+02 -0.21023203954E+02  0.14717670374E+03  0.80623103591E+02 0.  0.
         23    2    1    2    0    0  0.18920023986E+02  0.74514969463E+02 -0.57032731153E+03  0.58274509737E+03  0.91696009993E+02 0.  0.
         11    1    3    3    0    0 -0.37038696938E+02 -0.47017671060E+02 -0.50733763223E+02  0.78462992509E+02  0.00000000000E+00 0. -1.
        -12    1    3    3    0    0 -0.46422097746E+02 -0.41034688002E+02  0.29710559269E+02  0.68713711227E+02  0.00000000000E+00 0.  1.
        -11    1    4    4    0    0  0.25003961919E+02 -0.15044017254E+02 -0.11423490200E+03  0.11790306782E+03  0.00000000000E+00 0.  1.
         11    1    4    4    0    0 -0.60839379332E+01  0.89558986717E+02 -0.45609240954E+03  0.46484202956E+03  0.00000000000E+00 0. -1.
         21    1    1    2  502  501  0.64540770698E+02  0.13537389599E+02 -0.37593140742E+03  0.38167158013E+03  0.00000000000E+00 0. -1.
<scales pt_clust_5="13000.00000" pt_clust_6="13000.00000" pt_clust_7="13000.00000" pt_clust_8="13000.00000" pt_clust_9="65.94522"></scales>
<clustering>
<clus scale="   65.945">  2  9  1 -1</clus>
<clus scale="   80.623">  5  6 -1 -1</clus>
<clus scale="   91.696">  7  8 -1 -1</clus>
<clus scale="  140.052">  1  5  2 -1</clus>
<clus scale="   65.945">  2  5  1 -1</clus>
</clustering>
</event>
<event>
 9    1  0.2374319E-005  0.1260239E+03  0.7546771E-02  0.1237255E+00
          1   -1    0    0  502    0  0.00000000000E+00  0.00000000000E+00  0.11906993239E+03  0.11906993239E+03  0.00000000000E+00 0. -1.
         -2   -1    0    0    0  501 -0.00000000000E+00 -0.00000000000E+00 -0.23178098647E+03  0.23178098647E+03  0.00000000000E+00 0.  1.
         23    2    1    2    0    0 -0.18256022268E+02  0.90468605082E+02 -0.14854942242E+03  0.19782940233E+03  0.92475351695E+02 0.  0.
        -24    2    1    2    0    0  0.14678743710E+02 -0.70318206652E+02 -0.53007808541E+01  0.10707301191E+03  0.79223834161E+02 0.  0.
         13    1    4    4    0    0 -0.31182268547E+02 -0.38085545923E+02  0.69051544726E+01  0.49704364379E+02  0.00000000000E+00 0. -1.
        -14    1    4    4    0    0  0.45861012257E+02 -0.32232660729E+02 -0.12205935327E+02  0.57368647536E+02  0.00000000000E+00 0.  1.
        -11    1    3    3    0    0  0.29861996869E+02  0.73979492457E+02 -0.89749901483E+02  0.12008225921E+03  0.00000000000E+00 0. -1.
         11    1    3    3    0    0 -0.48118019137E+02  0.16489112625E+02 -0.58799520940E+02  0.77747143122E+02  0.00000000000E+00 0.  1.
         21    1    1    2  502  501  0.35772785586E+01 -0.20150398430E+02  0.41139149196E+02  0.45948504604E+02  0.00000000000E+00 0. -1.
<scales pt_clust_5="13000.00000" pt_clust_6="13000.00000" pt_clust_7="13000.00000" pt_clust_8="13000.00000" pt_clust_9="20.46547"></scales>
<clustering>
<clus scale="   20.465">  1  9  2 -1</clus>
<clus scale="   79.224">  5  6 -1 -1</clus>
<clus scale="   92.475">  7  8 -1 -1</clus>
<clus scale="  116.648">  1  5  2 -1</clus>
<clus scale="   20.465">  1  5  2 -1</clus>
</clustering>
</event>
<event>
 9    1  0.2374319E-005  0.8929706E+02  0.7546771E-02  0.1314297E+00
          1   -1    0    0  502    0  0.00000000000E+00  0.00000000000E+00  0.20433720487E+03  0.20433720487E+03  0.00000000000E+00 0. -1.
         -2   -1    0    0    0  501 -0.00000000000E+00 -0.00000000000E+00 -0.50512954292E+02  0.50512954292E+02  0.00000000000E+00 0.  1.
        -24    2    1    2    0    0  0.52102587019E+01  0.12135389792E+02  0.20630888453E+02  0.78429939998E+02  0.74506425552E+02 0.  0.
         23    2    1    2    0    0 -0.44181939812E+01  0.13378367580E+02  0.10524373840E+03  0.13856839426E+03  0.89030636636E+02 0.  0.
         13    1    3    3    0    0  0.39881313964E+02  0.45636984280E+01  0.12190688675E+02  0.41951870485E+02  0.00000000000E+00 0. -1.
        -14    1    3    3    0    0 -0.34671055262E+02  0.75716913643E+01  0.84401997775E+01  0.36478069513E+02  0.00000000000E+00 0.  1.
        -11    1    4    4    0    0  0.20353919056E+02  0.41808258942E+02  0.82014761758E+02  0.94279550714E+02  0.00000000000E+00 0. -1.
         11    1    4    4    0    0 -0.24772113038E+02 -0.28429891362E+02  0.23228976637E+02  0.44288843548E+02  0.00000000000E+00 0.  1.
         21    1    1    2  502  501 -0.79206472067E+00 -0.25513757372E+02  0.27949623728E+02  0.37851824900E+02  0.00000000000E+00 0.  1.
<scales pt_clust_5="13000.00000" pt_clust_6="13000.00000" pt_clust_7="13000.00000" pt_clust_8="13000.00000" pt_clust_9="25.52605"></scales>
<clustering>
<clus scale="   25.526">  1  9  2 -1</clus>
<clus scale="   74.506">  5  6 -1 -1</clus>
<clus scale="   74.825">  2  5  1 -1</clus>
<clus scale="   89.031">  7  8 -1 -1</clus>
<clus scale="   25.526">  1  5  2 -1</clus>
</clustering>
</event>
<event>
 9    1  0.2374319E-005  0.1544496E+03  0.7546771E-02  0.1197442E+00
          3   -1    0    0  502    0  0.00000000000E+00  0.00000000000E+00  0.54305635220E+02  0.54305635220E+02  0.00000000000E+00 0. -1.
         -4   -1    0    0    0  501 -0.00000000000E+00 -0.00000000000E+00 -0.76895710582E+03  0.76895710582E+03  0.00000000000E+00 0.  1.
        -24    2    1    2    0    0  0.12202540305E+01  0.12657542416E+03 -0.60517739924E+03  0.62343743611E+03  0.80073248723E+02 0.  0.
         23    2    1    2    0    0  0.39859495261E+01 -0.10651876903E+03 -0.76972804176E+02  0.16128044355E+03  0.93404673010E+02 0.  0.
         13    1    3    3    0    0 -0.17628046579E+02  0.23441749700E+02 -0.46279038509E+02  0.54790629313E+02  0.00000000000E+00 0. -1.
        -14    1    3    3    0    0  0.18848300609E+02  0.10313367446E+03 -0.55889836073E+03  0.56864680679E+03  0.00000000000E+00 0.  1.
        -13    1    4    4    0    0 -0.35605291416E+02 -0.14210466028E+02 -0.72598754417E+01  0.39017687181E+02  0.00000000000E+00 0.  1.
         13    1    4    4    0    0  0.39591240942E+02 -0.92308303003E+02 -0.69712928734E+02  0.12226275637E+03  0.00000000000E+00 0. -1.
         21    1    1    2  502  501 -0.52062035566E+01 -0.20056655133E+02 -0.32501267180E+02  0.38544861381E+02  0.00000000000E+00 0. -1.
<scales pt_clust_5="13000.00000" pt_clust_6="13000.00000" pt_clust_7="13000.00000" pt_clust_8="13000.00000" pt_clust_9="20.72134"></scales>
<clustering>
<clus scale="   20.721">  1  9  2 -1</clus>
<clus scale="   80.073">  5  6 -1 -1</clus>
<clus scale="   93.405">  7  8 -1 -1</clus>
<clus scale="  146.772">  2  5  1 -1</clus>
<clus scale="   20.721">  1  5  2 -1</clus>
</clustering>
</event>
<event>
 9    1  0.2374319E-005  0.9338818E+02  0.7546771E-02  0.1302350E+00
          1   -1    0    0  502    0  0.00000000000E+00  0.00000000000E+00  0.41180759078E+03  0.41180759078E+03  0.00000000000E+00 0. -1.
         -2   -1    0    0    0  501 -0.00000000000E+00 -0.00000000000E+00 -0.92951363780E+02  0.92951363780E+02  0.00000000000E+00 0.  1.
         23    2    1    2    0    0  0.10252935144E+02  0.24219025645E+02 -0.58584551669E+02  0.11045538283E+03  0.89869672417E+02 0.  0.
        -24    2    1    2    0    0  0.17354274981E+02 -0.21550085168E+02  0.32233177184E+03  0.33260848336E+03  0.77233768773E+02 0.  0.
         13    1    4    4    0    0 -0.18622956086E+02 -0.38123215532E+02  0.16741411819E+03  0.17270692234E+03  0.00000000000E+00 0. -1.
        -14    1    4    4    0    0  0.35977231067E+02  0.16573130364E+02  0.15491765365E+03  0.15990156102E+03  0.00000000000E+00 0.  1.
        -11    1    3    3    0    0  0.27639770368E+02  0.39699848242E+02 -0.69552869462E+02  0.84720933109E+02  0.00000000000E+00 0.  1.
         11    1    3    3    0    0 -0.17386835224E+02 -0.15480822597E+02  0.10968317794E+02  0.25734449724E+02  0.00000000000E+00 0. -1.
         21    1    1    2  502  501 -0.27607210125E+02 -0.26689404770E+01  0.55109006835E+02  0.61695088366E+02  0.00000000000E+00 0. -1.
<scales pt_clust_5="13000.00000" pt_clust_6="13000.00000" pt_clust_7="13000.00000" pt_clust_8="13000.00000" pt_clust_9="27.73592"></scales>
<clustering>
<clus scale="   27.736">  1  9  2 -1</clus>
<clus scale="   77.234">  5  6 -1 -1</clus>
<clus scale="   81.301">  1  5  2 -1</clus>
<clus scale="   89.870">  7  8 -1 -1</clus>
<clus scale="   27.736">  1  5  2 -1</clus>
</clustering>
</event>
<event>
 9    1  0.2374319E-005  0.1493929E+03  0.7546771E-02  0.1205618E+00
          1   -1    0    0  502    0  0.00000000000E+00  0.00000000000E+00  0.53915285363E+02  0.53915285363E+02  0.00000000000E+00 0. -1.
         -2   -1    0    0    0  501 -0.00000000000E+00 -0.00000000000E+00 -0.71364144728E+03  0.71364144728E+03  0.00000000000E+00 0.  1.
        -24    2    1    2    0    0 -0.86001369585E+01  0.99212926385E+02 -0.37331097885E+03  0.39465071145E+03  0.80442090984E+02 0.  0.
         23    2    1    2    0    0 -0.32508666582E+02 -0.13354642501E+03 -0.26472176520E+03  0.31511910888E+03  0.10164142254E+03 0.  0.
         13    1    3    3    0    0  0.48517444609E+01  0.78513757765E+02 -0.14460582716E+03  0.16461711585E+03  0.00000000000E+00 0. -1.
        -14    1    3    3    0    0 -0.13451881419E+02  0.20699168620E+02 -0.22870515169E+03  0.23003359560E+03  0.00000000000E+00 0.  1.
        -11    1    4    4    0    0  0.22315830372E+02  0.97597760286E+00 -0.17492951880E+02  0.28371679240E+02  0.00000000000E+00 0.  1.
         11    1    4    4    0    0 -0.54824496954E+02 -0.13452240261E+03 -0.24722881332E+03  0.28674742964E+03  0.00000000000E+00 0. -1.
         21    1    1    2  502  501  0.41108803541E+02  0.34333498620E+02 -0.21693417875E+02  0.57786912317E+02  0.00000000000E+00 0.  1.
<scales pt_clust_5="13000.00000" pt_clust_6="13000.00000" pt_clust_7="13000.00000" pt_clust_8="13000.00000" pt_clust_9="53.56046"></scales>
<clustering>
<clus scale="   53.560">  1  9  2 -1</clus>
<clus scale="   80.442">  5  6 -1 -1</clus>
<clus scale="  101.641">  7  8 -1 -1</clus>
<clus scale="  135.861">  2  5  1 -1</clus>
<clus scale="   53.560">  1  5  2 -1</clus>
</clustering>
</event>
<event>
 9    1  0.2374319E-005  0.1254870E+03  0.7546771E-02  0.1238077E+00
         -2   -1    0    0    0  501 -0.00000000000E+00  0.00000000000E+00  0.35769845577E+03  0.35769845577E+03  0.00000000000E+00 0.  1.
          1   -1    0    0  502    0  0.00000000000E+00 -0.00000000000E+00 -0.15764493941E+03  0.15764493941E+03  0.00000000000E+00 0. -1.
         23    2    1    2    0    0 -0.15320618248E+02 -0.81227567164E+02  0.31038889997E+03  0.33499142578E+03  0.95107029740E+02 0.  0.
        -24    2    1    2    0    0  0.33005309208E+02  0.67981573702E+02 -0.11188849399E+03  0.15820209832E+03  0.82450130549E+02 0.  0.
         13    1    4    4    0    0  0.54892642537E+02  0.19574740358E+02 -0.65510303720E+02  0.87681084381E+02  0.00000000000E+00 0. -1.
        -14    1    4    4    0    0 -0.21887333329E+02  0.48406833344E+02 -0.46378190266E+02  0.70521013939E+02  0.00000000000E+00 0.  1.
        -11    1    3    3    0    0  0.22461089317E+02 -0.81867570495E+02  0.17621141837E+03  0.19559464102E+03  0.00000000000E+00 0. -1.
         11    1    3    3    0    0 -0.37781707565E+02  0.64000333086E+00  0.13417748160E+03  0.13939678475E+03  0.00000000000E+00 0.  1.
         21    1    1    2  502  501 -0.17684690960E+02  0.13245993462E+02  0.15531103649E+01  0.22149871082E+02  0.00000000000E+00 0.  1.
<scales pt_clust_5="13000.00000" pt_clust_6="13000.00000" pt_clust_7="13000.00000" pt_clust_8="13000.00000" pt_clust_9="22.09535"></scales>
<clustering>
<clus scale="   22.095">  2  9  1 -1</clus>
<clus scale="   82.450">  5  6 -1 -1</clus>
<clus scale="   95.107">  7  8 -1 -1</clus>
<clus scale="  116.188">  2  5  1 -1</clus>
<clus scale="   22.095">  2  5  1 -1</clus>
</clustering>
</event>
<event>
 9    1  0.2374319E-005  0.1448326E+03  0.7546771E-02  0.1209769E+00
          1   -1    0    0  502    0  0.00000000000E+00  0.00000000000E+00  0.60138217030E+03  0.60138217030E+03  0.00000000000E+00 0. -1.
         -2   -1    0    0    0  501 -0.00000000000E+00 -0.00000000000E+00 -0.44924189684E+02  0.44924189684E+02  0.00000000000E+00 0.  1.
         23    2    1    2    0    0  0.61684624501E+02  0.10375730444E+03  0.18750245062E+03  0.24275004082E+03  0.95915807894E+02 0.  0.
        -24    2    1    2    0    0 -0.48284102178E+02 -0.81383089322E+02  0.22909381229E+03  0.26128376531E+03  0.82647864078E+02 0.  0.
         13    1    4    4    0    0 -0.40407334196E+02 -0.86355419824E+02  0.23256010889E+03  0.25134481383E+03  0.00000000000E+00 0. -1.
        -14    1    4    4    0    0 -0.78767679817E+01  0.49723305013E+01 -0.34662966060E+01  0.99389514845E+01  0.00000000000E+00 0.  1.
        -13    1    3    3    0    0  0.46231591783E+02  0.64378157927E+02  0.18394993829E+03  0.20029849498E+03  0.00000000000E+00 0. -1.
         13    1    3    3    0    0  0.15453032718E+02  0.39379146508E+02  0.35525123366E+01  0.42451545835E+02  0.00000000000E+00 0.  1.
         21    1    1    2  502  501 -0.13400522323E+02 -0.22374215113E+02  0.13986171770E+03  0.14227255385E+03  0.00000000000E+00 0. -1.
<scales pt_clust_5="13000.00000" pt_clust_6="13000.00000" pt_clust_7="13000.00000" pt_clust_8="13000.00000" pt_clust_9="26.08025"></scales>
<clustering>
<clus scale="   26.080">  1  9  2 -1</clus>
<clus scale="   82.648">  5  6 -1 -1</clus>
<clus scale="   95.916">  7  8 -1 -1</clus>
<clus scale="  136.409">  1  5  2 -1</clus>
<clus scale="   26.080">  1  5  2 -1</clus>
</clustering>
</event>
<event>
 9    1  0.2374319E-005  0.1180956E+03  0.7546771E-02  0.1250858E+00
          1   -1    0    0  502    0  0.00000000000E+00  0.00000000000E+00  0.74935210013E+03  0.74935210013E+03  0.00000000000E+00 0. -1.
         -2   -1    0    0    0  501 -0.00000000000E+00 -0.00000000000E+00 -0.22028776590E+02  0.22028776590E+02  0.00000000000E+00 0.  1.
        -24    2    1    2    0    0  0.50650600917E+02 -0.48628364726E+02  0.21993134178E+03  0.24465080549E+03  0.80956903984E+02 0.  0.
         23    2    1    2    0    0 -0.37153870605E+02  0.64795526125E+02  0.43672458147E+03  0.45299120562E+03  0.94306956288E+02 0.  0.
         13    1    3    3    0    0  0.29104144995E+02 -0.65036142457E+02  0.19585757858E+03  0.20841531174E+03  0.00000000000E+00 0. -1.
        -14    1    3    3    0    0  0.21546455922E+02  0.16407777730E+02  0.24073763201E+02  0.36235493753E+02  0.00000000000E+00 0.  1.
        -13    1    4    4    0    0  0.12457184743E+02  0.67233915502E+02  0.20858136455E+03  0.21950345437E+03  0.00000000000E+00 0.  1.
         13    1    4    4    0    0 -0.49611055348E+02 -0.24383893766E+01  0.22814321692E+03  0.23348775125E+03  0.00000000000E+00 0. -1.
         21    1    1    2  502  501 -0.13496730312E+02 -0.16167161399E+02  0.70667400292E+02  0.73738865606E+02  0.00000000000E+00 0.  1.
<scales pt_clust_5="13000.00000" pt_clust_6="13000.00000" pt_clust_7="13000.00000" pt_clust_8="13000.00000" pt_clust_9="21.06036"></scales>
<clustering>
<clus scale="   21.060">  1  9  2 -1</clus>
<clus scale="   80.957">  5  6 -1 -1</clus>
<clus scale="   94.307">  7  8 -1 -1</clus>
<clus scale="  107.735">  2  5  1 -1</clus>
<clus scale="   21.060">  1  5  2 -1</clus>
</clustering>
</event>
<event>
 9    1  0.2374319E-005  0.8865017E+02  0.7546771E-02  0.1310326E+00
          1   -1    0    0  502    0  0.00000000000E+00  0.00000000000E+00  0.40393528213E+03  0.40393528213E+03  0.00000000000E+00 0. -1.
         -2   -1    0    0    0  501 -0.00000000000E+00 -0.00000000000E+00 -0.54366162404E+02  0.54366162404E+02  0.00000000000E+00 0.  1.
        -24    2    1    2    0    0  0.16340139302E+02  0.15511260875E+02  0.97712683199E+01  0.84141695805E+02  0.80478245024E+02 0.  0.
         23    2    1    2    0    0 -0.88584565065E+01  0.41204627728E+02  0.24536529544E+03  0.26375062219E+03  0.87085985664E+02 0.  0.
         13    1    3    3    0    0 -0.31926209109E+02  0.65729500561E+01 -0.47774451947E+01  0.32944050800E+02  0.00000000000E+00 0. -1.
        -14    1    3    3    0    0  0.48266348411E+02  0.89383108186E+01  0.14548713515E+02  0.51197645006E+02  0.00000000000E+00 0.  1.
        -13    1    4    4    0    0 -0.22974078796E+02 -0.75126085785E+01  0.16339929943E+02  0.29176032881E+02  0.00000000000E+00 0.  1.
         13    1    4    4    0    0  0.14115622289E+02  0.48717236307E+02  0.22902536550E+03  0.23457458931E+03  0.00000000000E+00 0. -1.
         21    1    1    2  502  501 -0.74816827953E+01 -0.56715888603E+02  0.94432555958E+02  0.11040912654E+03  0.00000000000E+00 0.  1.
<scales pt_clust_5="13000.00000" pt_clust_6="13000.00000" pt_clust_7="13000.00000" pt_clust_8="13000.00000" pt_clust_9="57.20723"></scales>
<clustering>
<clus scale="   57.207">  1  9  2 -1</clus>
<clus scale="   80.478">  5  6 -1 -1</clus>
<clus scale="   82.168">  2  5  1 -1</clus>
<clus scale="   87.086">  7  8 -1 -1</clus>
<clus scale="   57.207">  1  5  2 -1</clus>
</clustering>
</event>
<event>
 9    1  0.2374319E-005  0.1463424E+03  0.7546771E-02  0.1217329E+00
         -4   -1    0    0    0  501 -0.00000000000E+00  0.00000000000E+00  0.38915630739E+02  0.38915630739E+02  0.00000000000E+00 0.  1.
          3   -1    0    0  502    0  0.00000000000E+00 -0.00000000000E+00 -0.17492459008E+04  0.17492459008E+04  0.00000000000E+00 0. -1.
         23    2    1    2    0    0 -0.73027616098E+02 -0.59210716078E+01 -0.90305190774E+02  0.14435901690E+03  0.85535995208E+02 0.  0.
        -24    2    1    2    0    0 -0.46986683349E+02  0.90619671640E+02 -0.67129016996E+03  0.68376334196E+03  0.80511752043E+02 0.  0.
         13    1    4    4    0    0 -0.63771968431E+02  0.92152443187E+02 -0.60942112077E+03  0.61963944288E+03  0.00000000000E+00 0. -1.
        -14    1    4    4    0    0  0.16785285082E+02 -0.15327715468E+01 -0.61869049198E+02  0.64123899075E+02  0.00000000000E+00 0.  1.
        -11    1    3    3    0    0 -0.52154823538E+02 -0.43445417262E+02 -0.42432895451E+02  0.80051111895E+02  0.00000000000E+00 0.  1.
         11    1    3    3    0    0 -0.20872792561E+02  0.37524345654E+02 -0.47872295323E+02  0.64307905000E+02  0.00000000000E+00 0. -1.
         21    1    1    2  502  501  0.12001429945E+03 -0.84698600032E+02 -0.94873490931E+03  0.96003917267E+03  0.00000000000E+00 0.  1.
<scales pt_clust_5="13000.00000" pt_clust_6="13000.00000" pt_clust_7="13000.00000" pt_clust_8="13000.00000" pt_clust_9="122.20457"></scales>
<clustering>
<clus scale="   80.512">  5  6 -1 -1</clus>
<clus scale="   85.536">  7  8 -1 -1</clus>
<clus scale="  112.625">  1  7  2 -1</clus>
<clus scale="  122.205">  1  9  2 -1</clus>
<clus scale="  146.342">  2  5  1 -1</clus>
</clustering>
</event>
<event>
 9    1  0.2374319E-005  0.9411231E+02  0.7546771E-02  0.1297062E+00
         -4   -1    0    0    0  501 -0.00000000000E+00  0.00000000000E+00  0.82690559222E+02  0.82690559222E+02  0.00000000000E+00 0.  1.
          3   -1    0    0  502    0  0.00000000000E+00 -0.00000000000E+00 -0.31857805335E+03  0.31857805335E+03  0.00000000000E+00 0. -1.
         23    2    1    2    0    0  0.34155665399E+02 -0.10668064513E+02  0.40289328434E+02  0.10354843639E+03  0.88423026497E+02 0.  0.
        -24    2    1    2    0    0 -0.11524601163E+02  0.37397846415E+01 -0.16933543508E+03  0.18828869895E+03  0.81433053208E+02 0.  0.
         11    1    4    4    0    0 -0.15470073404E+02  0.36878891042E+02 -0.13331521194E+03  0.13918448732E+03  0.00000000000E+00 0. -1.
        -12    1    4    4    0    0  0.39454722408E+01 -0.33139106400E+02 -0.36020223143E+02  0.49104211626E+02  0.00000000000E+00 0.  1.
        -11    1    3    3    0    0  0.58280172155E+02 -0.12957881628E+02  0.49569719072E+02  0.77599241050E+02  0.00000000000E+00 0.  1.
         11    1    3    3    0    0 -0.24124506756E+02  0.22898171146E+01 -0.92803906385E+01  0.25949195345E+02  0.00000000000E+00 0. -1.
         21    1    1    2  502  501 -0.22631064236E+02  0.69282798719E+01 -0.10684138747E+03  0.10943147723E+03  0.00000000000E+00 0. -1.
<scales pt_clust_5="13000.00000" pt_clust_6="13000.00000" pt_clust_7="13000.00000" pt_clust_8="13000.00000" pt_clust_9="23.66783"></scales>
<clustering>
<clus scale="   23.668">  2  9  1 -1</clus>
<clus scale="   81.433">  5  6 -1 -1</clus>
<clus scale="   87.578">  2  5  1 -1</clus>
<clus scale="   88.423">  7  8 -1 -1</clus>
<clus scale="   23.668">  2  5  1 -1</clus>
</clustering>
</event>
<event>
 9    1  0.2374319E-005  0.1243987E+03  0.7546771E-02  0.1242358E+00
          1   -1    0    0  502    0  0.00000000000E+00  0.00000000000E+00  0.43332913311E+03  0.43332913311E+03  0.00000000000E+00 0. -1.
         -2   -1    0    0    0  501 -0.00000000000E+00 -0.00000000000E+00 -0.71445345690E+02  0.71445345690E+02  0.00000000000E+00 0.  1.
        -24    2    1    2    0    0 -0.21523514876E+02 -0.73232098030E+02  0.31890063324E+02  0.11559311048E+03  0.80737780355E+02 0.  0.
         23    2    1    2    0    0  0.46804114189E+02  0.56016712087E+02  0.10599015246E+03  0.16309935153E+03  0.10019475491E+03 0.  0.
         11    1    3    3    0    0  0.29057640683E+02 -0.20879052297E+02  0.22316633461E+02  0.42170053782E+02  0.00000000000E+00 0. -1.
        -12    1    3    3    0    0 -0.50581155560E+02 -0.52353045733E+02  0.95734298626E+01  0.73423056696E+02  0.00000000000E+00 0.  1.
        -13    1    4    4    0    0  0.61878456239E+02 -0.31450065078E+01  0.63484135613E+02  0.88707778053E+02  0.00000000000E+00 0. -1.
         13    1    4    4    0    0 -0.15074342050E+02  0.59161718595E+02  0.42506016851E+02  0.74391573474E+02  0.00000000000E+00 0.  1.
         21    1    1    2  502  501 -0.25280599312E+02  0.17215385942E+02  0.22400357163E+03  0.22608201679E+03  0.00000000000E+00 0.  1.
<scales pt_clust_5="13000.00000" pt_clust_6="13000.00000" pt_clust_7="13000.00000" pt_clust_8="13000.00000" pt_clust_9="30.58559"></scales>
<clustering>
<clus scale="   30.586">  1  9  2 -1</clus>
<clus scale="   80.738">  5  6 -1 -1</clus>
<clus scale="  100.195">  7  8 -1 -1</clus>
<clus scale="  109.337">  2  5  1 -1</clus>
<clus scale="   30.586">  1  5  2 -1</clus>
</clustering>
</event>
<event>
 9    1  0.2374319E-005  0.8854615E+02  0.7546771E-02  0.1307497E+00
          1   -1    0    0  502    0  0.00000000000E+00  0.00000000000E+00  0.38099932326E+03  0.38099932326E+03  0.00000000000E+00 0. -1.
         -2   -1    0    0    0  501 -0.00000000000E+00 -0.00000000000E+00 -0.60394524305E+02  0.60394524305E+02  0.00000000000E+00 0.  1.
        -24    2    1    2    0    0 -0.30827351634E+02 -0.16502001086E+02 -0.13256721164E+02  0.88917166538E+02  0.80671433609E+02 0.  0.
         23    2    1    2    0    0  0.98739197732E+01  0.14717733621E+01  0.28911743917E+03  0.30083380318E+03  0.82537404223E+02 0.  0.
         13    1    3    3    0    0  0.11429042375E+01  0.23855880782E+02  0.16891916354E+02  0.29253138568E+02  0.00000000000E+00 0. -1.
        -14    1    3    3    0    0 -0.31970255871E+02 -0.40357881868E+02 -0.30148637518E+02  0.59664027970E+02  0.00000000000E+00 0.  1.
        -11    1    4    4    0    0 -0.36269418376E+02  0.12075054476E+01  0.14698314166E+03  0.15139673943E+03  0.00000000000E+00 0.  1.
         11    1    4    4    0    0  0.46143338149E+02  0.26426791449E+00  0.14213429751E+03  0.14943706375E+03  0.00000000000E+00 0. -1.
         21    1    1    2  502  501  0.20953431861E+02  0.15030227724E+02  0.44744080950E+02  0.51642877846E+02  0.00000000000E+00 0. -1.
<scales pt_clust_5="13000.00000" pt_clust_6="13000.00000" pt_clust_7="13000.00000" pt_clust_8="13000.00000" pt_clust_9="25.78670"></scales>
<clustering>
<clus scale="   25.787">  1  9  2 -1</clus>
<clus scale="   80.671">  5  6 -1 -1</clus>
<clus scale="   82.537">  7  8 -1 -1</clus>
<clus scale="   86.809">  2  5  1 -1</clus>
<clus scale="   25.787">  1  5  2 -1</clus>
</clustering>
</event>
<event>
 9    1  0.2374319E-005  0.9152736E+02  0.7546771E-02  0.1305573E+00
         -2   -1    0    0    0  501 -0.00000000000E+00  0.00000000000E+00  0.52794260583E+03  0.52794260583E+03  0.00000000000E+00 0.  1.
          1   -1    0    0  502    0  0.00000000000E+00 -0.00000000000E+00 -0.15648843029E+03  0.15648843029E+03  0.00000000000E+00 0. -1.
        -24    2    1    2    0    0  0.43111654025E+01 -0.11540556104E+02  0.44930652670E+03  0.45672987366E+03  0.81080527740E+02 0.  0.
         23    2    1    2    0    0  0.31413142739E+02 -0.43744976232E+02  0.21904332735E+02  0.10818500347E+03  0.91234788874E+02 0.  0.
         13    1    3    3    0    0 -0.25427602029E+02  0.81614854186E+01  0.58600604733E+02  0.64398786202E+02  0.00000000000E+00 0. -1.
        -14    1    3    3    0    0  0.29738767431E+02 -0.19702041523E+02  0.39070592196E+03  0.39233108746E+03  0.00000000000E+00 0.  1.
        -13    1    4    4    0    0  0.44562643521E+02 -0.11124239300E+02 -0.22820884723E+02  0.51287139490E+02  0.00000000000E+00 0. -1.
         13    1    4    4    0    0 -0.13149500782E+02 -0.32620736932E+02  0.44725217458E+02  0.56897863980E+02  0.00000000000E+00 0.  1.
         21    1    1    2  502  501 -0.35724308141E+02  0.55285532336E+02 -0.99756683892E+02  0.11951615899E+03  0.00000000000E+00 0. -1.
<scales pt_clust_5="13000.00000" pt_clust_6="13000.00000" pt_clust_7="13000.00000" pt_clust_8="13000.00000" pt_clust_9="65.82337"></scales>
<clustering>
<clus scale="   65.823">  2  9  1 -1</clus>
<clus scale="   81.081">  5  6 -1 -1</clus>
<clus scale="   81.410">  1  5  2 -1</clus>
<clus scale="   91.235">  7  8 -1 -1</clus>
<clus scale="   65.823">  2  5  1 -1</clus>
</clustering>
</event>
<event>
 9    1  0.2374319E-005  0.1158745E+03  0.7546771E-02  0.1254050E+00
          1   -1    0    0  502    0  0.00000000000E+00  0.00000000000E+00  0.45684102390E+03  0.45684102390E+03  0.00000000000E+00 0. -1.
         -2   -1    0    0    0  501 -0.00000000000E+00 -0.00000000000E+00 -0.78815627276E+02  0.78815627276E+02  0.00000000000E+00 0.  1.
        -24    2    1    2    0    0  0.71831874486E+02 -0.12278780690E+02 -0.23239548629E+02  0.11137288841E+03  0.80952189622E+02 0.  0.
         23    2    1    2    0    0 -0.44238153734E+02  0.15103577890E+02  0.35986945241E+03  0.37445425612E+03  0.92330032184E+02 0.  0.
         11    1    3    3    0    0 -0.31032357209E+00 -0.32286812889E+02 -0.16347965648E+02  0.36191028834E+02  0.00000000000E+00 0. -1.
        -12    1    3    3    0    0  0.72142198059E+02  0.20008032199E+02 -0.68915829819E+01  0.75181859575E+02  0.00000000000E+00 0.  1.
        -13    1    4    4    0    0  0.27720026932E+02  0.99064247252E+01  0.13962842268E+03  0.14269769993E+03  0.00000000000E+00 0.  1.
         13    1    4    4    0    0 -0.71958180667E+02  0.51971531652E+01  0.22024102973E+03  0.23175655620E+03  0.00000000000E+00 0. -1.
         21    1    1    2  502  501 -0.27593720752E+02 -0.28247972005E+01  0.41395492848E+02  0.49829506643E+02  0.00000000000E+00 0. -1.
<scales pt_clust_5="13000.00000" pt_clust_6="13000.00000" pt_clust_7="13000.00000" pt_clust_8="13000.00000" pt_clust_9="27.73793"></scales>
<clustering>
<clus scale="   27.738">  1  9  2 -1</clus>
<clus scale="   80.952">  5  6 -1 -1</clus>
<clus scale="   92.330">  7  8 -1 -1</clus>
<clus scale="  107.029">  2  5  1 -1</clus>
<clus scale="   27.738">  1  5  2 -1</clus>
</clustering>
</event>
<event>
 9    1  0.2374319E-005  0.2075128E+03  0.7546771E-02  0.1145829E+00
         -2   -1    0    0    0  501 -0.00000000000E+00  0.00000000000E+00  0.13422802367E+03  0.13422802367E+03  0.00000000000E+00 0.  1.
          1   -1    0    0  502    0  0.00000000000E+00 -0.00000000000E+00 -0.69296941906E+03  0.69296941906E+03  0.00000000000E+00 0. -1.
        -24    2    1    2    0    0 -0.18109996190E+03 -0.60393248068E+02 -0.13797616303E+00  0.20076259521E+03  0.62137428218E+02 0.  0.
         23    2    1    2    0    0  0.17493275704E+03  0.19082981091E+02 -0.27053495303E+03  0.33535407904E+03  0.91145860363E+02 0.  0.
         13    1    3    3    0    0 -0.39912857242E+02  0.10352930138E+02 -0.10348751773E+02  0.42512539314E+02  0.00000000000E+00 0. -1.
        -14    1    3    3    0    0 -0.14118710465E+03 -0.70746178205E+02  0.10210775610E+02  0.15825005589E+03  0.00000000000E+00 0.  1.
        -13    1    4    4    0    0  0.90416612742E+02  0.44609145228E+02 -0.93398298854E+02  0.13743500983E+03  0.00000000000E+00 0.  1.
         13    1    4    4    0    0  0.84516144296E+02 -0.25526164137E+02 -0.17713665418E+03  0.19791906921E+03  0.00000000000E+00 0. -1.
         21    1    1    2  502  501  0.61672048574E+01  0.41310266977E+02 -0.28806846619E+03  0.29108076849E+03  0.00000000000E+00 0. -1.
<scales pt_clust_5="13000.00000" pt_clust_6="13000.00000" pt_clust_7="13000.00000" pt_clust_8="13000.00000" pt_clust_9="41.76808"></scales>
<clustering>
<clus scale="   41.768">  2  9  1 -1</clus>
<clus scale="   62.137">  5  6 -1 -1</clus>
<clus scale="   91.146">  7  8 -1 -1</clus>
<clus scale="  196.507">  1  5  2 -1</clus>
<clus scale="   41.768">  2  5  1 -1</clus>
</clustering>
</event>
<event>
 9    1  0.2374319E-005  0.8619126E+02  0.7546771E-02  0.1318557E+00
         -4   -1    0    0    0  501 -0.00000000000E+00  0.00000000000E+00  0.17110793748E+03  0.17110793748E+03  0.00000000000E+00 0.  1.
          3   -1    0    0  502    0  0.00000000000E+00 -0.00000000000E+00 -0.78779075349E+02  0.78779075349E+02  0.00000000000E+00 0. -1.
         23    2    1    2    0    0  0.13080673003E+02  0.12219329641E+02  0.10842169814E+03  0.13922462553E+03  0.85485763157E+02 0.  0.
        -24    2    1    2    0    0  0.36675301018E+01  0.21421006939E+01  0.93610952861E+01  0.76977737880E+02  0.76288286465E+02 0.  0.
         13    1    4    4    0    0 -0.16912957130E+02 -0.18937419783E+02 -0.22255077644E+02  0.33763330225E+02  0.00000000000E+00 0. -1.
        -14    1    4    4    0    0  0.20580487232E+02  0.21079520477E+02  0.31616172930E+02  0.43214407655E+02  0.00000000000E+00 0.  1.
        -11    1    3    3    0    0  0.30245925791E+02  0.42591666674E+02  0.60182491695E+02  0.79691896725E+02  0.00000000000E+00 0.  1.
         11    1    3    3    0    0 -0.17165252788E+02 -0.30372337034E+02  0.48239206447E+02  0.59532728803E+02  0.00000000000E+00 0. -1.
         21    1    1    2  502  501 -0.16748203105E+02 -0.14361430335E+02 -0.25453931293E+02  0.33684649423E+02  0.00000000000E+00 0. -1.
<scales pt_clust_5="13000.00000" pt_clust_6="13000.00000" pt_clust_7="13000.00000" pt_clust_8="13000.00000" pt_clust_9="22.06248"></scales>
<clustering>
<clus scale="   22.062">  2  9  1 -1</clus>
<clus scale="   76.288">  5  6 -1 -1</clus>
<clus scale="   77.078">  2  5  1 -1</clus>
<clus scale="   85.486">  7  8 -1 -1</clus>
<clus scale="   22.062">  2  5  1 -1</clus>
</clustering>
</event>
<event>
 9    1  0.2374319E-005  0.1217847E+03  0.7546771E-02  0.1243148E+00
          3   -1    0    0  502    0  0.00000000000E+00  0.00000000000E+00  0.42939124258E+03  0.42939124258E+03  0.00000000000E+00 0. -1.
         -4   -1    0    0    0  501 -0.00000000000E+00 -0.00000000000E+00 -0.80371241625E+02  0.80371241625E+02  0.00000000000E+00 0.  1.
        -24    2    1    2    0    0  0.54947858951E+02 -0.63841108772E+02 -0.45893145516E+01  0.11678802570E+03  0.80767733442E+02 0.  0.
         23    2    1    2    0    0 -0.10707457994E+02  0.79737643288E+02  0.21730364563E+03  0.24879003311E+03  0.90569667981E+02 0.  0.
         11    1    3    3    0    0  0.37127566655E+02 -0.39253191502E+01  0.27646033856E+02  0.46456081670E+02  0.00000000000E+00 0. -1.
        -12    1    3    3    0    0  0.17820292296E+02 -0.59915789622E+02 -0.32235348407E+02  0.70331944026E+02  0.00000000000E+00 0.  1.
        -13    1    4    4    0    0  0.27772825818E+02  0.26609850323E+02  0.25677701751E+02  0.46246711833E+02  0.00000000000E+00 0.  1.
         13    1    4    4    0    0 -0.38480283812E+02  0.53127792965E+02  0.19162594387E+03  0.20254332128E+03  0.00000000000E+00 0. -1.
         21    1    1    2  502  501 -0.44240400957E+02 -0.15896534516E+02  0.13630566988E+03  0.14418442540E+03  0.00000000000E+00 0. -1.
<scales pt_clust_5="13000.00000" pt_clust_6="13000.00000" pt_clust_7="13000.00000" pt_clust_8="13000.00000" pt_clust_9="47.00971"></scales>
<clustering>
<clus scale="   47.010">  1  9  2 -1</clus>
<clus scale="   80.768">  5  6 -1 -1</clus>
<clus scale="   90.570">  7  8 -1 -1</clus>
<clus scale="  114.683">  2  5  1 -1</clus>
<clus scale="   47.010">  1  5  2 -1</clus>
</clustering>
</event>
<event>
 9    1  0.2374319E-005  0.2094653E+03  0.7546771E-02  0.1143009E+00
          1   -1    0    0  502    0  0.00000000000E+00  0.00000000000E+00  0.16665453842E+03  0.16665453842E+03  0.00000000000E+00 0. -1.
         -2   -1    0    0    0  501 -0.00000000000E+00 -0.00000000000E+00 -0.38152370572E+03  0.38152370572E+03  0.00000000000E+00 0.  1.
        -24    2    1    2    0    0 -0.11142555138E+03 -0.14471315006E+03 -0.21858479148E+03  0.29599474821E+03  0.80473788272E+02 0.  0.
         23    2    1    2    0    0  0.11018394915E+03  0.17034010153E+03 -0.97456687032E+01  0.22320956586E+03  0.92581204308E+02 0.  0.
         13    1    3    3    0    0 -0.69416218224E+02 -0.38320174254E+02 -0.55462101016E+02  0.96763070210E+02  0.00000000000E+00 0. -1.
        -14    1    3    3    0    0 -0.42009333159E+02 -0.10639297581E+03 -0.16312269047E+03  0.19923167800E+03  0.00000000000E+00 0.  1.
        -11    1    4    4    0    0  0.98033648730E+02  0.74565704814E+02 -0.24396864561E+02  0.12556212653E+03  0.00000000000E+00 0. -1.
         11    1    4    4    0    0  0.12150300416E+02  0.95774396720E+02  0.14651195858E+02  0.97647439328E+02  0.00000000000E+00 0.  1.
         21    1    1    2  502  501  0.12416022372E+01 -0.25626951471E+02  0.13461292890E+02  0.28973930076E+02  0.00000000000E+00 0.  1.
<scales pt_clust_5="13000.00000" pt_clust_6="13000.00000" pt_clust_7="13000.00000" pt_clust_8="13000.00000" pt_clust_9="25.65701"></scales>
<clustering>
<clus scale="   25.657">  1  9  2 -1</clus>
<clus scale="   80.474">  5  6 -1 -1</clus>
<clus scale="   92.581">  7  8 -1 -1</clus>
<clus scale="  204.403">  2  5  1 -1</clus>
<clus scale="   25.657">  1  5  2 -1</clus>
</clustering>
</event>
<event>
 9    1  0.2374319E-005  0.1076352E+03  0.7546771E-02  0.1267887E+00
         -2   -1    0    0    0  501 -0.00000000000E+00  0.00000000000E+00  0.99809502911E+02  0.99809502911E+02  0.00000000000E+00 0.  1.
          1   -1    0    0  502    0  0.00000000000E+00 -0.00000000000E+00 -0.36564436204E+03  0.36564436204E+03  0.00000000000E+00 0. -1.
        -24    2    1    2    0    0 -0.69616103833E+02  0.17868752642E+02  0.25689677133E+02  0.11073272597E+03  0.80225200881E+02 0.  0.
         23    2    1    2    0    0  0.60481636627E+02  0.15485926965E+02 -0.30036399022E+03  0.31902647426E+03  0.87530122559E+02 0.  0.
         11    1    3    3    0    0 -0.10359447186E+02  0.42155664129E+02  0.66098076177E+01  0.43910223421E+02  0.00000000000E+00 0. -1.
        -12    1    3    3    0    0 -0.59256656647E+02 -0.24286911487E+02  0.19079869515E+02  0.66822502552E+02  0.00000000000E+00 0.  1.
        -13    1    4    4    0    0 -0.13662518517E+02 -0.20802396808E+02 -0.64553964326E+02  0.69185391778E+02  0.00000000000E+00 0. -1.
         13    1    4    4    0    0  0.74144155144E+02  0.36288323773E+02 -0.23581002590E+03  0.24984108248E+03  0.00000000000E+00 0.  1.
         21    1    1    2  502  501  0.91344672062E+01 -0.33354679607E+02  0.88394539601E+01  0.35694664715E+02  0.00000000000E+00 0.  1.
<scales pt_clust_5="13000.00000" pt_clust_6="13000.00000" pt_clust_7="13000.00000" pt_clust_8="13000.00000" pt_clust_9="34.58284"></scales>
<clustering>
<clus scale="   34.583">  1  9  2 -1</clus>
<clus scale="   80.225">  5  6 -1 -1</clus>
<clus scale="   87.530">  7  8 -1 -1</clus>
<clus scale="  101.784">  1  5  2 -1</clus>
<clus scale="  107.635">  2  5  1 -1</clus>
</clustering>
</event>
<event>
 9    1  0.2374319E-005  0.1310592E+03  0.7546771E-02  0.1228541E+00
         -2   -1    0    0    0  501 -0.00000000000E+00  0.00000000000E+00  0.12813814967E+03  0.12813814967E+03  0.00000000000E+00 0.  1.
          1   -1    0    0  502    0  0.00000000000E+00 -0.00000000000E+00 -0.37731409817E+03  0.37731409817E+03  0.00000000000E+00 0. -1.
        -24    2    1    2    0    0 -0.81258728957E+02 -0.52880723494E+02  0.76827957922E+02  0.14749196360E+03  0.80324294326E+02 0.  0.
         23    2    1    2    0    0  0.54493622665E+02  0.51560726093E+02 -0.29063599298E+03  0.31358683937E+03  0.90770931599E+02 0.  0.
         13    1    3    3    0    0 -0.43702739120E+02 -0.70620438511E+02  0.60995229309E+02  0.10304170874E+03  0.00000000000E+00 0. -1.
        -14    1    3    3    0    0 -0.37555989837E+02  0.17739715017E+02  0.15832728613E+02  0.44450254857E+02  0.00000000000E+00 0.  1.
        -13    1    4    4    0    0  0.57848317621E+02  0.15448137503E+02 -0.80402211367E+02  0.10024763537E+03  0.00000000000E+00 0.  1.
         13    1    4    4    0    0 -0.33546949559E+01  0.36112588590E+02 -0.21023378161E+03  0.21333920400E+03  0.00000000000E+00 0. -1.
         21    1    1    2  502  501  0.26765106292E+02  0.13199974011E+01 -0.35367913447E+02  0.44373444869E+02  0.00000000000E+00 0.  1.
<scales pt_clust_5="13000.00000" pt_clust_6="13000.00000" pt_clust_7="13000.00000" pt_clust_8="13000.00000" pt_clust_9="26.79764"></scales>
<clustering>
<clus scale="   26.798">  2  9  1 -1</clus>
<clus scale="   80.324">  5  6 -1 -1</clus>
<clus scale="   90.771">  7  8 -1 -1</clus>
<clus scale="  124.053">  1  5  2 -1</clus>
<clus scale="   26.798">  2  5  1 -1</clus>
</clustering>
</event>
<event>
 9    1  0.2374319E-005  0.9606828E+02  0.7546771E-02  0.1290937E+00
          1   -1    0    0  502    0  0.00000000000E+00  0.00000000000E+00  0.13571930012E+03  0.13571930012E+03  0.00000000000E+00 0. -1.
         -2   -1    0    0    0  501 -0.00000000000E+00 -0.00000000000E+00 -0.12449965824E+03  0.12449965824E+03  0.00000000000E+00 0.  1.
         23    2    1    2    0    0  0.32820325572E+02 -0.58057238286E+01 -0.66182215470E+02  0.11590278404E+03  0.89120645772E+02 0.  0.
        -24    2    1    2    0    0 -0.45356459875E+02 -0.11437156148E+02  0.48730105927E+02  0.10858746174E+03  0.85021154010E+02 0.  0.
         11    1    4    4    0    0 -0.52306185532E+01 -0.25052965003E+02  0.59582627117E+02  0.64846741476E+02  0.00000000000E+00 0. -1.
        -12    1    4    4    0    0 -0.40125841322E+02  0.13615808855E+02 -0.10852521190E+02  0.43740720259E+02  0.00000000000E+00 0.  1.
        -13    1    3    3    0    0  0.63741618899E+02 -0.27753268163E+01 -0.40286961863E+02  0.75456846707E+02  0.00000000000E+00 0.  1.
         13    1    3    3    0    0 -0.30921293326E+02 -0.30303970123E+01 -0.25895253607E+02  0.40445937329E+02  0.00000000000E+00 0. -1.
         21    1    1    2  502  501  0.12536134303E+02  0.17242879976E+02  0.28671751429E+02  0.35728712587E+02  0.00000000000E+00 0.  1.
<scales pt_clust_5="13000.00000" pt_clust_6="13000.00000" pt_clust_7="13000.00000" pt_clust_8="13000.00000" pt_clust_9="21.31834"></scales>
<clustering>
<clus scale="   21.318">  1  9  2 -1</clus>
<clus scale="   85.021">  5  6 -1 -1</clus>
<clus scale="   89.121">  7  8 -1 -1</clus>
<clus scale="   92.278">  1  5  2 -1</clus>
<clus scale="   21.318">  1  5  2 -1</clus>
</clustering>
</event>
<event>
 9    1  0.2374319E-005  0.1052813E+03  0.7546771E-02  0.1275951E+00
          1   -1    0    0  502    0  0.00000000000E+00  0.00000000000E+00  0.21021354616E+03  0.21021354616E+03  0.00000000000E+00 0. -1.
         -2   -1    0    0    0  501 -0.00000000000E+00 -0.00000000000E+00 -0.92144508980E+02  0.92144508980E+02  0.00000000000E+00 0.  1.
         23    2    1    2    0    0  0.21379477106E+02 -0.41805062866E+02 -0.28324241984E+02  0.10835526174E+03  0.93455094776E+02 0.  0.
        -24    2    1    2    0    0 -0.10530073890E+01  0.56911089763E+02  0.93115983281E+02  0.13501272919E+03  0.79485028383E+02 0.  0.
         11    1    4    4    0    0 -0.24225906553E+02  0.54654484352E+02  0.94352041635E+02  0.11169742597E+03  0.00000000000E+00 0. -1.
        -12    1    4    4    0    0  0.23172899164E+02  0.22566054109E+01 -0.12360583545E+01  0.23315303213E+02  0.00000000000E+00 0.  1.
        -11    1    3    3    0    0 -0.36909474992E+02 -0.10306421134E+02 -0.96219677136E+01  0.39510934226E+02  0.00000000000E+00 0.  1.
         11    1    3    3    0    0  0.58288952098E+02 -0.31498641733E+02 -0.18702274271E+02  0.68844327512E+02  0.00000000000E+00 0. -1.
         21    1    1    2  502  501 -0.20326469717E+02 -0.15106026897E+02  0.53277295880E+02  0.58990064215E+02  0.00000000000E+00 0. -1.
<scales pt_clust_5="13000.00000" pt_clust_6="13000.00000" pt_clust_7="13000.00000" pt_clust_8="13000.00000" pt_clust_9="25.32504"></scales>
<clustering>
<clus scale="   25.325">  1  9  2 -1</clus>
<clus scale="   79.485">  5  6 -1 -1</clus>
<clus scale="   93.103">  1  5  2 -1</clus>
<clus scale="   93.455">  7  8 -1 -1</clus>
<clus scale="   25.325">  1  5  2 -1</clus>
</clustering>
</event>
<event>
 9    1  0.2374319E-005  0.9630777E+02  0.7546771E-02  0.1296007E+00
         -2   -1    0    0    0  501 -0.00000000000E+00  0.00000000000E+00  0.66779034127E+03  0.66779034127E+03  0.00000000000E+00 0.  1.
          1   -1    0    0  502    0  0.00000000000E+00 -0.00000000000E+00 -0.19500754607E+02  0.19500754607E+02  0.00000000000E+00 0. -1.
         23    2    1    2    0    0 -0.22943922202E+02 -0.95598387504E+01  0.35891457732E+03  0.37199755358E+03  0.94576381693E+02 0.  0.
        -24    2    1    2    0    0  0.30815742787E+00  0.18636100888E+02  0.27409751466E+03  0.28651580394E+03  0.81329325258E+02 0.  0.
         13    1    4    4    0    0 -0.25955746026E+01 -0.30245745073E+02  0.64682966406E+02  0.71452279499E+02  0.00000000000E+00 0. -1.
        -14    1    4    4    0    0  0.29037320305E+01  0.48881845961E+02  0.20941454825E+03  0.21506352444E+03  0.00000000000E+00 0.  1.
        -13    1    3    3    0    0 -0.27533113563E+02 -0.44398580964E+02  0.28970923523E+03  0.29438197518E+03  0.00000000000E+00 0.  1.
         13    1    3    3    0    0  0.45891913608E+01  0.34838742214E+02  0.69205342087E+02  0.77615578396E+02  0.00000000000E+00 0. -1.
         21    1    1    2  502  501  0.22635764774E+02 -0.90762621371E+01  0.15277494687E+02  0.28777738362E+02  0.00000000000E+00 0.  1.
<scales pt_clust_5="13000.00000" pt_clust_6="13000.00000" pt_clust_7="13000.00000" pt_clust_8="13000.00000" pt_clust_9="24.38763"></scales>
<clustering>
<clus scale="   24.388">  2  9  1 -1</clus>
<clus scale="   81.329">  5  6 -1 -1</clus>
<clus scale="   83.336">  2  5  1 -1</clus>
<clus scale="   94.576">  7  8 -1 -1</clus>
<clus scale="   24.388">  2  5  1 -1</clus>
</clustering>
</event>
<event>
 9    1  0.2374319E-005  0.1187319E+03  0.7546771E-02  0.1249961E+00
          1   -1    0    0  502    0  0.00000000000E+00  0.00000000000E+00  0.25383325562E+03  0.25383325562E+03  0.00000000000E+00 0. -1.
         -2   -1    0    0    0  501 -0.00000000000E+00 -0.00000000000E+00 -0.12980192925E+03  0.12980192925E+03  0.00000000000E+00 0.  1.
        -24    2    1    2    0    0  0.56600712716E+02 -0.52449368550E+02 -0.68354510680E+02  0.13015305471E+03  0.79453770074E+02 0.  0.
         23    2    1    2    0    0 -0.65899872862E+02  0.70095985907E+01  0.10987201878E+03  0.15882603010E+03  0.93605125990E+02 0.  0.
         13    1    3    3    0    0  0.12952645439E+02 -0.34345878477E+02  0.10539554719E+02  0.38190216102E+02  0.00000000000E+00 0. -1.
        -14    1    3    3    0    0  0.43648067277E+02 -0.18103490072E+02 -0.78894065399E+02  0.91962838609E+02  0.00000000000E+00 0.  1.
        -11    1    4    4    0    0 -0.51499279836E+02 -0.38486797714E+02  0.45807481444E+02  0.78941337575E+02  0.00000000000E+00 0. -1.
         11    1    4    4    0    0 -0.14400593026E+02  0.45496396305E+02  0.64064537332E+02  0.79884692525E+02  0.00000000000E+00 0.  1.
         21    1    1    2  502  501  0.92991601461E+01  0.45439769959E+02  0.82513818268E+02  0.94656100060E+02  0.00000000000E+00 0. -1.
<scales pt_clust_5="13000.00000" pt_clust_6="13000.00000" pt_clust_7="13000.00000" pt_clust_8="13000.00000" pt_clust_9="46.38154"></scales>
<clustering>
<clus scale="   46.382">  1  9  2 -1</clus>
<clus scale="   79.454">  5  6 -1 -1</clus>
<clus scale="   93.605">  7  8 -1 -1</clus>
<clus scale="  107.927">  2  5  1 -1</clus>
<clus scale="   46.382">  1  5  2 -1</clus>
</clustering>
</event>
<event>
 9    1  0.2374319E-005  0.1092670E+03  0.7546771E-02  0.1265396E+00
         -2   -1    0    0    0  501 -0.00000000000E+00  0.00000000000E+00  0.17682135374E+03  0.17682135374E+03  0.00000000000E+00 0.  1.
          1   -1    0    0  502    0  0.00000000000E+00 -0.00000000000E+00 -0.19495068030E+03  0.19495068030E+03  0.00000000000E+00 0. -1.
         23    2    1    2    0    0  0.29213037583E+02  0.42713256907E+02  0.71168351743E+02  0.12708306703E+03  0.91691590436E+02 0.  0.
        -24    2    1    2    0    0 -0.46796697756E+02 -0.52455937282E+02  0.38429401757E+02  0.11538965569E+03  0.83044550959E+02 0.  0.
         13    1    4    4    0    0 -0.62680199061E+02 -0.11391883015E+02  0.30581209401E+02  0.70666772400E+02  0.00000000000E+00 0. -1.
        -14    1    4    4    0    0  0.15883501305E+02 -0.41064054268E+02  0.78481923562E+01  0.44722883291E+02  0.00000000000E+00 0.  1.
        -13    1    3    3    0    0 -0.16536020018E+02  0.52231646306E+02  0.55013438765E+02  0.77640603287E+02  0.00000000000E+00 0. -1.
         13    1    3    3    0    0  0.45749057601E+02 -0.95183893992E+01  0.16154912978E+02  0.49442463748E+02  0.00000000000E+00 0.  1.
         21    1    1    2  502  501  0.17583660173E+02  0.97426803751E+01 -0.12772708006E+03  0.12929931132E+03  0.00000000000E+00 0. -1.
<scales pt_clust_5="13000.00000" pt_clust_6="13000.00000" pt_clust_7="13000.00000" pt_clust_8="13000.00000" pt_clust_9="20.10236"></scales>
<clustering>
<clus scale="   20.102">  2  9  1 -1</clus>
<clus scale="   83.045">  5  6 -1 -1</clus>
<clus scale="   91.692">  7  8 -1 -1</clus>
<clus scale="  102.119">  2  5  1 -1</clus>
<clus scale="   20.102">  2  5  1 -1</clus>
</clustering>
</event>
<event>
 9    1  0.2374319E-005  0.1101641E+03  0.7546771E-02  0.1265028E+00
          1   -1    0    0  502    0  0.00000000000E+00  0.00000000000E+00  0.50613064358E+03  0.50613064358E+03  0.00000000000E+00 0. -1.
         -2   -1    0    0    0  501 -0.00000000000E+00 -0.00000000000E+00 -0.13543409562E+03  0.13543409562E+03  0.00000000000E+00 0.  1.
         23    2    1    2    0    0 -0.45186888343E+02  0.39642832745E+02 -0.92535342872E+02  0.14300977380E+03  0.90970306455E+02 0.  0.
        -24    2    1    2    0    0  0.31845212878E+02 -0.94830359830E+02  0.30981598481E+03  0.33496980815E+03  0.78815691336E+02 0.  0.
         13    1    4    4    0    0  0.56281478752E+02 -0.67597757202E+02  0.24799964637E+03  0.26313663035E+03  0.00000000000E+00 0. -1.
        -14    1    4    4    0    0 -0.24436265874E+02 -0.27232602629E+02  0.61816338435E+02  0.71833177804E+02  0.00000000000E+00 0.  1.
        -13    1    3    3    0    0 -0.89560775303E+01 -0.26576018627E+02 -0.47362607140E+02  0.55042825562E+02  0.00000000000E+00 0. -1.
         13    1    3    3    0    0 -0.36230810813E+02  0.66218851372E+02 -0.45172735732E+02  0.87966948241E+02  0.00000000000E+00 0.  1.
         21    1    1    2  502  501  0.13341675465E+02  0.55187527085E+02  0.15341590602E+03  0.16358515724E+03  0.00000000000E+00 0. -1.
<scales pt_clust_5="13000.00000" pt_clust_6="13000.00000" pt_clust_7="13000.00000" pt_clust_8="13000.00000" pt_clust_9="56.77731"></scales>
<clustering>
<clus scale="   56.777">  1  9  2 -1</clus>
<clus scale="   78.816">  5  6 -1 -1</clus>
<clus scale="   90.970">  7  8 -1 -1</clus>
<clus scale="  100.362">  1  5  2 -1</clus>
<clus scale="   56.777">  1  5  2 -1</clus>
</clustering>
</event>
<event>
 9    1  0.2374319E-005  0.1400853E+03  0.7546771E-02  0.1215608E+00
         -2   -1    0    0    0  501 -0.00000000000E+00  0.00000000000E+00  0.14385906552E+03  0.14385906552E+03  0.00000000000E+00 0.  1.
          1   -1    0    0  502    0  0.00000000000E+00 -0.00000000000E+00 -0.16515479343E+03  0.16515479343E+03  0.00000000000E+00 0. -1.
        -24    2    1    2    0    0 -0.11475657952E+03  0.24664668291E+02  0.24268792879E+02  0.14330775410E+03  0.78553928431E+02 0.  0.
         23    2    1    2    0    0  0.94039477451E+02 -0.40573851017E+01 -0.36765436005E+02  0.13518918608E+03  0.89802745247E+02 0.  0.
         11    1    3    3    0    0 -0.44486253850E+02  0.44918091915E+02 -0.73290257034E+01  0.63642567364E+02  0.00000000000E+00 0. -1.
        -12    1    3    3    0    0 -0.70270325670E+02 -0.20253423624E+02  0.31597818583E+02  0.79665186734E+02  0.00000000000E+00 0.  1.
        -11    1    4    4    0    0  0.92064344200E+02 -0.35260371890E+02 -0.31409444968E+02  0.10346830690E+03  0.00000000000E+00 0.  1.
         11    1    4    4    0    0  0.19751332502E+01  0.31202986788E+02 -0.53559910374E+01  0.31720879179E+02  0.00000000000E+00 0. -1.
         21    1    1    2  502  501  0.20717102069E+02 -0.20607283189E+02 -0.87990847814E+01  0.30516918776E+02  0.00000000000E+00 0.  1.
<scales pt_clust_5="13000.00000" pt_clust_6="13000.00000" pt_clust_7="13000.00000" pt_clust_8="13000.00000" pt_clust_9="29.22086"></scales>
<clustering>
<clus scale="   29.221">  2  9  1 -1</clus>
<clus scale="   78.554">  5  6 -1 -1</clus>
<clus scale="   89.803">  7  8 -1 -1</clus>
<clus scale="  133.154">  1  5  2 -1</clus>
<clus scale="   29.221">  2  5  1 -1</clus>
</clustering>
</event>
<event>
 9    1  0.2374319E-005  0.1400111E+03  0.7546771E-02  0.1216554E+00
         -4   -1    0    0    0  501 -0.00000000000E+00  0.00000000000E+00  0.79048836945E+03  0.79048836945E+03  0.00000000000E+00 0.  1.
          3   -1    0    0  502    0  0.00000000000E+00 -0.00000000000E+00 -0.61602550020E+02  0.61602550020E+02  0.00000000000E+00 0. -1.
         23    2    1    2    0    0  0.24581073863E+02  0.10291229801E+03  0.68528392021E+03  0.69982675303E+03  0.94595257169E+02 0.  0.
        -24    2    1    2    0    0 -0.18284888602E+02 -0.83180557894E+02  0.16500589484E+02  0.11815457092E+03  0.80217771187E+02 0.  0.
         13    1    4    4    0    0 -0.39777101776E+02 -0.22908808975E+02 -0.12978097973E+02  0.47701806898E+02  0.00000000000E+00 0. -1.
        -14    1    4    4    0    0  0.21492213173E+02 -0.60271748919E+02  0.29478687457E+02  0.70452764027E+02  0.00000000000E+00 0.  1.
        -13    1    3    3    0    0  0.55614896577E+02  0.39835123861E+02  0.26407995242E+03  0.27279676517E+03  0.00000000000E+00 0.  1.
         13    1    3    3    0    0 -0.31033822714E+02  0.63077174153E+02  0.42120396779E+03  0.42702998786E+03  0.00000000000E+00 0. -1.
         21    1    1    2  502  501 -0.62961852602E+01 -0.19731740120E+02  0.27101309737E+02  0.34109595519E+02  0.00000000000E+00 0.  1.
<scales pt_clust_5="13000.00000" pt_clust_6="13000.00000" pt_clust_7="13000.00000" pt_clust_8="13000.00000" pt_clust_9="20.71192"></scales>
<clustering>
<clus scale="   20.712">  2  9  1 -1</clus>
<clus scale="   80.218">  5  6 -1 -1</clus>
<clus scale="   94.595">  7  8 -1 -1</clus>
<clus scale="  130.728">  2  5  1 -1</clus>
<clus scale="   20.712">  2  5  1 -1</clus>
</clustering>
</event>
<event>
 9    1  0.2374319E-005  0.3242528E+03  0.7546771E-02  0.1074080E+00
          1   -1    0    0  502    0  0.00000000000E+00  0.00000000000E+00  0.18780821177E+04  0.18780821177E+04  0.00000000000E+00 0. -1.
         -2   -1    0    0    0  501 -0.00000000000E+00 -0.00000000000E+00 -0.15484874243E+03  0.15484874243E+03  0.00000000000E+00 0.  1.
        -24    2    1    2    0    0  0.54778831039E+02  0.30217328437E+03  0.64672489375E+02  0.32389176868E+03  0.80087032795E+02 0.  0.
         23    2    1    2    0    0 -0.13870874927E+02 -0.33924462536E+03  0.13240807634E+04  0.13700336379E+04  0.92320008488E+02 0.  0.
         11    1    3    3    0    0  0.17123113208E+02  0.17480791639E+02  0.23238180740E+02  0.33745994227E+02  0.00000000000E+00 0. -1.
        -12    1    3    3    0    0  0.37655717832E+02  0.28469249273E+03  0.41434308635E+02  0.29014577445E+03  0.00000000000E+00 0.  1.
        -13    1    4    4    0    0 -0.29362251122E+02 -0.66811607435E+02  0.39603538049E+03  0.40270330925E+03  0.00000000000E+00 0.  1.
         13    1    4    4    0    0  0.15491376196E+02 -0.27243301792E+03  0.92804538292E+03  0.96733032866E+03  0.00000000000E+00 0. -1.
         21    1    1    2  502  501 -0.40907956113E+02  0.37071340993E+02  0.33448012243E+03  0.33900545349E+03  0.00000000000E+00 0.  1.
<scales pt_clust_5="13000.00000" pt_clust_6="13000.00000" pt_clust_7="13000.00000" pt_clust_8="13000.00000" pt_clust_9="55.20639"></scales>
<clustering>
<clus scale="   55.206">  1  9  2 -1</clus>
<clus scale="   80.087">  5  6 -1 -1</clus>
<clus scale="   92.320">  7  8 -1 -1</clus>
<clus scale="  320.984">  2  5  1 -1</clus>
<clus scale="   55.206">  1  5  2 -1</clus>
</clustering>
</event>
<event>
 9    1  0.2374319E-005  0.1680337E+03  0.7546771E-02  0.1210158E+00
         -2   -1    0    0    0  501 -0.00000000000E+00  0.00000000000E+00  0.36063248390E+03  0.36063248390E+03  0.00000000000E+00 0.  1.
          1   -1    0    0  502    0  0.00000000000E+00 -0.00000000000E+00 -0.28529854466E+03  0.28529854466E+03  0.00000000000E+00 0. -1.
        -24    2    1    2    0    0 -0.29862269238E+02 -0.14502673082E+02  0.27387565199E+03  0.28724835298E+03  0.80010379868E+02 0.  0.
         23    2    1    2    0    0  0.57686057965E+02  0.13028471566E+03 -0.13281282907E+03  0.22266822505E+03  0.10788930654E+03 0.  0.
         11    1    3    3    0    0 -0.14921929102E+02 -0.28200546420E+02  0.34405806816E+02  0.46922215732E+02  0.00000000000E+00 0. -1.
        -12    1    3    3    0    0 -0.14940340136E+02  0.13697873337E+02  0.23946984517E+03  0.24032613725E+03  0.00000000000E+00 0.  1.
        -11    1    4    4    0    0 -0.24454899997E+02  0.48405328041E+02 -0.76412752230E+02  0.93701796247E+02  0.00000000000E+00 0.  1.
         11    1    4    4    0    0  0.82140957962E+02  0.81879387617E+02 -0.56400076844E+02  0.12896642881E+03  0.00000000000E+00 0. -1.
         21    1    1    2  502  501 -0.27823788727E+02 -0.11578204257E+03 -0.65728883675E+02  0.13601445052E+03  0.00000000000E+00 0.  1.
<scales pt_clust_5="13000.00000" pt_clust_6="13000.00000" pt_clust_7="13000.00000" pt_clust_8="13000.00000" pt_clust_9="128.82250"></scales>
<clustering>
<clus scale="   80.010">  5  6 -1 -1</clus>
<clus scale="   86.624">  1  5  2 -1</clus>
<clus scale="  107.889">  7  8 -1 -1</clus>
<clus scale="  128.822">  1  9  2 -1</clus>
<clus scale="  168.034">  2  5  1 -1</clus>
</clustering>
</event>
<event>
 9    1  0.2374319E-005  0.1078563E+03  0.7546771E-02  0.1267539E+00
         -2   -1    0    0    0  501 -0.00000000000E+00  0.00000000000E+00  0.16494887645E+03  0.16494887645E+03  0.00000000000E+00 0.  1.
          1   -1    0    0  502    0  0.00000000000E+00 -0.00000000000E+00 -0.47912168756E+03  0.47912168756E+03  0.00000000000E+00 0. -1.
         23    2    1    2    0    0  0.61160068130E+02  0.23399755646E+02  0.11347382092E+03  0.15914189942E+03  0.90342313553E+02 0.  0.
        -24    2    1    2    0    0 -0.33297483089E+02  0.74559596418E+02 -0.14569235272E+03  0.18514445233E+03  0.79902132556E+02 0.  0.
         11    1    4    4    0    0 -0.59765208891E+02  0.48086643254E+02 -0.10155547645E+03  0.12727026459E+03  0.00000000000E+00 0. -1.
        -12    1    4    4    0    0  0.26467725802E+02  0.26472953164E+02 -0.44136876277E+02  0.57874187733E+02  0.00000000000E+00 0.  1.
        -13    1    3    3    0    0  0.53490635607E+02 -0.98173463602E+01  0.11259332416E+03  0.12503953388E+03  0.00000000000E+00 0.  1.
         13    1    3    3    0    0  0.76694325235E+01  0.33217102006E+02  0.88049676195E+00  0.34102365541E+02  0.00000000000E+00 0. -1.
         21    1    1    2  502  501 -0.27862585041E+02 -0.97959352064E+02 -0.28195427931E+03  0.29978421226E+03  0.00000000000E+00 0. -1.
<scales pt_clust_5="13000.00000" pt_clust_6="13000.00000" pt_clust_7="13000.00000" pt_clust_8="13000.00000" pt_clust_9="101.84478"></scales>
<clustering>
<clus scale="   79.902">  5  6 -1 -1</clus>
<clus scale="   90.342">  7  8 -1 -1</clus>
<clus scale="  101.845">  2  9  1 -1</clus>
<clus scale="  101.845">  2  5  1 -1</clus>
<clus scale="  101.845">  2  5  1 -1</clus>
</clustering>
</event>
<event>
 9    1  0.2374319E-005  0.9151276E+02  0.7546771E-02  0.1301135E+00
          1   -1    0    0  502    0  0.00000000000E+00  0.00000000000E+00  0.15113257076E+03  0.15113257076E+03  0.00000000000E+00 0. -1.
         -2   -1    0    0    0  501 -0.00000000000E+00 -0.00000000000E+00 -0.38630939650E+03  0.38630939650E+03  0.00000000000E+00 0.  1.
        -24    2    1    2    0    0 -0.55368630059E+01 -0.16678114733E+02 -0.34261317052E+03  0.35383989009E+03  0.86660641816E+02 0.  0.
         23    2    1    2    0    0  0.45553104198E+02 -0.73933191089E+01  0.83788926021E+02  0.13125769924E+03  0.89879102223E+02 0.  0.
         11    1    3    3    0    0 -0.42029665968E+02  0.10020433095E+02 -0.16701055843E+03  0.17250921288E+03  0.00000000000E+00 0. -1.
        -12    1    3    3    0    0  0.36492802962E+02 -0.26698547828E+02 -0.17560261209E+03  0.18133067721E+03  0.00000000000E+00 0.  1.
        -13    1    4    4    0    0 -0.10520842954E+01  0.25873982231E+02  0.66624448092E+02  0.71479975668E+02  0.00000000000E+00 0. -1.
         13    1    4    4    0    0  0.46605188493E+02 -0.33267301340E+02  0.17164477929E+02  0.59777723572E+02  0.00000000000E+00 0.  1.
         21    1    1    2  502  501 -0.40016241192E+02  0.24071433842E+02  0.23647418763E+02  0.52344377926E+02  0.00000000000E+00 0.  1.
<scales pt_clust_5="13000.00000" pt_clust_6="13000.00000" pt_clust_7="13000.00000" pt_clust_8="13000.00000" pt_clust_9="46.69832"></scales>
<clustering>
<clus scale="   46.698">  1  9  2 -1</clus>
<clus scale="   86.661">  5  6 -1 -1</clus>
<clus scale="   88.354">  2  5  1 -1</clus>
<clus scale="   89.879">  7  8 -1 -1</clus>
<clus scale="   46.698">  1  5  2 -1</clus>
</clustering>
</event>
<event>
 9    1  0.2374319E-005  0.9168595E+02  0.7546771E-02  0.1303465E+00
          1   -1    0    0  502    0  0.00000000000E+00  0.00000000000E+00  0.70818662003E+03  0.70818662003E+03  0.00000000000E+00 0. -1.
         -2   -1    0    0    0  501 -0.00000000000E+00 -0.00000000000E+00 -0.30744656973E+02  0.30744656973E+02  0.00000000000E+00 0.  1.
         23    2    1    2    0    0  0.18998178704E+01  0.77233747302E+01  0.58342569755E+02  0.10838959722E+03  0.91001041282E+02 0.  0.
        -24    2    1    2    0    0  0.16318567776E+02 -0.28016341113E+02  0.40896739022E+03  0.41864743074E+03  0.83427417411E+02 0.  0.
         13    1    4    4    0    0  0.27253847477E+02 -0.49609051355E+01  0.39197870701E+02  0.47998498410E+02  0.00000000000E+00 0. -1.
        -14    1    4    4    0    0 -0.10935279702E+02 -0.23055435978E+02  0.36976951952E+03  0.37064893233E+03  0.00000000000E+00 0.  1.
        -11    1    3    3    0    0 -0.22157401443E+01  0.44034143174E+02  0.59177768701E+01  0.44485226227E+02  0.00000000000E+00 0.  1.
         11    1    3    3    0    0  0.41155580147E+01 -0.36310768443E+02  0.52424792885E+02  0.63904370991E+02  0.00000000000E+00 0. -1.
         21    1    1    2  502  501 -0.18218385646E+02  0.20292966383E+02  0.21013200308E+03  0.21189424904E+03  0.00000000000E+00 0. -1.
<scales pt_clust_5="13000.00000" pt_clust_6="13000.00000" pt_clust_7="13000.00000" pt_clust_8="13000.00000" pt_clust_9="27.27112"></scales>
<clustering>
<clus scale="   27.271">  1  9  2 -1</clus>
<clus scale="   83.427">  5  6 -1 -1</clus>
<clus scale="   84.174">  1  5  2 -1</clus>
<clus scale="   91.001">  7  8 -1 -1</clus>
<clus scale="   27.271">  1  5  2 -1</clus>
</clustering>
</event>
<event>
 9    1  0.2374319E-005  0.1175998E+03  0.7546771E-02  0.1249502E+00
         -2   -1    0    0    0  501 -0.00000000000E+00  0.00000000000E+00  0.18043963748E+03  0.18043963748E+03  0.00000000000E+00 0.  1.
          1   -1    0    0  502    0  0.00000000000E+00 -0.00000000000E+00 -0.11633304600E+03  0.11633304600E+03  0.00000000000E+00 0. -1.
         23    2    1    2    0    0  0.55708683073E+02 -0.56080945509E+02  0.82058344312E+02  0.14322093011E+03  0.86776339698E+02 0.  0.
        -24    2    1    2    0    0 -0.29030793398E+02  0.80268410396E+02 -0.11647808983E+02  0.11699381355E+03  0.79158551548E+02 0.  0.
         13    1    4    4    0    0 -0.29973674655E+02  0.48356841499E+01 -0.26272913244E+02  0.40150603779E+02  0.00000000000E+00 0. -1.
        -14    1    4    4    0    0  0.94288125729E+00  0.75432726246E+02  0.14625104261E+02  0.76843209775E+02  0.00000000000E+00 0.  1.
        -11    1    3    3    0    0  0.17758060743E+02 -0.62806441797E+02  0.16743257028E+02  0.67382004336E+02  0.00000000000E+00 0.  1.
         11    1    3    3    0    0  0.37950622330E+02  0.67254962877E+01  0.65315087284E+02  0.75838925773E+02  0.00000000000E+00 0. -1.
         21    1    1    2  502  501 -0.26677889675E+02 -0.24187464887E+02 -0.63039438505E+01  0.36557939811E+02  0.00000000000E+00 0. -1.
<scales pt_clust_5="13000.00000" pt_clust_6="13000.00000" pt_clust_7="13000.00000" pt_clust_8="13000.00000" pt_clust_9="36.01032"></scales>
<clustering>
<clus scale="   36.010">  2  9  1 -1</clus>
<clus scale="   79.159">  5  6 -1 -1</clus>
<clus scale="   86.776">  7  8 -1 -1</clus>
<clus scale="  112.097">  2  5  1 -1</clus>
<clus scale="   36.010">  2  5  1 -1</clus>
</clustering>
</event>
<event>
 9    1  0.2374319E-005  0.1005330E+03  0.7546771E-02  0.1286381E+00
          1   -1    0    0  502    0  0.00000000000E+00  0.00000000000E+00  0.92759769589E+02  0.92759769589E+02  0.00000000000E+00 0. -1.
         -2   -1    0    0    0  501 -0.00000000000E+00 -0.00000000000E+00 -0.15553990985E+03  0.15553990985E+03  0.00000000000E+00 0.  1.
         23    2    1    2    0    0 -0.12725713318E+02 -0.25723341226E+02 -0.79426823594E+02  0.12601471982E+03  0.93527831371E+02 0.  0.
        -24    2    1    2    0    0 -0.10068392302E+02  0.40146331035E+02  0.26551330393E+02  0.93550034544E+02  0.79583512102E+02 0.  0.
         11    1    4    4    0    0 -0.24996687782E+02  0.59841022760E+02  0.21526248517E+02  0.68331265028E+02  0.00000000000E+00 0. -1.
        -12    1    4    4    0    0  0.14928295480E+02 -0.19694691725E+02  0.50250818763E+01  0.25218769517E+02  0.00000000000E+00 0.  1.
        -13    1    3    3    0    0  0.37775977545E+02 -0.33127472937E-01 -0.16167409869E+02  0.41090275234E+02  0.00000000000E+00 0. -1.
         13    1    3    3    0    0 -0.50501690864E+02 -0.25690213753E+02 -0.63259413725E+02  0.84924444582E+02  0.00000000000E+00 0.  1.
         21    1    1    2  502  501  0.22794105621E+02 -0.14422989809E+02 -0.99046470650E+01  0.28734925084E+02  0.00000000000E+00 0. -1.
<scales pt_clust_5="13000.00000" pt_clust_6="13000.00000" pt_clust_7="13000.00000" pt_clust_8="13000.00000" pt_clust_9="26.97395"></scales>
<clustering>
<clus scale="   26.974">  2  9  1 -1</clus>
<clus scale="   79.584">  5  6 -1 -1</clus>
<clus scale="   87.710">  1  5  2 -1</clus>
<clus scale="   93.528">  7  8 -1 -1</clus>
<clus scale="   87.710">  1  5  2 -1</clus>
</clustering>
</event>
<event>
 9    1  0.2374319E-005  0.2215515E+03  0.7546771E-02  0.1132732E+00
         -2   -1    0    0    0  501 -0.00000000000E+00  0.00000000000E+00  0.36703725703E+02  0.36703725703E+02  0.00000000000E+00 0.  1.
          1   -1    0    0  502    0  0.00000000000E+00 -0.00000000000E+00 -0.80767465487E+03  0.80767465487E+03  0.00000000000E+00 0. -1.
        -24    2    1    2    0    0 -0.62672680909E+02 -0.75104958353E+02 -0.38767165241E+03  0.40800369698E+03  0.81296291232E+02 0.  0.
         23    2    1    2    0    0 -0.20213030879E+02 -0.51484837990E+01 -0.19708622914E+03  0.21731771543E+03  0.89156795710E+02 0.  0.
         13    1    3    3    0    0 -0.59217069603E+02 -0.37169215929E+02 -0.33932626155E+03  0.34645421591E+03  0.00000000000E+00 0. -1.
        -14    1    3    3    0    0 -0.34556113062E+01 -0.37935742425E+02 -0.48345390859E+02  0.61549481071E+02  0.00000000000E+00 0.  1.
        -13    1    4    4    0    0 -0.43580545794E+02 -0.21896562478E+02 -0.60361571905E+02  0.77603110653E+02  0.00000000000E+00 0. -1.
         13    1    4    4    0    0  0.23367514915E+02  0.16748078679E+02 -0.13672465723E+03  0.13971460478E+03  0.00000000000E+00 0.  1.
         21    1    1    2  502  501  0.82885711788E+02  0.80253442152E+02 -0.18621304762E+03  0.21905696816E+03  0.00000000000E+00 0.  1.
<scales pt_clust_5="13000.00000" pt_clust_6="13000.00000" pt_clust_7="13000.00000" pt_clust_8="13000.00000" pt_clust_9="115.37182"></scales>
<clustering>
<clus scale="   81.296">  5  6 -1 -1</clus>
<clus scale="   89.157">  7  8 -1 -1</clus>
<clus scale="   90.763">  5  7 -1 -1</clus>
<clus scale="  115.372">  1  9  2 -1</clus>
<clus scale="  221.552">  2  5  1 -1</clus>
</clustering>
</event>
<event>
 9    1  0.2374319E-005  0.1312208E+03  0.7546771E-02  0.1230668E+00
          1   -1    0    0  502    0  0.00000000000E+00  0.00000000000E+00  0.70364888777E+03  0.70364888777E+03  0.00000000000E+00 0. -1.
         -2   -1    0    0    0  501 -0.00000000000E+00 -0.00000000000E+00 -0.59408962015E+02  0.59408962015E+02  0.00000000000E+00 0.  1.
        -24    2    1    2    0    0  0.55302533353E+02  0.66094159141E+02  0.30468099055E+02  0.12187339910E+03  0.80610249230E+02 0.  0.
         23    2    1    2    0    0 -0.22423443802E+02 -0.94632502073E+02  0.40839386378E+03  0.43124260350E+03  0.98623089673E+02 0.  0.
         13    1    3    3    0    0  0.61263378438E+02  0.19352798367E+02  0.37254501078E+02  0.74267288848E+02  0.00000000000E+00 0. -1.
        -14    1    3    3    0    0 -0.59608450847E+01  0.46741360774E+02 -0.67864020227E+01  0.47606110255E+02  0.00000000000E+00 0.  1.
        -11    1    4    4    0    0 -0.53668176801E+02 -0.77683215658E+02  0.21815055455E+03  0.23770700378E+03  0.00000000000E+00 0.  1.
         11    1    4    4    0    0  0.31244732999E+02 -0.16949286415E+02  0.19024330924E+03  0.19353559972E+03  0.00000000000E+00 0. -1.
         21    1    1    2  502  501 -0.32879089551E+02  0.28538342931E+02  0.20537796292E+03  0.20994184719E+03  0.00000000000E+00 0.  1.
<scales pt_clust_5="13000.00000" pt_clust_6="13000.00000" pt_clust_7="13000.00000" pt_clust_8="13000.00000" pt_clust_9="43.53701"></scales>
<clustering>
<clus scale="   43.537">  1  9  2 -1</clus>
<clus scale="   80.610">  5  6 -1 -1</clus>
<clus scale="   98.623">  7  8 -1 -1</clus>
<clus scale="  118.281">  2  5  1 -1</clus>
<clus scale="   43.537">  1  5  2 -1</clus>
</clustering>
</event>
<event>
 9    1  0.2374319E-005  0.1246615E+03  0.7546771E-02  0.1238982E+00
          1   -1    0    0  502    0  0.00000000000E+00  0.00000000000E+00  0.58342656178E+03  0.58342656178E+03  0.00000000000E+00 0. -1.
         -2   -1    0    0    0  501 -0.00000000000E+00 -0.00000000000E+00 -0.58429824794E+02  0.58429824794E+02  0.00000000000E+00 0.  1.
         23    2    1    2    0    0 -0.57005262130E+02 -0.57679388134E+02  0.38962759725E+02  0.12852273725E+03  0.91779549018E+02 0.  0.
        -24    2    1    2    0    0  0.87443201984E+02  0.55612869317E+02  0.43029281605E+03  0.44978983975E+03  0.80124201027E+02 0.  0.
         11    1    4    4    0    0  0.98881313429E+02  0.31174131961E+02  0.32785790766E+03  0.34386065240E+03  0.00000000000E+00 0. -1.
        -12    1    4    4    0    0 -0.11438111445E+02  0.24438737356E+02  0.10243490839E+03  0.10592918735E+03  0.00000000000E+00 0.  1.
        -11    1    3    3    0    0 -0.18212286846E+02 -0.71344318871E+02  0.26864423551E+01  0.73681179414E+02  0.00000000000E+00 0.  1.
         11    1    3    3    0    0 -0.38792975284E+02  0.13664930738E+02  0.36276317370E+02  0.54841557832E+02  0.00000000000E+00 0. -1.
         21    1    1    2  502  501 -0.30437939853E+02  0.20665188162E+01  0.55741161208E+02  0.63543809575E+02  0.00000000000E+00 0.  1.
<scales pt_clust_5="13000.00000" pt_clust_6="13000.00000" pt_clust_7="13000.00000" pt_clust_8="13000.00000" pt_clust_9="30.50801"></scales>
<clustering>
<clus scale="   30.508">  1  9  2 -1</clus>
<clus scale="   80.124">  5  6 -1 -1</clus>
<clus scale="   91.780">  7  8 -1 -1</clus>
<clus scale="  116.348">  1  5  2 -1</clus>
<clus scale="   30.508">  1  5  2 -1</clus>
</clustering>
</event>
<event>
 9    1  0.2374319E-005  0.1330905E+03  0.7546771E-02  0.1225700E+00
          3   -1    0    0  502    0  0.00000000000E+00  0.00000000000E+00  0.29084169237E+03  0.29084169237E+03  0.00000000000E+00 0. -1.
         -4   -1    0    0    0  501 -0.00000000000E+00 -0.00000000000E+00 -0.46075698292E+03  0.46075698292E+03  0.00000000000E+00 0.  1.
        -24    2    1    2    0    0  0.90855735948E+01  0.96431048591E+02 -0.43297843913E+03  0.45102565981E+03  0.81069860467E+02 0.  0.
         23    2    1    2    0    0  0.34362535690E+01 -0.76180868194E+02  0.19855350176E+03  0.23180994040E+03  0.92179297523E+02 0.  0.
         11    1    3    3    0    0  0.91020560641E+01  0.55772199158E+02 -0.94451253970E+02  0.11006554865E+03  0.00000000000E+00 0. -1.
        -12    1    3    3    0    0 -0.16482469294E-01  0.40658849433E+02 -0.33852718516E+03  0.34096011116E+03  0.00000000000E+00 0.  1.
        -13    1    4    4    0    0 -0.25659291469E+02 -0.64206626888E+02  0.66048053417E+02  0.95620267387E+02  0.00000000000E+00 0.  1.
         13    1    4    4    0    0  0.29095545038E+02 -0.11974241305E+02  0.13250544834E+03  0.13618967302E+03  0.00000000000E+00 0. -1.
         21    1    1    2  502  501 -0.12521827164E+02 -0.20250180397E+02  0.64509646819E+02  0.68763075079E+02  0.00000000000E+00 0. -1.
<scales pt_clust_5="13000.00000" pt_clust_6="13000.00000" pt_clust_7="13000.00000" pt_clust_8="13000.00000" pt_clust_9="23.80895"></scales>
<clustering>
<clus scale="   23.809">  1  9  2 -1</clus>
<clus scale="   81.070">  5  6 -1 -1</clus>
<clus scale="   92.179">  7  8 -1 -1</clus>
<clus scale="  125.652">  2  5  1 -1</clus>
<clus scale="   23.809">  1  5  2 -1</clus>
</clustering>
</event>
<event>
 9    1  0.2374319E-005  0.9526748E+02  0.7546771E-02  0.1298477E+00
         -2   -1    0    0    0  501 -0.00000000000E+00  0.00000000000E+00  0.11753454423E+03  0.11753454423E+03  0.00000000000E+00 0.  1.
          1   -1    0    0  502    0  0.00000000000E+00 -0.00000000000E+00 -0.17706337053E+03  0.17706337053E+03  0.00000000000E+00 0. -1.
         23    2    1    2    0    0  0.84035007363E+01  0.14914371946E+02  0.69539054353E+02  0.11862399621E+03  0.94566987276E+02 0.  0.
        -24    2    1    2    0    0  0.15953870287E+02  0.19644345261E+01 -0.65152469902E+02  0.10552283366E+03  0.81436104458E+02 0.  0.
         13    1    4    4    0    0 -0.24776989116E+02  0.14099590405E+01 -0.59410474024E+02  0.64385492139E+02  0.00000000000E+00 0. -1.
        -14    1    4    4    0    0  0.40730859403E+02  0.55447548559E+00 -0.57419958774E+01  0.41137341522E+02  0.00000000000E+00 0.  1.
        -11    1    3    3    0    0  0.45277621701E+02  0.16840608092E+02  0.65631618864E+02  0.81493426131E+02  0.00000000000E+00 0.  1.
         11    1    3    3    0    0 -0.36874120965E+02 -0.19262361458E+01  0.39074354890E+01  0.37130570084E+02  0.00000000000E+00 0. -1.
         21    1    1    2  502  501 -0.24357371023E+02 -0.16878806472E+02 -0.63915410744E+02  0.70451084886E+02  0.00000000000E+00 0. -1.
<scales pt_clust_5="13000.00000" pt_clust_6="13000.00000" pt_clust_7="13000.00000" pt_clust_8="13000.00000" pt_clust_9="29.63403"></scales>
<clustering>
<clus scale="   29.634">  2  9  1 -1</clus>
<clus scale="   81.436">  5  6 -1 -1</clus>
<clus scale="   82.249">  2  5  1 -1</clus>
<clus scale="   94.567">  7  8 -1 -1</clus>
<clus scale="   29.634">  2  5  1 -1</clus>
</clustering>
</event>
<event>
 9    1  0.2374319E-005  0.1101201E+03  0.7546771E-02  0.1266551E+00
         -2   -1    0    0    0  501 -0.00000000000E+00  0.00000000000E+00  0.59367755635E+03  0.59367755635E+03  0.00000000000E+00 0.  1.
          1   -1    0    0  502    0  0.00000000000E+00 -0.00000000000E+00 -0.58689713220E+02  0.58689713220E+02  0.00000000000E+00 0. -1.
        -24    2    1    2    0    0 -0.26185858397E+02  0.54460037056E+02  0.48334747160E+03  0.49368379278E+03  0.80295168778E+02 0.  0.
         23    2    1    2    0    0  0.38340195854E+01 -0.31032946493E+02  0.69287142768E+02  0.12180744385E+03  0.95176687004E+02 0.  0.
         11    1    3    3    0    0 -0.23512444521E+02  0.43438835036E+02  0.11496516979E+03  0.12512696633E+03  0.00000000000E+00 0. -1.
        -12    1    3    3    0    0 -0.26734138755E+01  0.11021202020E+02  0.36838230181E+03  0.36855682645E+03  0.00000000000E+00 0.  1.
        -11    1    4    4    0    0 -0.84800917250E+01 -0.58936670939E+02  0.18120191653E+02  0.62239733954E+02  0.00000000000E+00 0.  1.
         11    1    4    4    0    0  0.12314111310E+02  0.27903724447E+02  0.51166951116E+02  0.59567709892E+02  0.00000000000E+00 0. -1.
         21    1    1    2  502  501  0.22351838812E+02 -0.23427090563E+02 -0.17646771243E+02  0.36876032945E+02  0.00000000000E+00 0. -1.
<scales pt_clust_5="13000.00000" pt_clust_6="13000.00000" pt_clust_7="13000.00000" pt_clust_8="13000.00000" pt_clust_9="32.37952"></scales>
<clustering>
<clus scale="   32.380">  2  9  1 -1</clus>
<clus scale="   80.295">  5  6 -1 -1</clus>
<clus scale="   95.177">  7  8 -1 -1</clus>
<clus scale="   97.546">  1  5  2 -1</clus>
<clus scale="   32.380">  2  5  1 -1</clus>
</clustering>
</event>
<event>
 9    1  0.2374319E-005  0.1035682E+03  0.7546771E-02  0.1277647E+00
          1   -1    0    0  502    0  0.00000000000E+00  0.00000000000E+00  0.67022893316E+03  0.67022893316E+03  0.00000000000E+00 0. -1.
         -2   -1    0    0    0  501 -0.00000000000E+00 -0.00000000000E+00 -0.24493650841E+02  0.24493650841E+02  0.00000000000E+00 0.  1.
        -24    2    1    2    0    0 -0.43597310273E+02  0.35297733052E+02  0.12165891109E+03  0.15566625425E+03  0.79274438779E+02 0.  0.
         23    2    1    2    0    0  0.17941163198E+02 -0.39034000063E+02  0.38897518230E+03  0.40148987735E+03  0.89704462964E+02 0.  0.
         11    1    3    3    0    0  0.13774846229E+02  0.29385042141E+02  0.74155703281E+02  0.80946250187E+02  0.00000000000E+00 0. -1.
        -12    1    3    3    0    0 -0.57372156502E+02  0.59126909109E+01  0.47503207812E+02  0.74720004068E+02  0.00000000000E+00 0.  1.
        -13    1    4    4    0    0  0.54223245854E+02 -0.26849361978E+02  0.21481319115E+03  0.22317203168E+03  0.00000000000E+00 0. -1.
         13    1    4    4    0    0 -0.36282082656E+02 -0.12184638085E+02  0.17416199114E+03  0.17831784567E+03  0.00000000000E+00 0.  1.
         21    1    1    2  502  501  0.25656147075E+02  0.37362670113E+01  0.13510118893E+03  0.13756645239E+03  0.00000000000E+00 0. -1.
<scales pt_clust_5="13000.00000" pt_clust_6="13000.00000" pt_clust_7="13000.00000" pt_clust_8="13000.00000" pt_clust_9="25.92677"></scales>
<clustering>
<clus scale="   25.927">  1  9  2 -1</clus>
<clus scale="   79.274">  5  6 -1 -1</clus>
<clus scale="   89.704">  7  8 -1 -1</clus>
<clus scale="   94.678">  2  5  1 -1</clus>
<clus scale="   25.927">  1  5  2 -1</clus>
</clustering>
</event>
<event>
 9    1  0.2374319E-005  0.1016738E+03  0.7546771E-02  0.1280515E+00
         -2   -1    0    0    0  501 -0.00000000000E+00  0.00000000000E+00  0.32539072860E+03  0.32539072860E+03  0.00000000000E+00 0.  1.
          1   -1    0    0  502    0  0.00000000000E+00 -0.00000000000E+00 -0.24537109158E+03  0.24537109158E+03  0.00000000000E+00 0. -1.
         23    2    1    2    0    0  0.33938954293E+02 -0.32749486321E+02  0.29718496889E+03  0.31396388812E+03  0.89610467218E+02 0.  0.
        -24    2    1    2    0    0 -0.33608310460E+02  0.57046532143E+02 -0.13496585529E+03  0.17108206589E+03  0.81666797507E+02 0.  0.
         11    1    4    4    0    0 -0.45448066967E+02  0.70000075038E+02 -0.89642798756E+02  0.12248007456E+03  0.00000000000E+00 0. -1.
        -12    1    4    4    0    0  0.11839756508E+02 -0.12953542895E+02 -0.45323056534E+02  0.48601991330E+02  0.00000000000E+00 0.  1.
        -13    1    3    3    0    0 -0.30519152908E+02 -0.76940666879E+01  0.77370982563E+02  0.83527757657E+02  0.00000000000E+00 0. -1.
         13    1    3    3    0    0  0.64458107200E+02 -0.25055419633E+02  0.21981398633E+03  0.23043613046E+03  0.00000000000E+00 0.  1.
         21    1    1    2  502  501 -0.33064383292E+00 -0.24297045821E+02 -0.82199476586E+02  0.85715866163E+02  0.00000000000E+00 0. -1.
<scales pt_clust_5="13000.00000" pt_clust_6="13000.00000" pt_clust_7="13000.00000" pt_clust_8="13000.00000" pt_clust_9="24.29930"></scales>
<clustering>
<clus scale="   24.299">  2  9  1 -1</clus>
<clus scale="   81.667">  5  6 -1 -1</clus>
<clus scale="   89.610">  7  8 -1 -1</clus>
<clus scale="   94.747">  2  5  1 -1</clus>
<clus scale="   24.299">  2  5  1 -1</clus>
</clustering>
</event>
<event>
 9    1  0.2374319E-005  0.9708322E+02  0.7546771E-02  0.1294533E+00
          1   -1    0    0  502    0  0.00000000000E+00  0.00000000000E+00  0.64256685466E+02  0.64256685466E+02  0.00000000000E+00 0. -1.
         -2   -1    0    0    0  501 -0.00000000000E+00 -0.00000000000E+00 -0.23634192274E+03  0.23634192274E+03  0.00000000000E+00 0.  1.
         23    2    1    2    0    0 -0.30965501979E+02 -0.15030967890E+02 -0.11785953236E+03  0.15427605517E+03  0.93410061129E+02 0.  0.
        -24    2    1    2    0    0  0.20310010792E+02 -0.22588307227E+02 -0.73120646891E+01  0.85251782688E+02  0.79320060512E+02 0.  0.
         13    1    4    4    0    0  0.46366276971E+02 -0.10563473652E+02  0.13924856516E+02  0.49551188127E+02  0.00000000000E+00 0. -1.
        -14    1    4    4    0    0 -0.26056266179E+02 -0.12024833575E+02 -0.21236921205E+02  0.35700594561E+02  0.00000000000E+00 0.  1.
        -13    1    3    3    0    0  0.64271358149E+01  0.34173149067E+02 -0.61431087444E+02  0.70589593401E+02  0.00000000000E+00 0.  1.
         13    1    3    3    0    0 -0.37392637794E+02 -0.49204116957E+02 -0.56428444919E+02  0.83686461765E+02  0.00000000000E+00 0. -1.
         21    1    1    2  502  501  0.10655491187E+02  0.37619275117E+02 -0.46913640222E+02  0.61070770355E+02  0.00000000000E+00 0.  1.
<scales pt_clust_5="13000.00000" pt_clust_6="13000.00000" pt_clust_7="13000.00000" pt_clust_8="13000.00000" pt_clust_9="39.09922"></scales>
<clustering>
<clus scale="   39.099">  2  9  1 -1</clus>
<clus scale="   79.320">  5  6 -1 -1</clus>
<clus scale="   83.615">  1  5  2 -1</clus>
<clus scale="   93.410">  7  8 -1 -1</clus>
<clus scale="   83.615">  1  5  2 -1</clus>
</clustering>
</event>
<event>
 9    1  0.2374319E-005  0.1210028E+03  0.7546771E-02  0.1244324E+00
         -2   -1    0    0    0  501 -0.00000000000E+00  0.00000000000E+00  0.15795232280E+03  0.15795232280E+03  0.00000000000E+00 0.  1.
          1   -1    0    0  502    0  0.00000000000E+00 -0.00000000000E+00 -0.15644609816E+03  0.15644609816E+03  0.00000000000E+00 0. -1.
        -24    2    1    2    0    0  0.58230411399E+02 -0.44623401743E+02  0.57374806215E+02  0.12338511271E+03  0.80932001427E+02 0.  0.
         23    2    1    2    0    0 -0.80439036648E+02  0.50744202239E+02 -0.61712769903E+00  0.13115171465E+03  0.90304920854E+02 0.  0.
         13    1    3    3    0    0  0.38151544614E+02 -0.22153938998E+02 -0.13692365263E+02  0.46193270463E+02  0.00000000000E+00 0. -1.
        -14    1    3    3    0    0  0.20078866785E+02 -0.22469462745E+02  0.71067171478E+02  0.77191842245E+02  0.00000000000E+00 0.  1.
        -11    1    4    4    0    0 -0.88752042838E+02  0.17117380034E+02 -0.18358985786E+02  0.92233302913E+02  0.00000000000E+00 0.  1.
         11    1    4    4    0    0  0.83130061900E+01  0.33626822205E+02  0.17741858087E+02  0.38918411734E+02  0.00000000000E+00 0. -1.
         21    1    1    2  502  501  0.22208625249E+02 -0.61208004957E+01 -0.55251453875E+02  0.59861593609E+02  0.00000000000E+00 0. -1.
<scales pt_clust_5="13000.00000" pt_clust_6="13000.00000" pt_clust_7="13000.00000" pt_clust_8="13000.00000" pt_clust_9="23.03665"></scales>
<clustering>
<clus scale="   23.037">  2  9  1 -1</clus>
<clus scale="   80.932">  5  6 -1 -1</clus>
<clus scale="   90.305">  7  8 -1 -1</clus>
<clus scale="  114.178">  1  5  2 -1</clus>
<clus scale="   23.037">  2  5  1 -1</clus>
</clustering>
</event>
<event>
 9    1  0.2374319E-005  0.1837301E+03  0.7546771E-02  0.1165714E+00
          1   -1    0    0  502    0  0.00000000000E+00  0.00000000000E+00  0.33507104566E+03  0.33507104566E+03  0.00000000000E+00 0. -1.
         -2   -1    0    0    0  501 -0.00000000000E+00 -0.00000000000E+00 -0.12850633740E+03  0.12850633740E+03  0.00000000000E+00 0.  1.
         23    2    1    2    0    0 -0.11811358738E+03 -0.10441055063E+03  0.20332904961E+02  0.18393573004E+03  0.92555621958E+02 0.  0.
        -24    2    1    2    0    0  0.13594848153E+03  0.84204707221E+02  0.17606395204E+03  0.25083636258E+03  0.79673980922E+02 0.  0.
         13    1    4    4    0    0  0.51188791995E+02  0.64872073540E+01  0.10126722065E+03  0.11365485588E+03  0.00000000000E+00 0. -1.
        -14    1    4    4    0    0  0.84759689539E+02  0.77717499867E+02  0.74796731389E+02  0.13718150671E+03  0.00000000000E+00 0.  1.
        -13    1    3    3    0    0 -0.72490352223E+02 -0.75933048478E+01  0.24308335745E+02  0.76833616540E+02  0.00000000000E+00 0. -1.
         13    1    3    3    0    0 -0.45623235156E+02 -0.96817245784E+02 -0.39754307836E+01  0.10710211350E+03  0.00000000000E+00 0.  1.
         21    1    1    2  502  501 -0.17834894155E+02  0.20205843410E+02  0.10167851254E+02  0.28805290427E+02  0.00000000000E+00 0. -1.
<scales pt_clust_5="13000.00000" pt_clust_6="13000.00000" pt_clust_7="13000.00000" pt_clust_8="13000.00000" pt_clust_9="26.95106"></scales>
<clustering>
<clus scale="   26.951">  2  9  1 -1</clus>
<clus scale="   79.674">  5  6 -1 -1</clus>
<clus scale="   92.556">  7  8 -1 -1</clus>
<clus scale="  177.590">  1  5  2 -1</clus>
<clus scale="  177.590">  1  5  2 -1</clus>
</clustering>
</event>
<event>
 9    1  0.2374319E-005  0.1033886E+03  0.7546771E-02  0.1276573E+00
         -2   -1    0    0    0  501 -0.00000000000E+00  0.00000000000E+00  0.96410407279E+02  0.96410407279E+02  0.00000000000E+00 0.  1.
          1   -1    0    0  502    0  0.00000000000E+00 -0.00000000000E+00 -0.16187046118E+03  0.16187046118E+03  0.00000000000E+00 0. -1.
         23    2    1    2    0    0 -0.40956732557E+02 -0.13953839285E+02 -0.88249671146E+01  0.10155765634E+03  0.91454436442E+02 0.  0.
        -24    2    1    2    0    0  0.56506490453E+02 -0.19598580423E+02 -0.21271082971E+02  0.10555513022E+03  0.84334682825E+02 0.  0.
         13    1    4    4    0    0  0.19289204324E+02 -0.44543438498E+02  0.11695710272E+02  0.49929760218E+02  0.00000000000E+00 0. -1.
        -14    1    4    4    0    0  0.37217286128E+02  0.24944858075E+02 -0.32966793243E+02  0.55625370002E+02  0.00000000000E+00 0.  1.
        -11    1    3    3    0    0 -0.15497934762E+02  0.36581901342E+02 -0.19040948483E+02  0.44056545561E+02  0.00000000000E+00 0. -1.
         11    1    3    3    0    0 -0.25458797795E+02 -0.50535740627E+02  0.10215981368E+02  0.57501110782E+02  0.00000000000E+00 0.  1.
         21    1    1    2  502  501 -0.15549757896E+02  0.33552419709E+02 -0.35364003815E+02  0.51168081894E+02  0.00000000000E+00 0. -1.
<scales pt_clust_5="13000.00000" pt_clust_6="13000.00000" pt_clust_7="13000.00000" pt_clust_8="13000.00000" pt_clust_9="36.98053"></scales>
<clustering>
<clus scale="   36.981">  2  9  1 -1</clus>
<clus scale="   84.335">  5  6 -1 -1</clus>
<clus scale="   91.454">  7  8 -1 -1</clus>
<clus scale="   97.147">  2  5  1 -1</clus>
<clus scale="   36.981">  2  5  1 -1</clus>
</clustering>
</event>
<event>
 9    1  0.2374319E-005  0.3391068E+03  0.7546771E-02  0.1067653E+00
         -2   -1    0    0    0  501 -0.00000000000E+00  0.00000000000E+00  0.15389752068E+03  0.15389752068E+03  0.00000000000E+00 0.  1.
          1   -1    0    0  502    0  0.00000000000E+00 -0.00000000000E+00 -0.10352729536E+04  0.10352729536E+04  0.00000000000E+00 0. -1.
         23    2    1    2    0    0  0.21500228310E+03 -0.23609817921E+03 -0.15417872864E+03  0.36649134336E+03  0.92609353873E+02 0.  0.
        -24    2    1    2    0    0 -0.22086051918E+03  0.26444356581E+03 -0.63843614726E+03  0.72931845208E+03  0.74799211110E+02 0.  0.
         11    1    4    4    0    0 -0.10069151476E+03  0.12016635134E+03 -0.36886028235E+03  0.40079501124E+03  0.00000000000E+00 0. -1.
        -12    1    4    4    0    0 -0.12016900442E+03  0.14427721447E+03 -0.26957586491E+03  0.32852344084E+03  0.00000000000E+00 0.  1.
        -11    1    3    3    0    0  0.17094802464E+03 -0.19809875735E+03 -0.82890007469E+02  0.27447604291E+03  0.00000000000E+00 0.  1.
         11    1    3    3    0    0  0.44054258459E+02 -0.37999421862E+02 -0.71288721174E+02  0.92015300450E+02  0.00000000000E+00 0. -1.
         21    1    1    2  502  501  0.58582360767E+01 -0.28345386598E+02 -0.88760557044E+02  0.93360678865E+02  0.00000000000E+00 0.  1.
<scales pt_clust_5="13000.00000" pt_clust_6="13000.00000" pt_clust_7="13000.00000" pt_clust_8="13000.00000" pt_clust_9="28.94443"></scales>
<clustering>
<clus scale="   28.944">  2  9  1 -1</clus>
<clus scale="   74.799">  5  6 -1 -1</clus>
<clus scale="   92.609">  7  8 -1 -1</clus>
<clus scale="  334.682">  2  5  1 -1</clus>
<clus scale="   28.944">  2  5  1 -1</clus>
</clustering>
</event>
<event>
 9    1  0.2374319E-005  0.8915884E+02  0.7546771E-02  0.1310575E+00
          1   -1    0    0  502    0  0.00000000000E+00  0.00000000000E+00  0.21636600007E+02  0.21636600007E+02  0.00000000000E+00 0. -1.
         -2   -1    0    0    0  501 -0.00000000000E+00 -0.00000000000E+00 -0.48262978912E+03  0.48262978912E+03  0.00000000000E+00 0.  1.
        -24    2    1    2    0    0 -0.13908108694E+02  0.39711093555E+01 -0.23586869467E+03  0.24890362984E+03  0.78165021723E+02 0.  0.
         23    2    1    2    0    0  0.11461465080E+02 -0.29162225121E+02 -0.19601153264E+03  0.21678630374E+03  0.87143444986E+02 0.  0.
         11    1    3    3    0    0 -0.10533510908E+02 -0.29662623150E+02 -0.44117199951E+02  0.54195510845E+02  0.00000000000E+00 0. -1.
        -12    1    3    3    0    0 -0.33745977867E+01  0.33633732505E+02 -0.19175149472E+03  0.19470811899E+03  0.00000000000E+00 0.  1.
        -11    1    4    4    0    0 -0.31833245373E+02 -0.23521584035E+02 -0.46673040790E+02  0.61196349263E+02  0.00000000000E+00 0. -1.
         11    1    4    4    0    0  0.43294710453E+02 -0.56406410858E+01 -0.14933849185E+03  0.15558995448E+03  0.00000000000E+00 0.  1.
         21    1    1    2  502  501  0.24466436138E+01  0.25191115766E+02 -0.29112961797E+02  0.38576455554E+02  0.00000000000E+00 0.  1.
<scales pt_clust_5="13000.00000" pt_clust_6="13000.00000" pt_clust_7="13000.00000" pt_clust_8="13000.00000" pt_clust_9="25.30965"></scales>
<clustering>
<clus scale="   25.310">  1  9  2 -1</clus>
<clus scale="   78.165">  5  6 -1 -1</clus>
<clus scale="   80.406">  2  5  1 -1</clus>
<clus scale="   87.143">  7  8 -1 -1</clus>
<clus scale="   25.310">  1  5  2 -1</clus>
</clustering>
</event>
<event>
 9    1  0.2374319E-005  0.9839288E+02  0.7546771E-02  0.1290842E+00
          1   -1    0    0  502    0  0.00000000000E+00  0.00000000000E+00  0.98151523192E+02  0.98151523192E+02  0.00000000000E+00 0. -1.
         -2   -1    0    0    0  501 -0.00000000000E+00 -0.00000000000E+00 -0.17016404071E+03  0.17016404071E+03  0.00000000000E+00 0.  1.
        -24    2    1    2    0    0  0.73789358654E+01  0.28666821024E+02 -0.66314430795E+02  0.10659735595E+03  0.78033052233E+02 0.  0.
         23    2    1    2    0    0  0.34365927210E+02 -0.54703144556E+02 -0.94155833826E+01  0.11237914110E+03  0.91471127504E+02 0.  0.
         11    1    3    3    0    0 -0.25988370784E+02  0.11313506053E+02  0.22099707433E+01  0.28430174215E+02  0.00000000000E+00 0. -1.
        -12    1    3    3    0    0  0.33367306649E+02  0.17353314971E+02 -0.68524401539E+02  0.78167181731E+02  0.00000000000E+00 0.  1.
        -13    1    4    4    0    0 -0.23646127278E+02  0.11549422990E+01 -0.20208392326E+02  0.31126393099E+02  0.00000000000E+00 0.  1.
         13    1    4    4    0    0  0.58012054488E+02 -0.55858086854E+02  0.10792808943E+02  0.81252748002E+02  0.00000000000E+00 0. -1.
         21    1    1    2  502  501 -0.41744863076E+02  0.26036323532E+02  0.37174966640E+01  0.49339066851E+02  0.00000000000E+00 0.  1.
<scales pt_clust_5="13000.00000" pt_clust_6="13000.00000" pt_clust_7="13000.00000" pt_clust_8="13000.00000" pt_clust_9="49.19882"></scales>
<clustering>
<clus scale="   49.199">  1  9  2 -1</clus>
<clus scale="   78.033">  5  6 -1 -1</clus>
<clus scale="   86.043">  2  5  1 -1</clus>
<clus scale="   91.471">  7  8 -1 -1</clus>
<clus scale="   49.199">  1  5  2 -1</clus>
</clustering>
</event>
<event>
 9    1  0.2374319E-005  0.1177500E+03  0.7546771E-02  0.1249633E+00
          1   -1    0    0  502    0  0.00000000000E+00  0.00000000000E+00  0.14685285293E+03  0.14685285293E+03  0.00000000000E+00 0. -1.
         -2   -1    0    0    0  501 -0.00000000000E+00 -0.00000000000E+00 -0.17987042229E+03  0.17987042229E+03  0.00000000000E+00 0.  1.
         23    2    1    2    0    0  0.58511398164E+02  0.50589955908E+02 -0.10333951164E+03  0.15804599640E+03  0.91195147669E+02 0.  0.
        -24    2    1    2    0    0 -0.26559528904E+02 -0.68249472548E+02  0.30541779239E+02  0.11468429920E+03  0.82802712066E+02 0.  0.
         13    1    4    4    0    0 -0.25448456193E+02 -0.70490987507E+02  0.53188346981E+02  0.91899964619E+02  0.00000000000E+00 0. -1.
        -14    1    4    4    0    0 -0.11110727103E+01  0.22415149594E+01 -0.22646567742E+02  0.22784334582E+02  0.00000000000E+00 0.  1.
        -11    1    3    3    0    0  0.40161308000E+02 -0.15740277082E+02 -0.68393686163E+02  0.80860270157E+02  0.00000000000E+00 0. -1.
         11    1    3    3    0    0  0.18350090164E+02  0.66330232990E+02 -0.34945825476E+02  0.77185726243E+02  0.00000000000E+00 0.  1.
         21    1    1    2  502  501 -0.31951869261E+02  0.17659516640E+02  0.39780163037E+02  0.53992979622E+02  0.00000000000E+00 0.  1.
<scales pt_clust_5="13000.00000" pt_clust_6="13000.00000" pt_clust_7="13000.00000" pt_clust_8="13000.00000" pt_clust_9="36.50727"></scales>
<clustering>
<clus scale="   36.507">  1  9  2 -1</clus>
<clus scale="   82.803">  5  6 -1 -1</clus>
<clus scale="   91.195">  7  8 -1 -1</clus>
<clus scale="  111.377">  1  5  2 -1</clus>
<clus scale="   36.507">  1  5  2 -1</clus>
</clustering>
</event>
<event>
 9    1  0.2374319E-005  0.1696846E+03  0.7546771E-02  0.1179775E+00
         -2   -1    0    0    0  501 -0.00000000000E+00  0.00000000000E+00  0.16447331274E+03  0.16447331274E+03  0.00000000000E+00 0.  1.
          1   -1    0    0  502    0  0.00000000000E+00 -0.00000000000E+00 -0.29371439656E+03  0.29371439656E+03  0.00000000000E+00 0. -1.
        -24    2    1    2    0    0  0.15072760356E+01 -0.10921731634E+03  0.17327196353E+02  0.13631363740E+03  0.79689911150E+02 0.  0.
         23    2    1    2    0    0 -0.61223529046E+02  0.15362039622E+03 -0.15836606990E+03  0.24652918343E+03  0.91374392164E+02 0.  0.
         11    1    3    3    0    0  0.31975426639E+02 -0.92445201621E+02  0.83612895824E+00  0.97822504175E+02  0.00000000000E+00 0. -1.
        -12    1    3    3    0    0 -0.30468150604E+02 -0.16772114719E+02  0.16491067395E+02  0.38491133228E+02  0.00000000000E+00 0.  1.
        -11    1    4    4    0    0 -0.51779649693E+02  0.38001483425E+02 -0.22916764499E+02  0.68194009707E+02  0.00000000000E+00 0. -1.
         11    1    4    4    0    0 -0.94438793537E+01  0.11561891280E+03 -0.13544930540E+03  0.17833517372E+03  0.00000000000E+00 0.  1.
         21    1    1    2  502  501  0.59716253011E+02 -0.44403079880E+02  0.11797789724E+02  0.75344888472E+02  0.00000000000E+00 0.  1.
<scales pt_clust_5="13000.00000" pt_clust_6="13000.00000" pt_clust_7="13000.00000" pt_clust_8="13000.00000" pt_clust_9="74.41548"></scales>
<clustering>
<clus scale="   74.415">  1  9  2 -1</clus>
<clus scale="   79.690">  5  6 -1 -1</clus>
<clus scale="   91.374">  7  8 -1 -1</clus>
<clus scale="  163.689">  1  5  2 -1</clus>
<clus scale="  169.685">  2  5  1 -1</clus>
</clustering>
</event>
<event>
 9    1  0.2374319E-005  0.1681110E+03  0.7546771E-02  0.1180783E+00
          3   -1    0    0  502    0  0.00000000000E+00  0.00000000000E+00  0.80000707924E+03  0.80000707924E+03  0.00000000000E+00 0. -1.
         -4   -1    0    0    0  501 -0.00000000000E+00 -0.00000000000E+00 -0.64191227870E+02  0.64191227870E+02  0.00000000000E+00 0.  1.
         23    2    1    2    0    0  0.13383475412E+02  0.14052985734E+03  0.91446819002E+02  0.19175165860E+03  0.92078334329E+02 0.  0.
        -24    2    1    2    0    0 -0.35138246722E+02 -0.13570123501E+03  0.49713453155E+03  0.52353531952E+03  0.85422284930E+02 0.  0.
         11    1    4    4    0    0  0.18708064081E+02 -0.61708662573E+02  0.29006772896E+03  0.29714851183E+03  0.00000000000E+00 0. -1.
        -12    1    4    4    0    0 -0.53846310803E+02 -0.73992572439E+02  0.20706680259E+03  0.22638680770E+03  0.00000000000E+00 0.  1.
        -13    1    3    3    0    0 -0.36726865437E+02  0.31375783841E+02  0.22850476336E+02  0.53436380167E+02  0.00000000000E+00 0. -1.
         13    1    3    3    0    0  0.50110340849E+02  0.10915407350E+03  0.68596342666E+02  0.13831527844E+03  0.00000000000E+00 0.  1.
         21    1    1    2  502  501  0.21754771310E+02 -0.48286223319E+01  0.14723450082E+03  0.14891132898E+03  0.00000000000E+00 0.  1.
<scales pt_clust_5="13000.00000" pt_clust_6="13000.00000" pt_clust_7="13000.00000" pt_clust_8="13000.00000" pt_clust_9="22.28420"></scales>
<clustering>
<clus scale="   22.284">  1  9  2 -1</clus>
<clus scale="   85.422">  5  6 -1 -1</clus>
<clus scale="   92.078">  7  8 -1 -1</clus>
<clus scale="  164.560">  1  5  2 -1</clus>
<clus scale="   22.284">  1  5  2 -1</clus>
</clustering>
</event>
<event>
 9    1  0.2374319E-005  0.1271606E+03  0.7546771E-02  0.1233153E+00
          3   -1    0    0  502    0  0.00000000000E+00  0.00000000000E+00  0.12610061467E+03  0.12610061467E+03  0.00000000000E+00 0. -1.
         -4   -1    0    0    0  501 -0.00000000000E+00 -0.00000000000E+00 -0.19802937133E+03  0.19802937133E+03  0.00000000000E+00 0.  1.
        -24    2    1    2    0    0  0.75266852105E+02  0.20696033274E+02 -0.67668256443E+02  0.13432502316E+03  0.85853328984E+02 0.  0.
         23    2    1    2    0    0 -0.99323690998E+02 -0.37557943128E+02 -0.38119110889E+02  0.14497795069E+03  0.91048036144E+02 0.  0.
         13    1    3    3    0    0  0.22579490354E+02  0.41220367475E+02 -0.61562429763E+02  0.77452468248E+02  0.00000000000E+00 0. -1.
        -14    1    3    3    0    0  0.52687361750E+02 -0.20524334201E+02 -0.61058266796E+01  0.56872554910E+02  0.00000000000E+00 0.  1.
        -13    1    4    4    0    0 -0.56187262696E+02  0.98220452263E+01  0.17989366352E+02  0.59808848538E+02  0.00000000000E+00 0. -1.
         13    1    4    4    0    0 -0.43136428302E+02 -0.47379988354E+02 -0.56108477240E+02  0.85169102152E+02  0.00000000000E+00 0.  1.
         21    1    1    2  502  501  0.24056838893E+02  0.16861909854E+02  0.33858610669E+02  0.44827012146E+02  0.00000000000E+00 0. -1.
<scales pt_clust_5="13000.00000" pt_clust_6="13000.00000" pt_clust_7="13000.00000" pt_clust_8="13000.00000" pt_clust_9="29.37781"></scales>
<clustering>
<clus scale="   29.378">  1  9  2 -1</clus>
<clus scale="   85.853">  5  6 -1 -1</clus>
<clus scale="   91.048">  7  8 -1 -1</clus>
<clus scale="  123.494">  2  5  1 -1</clus>
<clus scale="   29.378">  1  5  2 -1</clus>
</clustering>
</event>
<event>
 9    1  0.2374319E-005  0.1942861E+03  0.7546771E-02  0.1155569E+00
          1   -1    0    0  502    0  0.00000000000E+00  0.00000000000E+00  0.99551705806E+02  0.99551705806E+02  0.00000000000E+00 0. -1.
         -2   -1    0    0    0  501 -0.00000000000E+00 -0.00000000000E+00 -0.48693033682E+03  0.48693033682E+03  0.00000000000E+00 0.  1.
         23    2    1    2    0    0  0.16489561094E+03  0.12455509522E+01 -0.21038064991E+03  0.28254391344E+03  0.91536502361E+02 0.  0.
        -24    2    1    2    0    0 -0.17829989052E+03 -0.17295475079E+02 -0.19428176834E+03  0.27680873411E+03  0.82387410163E+02 0.  0.
         11    1    4    4    0    0 -0.86475493334E+02 -0.44895685372E+02 -0.12512876517E+03  0.15859016800E+03  0.00000000000E+00 0. -1.
        -12    1    4    4    0    0 -0.91824397186E+02  0.27600210293E+02 -0.69153003175E+02  0.11821856612E+03  0.00000000000E+00 0.  1.
        -13    1    3    3    0    0  0.27876430974E+02 -0.83091702211E+01  0.25034273620E+01  0.29195973389E+02  0.00000000000E+00 0.  1.
         13    1    3    3    0    0  0.13701917996E+03  0.95547211732E+01 -0.21288407727E+03  0.25334794005E+03  0.00000000000E+00 0. -1.
         21    1    1    2  502  501  0.13404279581E+02  0.16049924127E+02  0.17283787236E+02  0.27129395069E+02  0.00000000000E+00 0. -1.
<scales pt_clust_5="13000.00000" pt_clust_6="13000.00000" pt_clust_7="13000.00000" pt_clust_8="13000.00000" pt_clust_9="20.91112"></scales>
<clustering>
<clus scale="   20.911">  1  9  2 -1</clus>
<clus scale="   82.387">  5  6 -1 -1</clus>
<clus scale="   91.537">  7  8 -1 -1</clus>
<clus scale="  190.147">  1  5  2 -1</clus>
<clus scale="   20.911">  1  5  2 -1</clus>
</clustering>
</event>
<event>
 9    1  0.2374319E-005  0.1097292E+03  0.7546771E-02  0.1265209E+00
         -2   -1    0    0    0  501 -0.00000000000E+00  0.00000000000E+00  0.14070897256E+03  0.14070897256E+03  0.00000000000E+00 0.  1.
          1   -1    0    0  502    0  0.00000000000E+00 -0.00000000000E+00 -0.13824225776E+03  0.13824225776E+03  0.00000000000E+00 0. -1.
        -24    2    1    2    0    0  0.50061458450E+02 -0.42179118946E+02  0.73339068427E+02  0.12707663675E+03  0.80527169029E+02 0.  0.
         23    2    1    2    0    0 -0.21070526232E+02  0.46954968607E+02 -0.59979926290E+02  0.12053886533E+03  0.91012583445E+02 0.  0.
         13    1    3    3    0    0  0.22038424185E+01  0.22872116559E+02  0.14779931900E+02  0.27320999694E+02  0.00000000000E+00 0. -1.
        -14    1    3    3    0    0  0.47857616032E+02 -0.65051235505E+02  0.58559136527E+02  0.99755637053E+02  0.00000000000E+00 0.  1.
        -13    1    4    4    0    0  0.30605926870E+02 -0.47746189691E+01 -0.23129699591E+02  0.38658799116E+02  0.00000000000E+00 0. -1.
         13    1    4    4    0    0 -0.51676453102E+02  0.51729587576E+02 -0.36850226699E+02  0.81880066217E+02  0.00000000000E+00 0.  1.
         21    1    1    2  502  501 -0.28990932218E+02 -0.47758496602E+01 -0.10892427336E+02  0.31335728237E+02  0.00000000000E+00 0. -1.
<scales pt_clust_5="13000.00000" pt_clust_6="13000.00000" pt_clust_7="13000.00000" pt_clust_8="13000.00000" pt_clust_9="29.38168"></scales>
<clustering>
<clus scale="   29.382">  2  9  1 -1</clus>
<clus scale="   80.527">  5  6 -1 -1</clus>
<clus scale="   91.013">  7  8 -1 -1</clus>
<clus scale="  101.202">  1  5  2 -1</clus>
<clus scale="   29.382">  2  5  1 -1</clus>
</clustering>
</event>
<event>
 9    1  0.2374319E-005  0.1100475E+03  0.7546771E-02  0.1265316E+00
          1   -1    0    0  502    0  0.00000000000E+00  0.00000000000E+00  0.41262606330E+03  0.41262606330E+03  0.00000000000E+00 0. -1.
         -2   -1    0    0    0  501 -0.00000000000E+00 -0.00000000000E+00 -0.11169181952E+03  0.11169181952E+03  0.00000000000E+00 0.  1.
         23    2    1    2    0    0  0.44519301248E+01  0.57986052787E+02 -0.70840401679E+02  0.13045458200E+03  0.92832286710E+02 0.  0.
        -24    2    1    2    0    0 -0.24509303057E+02 -0.67240043042E+02  0.31026080608E+03  0.32850362685E+03  0.80814205066E+02 0.  0.
         13    1    4    4    0    0 -0.50522346338E+02 -0.54317736974E+02  0.26079879699E+03  0.27114375623E+03  0.00000000000E+00 0. -1.
        -14    1    4    4    0    0  0.26013043281E+02 -0.12922306069E+02  0.49462009091E+02  0.57359870626E+02  0.00000000000E+00 0.  1.
        -13    1    3    3    0    0 -0.34732370358E+02  0.50802047093E+02 -0.17690728107E+02  0.64032393368E+02  0.00000000000E+00 0. -1.
         13    1    3    3    0    0  0.39184300483E+02  0.71840056941E+01 -0.53149673572E+02  0.66422188634E+02  0.00000000000E+00 0.  1.
         21    1    1    2  502  501  0.20057372932E+02  0.92539902552E+01  0.61513839382E+02  0.65359673959E+02  0.00000000000E+00 0.  1.
<scales pt_clust_5="13000.00000" pt_clust_6="13000.00000" pt_clust_7="13000.00000" pt_clust_8="13000.00000" pt_clust_9="22.08924"></scales>
<clustering>
<clus scale="   22.089">  1  9  2 -1</clus>
<clus scale="   80.814">  5  6 -1 -1</clus>
<clus scale="   92.832">  7  8 -1 -1</clus>
<clus scale="  100.118">  1  5  2 -1</clus>
<clus scale="   22.089">  1  5  2 -1</clus>
</clustering>
</event>
<event>
 9    1  0.2374319E-005  0.9406565E+02  0.7546771E-02  0.1298178E+00
         -2   -1    0    0    0  501 -0.00000000000E+00  0.00000000000E+00  0.75109585530E+02  0.75109585530E+02  0.00000000000E+00 0.  1.
          1   -1    0    0  502    0  0.00000000000E+00 -0.00000000000E+00 -0.32115056198E+03  0.32115056198E+03  0.00000000000E+00 0. -1.
         23    2    1    2    0    0 -0.16635786362E+02  0.29486136861E+02  0.21339367020E+02  0.97959873907E+02  0.89412452467E+02 0.  0.
        -24    2    1    2    0    0  0.25349029923E+02  0.13022223791E+02 -0.20624646231E+03  0.22333206191E+03  0.80792666941E+02 0.  0.
         13    1    4    4    0    0  0.44688856121E+02  0.34713645459E+02 -0.13870035969E+03  0.14979960221E+03  0.00000000000E+00 0. -1.
        -14    1    4    4    0    0 -0.19339826198E+02 -0.21691421668E+02 -0.67546102613E+02  0.73532459700E+02  0.00000000000E+00 0.  1.
        -13    1    3    3    0    0 -0.49514690570E+02  0.32385703981E+02  0.25999619875E+02  0.64625990424E+02  0.00000000000E+00 0.  1.
         13    1    3    3    0    0  0.32878904208E+02 -0.28995671209E+01 -0.46602528548E+01  0.33333883483E+02  0.00000000000E+00 0. -1.
         21    1    1    2  502  501 -0.87132435610E+01 -0.42508360652E+02 -0.61133881167E+02  0.74968211698E+02  0.00000000000E+00 0. -1.
<scales pt_clust_5="13000.00000" pt_clust_6="13000.00000" pt_clust_7="13000.00000" pt_clust_8="13000.00000" pt_clust_9="43.39218"></scales>
<clustering>
<clus scale="   43.392">  2  9  1 -1</clus>
<clus scale="   80.793">  5  6 -1 -1</clus>
<clus scale="   85.914">  2  5  1 -1</clus>
<clus scale="   89.412">  7  8 -1 -1</clus>
<clus scale="   43.392">  2  5  1 -1</clus>
</clustering>
</event>
<event>
 9    1  0.2374319E-005  0.9606944E+02  0.7546771E-02  0.1300294E+00
          1   -1    0    0  502    0  0.00000000000E+00  0.00000000000E+00  0.16723270903E+03  0.16723270903E+03  0.00000000000E+00 0. -1.
         -2   -1    0    0    0  501 -0.00000000000E+00 -0.00000000000E+00 -0.34538978736E+03  0.34538978736E+03  0.00000000000E+00 0.  1.
        -24    2    1    2    0    0  0.13316147976E+02  0.75257781067E+01 -0.28515991819E+03  0.29563971860E+03  0.76502987789E+02 0.  0.
         23    2    1    2    0    0  0.10867525277E+02  0.62642551002E+02  0.67423916045E+02  0.13287014097E+03  0.95217107734E+02 0.  0.
         11    1    3    3    0    0  0.41733567597E+02  0.12812849353E+02 -0.11432560348E+03  0.12237729930E+03  0.00000000000E+00 0. -1.
        -12    1    3    3    0    0 -0.28417419622E+02 -0.52870712466E+01 -0.17083431471E+03  0.17326241930E+03  0.00000000000E+00 0.  1.
        -11    1    4    4    0    0 -0.24263708149E+02 -0.13649080055E+02  0.51519807973E+01  0.28311973185E+02  0.00000000000E+00 0. -1.
         11    1    4    4    0    0  0.35131233426E+02  0.76291631057E+02  0.62271935247E+02  0.10455816779E+03  0.00000000000E+00 0.  1.
         21    1    1    2  502  501 -0.24183673253E+02 -0.70168329109E+02  0.39578923821E+02  0.84112636820E+02  0.00000000000E+00 0. -1.
<scales pt_clust_5="13000.00000" pt_clust_6="13000.00000" pt_clust_7="13000.00000" pt_clust_8="13000.00000" pt_clust_9="74.21890"></scales>
<clustering>
<clus scale="   74.219">  1  9  2 -1</clus>
<clus scale="   76.503">  5  6 -1 -1</clus>
<clus scale="   77.561">  2  5  1 -1</clus>
<clus scale="   95.217">  7  8 -1 -1</clus>
<clus scale="   74.219">  1  5  2 -1</clus>
</clustering>
</event>
<event>
 9    1  0.2374319E-005  0.9659481E+02  0.7546771E-02  0.1291188E+00
          1   -1    0    0  502    0  0.00000000000E+00  0.00000000000E+00  0.21852966942E+03  0.21852966942E+03  0.00000000000E+00 0. -1.
         -2   -1    0    0    0  501 -0.00000000000E+00 -0.00000000000E+00 -0.23602920353E+03  0.23602920353E+03  0.00000000000E+00 0.  1.
         23    2    1    2    0    0  0.40585977718E+02 -0.56779239171E+01 -0.21010653676E+03  0.23158418376E+03  0.88357325513E+02 0.  0.
        -24    2    1    2    0    0 -0.15010708386E+02 -0.89300717664E+00  0.12098808411E+03  0.14664290663E+03  0.81485622904E+02 0.  0.
         13    1    4    4    0    0 -0.37911430184E+02 -0.19844715404E+02  0.33809953334E+02  0.54536246777E+02  0.00000000000E+00 0. -1.
        -14    1    4    4    0    0  0.22900721798E+02  0.18951708228E+02  0.87178130777E+02  0.92106659854E+02  0.00000000000E+00 0.  1.
        -11    1    3    3    0    0  0.67929290582E+02 -0.11169925217E+02 -0.13664127456E+03  0.15300324723E+03  0.00000000000E+00 0.  1.
         11    1    3    3    0    0 -0.27343312864E+02  0.54920013001E+01 -0.73465262191E+02  0.78580936527E+02  0.00000000000E+00 0. -1.
         21    1    1    2  502  501 -0.25575269333E+02  0.65709310937E+01  0.71618918531E+02  0.76331782557E+02  0.00000000000E+00 0. -1.
<scales pt_clust_5="13000.00000" pt_clust_6="13000.00000" pt_clust_7="13000.00000" pt_clust_8="13000.00000" pt_clust_9="26.40590"></scales>
<clustering>
<clus scale="   26.406">  1  9  2 -1</clus>
<clus scale="   81.486">  5  6 -1 -1</clus>
<clus scale="   88.357">  7  8 -1 -1</clus>
<clus scale="   90.352">  1  5  2 -1</clus>
<clus scale="   26.406">  1  5  2 -1</clus>
</clustering>
</event>
<event>
 9    1  0.2374319E-005  0.1073569E+03  0.7546771E-02  0.1269740E+00
          3   -1    0    0  502    0  0.00000000000E+00  0.00000000000E+00  0.37570710395E+03  0.37570710395E+03  0.00000000000E+00 0. -1.
         -4   -1    0    0    0  501 -0.00000000000E+00 -0.00000000000E+00 -0.81978314055E+02  0.81978314055E+02  0.00000000000E+00 0.  1.
        -24    2    1    2    0    0 -0.60314733228E+02 -0.14969722038E+02 -0.28760067395E+02  0.10611169313E+03  0.81059177895E+02 0.  0.
         23    2    1    2    0    0  0.17079480321E+02  0.17135595845E+02  0.24942858164E+03  0.26665151352E+03  0.91121210640E+02 0.  0.
         11    1    3    3    0    0 -0.69676025878E+02 -0.34483645708E+02 -0.11838206552E+02  0.78638499082E+02  0.00000000000E+00 0. -1.
        -12    1    3    3    0    0  0.93612926498E+01  0.19513923670E+02 -0.16921860843E+02  0.27473194053E+02  0.00000000000E+00 0.  1.
        -13    1    4    4    0    0 -0.37710701990E+02  0.44979333859E+01  0.10568707260E+03  0.11230354297E+03  0.00000000000E+00 0.  1.
         13    1    4    4    0    0  0.54790182310E+02  0.12637662459E+02  0.14374150904E+03  0.15434797055E+03  0.00000000000E+00 0. -1.
         21    1    1    2  502  501  0.43235252907E+02 -0.21658738069E+01  0.73060275644E+02  0.84922211349E+02  0.00000000000E+00 0.  1.
<scales pt_clust_5="13000.00000" pt_clust_6="13000.00000" pt_clust_7="13000.00000" pt_clust_8="13000.00000" pt_clust_9="43.28947"></scales>
<clustering>
<clus scale="   43.289">  1  9  2 -1</clus>
<clus scale="   81.059">  5  6 -1 -1</clus>
<clus scale="   91.121">  7  8 -1 -1</clus>
<clus scale="   98.960">  2  5  1 -1</clus>
<clus scale="   43.289">  1  5  2 -1</clus>
</clustering>
</event>
<event>
 9    1  0.2374319E-005  0.1733690E+03  0.7546771E-02  0.1201054E+00
         -2   -1    0    0    0  501 -0.00000000000E+00  0.00000000000E+00  0.34590034701E+02  0.34590034701E+02  0.00000000000E+00 0.  1.
          1   -1    0    0  502    0  0.00000000000E+00 -0.00000000000E+00 -0.17088990523E+04  0.17088990523E+04  0.00000000000E+00 0. -1.
        -24    2    1    2    0    0  0.12341285059E+03 -0.84212651013E+02 -0.30827552046E+03  0.35048895795E+03  0.74068960089E+02 0.  0.
         23    2    1    2    0    0  0.13923416612E+02 -0.27068601535E+02 -0.49580289949E+03  0.50499896883E+03  0.90977319506E+02 0.  0.
         11    1    3    3    0    0  0.10195481238E+03 -0.32513032841E+02 -0.23552081306E+03  0.25869274140E+03  0.00000000000E+00 0. -1.
        -12    1    3    3    0    0  0.21458038212E+02 -0.51699618172E+02 -0.72754707399E+02  0.91796216544E+02  0.00000000000E+00 0.  1.
        -13    1    4    4    0    0 -0.28895777113E+02 -0.41607972031E+02 -0.27060916041E+03  0.27530983813E+03  0.00000000000E+00 0. -1.
         13    1    4    4    0    0  0.42819193725E+02  0.14539370495E+02 -0.22519373907E+03  0.22968913070E+03  0.00000000000E+00 0.  1.
         21    1    1    2  502  501 -0.13733626720E+03  0.11128125255E+03 -0.87023059762E+03  0.88800116018E+03  0.00000000000E+00 0.  1.
<scales pt_clust_5="13000.00000" pt_clust_6="13000.00000" pt_clust_7="13000.00000" pt_clust_8="13000.00000" pt_clust_9="156.75012"></scales>
<clustering>
<clus scale="   74.069">  5  6 -1 -1</clus>
<clus scale="   90.977">  7  8 -1 -1</clus>
<clus scale="   95.935">  2  7  1 -1</clus>
<clus scale="  156.750">  2  9  1 -1</clus>
<clus scale="   95.935">  2  5  1 -1</clus>
</clustering>
</event>
<event>
 9    1  0.2374319E-005  0.9640977E+02  0.7546771E-02  0.1295112E+00
          1   -1    0    0  502    0  0.00000000000E+00  0.00000000000E+00  0.63659897631E+03  0.63659897631E+03  0.00000000000E+00 0. -1.
         -2   -1    0    0    0  501 -0.00000000000E+00 -0.00000000000E+00 -0.87042965766E+02  0.87042965766E+02  0.00000000000E+00 0.  1.
        -24    2    1    2    0    0 -0.22919065019E+02 -0.25347841561E+02 -0.49511295266E+02  0.99671373888E+02  0.79468344645E+02 0.  0.
         23    2    1    2    0    0 -0.68879723140E+01 -0.15083533558E+02  0.18946915953E+03  0.21130387823E+03  0.92064159112E+02 0.  0.
         13    1    3    3    0    0  0.64528650696E+01  0.25885887906E+02 -0.94183816333E+01  0.28291775711E+02  0.00000000000E+00 0. -1.
        -14    1    3    3    0    0 -0.29371930088E+02 -0.51233729467E+02 -0.40092913633E+02  0.71379598176E+02  0.00000000000E+00 0.  1.
        -11    1    4    4    0    0 -0.45179380993E+02  0.98244834022E+01  0.75647518678E+02  0.88658017253E+02  0.00000000000E+00 0.  1.
         11    1    4    4    0    0  0.38291408679E+02 -0.24908016960E+02  0.11382164085E+03  0.12264586097E+03  0.00000000000E+00 0. -1.
         21    1    1    2  502  501  0.29807037333E+02  0.40431375118E+02  0.40959814628E+03  0.41266668997E+03  0.00000000000E+00 0. -1.
<scales pt_clust_5="13000.00000" pt_clust_6="13000.00000" pt_clust_7="13000.00000" pt_clust_8="13000.00000" pt_clust_9="50.23102"></scales>
<clustering>
<clus scale="   50.231">  1  9  2 -1</clus>
<clus scale="   79.468">  5  6 -1 -1</clus>
<clus scale="   84.465">  2  5  1 -1</clus>
<clus scale="   92.064">  7  8 -1 -1</clus>
<clus scale="   50.231">  1  5  2 -1</clus>
</clustering>
</event>
<event>
 9    1  0.2374319E-005  0.1768833E+03  0.7546771E-02  0.1171478E+00
          1   -1    0    0  502    0  0.00000000000E+00  0.00000000000E+00  0.80327708813E+03  0.80327708813E+03  0.00000000000E+00 0. -1.
         -2   -1    0    0    0  501 -0.00000000000E+00 -0.00000000000E+00 -0.87897531417E+02  0.87897531417E+02  0.00000000000E+00 0.  1.
        -24    2    1    2    0    0  0.10835396968E+03  0.23063729589E+01  0.28302117876E+02  0.13945430111E+03  0.83069790655E+02 0.  0.
         23    2    1    2    0    0 -0.15421878012E+03  0.63192338895E+02  0.61775688213E+03  0.64589498275E+03  0.88204645487E+02 0.  0.
         13    1    3    3    0    0  0.24484368267E+02 -0.20505472821E+01 -0.28830984601E+02  0.37880268039E+02  0.00000000000E+00 0. -1.
        -14    1    3    3    0    0  0.83869601414E+02  0.43569202410E+01  0.57133102478E+02  0.10157403307E+03  0.00000000000E+00 0.  1.
        -11    1    4    4    0    0 -0.65953639469E+02  0.72853445217E+02  0.28368083404E+03  0.30022045673E+03  0.00000000000E+00 0. -1.
         11    1    4    4    0    0 -0.88265140653E+02 -0.96611063227E+01  0.33407604809E+03  0.34567452602E+03  0.00000000000E+00 0.  1.
         21    1    1    2  502  501  0.45864810440E+02 -0.65498711854E+02  0.69320556705E+02  0.10582533569E+03  0.00000000000E+00 0.  1.
<scales pt_clust_5="13000.00000" pt_clust_6="13000.00000" pt_clust_7="13000.00000" pt_clust_8="13000.00000" pt_clust_9="79.96038"></scales>
<clustering>
<clus scale="   79.960">  2  9  1 -1</clus>
<clus scale="   83.070">  5  6 -1 -1</clus>
<clus scale="   88.205">  7  8 -1 -1</clus>
<clus scale="  174.380">  2  5  1 -1</clus>
<clus scale="  176.883">  1  5  2 -1</clus>
</clustering>
</event>
<event>
 9    1  0.2374319E-005  0.9337524E+02  0.7546771E-02  0.1301282E+00
         -2   -1    0    0    0  501 -0.00000000000E+00  0.00000000000E+00  0.12824497203E+03  0.12824497203E+03  0.00000000000E+00 0.  1.
          1   -1    0    0  502    0  0.00000000000E+00 -0.00000000000E+00 -0.28741115580E+03  0.28741115580E+03  0.00000000000E+00 0. -1.
        -24    2    1    2    0    0  0.17896392164E+02 -0.75871990166E+01  0.98558798721E+02  0.12901695485E+03  0.80954872570E+02 0.  0.
         23    2    1    2    0    0  0.90334748064E+01  0.21009196577E+02 -0.17933856478E+03  0.20267609635E+03  0.91609438426E+02 0.  0.
         13    1    3    3    0    0  0.41091678367E+02 -0.29081210994E+01  0.17822573685E+02  0.44884600166E+02  0.00000000000E+00 0. -1.
        -14    1    3    3    0    0 -0.23195286203E+02 -0.46790779172E+01  0.80736225035E+02  0.84132354687E+02  0.00000000000E+00 0.  1.
        -11    1    4    4    0    0 -0.22429017974E+02  0.47627739833E+02 -0.11144004078E+03  0.12324911820E+03  0.00000000000E+00 0. -1.
         11    1    4    4    0    0  0.31462492781E+02 -0.26618543255E+02 -0.67898523997E+02  0.79426978150E+02  0.00000000000E+00 0.  1.
         21    1    1    2  502  501 -0.26929866970E+02 -0.13421997561E+02 -0.78386417719E+02  0.83963076625E+02  0.00000000000E+00 0. -1.
<scales pt_clust_5="13000.00000" pt_clust_6="13000.00000" pt_clust_7="13000.00000" pt_clust_8="13000.00000" pt_clust_9="30.08933"></scales>
<clustering>
<clus scale="   30.089">  2  9  1 -1</clus>
<clus scale="   80.955">  5  6 -1 -1</clus>
<clus scale="   82.948">  1  5  2 -1</clus>
<clus scale="   91.609">  7  8 -1 -1</clus>
<clus scale="   30.089">  2  5  1 -1</clus>
</clustering>
</event>
<event>
 9    1  0.2374319E-005  0.1269258E+03  0.7546771E-02  0.1235608E+00
          1   -1    0    0  502    0  0.00000000000E+00  0.00000000000E+00  0.51582911750E+03  0.51582911750E+03  0.00000000000E+00 0. -1.
         -2   -1    0    0    0  501 -0.00000000000E+00 -0.00000000000E+00 -0.31251934105E+03  0.31251934105E+03  0.00000000000E+00 0.  1.
         23    2    1    2    0    0 -0.72219272217E+02 -0.57003468523E+02 -0.28371141485E+03  0.31156636107E+03  0.90091130137E+02 0.  0.
        -24    2    1    2    0    0  0.27190863821E+02 -0.16341290486E+01  0.36545292409E+03  0.37449798380E+03  0.77141990435E+02 0.  0.
         11    1    4    4    0    0  0.29447689771E+01  0.24483485325E+02  0.39247397760E+02  0.46351601363E+02  0.00000000000E+00 0. -1.
        -12    1    4    4    0    0  0.24246094844E+02 -0.26117614373E+02  0.32620552633E+03  0.32814638243E+03  0.00000000000E+00 0.  1.
        -11    1    3    3    0    0 -0.35199009929E+02 -0.40370592919E+02 -0.25804809237E+03  0.26354804694E+03  0.00000000000E+00 0.  1.
         11    1    3    3    0    0 -0.37020262288E+02 -0.16632875604E+02 -0.25663322486E+02  0.48018314129E+02  0.00000000000E+00 0. -1.
         21    1    1    2  502  501  0.45028408396E+02  0.58637597572E+02  0.12156826721E+03  0.14228411368E+03  0.00000000000E+00 0. -1.
<scales pt_clust_5="13000.00000" pt_clust_6="13000.00000" pt_clust_7="13000.00000" pt_clust_8="13000.00000" pt_clust_9="73.93190"></scales>
<clustering>
<clus scale="   73.932">  1  9  2 -1</clus>
<clus scale="   77.142">  5  6 -1 -1</clus>
<clus scale="   90.091">  7  8 -1 -1</clus>
<clus scale="  118.087">  1  5  2 -1</clus>
<clus scale="   73.932">  1  5  2 -1</clus>
</clustering>
</event>
<event>
 9    1  0.2374319E-005  0.9830961E+02  0.7546771E-02  0.1290562E+00
          1   -1    0    0  502    0  0.00000000000E+00  0.00000000000E+00  0.31428861776E+03  0.31428861776E+03  0.00000000000E+00 0. -1.
         -2   -1    0    0    0  501 -0.00000000000E+00 -0.00000000000E+00 -0.10462291290E+03  0.10462291290E+03  0.00000000000E+00 0.  1.
        -24    2    1    2    0    0 -0.17633518088E+02  0.60428468005E+02 -0.19462195323E+02  0.10414171894E+03  0.80648495779E+02 0.  0.
         23    2    1    2    0    0 -0.33001776762E+02  0.23838054335E+02  0.52492223679E+02  0.11261902126E+03  0.90940861544E+02 0.  0.
         11    1    3    3    0    0 -0.37497397891E+02  0.92220064679E+01  0.12508472295E+02  0.40590172838E+02  0.00000000000E+00 0. -1.
        -12    1    3    3    0    0  0.19863879803E+02  0.51206461537E+02 -0.31970667618E+02  0.63551546102E+02  0.00000000000E+00 0.  1.
        -13    1    4    4    0    0  0.29209850581E+02  0.34569957389E+01  0.11740701385E+01  0.29437130145E+02  0.00000000000E+00 0. -1.
         13    1    4    4    0    0 -0.62211627343E+02  0.20381058596E+02  0.51318153541E+02  0.83181891112E+02  0.00000000000E+00 0.  1.
         21    1    1    2  502  501  0.50635294850E+02 -0.84266522340E+02  0.17663567651E+03  0.20215079047E+03  0.00000000000E+00 0. -1.
<scales pt_clust_5="13000.00000" pt_clust_6="13000.00000" pt_clust_7="13000.00000" pt_clust_8="13000.00000" pt_clust_9="98.30961"></scales>
<clustering>
<clus scale="   80.648">  5  6 -1 -1</clus>
<clus scale="   90.941">  7  8 -1 -1</clus>
<clus scale="   98.310">  1  9  2 -1</clus>
<clus scale="   86.716">  2  5  1 -1</clus>
<clus scale="   98.310">  1  5  2 -1</clus>
</clustering>
</event>
<event>
 9    1  0.2374319E-005  0.1196358E+03  0.7546771E-02  0.1247360E+00
         -2   -1    0    0    0  501 -0.00000000000E+00  0.00000000000E+00  0.58538557259E+03  0.58538557259E+03  0.00000000000E+00 0.  1.
          1   -1    0    0  502    0  0.00000000000E+00 -0.00000000000E+00 -0.36127663301E+02  0.36127663301E+02  0.00000000000E+00 0. -1.
        -24    2    1    2    0    0  0.80011307165E+02 -0.17570160548E+02  0.41054241364E+03  0.42654062635E+03  0.81739297229E+02 0.  0.
         23    2    1    2    0    0 -0.53838851501E+02  0.12217753735E+02  0.95991977335E+02  0.14458466742E+03  0.92964352865E+02 0.  0.
         13    1    3    3    0    0  0.94407493379E+02 -0.22709272600E+01  0.34667669066E+03  0.35930858571E+03  0.00000000000E+00 0. -1.
        -14    1    3    3    0    0 -0.14396186214E+02 -0.15299233288E+02  0.63865722979E+02  0.67232040638E+02  0.00000000000E+00 0.  1.
        -11    1    4    4    0    0 -0.59575142910E+02  0.45003162673E+02  0.62529364772E+02  0.97387903572E+02  0.00000000000E+00 0.  1.
         11    1    4    4    0    0  0.57362914093E+01 -0.32785408938E+02  0.33462612563E+02  0.47196763850E+02  0.00000000000E+00 0. -1.
         21    1    1    2  502  501 -0.26172455664E+02  0.53524068126E+01  0.42723518316E+02  0.50387942124E+02  0.00000000000E+00 0.  1.
<scales pt_clust_5="13000.00000" pt_clust_6="13000.00000" pt_clust_7="13000.00000" pt_clust_8="13000.00000" pt_clust_9="26.71415"></scales>
<clustering>
<clus scale="   26.714">  2  9  1 -1</clus>
<clus scale="   81.739">  5  6 -1 -1</clus>
<clus scale="   92.964">  7  8 -1 -1</clus>
<clus scale="  111.138">  1  5  2 -1</clus>
<clus scale="   26.714">  2  5  1 -1</clus>
</clustering>
</event>
<event>
 9    1  0.2374319E-005  0.1090244E+03  0.7546771E-02  0.1267175E+00
         -2   -1    0    0    0  501 -0.00000000000E+00  0.00000000000E+00  0.21883173905E+02  0.21883173905E+02  0.00000000000E+00 0.  1.
          1   -1    0    0  502    0  0.00000000000E+00 -0.00000000000E+00 -0.68762032846E+03  0.68762032846E+03  0.00000000000E+00 0. -1.
        -24    2    1    2    0    0 -0.43571361600E+02 -0.48397647554E+02 -0.18319343898E+03  0.21072184731E+03  0.81259245662E+02 0.  0.
         23    2    1    2    0    0  0.29274746576E+02  0.28274645415E+02 -0.39698848518E+03  0.40973657735E+03  0.92885623719E+02 0.  0.
         11    1    3    3    0    0 -0.13761414008E+00 -0.58839216213E+02 -0.11538782511E+03  0.12952382980E+03  0.00000000000E+00 0. -1.
        -12    1    3    3    0    0 -0.43433747460E+02  0.10441568659E+02 -0.67805613869E+02  0.81198017504E+02  0.00000000000E+00 0.  1.
        -11    1    4    4    0    0 -0.13655954318E+02 -0.25214633198E+02 -0.70249873447E+02  0.75876923600E+02  0.00000000000E+00 0.  1.
         11    1    4    4    0    0  0.42930700894E+02  0.53489278614E+02 -0.32673861173E+03  0.33385965375E+03  0.00000000000E+00 0. -1.
         21    1    1    2  502  501  0.14296615024E+02  0.20123002139E+02 -0.85555230403E+02  0.89045077716E+02  0.00000000000E+00 0. -1.
<scales pt_clust_5="13000.00000" pt_clust_6="13000.00000" pt_clust_7="13000.00000" pt_clust_8="13000.00000" pt_clust_9="24.68458"></scales>
<clustering>
<clus scale="   24.685">  2  9  1 -1</clus>
<clus scale="   81.259">  5  6 -1 -1</clus>
<clus scale="   92.886">  7  8 -1 -1</clus>
<clus scale="   99.306">  1  5  2 -1</clus>
<clus scale="   24.685">  2  5  1 -1</clus>
</clustering>
</event>
<event>
 9    1  0.2374319E-005  0.1241035E+03  0.7546771E-02  0.1239529E+00
         -2   -1    0    0    0  501 -0.00000000000E+00  0.00000000000E+00  0.20994221123E+03  0.20994221123E+03  0.00000000000E+00 0.  1.
          1   -1    0    0  502    0  0.00000000000E+00 -0.00000000000E+00 -0.13562478772E+03  0.13562478772E+03  0.00000000000E+00 0. -1.
         23    2    1    2    0    0 -0.60833015117E+02  0.32464401463E+02  0.10242489406E+03  0.15377893899E+03  0.91665206398E+02 0.  0.
        -24    2    1    2    0    0  0.81975613575E+02 -0.94966524600E+01  0.22462931206E+02  0.13235833257E+03  0.10101463901E+03 0.  0.
         11    1    4    4    0    0  0.68778899155E+02 -0.50740209455E+02  0.48416728589E+01  0.85606936755E+02  0.00000000000E+00 0. -1.
        -12    1    4    4    0    0  0.13196714420E+02  0.41243556995E+02  0.17621258347E+02  0.46751395817E+02  0.00000000000E+00 0.  1.
        -13    1    3    3    0    0 -0.68956262056E+02  0.51693854034E+02  0.55730693631E+02  0.10263104225E+03  0.00000000000E+00 0. -1.
         13    1    3    3    0    0  0.81232469392E+01 -0.19229452571E+02  0.46694200431E+02  0.51147896739E+02  0.00000000000E+00 0.  1.
         21    1    1    2  502  501 -0.21142598458E+02 -0.22967749003E+02 -0.50570401751E+02  0.59429727385E+02  0.00000000000E+00 0.  1.
<scales pt_clust_5="13000.00000" pt_clust_6="13000.00000" pt_clust_7="13000.00000" pt_clust_8="13000.00000" pt_clust_9="31.21741"></scales>
<clustering>
<clus scale="   31.217">  2  9  1 -1</clus>
<clus scale="   91.665">  7  8 -1 -1</clus>
<clus scale="  101.015">  5  6 -1 -1</clus>
<clus scale="  116.620">  1  7  2 -1</clus>
<clus scale="   31.217">  2  5  1 -1</clus>
</clustering>
</event>
<event>
 9    1  0.2374319E-005  0.9082066E+02  0.7546771E-02  0.1306585E+00
          3   -1    0    0  502    0  0.00000000000E+00  0.00000000000E+00  0.14343012542E+03  0.14343012542E+03  0.00000000000E+00 0. -1.
         -4   -1    0    0    0  501 -0.00000000000E+00 -0.00000000000E+00 -0.12612264827E+03  0.12612264827E+03  0.00000000000E+00 0.  1.
        -24    2    1    2    0    0 -0.87818592228E+01  0.11246017689E+02 -0.80252150528E+02  0.11441169580E+03  0.80287200143E+02 0.  0.
         23    2    1    2    0    0  0.29928029476E+02 -0.22248579108E+01  0.62381476850E+02  0.11311674999E+03  0.89461240392E+02 0.  0.
         11    1    3    3    0    0 -0.43861943216E+01  0.30878688469E+02  0.49838152746E+00  0.31192635130E+02  0.00000000000E+00 0. -1.
        -12    1    3    3    0    0 -0.43956649012E+01 -0.19632670780E+02 -0.80750532056E+02  0.83219060672E+02  0.00000000000E+00 0.  1.
        -13    1    4    4    0    0  0.59813538910E+02  0.97316611586E+01  0.50229844408E+02  0.78710875584E+02  0.00000000000E+00 0. -1.
         13    1    4    4    0    0 -0.29885509435E+02 -0.11956519069E+02  0.12151632442E+02  0.34405874403E+02  0.00000000000E+00 0.  1.
         21    1    1    2  502  501 -0.21146170253E+02 -0.90211597781E+01  0.35178150828E+02  0.42024327904E+02  0.00000000000E+00 0. -1.
<scales pt_clust_5="13000.00000" pt_clust_6="13000.00000" pt_clust_7="13000.00000" pt_clust_8="13000.00000" pt_clust_9="22.99004"></scales>
<clustering>
<clus scale="   22.990">  1  9  2 -1</clus>
<clus scale="   80.287">  5  6 -1 -1</clus>
<clus scale="   81.799">  2  5  1 -1</clus>
<clus scale="   89.461">  7  8 -1 -1</clus>
<clus scale="   22.990">  1  5  2 -1</clus>
</clustering>
</event>
<event>
 9    1  0.2374319E-005  0.3157757E+03  0.7546771E-02  0.1077997E+00
         -2   -1    0    0    0  501 -0.00000000000E+00  0.00000000000E+00  0.90258458232E+02  0.90258458232E+02  0.00000000000E+00 0.  1.
          1   -1    0    0  502    0  0.00000000000E+00 -0.00000000000E+00 -0.22504411070E+04  0.22504411070E+04  0.00000000000E+00 0. -1.
        -24    2    1    2    0    0  0.16605753727E+03 -0.23788658353E+03 -0.28466327234E+03  0.41410049096E+03  0.79252165191E+02 0.  0.
         23    2    1    2    0    0 -0.18317211251E+03  0.30716018881E+03 -0.15485505212E+04  0.15919345058E+04  0.91363831922E+02 0.  0.
         11    1    3    3    0    0  0.51671507038E+02 -0.14002077053E+03 -0.12525257041E+03  0.19484344283E+03  0.00000000000E+00 0. -1.
        -12    1    3    3    0    0  0.11438603023E+03 -0.97865813006E+02 -0.15941070193E+03  0.21925704813E+03  0.00000000000E+00 0.  1.
        -11    1    4    4    0    0 -0.36552298988E+02  0.10482287249E+03 -0.64432788259E+03  0.65382132532E+03  0.00000000000E+00 0. -1.
         11    1    4    4    0    0 -0.14661981352E+03  0.20233731632E+03 -0.90422263861E+03  0.93811318052E+03  0.00000000000E+00 0.  1.
         21    1    1    2  502  501  0.17114575240E+02 -0.69273605277E+02 -0.32696885518E+03  0.33466456839E+03  0.00000000000E+00 0. -1.
<scales pt_clust_5="13000.00000" pt_clust_6="13000.00000" pt_clust_7="13000.00000" pt_clust_8="13000.00000" pt_clust_9="71.35644"></scales>
<clustering>
<clus scale="   71.356">  2  9  1 -1</clus>
<clus scale="   79.252">  5  6 -1 -1</clus>
<clus scale="   91.364">  7  8 -1 -1</clus>
<clus scale="  312.487">  1  5  2 -1</clus>
<clus scale="   71.356">  2  5  1 -1</clus>
</clustering>
</event>
<event>
 9    1  0.2374319E-005  0.1386025E+03  0.7546771E-02  0.1218105E+00
          1   -1    0    0  502    0  0.00000000000E+00  0.00000000000E+00  0.18023297346E+03  0.18023297346E+03  0.00000000000E+00 0. -1.
         -2   -1    0    0    0  501 -0.00000000000E+00 -0.00000000000E+00 -0.13844272003E+03  0.13844272003E+03  0.00000000000E+00 0.  1.
        -24    2    1    2    0    0  0.31898668755E+02  0.10476550545E+03 -0.36637611477E+02  0.14080458317E+03  0.80562273227E+02 0.  0.
         23    2    1    2    0    0 -0.17823262277E+02 -0.88992865588E+02  0.43779764826E+02  0.13728313087E+03  0.93234067860E+02 0.  0.
         13    1    3    3    0    0 -0.14780865864E+02  0.68726040436E+02  0.19574788133E+01  0.70324777661E+02  0.00000000000E+00 0. -1.
        -14    1    3    3    0    0  0.46679534619E+02  0.36039465014E+02 -0.38595090290E+02  0.70479805513E+02  0.00000000000E+00 0.  1.
        -11    1    4    4    0    0  0.19907776271E+02  0.99173550204E+01 -0.11720959284E+01  0.22272119242E+02  0.00000000000E+00 0.  1.
         11    1    4    4    0    0 -0.37731038548E+02 -0.98910220608E+02  0.44951860754E+02  0.11501101163E+03  0.00000000000E+00 0. -1.
         21    1    1    2  502  501 -0.14075406478E+02 -0.15772639863E+02  0.34648100087E+02  0.40587979444E+02  0.00000000000E+00 0. -1.
<scales pt_clust_5="13000.00000" pt_clust_6="13000.00000" pt_clust_7="13000.00000" pt_clust_8="13000.00000" pt_clust_9="21.13985"></scales>
<clustering>
<clus scale="   21.140">  1  9  2 -1</clus>
<clus scale="   80.562">  5  6 -1 -1</clus>
<clus scale="   93.234">  7  8 -1 -1</clus>
<clus scale="  130.416">  2  5  1 -1</clus>
<clus scale="   21.140">  1  5  2 -1</clus>
</clustering>
</event>
<event>
 9    1  0.2374319E-005  0.1406514E+03  0.7546771E-02  0.1219599E+00
          1   -1    0    0  502    0  0.00000000000E+00  0.00000000000E+00  0.57349228867E+03  0.57349228867E+03  0.00000000000E+00 0. -1.
         -2   -1    0    0    0  501 -0.00000000000E+00 -0.00000000000E+00 -0.12139346611E+03  0.12139346611E+03  0.00000000000E+00 0.  1.
        -24    2    1    2    0    0  0.26662372062E+02 -0.88452287357E+02 -0.60358964209E+02  0.13653842453E+03  0.80404275936E+02 0.  0.
         23    2    1    2    0    0 -0.83320046243E+02  0.50137617152E+02  0.27161314966E+03  0.30797911098E+03  0.10780268538E+03 0.  0.
         11    1    3    3    0    0  0.27062506083E+02 -0.27236038599E+02  0.13416638492E+02  0.40671700512E+02  0.00000000000E+00 0. -1.
        -12    1    3    3    0    0 -0.40013402089E+00 -0.61216248758E+02 -0.73775602701E+02  0.95866724014E+02  0.00000000000E+00 0.  1.
        -11    1    4    4    0    0 -0.47865735604E+01  0.64998137759E+02  0.12708063587E+03  0.14281861647E+03  0.00000000000E+00 0.  1.
         11    1    4    4    0    0 -0.78533472682E+02 -0.14860520607E+02  0.14453251379E+03  0.16516049451E+03  0.00000000000E+00 0. -1.
         21    1    1    2  502  501  0.56657674181E+02  0.38314670205E+02  0.24084463710E+03  0.25036821927E+03  0.00000000000E+00 0.  1.
<scales pt_clust_5="13000.00000" pt_clust_6="13000.00000" pt_clust_7="13000.00000" pt_clust_8="13000.00000" pt_clust_9="68.39668"></scales>
<clustering>
<clus scale="   68.397">  1  9  2 -1</clus>
<clus scale="   80.404">  5  6 -1 -1</clus>
<clus scale="  107.803">  7  8 -1 -1</clus>
<clus scale="  120.939">  2  5  1 -1</clus>
<clus scale="   68.397">  1  5  2 -1</clus>
</clustering>
</event>
<event>
 9    1  0.2374319E-005  0.9541625E+02  0.7546771E-02  0.1297939E+00
         -2   -1    0    0    0  501 -0.00000000000E+00  0.00000000000E+00  0.18602680594E+03  0.18602680594E+03  0.00000000000E+00 0.  1.
          1   -1    0    0  502    0  0.00000000000E+00 -0.00000000000E+00 -0.99812045407E+02  0.99812045407E+02  0.00000000000E+00 0. -1.
         23    2    1    2    0    0  0.26079356204E+02  0.16294377626E+02  0.13327308419E+03  0.16432059108E+03  0.91070863191E+02 0.  0.
        -24    2    1    2    0    0 -0.24652406012E+01 -0.27003995500E+02 -0.48648890456E+02  0.95540341305E+02  0.77626986865E+02 0.  0.
         13    1    4    4    0    0 -0.17613227102E+02 -0.50149688791E+02 -0.23355096366E+02  0.58057536815E+02  0.00000000000E+00 0. -1.
        -14    1    4    4    0    0  0.15147986500E+02  0.23145693291E+02 -0.25293794090E+02  0.37482804489E+02  0.00000000000E+00 0.  1.
        -13    1    3    3    0    0 -0.93477322640E+01  0.25036963109E+02  0.12375775896E+03  0.12661047556E+03  0.00000000000E+00 0.  1.
         13    1    3    3    0    0  0.35427088468E+02 -0.87425854830E+01  0.95153252321E+01  0.37710115520E+02  0.00000000000E+00 0. -1.
         21    1    1    2  502  501 -0.23614115603E+02  0.10709617875E+02  0.15905668002E+01  0.25977918960E+02  0.00000000000E+00 0. -1.
<scales pt_clust_5="13000.00000" pt_clust_6="13000.00000" pt_clust_7="13000.00000" pt_clust_8="13000.00000" pt_clust_9="25.92918"></scales>
<clustering>
<clus scale="   25.929">  2  9  1 -1</clus>
<clus scale="   77.627">  5  6 -1 -1</clus>
<clus scale="   82.682">  2  5  1 -1</clus>
<clus scale="   91.071">  7  8 -1 -1</clus>
<clus scale="   25.929">  2  5  1 -1</clus>
</clustering>
</event>
<event>
 9    1  0.2374319E-005  0.1067158E+03  0.7546771E-02  0.1274144E+00
          1   -1    0    0  502    0  0.00000000000E+00  0.00000000000E+00  0.12048923798E+03  0.12048923798E+03  0.00000000000E+00 0. -1.
         -2   -1    0    0    0  501 -0.00000000000E+00 -0.00000000000E+00 -0.12477819587E+03  0.12477819587E+03  0.00000000000E+00 0.  1.
        -24    2    1    2    0    0  0.52550729050E+01  0.29400995894E+02 -0.52225870170E+02  0.10068836999E+03  0.80737673887E+02 0.  0.
         23    2    1    2    0    0 -0.12107485605E+02 -0.50822117123E+02  0.52284982808E+02  0.12167217163E+03  0.96648430539E+02 0.  0.
         11    1    3    3    0    0 -0.11049206694E+02  0.53300953904E+02 -0.21614692479E+02  0.58568520441E+02  0.00000000000E+00 0. -1.
        -12    1    3    3    0    0  0.16304279599E+02 -0.23899958010E+02 -0.30611177690E+02  0.42119849545E+02  0.00000000000E+00 0.  1.
        -11    1    4    4    0    0  0.77937668025E+01 -0.74909295540E+02  0.22743696616E+02  0.78672873947E+02  0.00000000000E+00 0.  1.
         11    1    4    4    0    0 -0.19901252408E+02  0.24087178417E+02  0.29541286192E+02  0.42999297685E+02  0.00000000000E+00 0. -1.
         21    1    1    2  502  501  0.68524127005E+01  0.21421121229E+02 -0.43480705315E+01  0.22906892235E+02  0.00000000000E+00 0. -1.
<scales pt_clust_5="13000.00000" pt_clust_6="13000.00000" pt_clust_7="13000.00000" pt_clust_8="13000.00000" pt_clust_9="22.49044"></scales>
<clustering>
<clus scale="   22.490">  2  9  1 -1</clus>
<clus scale="   80.738">  5  6 -1 -1</clus>
<clus scale="   92.552">  2  5  1 -1</clus>
<clus scale="   96.648">  7  8 -1 -1</clus>
<clus scale="  106.716">  1  5  2 -1</clus>
</clustering>
</event>
<event>
 9    1  0.2374319E-005  0.8794912E+02  0.7546771E-02  0.1308469E+00
          1   -1    0    0  502    0  0.00000000000E+00  0.00000000000E+00  0.33200178689E+03  0.33200178689E+03  0.00000000000E+00 0. -1.
         -2   -1    0    0    0  501 -0.00000000000E+00 -0.00000000000E+00 -0.56259033076E+02  0.56259033076E+02  0.00000000000E+00 0.  1.
         23    2    1    2    0    0  0.37994389545E+02 -0.51505979422E+01  0.66661406680E+00  0.89819420690E+02  0.81221805340E+02 0.  0.
        -24    2    1    2    0    0 -0.16711826783E+02 -0.15207897324E+02  0.17029772782E+03  0.18960238324E+03  0.80232053022E+02 0.  0.
         13    1    4    4    0    0 -0.45957874310E+02 -0.16373713035E+02  0.71491213745E+02  0.86551824546E+02  0.00000000000E+00 0. -1.
        -14    1    4    4    0    0  0.29246047526E+02  0.11658157108E+01  0.98806514078E+02  0.10305055869E+03  0.00000000000E+00 0.  1.
        -11    1    3    3    0    0  0.19702600987E+02  0.37271205206E+02 -0.77408509892E+01  0.42863224298E+02  0.00000000000E+00 0.  1.
         11    1    3    3    0    0  0.18291788558E+02 -0.42421803148E+02  0.84074650560E+01  0.46956196392E+02  0.00000000000E+00 0. -1.
         21    1    1    2  502  501 -0.21282562761E+02  0.20358495267E+02  0.10477841192E+03  0.10883901604E+03  0.00000000000E+00 0. -1.
<scales pt_clust_5="13000.00000" pt_clust_6="13000.00000" pt_clust_7="13000.00000" pt_clust_8="13000.00000" pt_clust_9="29.45192"></scales>
<clustering>
<clus scale="   29.452">  1  9  2 -1</clus>
<clus scale="   80.232">  5  6 -1 -1</clus>
<clus scale="   81.222">  7  8 -1 -1</clus>
<clus scale="   87.036">  1  5  2 -1</clus>
<clus scale="   29.452">  1  5  2 -1</clus>
</clustering>
</event>
<event>
 9    1  0.2374319E-005  0.1120491E+03  0.7546771E-02  0.1260690E+00
          1   -1    0    0  502    0  0.00000000000E+00  0.00000000000E+00  0.26679570772E+03  0.26679570772E+03  0.00000000000E+00 0. -1.
         -2   -1    0    0    0  501 -0.00000000000E+00 -0.00000000000E+00 -0.11867686174E+03  0.11867686174E+03  0.00000000000E+00 0.  1.
        -24    2    1    2    0    0 -0.24071916809E+02  0.72086990204E+02  0.13474111231E+00  0.11099511202E+03  0.80894408969E+02 0.  0.
         23    2    1    2    0    0  0.90118238428E+02  0.66092617135E+01  0.79601452970E+02  0.15106188408E+03  0.91204836882E+02 0.  0.
         13    1    3    3    0    0 -0.80605850054E+00  0.79707877081E+02 -0.16492801222E+02  0.81400294172E+02  0.00000000000E+00 0. -1.
        -14    1    3    3    0    0 -0.23265858308E+02 -0.76208868776E+01  0.16627542334E+02  0.29594817852E+02  0.00000000000E+00 0.  1.
        -11    1    4    4    0    0  0.52557862629E+02  0.19197549637E+02 -0.64552906578E+01  0.56325354980E+02  0.00000000000E+00 0.  1.
         11    1    4    4    0    0  0.37560375799E+02 -0.12588287923E+02  0.86056743627E+02  0.94736529105E+02  0.00000000000E+00 0. -1.
         21    1    1    2  502  501 -0.66046321619E+02 -0.78696251917E+02  0.68382651901E+02  0.12341557335E+03  0.00000000000E+00 0.  1.
<scales pt_clust_5="13000.00000" pt_clust_6="13000.00000" pt_clust_7="13000.00000" pt_clust_8="13000.00000" pt_clust_9="102.73858"></scales>
<clustering>
<clus scale="   80.894">  5  6 -1 -1</clus>
<clus scale="   91.205">  7  8 -1 -1</clus>
<clus scale="  102.739">  1  9  2 -1</clus>
<clus scale="  103.830">  2  5  1 -1</clus>
<clus scale="  102.739">  1  5  2 -1</clus>
</clustering>
</event>
<event>
 9    1  0.2374319E-005  0.1778200E+03  0.7546771E-02  0.1190238E+00
          1   -1    0    0  502    0  0.00000000000E+00  0.00000000000E+00  0.31480710445E+03  0.31480710445E+03  0.00000000000E+00 0. -1.
         -2   -1    0    0    0  501 -0.00000000000E+00 -0.00000000000E+00 -0.31140339711E+03  0.31140339711E+03  0.00000000000E+00 0.  1.
        -24    2    1    2    0    0 -0.54138650477E+02  0.51472322342E+02 -0.94626599933E+02  0.14711990374E+03  0.84318913773E+02 0.  0.
         23    2    1    2    0    0  0.29088931640E+02 -0.19647856711E+03 -0.93455771737E+02  0.23759273470E+03  0.90919376560E+02 0.  0.
         13    1    3    3    0    0 -0.66118014332E+01  0.61636565152E+02 -0.38934887514E+02  0.73203193562E+02  0.00000000000E+00 0. -1.
        -14    1    3    3    0    0 -0.47526849044E+02 -0.10164242810E+02 -0.55691712419E+02  0.73916710181E+02  0.00000000000E+00 0.  1.
        -13    1    4    4    0    0  0.42424066739E+02 -0.11774537496E+03 -0.15700586738E+02  0.12613597103E+03  0.00000000000E+00 0.  1.
         13    1    4    4    0    0 -0.13335135099E+02 -0.78733192146E+02 -0.77755184999E+02  0.11145676367E+03  0.00000000000E+00 0. -1.
         21    1    1    2  502  501  0.25049718837E+02  0.14500624476E+03  0.19148607902E+03  0.24149786312E+03  0.00000000000E+00 0. -1.
<scales pt_clust_5="13000.00000" pt_clust_6="13000.00000" pt_clust_7="13000.00000" pt_clust_8="13000.00000" pt_clust_9="152.81886"></scales>
<clustering>
<clus scale="   84.319">  5  6 -1 -1</clus>
<clus scale="   90.919">  7  8 -1 -1</clus>
<clus scale="  112.650">  2  5  1 -1</clus>
<clus scale="  152.819">  1  9  2 -1</clus>
<clus scale="  152.819">  1  5  2 -1</clus>
</clustering>
</event>
<event>
 9    1  0.2374319E-005  0.1390093E+03  0.7546771E-02  0.1217093E+00
          3   -1    0    0  502    0  0.00000000000E+00  0.00000000000E+00  0.39154125564E+03  0.39154125564E+03  0.00000000000E+00 0. -1.
         -4   -1    0    0    0  501 -0.00000000000E+00 -0.00000000000E+00 -0.86536496063E+02  0.86536496063E+02  0.00000000000E+00 0.  1.
         23    2    1    2    0    0 -0.53104512171E+02  0.83630672591E+02  0.95976179480E+01  0.13589338065E+03  0.92524148326E+02 0.  0.
        -24    2    1    2    0    0  0.59407704618E+02 -0.10304201782E+03  0.21295679959E+03  0.25724563159E+03  0.81717707254E+02 0.  0.
         11    1    4    4    0    0  0.71861857080E+02 -0.50464662442E+02  0.10796596599E+03  0.13916701646E+03  0.00000000000E+00 0. -1.
        -12    1    4    4    0    0 -0.12454152462E+02 -0.52577355373E+02  0.10499083360E+03  0.11807861514E+03  0.00000000000E+00 0.  1.
        -11    1    3    3    0    0 -0.30725931019E+02  0.73476031420E+02  0.46000472283E+02  0.91972025532E+02  0.00000000000E+00 0. -1.
         11    1    3    3    0    0 -0.22378581152E+02  0.10154641171E+02 -0.36402854335E+02  0.43921355119E+02  0.00000000000E+00 0.  1.
         21    1    1    2  502  501 -0.63031924470E+01  0.19411345224E+02  0.82450342035E+02  0.84938739455E+02  0.00000000000E+00 0. -1.
<scales pt_clust_5="13000.00000" pt_clust_6="13000.00000" pt_clust_7="13000.00000" pt_clust_8="13000.00000" pt_clust_9="20.40908"></scales>
<clustering>
<clus scale="   20.409">  1  9  2 -1</clus>
<clus scale="   81.718">  5  6 -1 -1</clus>
<clus scale="   92.524">  7  8 -1 -1</clus>
<clus scale="  132.063">  1  5  2 -1</clus>
<clus scale="   20.409">  1  5  2 -1</clus>
</clustering>
</event>
<event>
 9    1  0.2374319E-005  0.1047653E+03  0.7546771E-02  0.1279722E+00
         -2   -1    0    0    0  501 -0.00000000000E+00  0.00000000000E+00  0.39175971925E+02  0.39175971925E+02  0.00000000000E+00 0.  1.
          1   -1    0    0  502    0  0.00000000000E+00 -0.00000000000E+00 -0.64292455839E+03  0.64292455839E+03  0.00000000000E+00 0. -1.
        -24    2    1    2    0    0  0.69889036717E+02 -0.13522504356E+01 -0.89966706687E+02  0.13633985810E+03  0.74888200408E+02 0.  0.
         23    2    1    2    0    0 -0.11030832225E+02  0.48870123894E+01 -0.15177971295E+03  0.17898778395E+03  0.94095607708E+02 0.  0.
         13    1    3    3    0    0 -0.58199236615E+01  0.22088128442E+02 -0.24970520131E+02  0.33842041976E+02  0.00000000000E+00 0. -1.
        -14    1    3    3    0    0  0.75708960379E+02 -0.23440378877E+02 -0.64996186556E+02  0.10249781612E+03  0.00000000000E+00 0.  1.
        -13    1    4    4    0    0  0.21392188395E+02 -0.33757503392E+02 -0.94841816994E+02  0.10291824430E+03  0.00000000000E+00 0.  1.
         13    1    4    4    0    0 -0.32423020619E+02  0.38644515781E+02 -0.56937895954E+02  0.76069539645E+02  0.00000000000E+00 0. -1.
         21    1    1    2  502  501 -0.58858204492E+02 -0.35347619538E+01 -0.36200216683E+03  0.36677288826E+03  0.00000000000E+00 0. -1.
<scales pt_clust_5="13000.00000" pt_clust_6="13000.00000" pt_clust_7="13000.00000" pt_clust_8="13000.00000" pt_clust_9="58.96425"></scales>
<clustering>
<clus scale="   58.964">  2  9  1 -1</clus>
<clus scale="   74.888">  5  6 -1 -1</clus>
<clus scale="   87.921">  1  5  2 -1</clus>
<clus scale="   94.096">  7  8 -1 -1</clus>
<clus scale="   58.964">  2  5  1 -1</clus>
</clustering>
</event>
<event>
 9    1  0.2374319E-005  0.9164767E+02  0.7546771E-02  0.1307662E+00
          3   -1    0    0  502    0  0.00000000000E+00  0.00000000000E+00  0.82419812330E+02  0.82419812330E+02  0.00000000000E+00 0. -1.
         -4   -1    0    0    0  501 -0.00000000000E+00 -0.00000000000E+00 -0.18717319978E+03  0.18717319978E+03  0.00000000000E+00 0.  1.
        -24    2    1    2    0    0  0.31153608416E+01 -0.88407827209E+00 -0.12573132017E+03  0.14794849322E+03  0.77909593163E+02 0.  0.
         23    2    1    2    0    0 -0.54610952776E+01 -0.23996045516E+02  0.15052783568E+02  0.95961247647E+02  0.91522352432E+02 0.  0.
         13    1    3    3    0    0  0.28861218939E+02 -0.61018875704E+01 -0.13069763162E+02  0.32264867886E+02  0.00000000000E+00 0. -1.
        -14    1    3    3    0    0 -0.25745858098E+02  0.52178092983E+01 -0.11266155700E+03  0.11568362533E+03  0.00000000000E+00 0.  1.
        -13    1    4    4    0    0 -0.17233038766E+02 -0.40559263691E+02 -0.25275766766E+02  0.50802518459E+02  0.00000000000E+00 0.  1.
         13    1    4    4    0    0  0.11771943488E+02  0.16563218175E+02  0.40328550334E+02  0.45158729187E+02  0.00000000000E+00 0. -1.
         21    1    1    2  502  501  0.23457344360E+01  0.24880123788E+02  0.59251491438E+01  0.25683271250E+02  0.00000000000E+00 0.  1.
<scales pt_clust_5="13000.00000" pt_clust_6="13000.00000" pt_clust_7="13000.00000" pt_clust_8="13000.00000" pt_clust_9="24.99046"></scales>
<clustering>
<clus scale="   24.990">  1  9  2 -1</clus>
<clus scale="   77.910">  5  6 -1 -1</clus>
<clus scale="   78.057">  2  5  1 -1</clus>
<clus scale="   91.522">  7  8 -1 -1</clus>
<clus scale="   24.990">  1  5  2 -1</clus>
</clustering>
</event>
<event>
 9    1  0.2374319E-005  0.9104228E+02  0.7546771E-02  0.1306984E+00
         -2   -1    0    0    0  501 -0.00000000000E+00  0.00000000000E+00  0.51031496702E+02  0.51031496702E+02  0.00000000000E+00 0.  1.
          1   -1    0    0  502    0  0.00000000000E+00 -0.00000000000E+00 -0.78042802443E+03  0.78042802443E+03  0.00000000000E+00 0. -1.
        -24    2    1    2    0    0 -0.71275535496E+01  0.19040475080E+01  0.70636255437E+01  0.81153436592E+02  0.80508124114E+02 0.  0.
         23    2    1    2    0    0 -0.35120457890E+02  0.11301171296E+02 -0.46316875364E+03  0.47345330527E+03  0.90948198948E+02 0.  0.
         11    1    3    3    0    0 -0.47056368194E+01 -0.25912645762E+02 -0.26589759629E+02  0.37424905416E+02  0.00000000000E+00 0. -1.
        -12    1    3    3    0    0 -0.24219167302E+01  0.27816693270E+02  0.33653385173E+02  0.43728531175E+02  0.00000000000E+00 0.  1.
        -11    1    4    4    0    0 -0.31671701168E+02  0.49876742400E+02 -0.29854135290E+03  0.30433160447E+03  0.00000000000E+00 0.  1.
         11    1    4    4    0    0 -0.34487567216E+01 -0.38575571104E+02 -0.16462740074E+03  0.16912170080E+03  0.00000000000E+00 0. -1.
         21    1    1    2  502  501  0.42248011440E+02 -0.13205218804E+02 -0.27329139963E+03  0.27685277927E+03  0.00000000000E+00 0. -1.
<scales pt_clust_5="13000.00000" pt_clust_6="13000.00000" pt_clust_7="13000.00000" pt_clust_8="13000.00000" pt_clust_9="44.26367"></scales>
<clustering>
<clus scale="   44.264">  2  9  1 -1</clus>
<clus scale="   80.508">  5  6 -1 -1</clus>
<clus scale="   80.614">  1  5  2 -1</clus>
<clus scale="   90.948">  7  8 -1 -1</clus>
<clus scale="   44.264">  2  5  1 -1</clus>
</clustering>
</event>
<event>
 9    1  0.2374319E-005  0.1139258E+03  0.7546771E-02  0.1262418E+00
          3   -1    0    0  502    0  0.00000000000E+00  0.00000000000E+00  0.39808318529E+03  0.39808318529E+03  0.00000000000E+00 0. -1.
         -4   -1    0    0    0  501 -0.00000000000E+00 -0.00000000000E+00 -0.52315569535E+02  0.52315569535E+02  0.00000000000E+00 0.  1.
        -24    2    1    2    0    0 -0.23455609710E+02  0.46651963059E+02  0.39612398753E+02  0.10447418138E+03  0.81358104431E+02 0.  0.
         23    2    1    2    0    0  0.53495207301E+02 -0.17091455985E+02  0.19822482343E+03  0.23005753388E+03  0.10236959117E+03 0.  0.
         13    1    3    3    0    0  0.26755412537E+02  0.10178856038E+01  0.21252206583E+02  0.34183979812E+02  0.00000000000E+00 0. -1.
        -14    1    3    3    0    0 -0.50211022247E+02  0.45634077456E+02  0.18360192170E+02  0.70290201571E+02  0.00000000000E+00 0.  1.
        -11    1    4    4    0    0 -0.54485337577E+01 -0.48948402736E+02  0.73499198189E+02  0.88474656173E+02  0.00000000000E+00 0.  1.
         11    1    4    4    0    0  0.58943741058E+02  0.31856946752E+02  0.12472562524E+03  0.14158287770E+03  0.00000000000E+00 0. -1.
         21    1    1    2  502  501 -0.30039597591E+02 -0.29560507074E+02  0.10793039357E+03  0.11586703957E+03  0.00000000000E+00 0.  1.
<scales pt_clust_5="13000.00000" pt_clust_6="13000.00000" pt_clust_7="13000.00000" pt_clust_8="13000.00000" pt_clust_9="42.14500"></scales>
<clustering>
<clus scale="   42.145">  1  9  2 -1</clus>
<clus scale="   81.358">  5  6 -1 -1</clus>
<clus scale="   95.492">  2  5  1 -1</clus>
<clus scale="  102.370">  7  8 -1 -1</clus>
<clus scale="   42.145">  1  5  2 -1</clus>
</clustering>
</event>
<event>
 9    1  0.2374319E-005  0.1027868E+03  0.7546771E-02  0.1279229E+00
          1   -1    0    0  502    0  0.00000000000E+00  0.00000000000E+00  0.31252956441E+03  0.31252956441E+03  0.00000000000E+00 0. -1.
         -2   -1    0    0    0  501 -0.00000000000E+00 -0.00000000000E+00 -0.13277265941E+03  0.13277265941E+03  0.00000000000E+00 0.  1.
        -24    2    1    2    0    0 -0.44597033491E+02  0.11345394708E+02 -0.54916312833E+02  0.10803814083E+03  0.80863001933E+02 0.  0.
         23    2    1    2    0    0  0.29591270289E+02 -0.62523695467E+02  0.19926777171E+02  0.11599405526E+03  0.90954321693E+02 0.  0.
         11    1    3    3    0    0  0.12380492600E+02  0.29510341520E+02 -0.10991494625E+02  0.33837106964E+02  0.00000000000E+00 0. -1.
        -12    1    3    3    0    0 -0.56977526091E+02 -0.18164946812E+02 -0.43924818208E+02  0.74201033866E+02  0.00000000000E+00 0.  1.
        -13    1    4    4    0    0 -0.37363038669E+01  0.21335478756E+02  0.13507948142E+02  0.25526991271E+02  0.00000000000E+00 0. -1.
         13    1    4    4    0    0  0.33327574156E+02 -0.83859174223E+02  0.64188290291E+01  0.90467063987E+02  0.00000000000E+00 0.  1.
         21    1    1    2  502  501  0.15005763202E+02  0.51178300759E+02  0.21474644066E+03  0.22127002774E+03  0.00000000000E+00 0. -1.
<scales pt_clust_5="13000.00000" pt_clust_6="13000.00000" pt_clust_7="13000.00000" pt_clust_8="13000.00000" pt_clust_9="53.33284"></scales>
<clustering>
<clus scale="   53.333">  1  9  2 -1</clus>
<clus scale="   80.863">  5  6 -1 -1</clus>
<clus scale="   90.954">  7  8 -1 -1</clus>
<clus scale="   93.975">  2  5  1 -1</clus>
<clus scale="   53.333">  1  5  2 -1</clus>
</clustering>
</event>
<event>
 9    1  0.2374319E-005  0.1423590E+03  0.7546771E-02  0.1211800E+00
         -2   -1    0    0    0  501 -0.00000000000E+00  0.00000000000E+00  0.75691277705E+02  0.75691277705E+02  0.00000000000E+00 0.  1.
          1   -1    0    0  502    0  0.00000000000E+00 -0.00000000000E+00 -0.77873209664E+03  0.77873209664E+03  0.00000000000E+00 0. -1.
         23    2    1    2    0    0  0.42358306828E+02  0.91313393654E+02 -0.10129619420E+02  0.13644875738E+03  0.91560319910E+02 0.  0.
        -24    2    1    2    0    0 -0.67806470860E+02 -0.10084392832E+03 -0.63502066077E+03  0.65402342761E+03  0.98631581636E+02 0.  0.
         13    1    4    4    0    0 -0.73009321967E+02 -0.11216300067E+03 -0.62104574368E+03  0.63530206639E+03  0.00000000000E+00 0. -1.
        -14    1    4    4    0    0  0.52028511063E+01  0.11319072351E+02 -0.13974917085E+02  0.18721361223E+02  0.00000000000E+00 0.  1.
        -13    1    3    3    0    0  0.32337140016E+02  0.21516002862E+02  0.35368135221E+02  0.52531266810E+02  0.00000000000E+00 0.  1.
         13    1    3    3    0    0  0.10021166811E+02  0.69797390792E+02 -0.45497754641E+02  0.83917490567E+02  0.00000000000E+00 0. -1.
         21    1    1    2  502  501  0.25448164032E+02  0.95305346623E+01 -0.57890538747E+02  0.63951189355E+02  0.00000000000E+00 0. -1.
<scales pt_clust_5="13000.00000" pt_clust_6="13000.00000" pt_clust_7="13000.00000" pt_clust_8="13000.00000" pt_clust_9="27.17426"></scales>
<clustering>
<clus scale="   27.174">  2  9  1 -1</clus>
<clus scale="   91.560">  7  8 -1 -1</clus>
<clus scale="   98.632">  5  6 -1 -1</clus>
<clus scale="  137.554">  1  7  2 -1</clus>
<clus scale="   27.174">  2  5  1 -1</clus>
</clustering>
</event>
<event>
 9    1  0.2374319E-005  0.3627847E+03  0.7546771E-02  0.1057805E+00
         -4   -1    0    0    0  501 -0.00000000000E+00  0.00000000000E+00  0.44726097290E+03  0.44726097290E+03  0.00000000000E+00 0.  1.
          3   -1    0    0  502    0  0.00000000000E+00 -0.00000000000E+00 -0.33524738340E+03  0.33524738340E+03  0.00000000000E+00 0. -1.
         23    2    1    2    0    0  0.67645330632E+02  0.34688639104E+03  0.11820815179E+03  0.38457772921E+03  0.94977911168E+02 0.  0.
        -24    2    1    2    0    0 -0.93325803299E+02 -0.33383169567E+03  0.23043334993E+02  0.35688472125E+03  0.81745962492E+02 0.  0.
         11    1    4    4    0    0 -0.10567176000E+03 -0.26789103310E+03  0.77832373598E+01  0.28808454533E+03  0.00000000000E+00 0. -1.
        -12    1    4    4    0    0  0.12345956703E+02 -0.65940662568E+02  0.15260097633E+02  0.68800175919E+02  0.00000000000E+00 0.  1.
        -13    1    3    3    0    0  0.45957620272E+02  0.65788778245E+02  0.49857431900E+02  0.94477667836E+02  0.00000000000E+00 0.  1.
         13    1    3    3    0    0  0.21687710360E+02  0.28109761280E+03  0.68350719886E+02  0.29010006138E+03  0.00000000000E+00 0. -1.
         21    1    1    2  502  501  0.25680472667E+02 -0.13054695378E+02 -0.29237897283E+02  0.41045905829E+02  0.00000000000E+00 0. -1.
<scales pt_clust_5="13000.00000" pt_clust_6="13000.00000" pt_clust_7="13000.00000" pt_clust_8="13000.00000" pt_clust_9="28.80819"></scales>
<clustering>
<clus scale="   28.808">  2  9  1 -1</clus>
<clus scale="   81.746">  5  6 -1 -1</clus>
<clus scale="   94.978">  7  8 -1 -1</clus>
<clus scale="  359.547">  2  5  1 -1</clus>
<clus scale="   28.808">  2  5  1 -1</clus>
</clustering>
</event>
<event>
 9    1  0.2374319E-005  0.1427554E+03  0.7546771E-02  0.1211455E+00
          1   -1    0    0  502    0  0.00000000000E+00  0.00000000000E+00  0.34916267638E+02  0.34916267638E+02  0.00000000000E+00 0. -1.
         -2   -1    0    0    0  501 -0.00000000000E+00 -0.00000000000E+00 -0.11310946358E+04  0.11310946358E+04  0.00000000000E+00 0.  1.
        -24    2    1    2    0    0 -0.10932609981E+03 -0.41576432659E+02 -0.83885397025E+03  0.85095151399E+03  0.82229556127E+02 0.  0.
         23    2    1    2    0    0  0.64857437320E+02  0.59604177672E+02 -0.14234855226E+03  0.19047244544E+03  0.90870770718E+02 0.  0.
         11    1    3    3    0    0 -0.21557173977E+02 -0.50072292107E+02 -0.29488578407E+03  0.29988259675E+03  0.00000000000E+00 0. -1.
        -12    1    3    3    0    0 -0.87768925830E+02  0.84958594482E+01 -0.54396818618E+03  0.55106891724E+03  0.00000000000E+00 0.  1.
        -13    1    4    4    0    0 -0.13314799270E+02  0.42495172837E+02 -0.35335057237E+02  0.56847953912E+02  0.00000000000E+00 0.  1.
         13    1    4    4    0    0  0.78172236590E+02  0.17109004835E+02 -0.10701349502E+03  0.13362449153E+03  0.00000000000E+00 0. -1.
         21    1    1    2  502  501  0.44468662488E+02 -0.18027745013E+02 -0.11497584565E+03  0.12458694401E+03  0.00000000000E+00 0. -1.
<scales pt_clust_5="13000.00000" pt_clust_6="13000.00000" pt_clust_7="13000.00000" pt_clust_8="13000.00000" pt_clust_9="47.98397"></scales>
<clustering>
<clus scale="   47.984">  1  9  2 -1</clus>
<clus scale="   82.230">  5  6 -1 -1</clus>
<clus scale="   90.871">  7  8 -1 -1</clus>
<clus scale="  137.417">  2  5  1 -1</clus>
<clus scale="   47.984">  1  5  2 -1</clus>
</clustering>
</event>
<event>
 9    1  0.2374319E-005  0.9843702E+02  0.7546771E-02  0.1285942E+00
         -2   -1    0    0    0  501 -0.00000000000E+00  0.00000000000E+00  0.14304749324E+03  0.14304749324E+03  0.00000000000E+00 0.  1.
          1   -1    0    0  502    0  0.00000000000E+00 -0.00000000000E+00 -0.27041254716E+03  0.27041254716E+03  0.00000000000E+00 0. -1.
        -24    2    1    2    0    0  0.71955066795E+01 -0.48348101934E+02  0.94690735732E+02  0.13455610907E+03  0.82156538249E+02 0.  0.
         23    2    1    2    0    0 -0.57132390921E+02  0.15126992199E+02 -0.11241031453E+03  0.15392607428E+03  0.86972533278E+02 0.  0.
         13    1    3    3    0    0 -0.52080764859E+00 -0.62668136849E+02  0.33141799249E+02  0.70893902941E+02  0.00000000000E+00 0. -1.
        -14    1    3    3    0    0  0.77163143281E+01  0.14320034915E+02  0.61548936483E+02  0.63662206127E+02  0.00000000000E+00 0.  1.
        -13    1    4    4    0    0  0.19083228324E+02  0.20301833799E+02 -0.39397887411E+02  0.48254819359E+02  0.00000000000E+00 0.  1.
         13    1    4    4    0    0 -0.76215619245E+02 -0.51748416004E+01 -0.73012427115E+02  0.10567125492E+03  0.00000000000E+00 0. -1.
         21    1    1    2  502  501  0.49936884241E+02  0.33221109735E+02 -0.10964547512E+03  0.12497785706E+03  0.00000000000E+00 0.  1.
<scales pt_clust_5="13000.00000" pt_clust_6="13000.00000" pt_clust_7="13000.00000" pt_clust_8="13000.00000" pt_clust_9="59.97778"></scales>
<clustering>
<clus scale="   59.978">  2  9  1 -1</clus>
<clus scale="   82.157">  5  6 -1 -1</clus>
<clus scale="   86.973">  7  8 -1 -1</clus>
<clus scale="   94.209">  1  5  2 -1</clus>
<clus scale="   59.978">  2  5  1 -1</clus>
</clustering>
</event>
<event>
 9    1  0.2374319E-005  0.1753121E+03  0.7546771E-02  0.1193512E+00
         -2   -1    0    0    0  501 -0.00000000000E+00  0.00000000000E+00  0.39113352659E+02  0.39113352659E+02  0.00000000000E+00 0.  1.
          1   -1    0    0  502    0  0.00000000000E+00 -0.00000000000E+00 -0.16549203980E+04  0.16549203980E+04  0.00000000000E+00 0. -1.
         23    2    1    2    0    0 -0.35045510251E+02  0.52613169352E+02 -0.12526529765E+03  0.16629754901E+03  0.89258874258E+02 0.  0.
        -24    2    1    2    0    0 -0.10981090831E+03 -0.11169866115E+03 -0.75556802687E+03  0.77629701739E+03  0.84964636725E+02 0.  0.
         11    1    4    4    0    0 -0.16543837774E+02 -0.72978037262E+02 -0.38563514044E+03  0.39282814822E+03  0.00000000000E+00 0. -1.
        -12    1    4    4    0    0 -0.93267070540E+02 -0.38720623888E+02 -0.36993288643E+03  0.38346886918E+03  0.00000000000E+00 0.  1.
        -11    1    3    3    0    0 -0.14923707871E+02 -0.24564606147E+02 -0.24357069811E+02  0.37674975535E+02  0.00000000000E+00 0. -1.
         11    1    3    3    0    0 -0.20121802380E+02  0.77177775499E+02 -0.10090822784E+03  0.12862257348E+03  0.00000000000E+00 0.  1.
         21    1    1    2  502  501  0.14485641856E+03  0.59085491799E+02 -0.73497372081E+03  0.75143918425E+03  0.00000000000E+00 0.  1.
<scales pt_clust_5="13000.00000" pt_clust_6="13000.00000" pt_clust_7="13000.00000" pt_clust_8="13000.00000" pt_clust_9="153.34708"></scales>
<clustering>
<clus scale="   84.965">  5  6 -1 -1</clus>
<clus scale="   89.259">  7  8 -1 -1</clus>
<clus scale="  109.378">  1  7  2 -1</clus>
<clus scale="  153.347">  2  9  1 -1</clus>
<clus scale="  153.347">  2  5  1 -1</clus>
</clustering>
</event>
<event>
 9    1  0.2374319E-005  0.1662442E+03  0.7546771E-02  0.1183646E+00
         -2   -1    0    0    0  501 -0.00000000000E+00  0.00000000000E+00  0.67483162152E+03  0.67483162152E+03  0.00000000000E+00 0.  1.
          1   -1    0    0  502    0  0.00000000000E+00 -0.00000000000E+00 -0.11516490187E+03  0.11516490187E+03  0.00000000000E+00 0. -1.
        -24    2    1    2    0    0 -0.71698164839E+02  0.13069420462E+03  0.57325585339E+03  0.59752473208E+03  0.78688817756E+02 0.  0.
         23    2    1    2    0    0  0.34019647349E+02 -0.81674428848E+02  0.67004544752E+01  0.12740047285E+03  0.91421746090E+02 0.  0.
         11    1    3    3    0    0 -0.53486923271E+02  0.36254561243E+02  0.14736818584E+03  0.16091185900E+03  0.00000000000E+00 0. -1.
        -12    1    3    3    0    0 -0.18211241568E+02  0.94439643377E+02  0.42588766756E+03  0.43661287308E+03  0.00000000000E+00 0.  1.
        -13    1    4    4    0    0  0.58122379852E+02 -0.30657142936E+02  0.21371474036E+02  0.69100009805E+02  0.00000000000E+00 0.  1.
         13    1    4    4    0    0 -0.24102732503E+02 -0.51017285912E+02 -0.14671019561E+02  0.58300463042E+02  0.00000000000E+00 0. -1.
         21    1    1    2  502  501  0.37678517490E+02 -0.49019775772E+02 -0.20289588220E+02  0.65071318468E+02  0.00000000000E+00 0.  1.
<scales pt_clust_5="13000.00000" pt_clust_6="13000.00000" pt_clust_7="13000.00000" pt_clust_8="13000.00000" pt_clust_9="61.82725"></scales>
<clustering>
<clus scale="   61.827">  2  9  1 -1</clus>
<clus scale="   78.689">  5  6 -1 -1</clus>
<clus scale="   91.422">  7  8 -1 -1</clus>
<clus scale="  159.597">  1  5  2 -1</clus>
<clus scale="   61.827">  2  5  1 -1</clus>
</clustering>
</event>
<event>
 9    1  0.2374319E-005  0.3808148E+03  0.7546771E-02  0.1050652E+00
         -2   -1    0    0    0  501 -0.00000000000E+00  0.00000000000E+00  0.13241107568E+03  0.13241107568E+03  0.00000000000E+00 0.  1.
          1   -1    0    0  502    0  0.00000000000E+00 -0.00000000000E+00 -0.23632060757E+04  0.23632060757E+04  0.00000000000E+00 0. -1.
        -24    2    1    2    0    0  0.38451283005E+03  0.32709576462E+00 -0.23919542368E+03  0.45988231683E+03  0.80169016161E+02 0.  0.
         23    2    1    2    0    0 -0.31332845640E+03  0.57675525550E+02 -0.16124612992E+04  0.16456356775E+04  0.81142799235E+02 0.  0.
         13    1    3    3    0    0  0.56728267886E+02 -0.28938024079E+02 -0.40011022233E+02  0.75208959008E+02  0.00000000000E+00 0. -1.
        -14    1    3    3    0    0  0.32778456217E+03  0.29265119844E+02 -0.19918440145E+03  0.38467335782E+03  0.00000000000E+00 0.  1.
        -11    1    4    4    0    0 -0.23281357766E+03  0.47286313967E+02 -0.13553255323E+04  0.13759889011E+04  0.00000000000E+00 0. -1.
         11    1    4    4    0    0 -0.80514878738E+02  0.10389211584E+02 -0.25713576683E+03  0.26964677636E+03  0.00000000000E+00 0.  1.
         21    1    1    2  502  501 -0.71184373652E+02 -0.58002621315E+02 -0.37913827719E+03  0.39009915709E+03  0.00000000000E+00 0. -1.
<scales pt_clust_5="13000.00000" pt_clust_6="13000.00000" pt_clust_7="13000.00000" pt_clust_8="13000.00000" pt_clust_9="91.82330"></scales>
<clustering>
<clus scale="   80.169">  5  6 -1 -1</clus>
<clus scale="   81.143">  7  8 -1 -1</clus>
<clus scale="   91.823">  2  9  1 -1</clus>
<clus scale="  380.609">  1  5  2 -1</clus>
<clus scale="   91.823">  2  5  1 -1</clus>
</clustering>
</event>
<event>
 9    1  0.2374319E-005  0.1292801E+03  0.7546771E-02  0.1231733E+00
          1   -1    0    0  502    0  0.00000000000E+00  0.00000000000E+00  0.83315721914E+02  0.83315721914E+02  0.00000000000E+00 0. -1.
         -2   -1    0    0    0  501 -0.00000000000E+00 -0.00000000000E+00 -0.39282700187E+03  0.39282700187E+03  0.00000000000E+00 0.  1.
         23    2    1    2    0    0 -0.28131206942E+02  0.76632166768E+02 -0.24161204356E+03  0.27095397166E+03  0.91519513653E+02 0.  0.
        -24    2    1    2    0    0  0.25333479076E+02 -0.12008493799E+03 -0.68984209533E+02  0.16163249223E+03  0.79398135282E+02 0.  0.
         11    1    4    4    0    0  0.45366473840E+02 -0.31610476834E+02 -0.22423017976E+02  0.59666832742E+02  0.00000000000E+00 0. -1.
        -12    1    4    4    0    0 -0.20032994764E+02 -0.88474461159E+02 -0.46561191557E+02  0.10196565949E+03  0.00000000000E+00 0.  1.
        -11    1    3    3    0    0 -0.57574412556E+02  0.69420610137E+02 -0.15680115507E+03  0.18088846376E+03  0.00000000000E+00 0.  1.
         11    1    3    3    0    0  0.29443205615E+02  0.72115566305E+01 -0.84810888494E+02  0.90065507898E+02  0.00000000000E+00 0. -1.
         21    1    1    2  502  501  0.27977278655E+01  0.43452771225E+02  0.10849731388E+01  0.43556259884E+02  0.00000000000E+00 0. -1.
<scales pt_clust_5="13000.00000" pt_clust_6="13000.00000" pt_clust_7="13000.00000" pt_clust_8="13000.00000" pt_clust_9="43.54274"></scales>
<clustering>
<clus scale="   43.543">  1  9  2 -1</clus>
<clus scale="   79.398">  5  6 -1 -1</clus>
<clus scale="   91.520">  7  8 -1 -1</clus>
<clus scale="  121.002">  1  5  2 -1</clus>
<clus scale="   43.543">  1  5  2 -1</clus>
</clustering>
</event>
<event>
 9    1  0.2374319E-005  0.9576456E+02  0.7546771E-02  0.1299004E+00
          3   -1    0    0  502    0  0.00000000000E+00  0.00000000000E+00  0.64557211409E+02  0.64557211409E+02  0.00000000000E+00 0. -1.
         -4   -1    0    0    0  501 -0.00000000000E+00 -0.00000000000E+00 -0.40388396875E+03  0.40388396875E+03  0.00000000000E+00 0.  1.
        -24    2    1    2    0    0  0.48232438582E+01 -0.13765058680E+02 -0.27178294712E+03  0.28368303626E+03  0.79983462018E+02 0.  0.
         23    2    1    2    0    0  0.88616043833E+01 -0.48953578175E+02 -0.43374486062E+02  0.11616471337E+03  0.95592435596E+02 0.  0.
         11    1    3    3    0    0 -0.26967661199E+02  0.20796182124E+02 -0.10260923210E+03  0.10811285980E+03  0.00000000000E+00 0. -1.
        -12    1    3    3    0    0  0.31790905058E+02 -0.34561240804E+02 -0.16917371502E+03  0.17557017647E+03  0.00000000000E+00 0.  1.
        -13    1    4    4    0    0  0.34870179075E+02 -0.66973653942E+02 -0.36121460942E+02  0.83702805518E+02  0.00000000000E+00 0.  1.
         13    1    4    4    0    0 -0.26008574691E+02  0.18020075766E+02 -0.72530251197E+01  0.32461907854E+02  0.00000000000E+00 0. -1.
         21    1    1    2  502  501 -0.13684848241E+02  0.62718636856E+02 -0.24169324155E+02  0.68593430520E+02  0.00000000000E+00 0. -1.
<scales pt_clust_5="13000.00000" pt_clust_6="13000.00000" pt_clust_7="13000.00000" pt_clust_8="13000.00000" pt_clust_9="64.19426"></scales>
<clustering>
<clus scale="   64.194">  1  9  2 -1</clus>
<clus scale="   79.983">  5  6 -1 -1</clus>
<clus scale="   80.189">  2  5  1 -1</clus>
<clus scale="   95.592">  7  8 -1 -1</clus>
<clus scale="   64.194">  1  5  2 -1</clus>
</clustering>
</event>
<event>
 9    1  0.2374319E-005  0.9887667E+02  0.7546771E-02  0.1288221E+00
          1   -1    0    0  502    0  0.00000000000E+00  0.00000000000E+00  0.18753267998E+03  0.18753267998E+03  0.00000000000E+00 0. -1.
         -2   -1    0    0    0  501 -0.00000000000E+00 -0.00000000000E+00 -0.98890478925E+02  0.98890478925E+02  0.00000000000E+00 0.  1.
         23    2    1    2    0    0 -0.22837065354E+02 -0.36736483852E+02 -0.47075741758E+02  0.11127286948E+03  0.91073735078E+02 0.  0.
        -24    2    1    2    0    0  0.12305605080E+02  0.14360778402E+02  0.12075032679E+03  0.14624331139E+03  0.80304450885E+02 0.  0.
         11    1    4    4    0    0 -0.25922729034E+02 -0.69534160978E+01  0.86788725207E+02  0.90843935951E+02  0.00000000000E+00 0. -1.
        -12    1    4    4    0    0  0.38228334114E+02  0.21314194500E+02  0.33961601585E+02  0.55399375435E+02  0.00000000000E+00 0.  1.
        -11    1    3    3    0    0  0.57428144796E+01 -0.62204111729E+02 -0.27098656124E+02  0.68093087739E+02  0.00000000000E+00 0.  1.
         11    1    3    3    0    0 -0.28579879833E+02  0.25467627877E+02 -0.19977085634E+02  0.43179781743E+02  0.00000000000E+00 0. -1.
         21    1    1    2  502  501  0.10531460274E+02  0.22375705450E+02  0.14967616021E+02  0.28906978037E+02  0.00000000000E+00 0.  1.
<scales pt_clust_5="13000.00000" pt_clust_6="13000.00000" pt_clust_7="13000.00000" pt_clust_8="13000.00000" pt_clust_9="24.73022"></scales>
<clustering>
<clus scale="   24.730">  1  9  2 -1</clus>
<clus scale="   80.304">  5  6 -1 -1</clus>
<clus scale="   89.056">  1  5  2 -1</clus>
<clus scale="   91.074">  7  8 -1 -1</clus>
<clus scale="   24.730">  1  5  2 -1</clus>
</clustering>
</event>
<event>
 9    1  0.2374319E-005  0.1921388E+03  0.7546771E-02  0.1173722E+00
          1   -1    0    0  502    0  0.00000000000E+00  0.00000000000E+00  0.55915012091E+03  0.55915012091E+03  0.00000000000E+00 0. -1.
         -2   -1    0    0    0  501 -0.00000000000E+00 -0.00000000000E+00 -0.16372143709E+03  0.16372143709E+03  0.00000000000E+00 0.  1.
        -24    2    1    2    0    0  0.72791444182E+02 -0.19409896425E+03 -0.14480145849E+01  0.22259504994E+03  0.81076860069E+02 0.  0.
         23    2    1    2    0    0 -0.80731294359E+02  0.51846104100E+02  0.30361541078E+03  0.32999267086E+03  0.86644588756E+02 0.  0.
         11    1    3    3    0    0  0.23567927525E+02 -0.12351500556E+03  0.32842979518E+02  0.12996178326E+03  0.00000000000E+00 0. -1.
        -12    1    3    3    0    0  0.49223516658E+02 -0.70583958697E+02 -0.34290994103E+02  0.92633266671E+02  0.00000000000E+00 0.  1.
        -13    1    4    4    0    0 -0.82741484054E+01  0.54012436566E+02  0.16085121199E+03  0.16987912537E+03  0.00000000000E+00 0.  1.
         13    1    4    4    0    0 -0.72457145954E+02 -0.21663324656E+01  0.14276419879E+03  0.16011354550E+03  0.00000000000E+00 0. -1.
         21    1    1    2  502  501  0.79398501768E+01  0.14225286015E+03  0.93261287627E+02  0.17028383720E+03  0.00000000000E+00 0.  1.
<scales pt_clust_5="13000.00000" pt_clust_6="13000.00000" pt_clust_7="13000.00000" pt_clust_8="13000.00000" pt_clust_9="174.19494"></scales>
<clustering>
<clus scale="   81.077">  5  6 -1 -1</clus>
<clus scale="   86.645">  7  8 -1 -1</clus>
<clus scale="  129.278">  1  7  2 -1</clus>
<clus scale="  174.195">  1  9  2 -1</clus>
<clus scale="  129.278">  1  5  2 -1</clus>
</clustering>
</event>
<event>
 9    1  0.2374319E-005  0.1464998E+03  0.7546771E-02  0.1207188E+00
          1   -1    0    0  502    0  0.00000000000E+00  0.00000000000E+00  0.41453495081E+03  0.41453495081E+03  0.00000000000E+00 0. -1.
         -2   -1    0    0    0  501 -0.00000000000E+00 -0.00000000000E+00 -0.13804652477E+03  0.13804652477E+03  0.00000000000E+00 0.  1.
         23    2    1    2    0    0 -0.90823609797E+02  0.10323441121E+03 -0.58580425059E+02  0.17472264171E+03  0.90498970006E+02 0.  0.
        -24    2    1    2    0    0  0.74065850785E+02 -0.84714926918E+02  0.32133788090E+03  0.34935737200E+03  0.78295405858E+02 0.  0.
         13    1    4    4    0    0  0.77662119849E+02 -0.33891057738E+02  0.22399316510E+03  0.23948475247E+03  0.00000000000E+00 0. -1.
        -14    1    4    4    0    0 -0.35962690636E+01 -0.50823869180E+02  0.97344715802E+02  0.10987261954E+03  0.00000000000E+00 0.  1.
        -13    1    3    3    0    0 -0.80733382473E+02  0.24057401742E+02 -0.37212513755E+02  0.92094564465E+02  0.00000000000E+00 0.  1.
         13    1    3    3    0    0 -0.10090227324E+02  0.79177009470E+02 -0.21367911304E+02  0.82628077248E+02  0.00000000000E+00 0. -1.
         21    1    1    2  502  501  0.16757759012E+02 -0.18519484294E+02  0.13730970195E+02  0.28501461859E+02  0.00000000000E+00 0.  1.
<scales pt_clust_5="13000.00000" pt_clust_6="13000.00000" pt_clust_7="13000.00000" pt_clust_8="13000.00000" pt_clust_9="24.97586"></scales>
<clustering>
<clus scale="   24.976">  2  9  1 -1</clus>
<clus scale="   78.295">  5  6 -1 -1</clus>
<clus scale="   90.499">  7  8 -1 -1</clus>
<clus scale="  139.292">  1  5  2 -1</clus>
<clus scale="  139.292">  1  5  2 -1</clus>
</clustering>
</event>
<event>
 9    1  0.2374319E-005  0.3451764E+03  0.7546771E-02  0.1064977E+00
          1   -1    0    0  502    0  0.00000000000E+00  0.00000000000E+00  0.12038386372E+04  0.12038386372E+04  0.00000000000E+00 0. -1.
         -2   -1    0    0    0  501 -0.00000000000E+00 -0.00000000000E+00 -0.40009769019E+03  0.40009769019E+03  0.00000000000E+00 0.  1.
        -24    2    1    2    0    0 -0.19119349288E+03  0.14311223069E+03 -0.27430583638E+03  0.37193636532E+03  0.77826124661E+02 0.  0.
         23    2    1    2    0    0  0.32105700471E+03 -0.11830775379E+03  0.10334192355E+04  0.10924599613E+04  0.91864714629E+02 0.  0.
         11    1    3    3    0    0 -0.85885379836E+02  0.79949051404E+02 -0.79770201189E+02  0.14188528566E+03  0.00000000000E+00 0. -1.
        -12    1    3    3    0    0 -0.10530811304E+03  0.63163179288E+02 -0.19453563519E+03  0.23005107966E+03  0.00000000000E+00 0.  1.
        -13    1    4    4    0    0  0.30111328355E+03 -0.12061168461E+03  0.10136458746E+04  0.10642811410E+04  0.00000000000E+00 0. -1.
         13    1    4    4    0    0  0.19943721165E+02  0.23039308148E+01  0.19773360940E+02  0.28178820308E+02  0.00000000000E+00 0.  1.
         21    1    1    2  502  501 -0.12986351183E+03 -0.24804476901E+02  0.44627547810E+02  0.13954000073E+03  0.00000000000E+00 0.  1.
<scales pt_clust_5="13000.00000" pt_clust_6="13000.00000" pt_clust_7="13000.00000" pt_clust_8="13000.00000" pt_clust_9="132.21117"></scales>
<clustering>
<clus scale="   77.826">  5  6 -1 -1</clus>
<clus scale="   91.865">  7  8 -1 -1</clus>
<clus scale="  132.211">  2  9  1 -1</clus>
<clus scale="  341.708">  2  5  1 -1</clus>
<clus scale="  345.176">  1  5  2 -1</clus>
</clustering>
</event>
<event>
 9    1  0.2374319E-005  0.1035587E+03  0.7546771E-02  0.1284177E+00
         -2   -1    0    0    0  501 -0.00000000000E+00  0.00000000000E+00  0.30053842418E+03  0.30053842418E+03  0.00000000000E+00 0.  1.
          1   -1    0    0  502    0  0.00000000000E+00 -0.00000000000E+00 -0.24641449560E+03  0.24641449560E+03  0.00000000000E+00 0. -1.
         23    2    1    2    0    0 -0.18100209120E+02 -0.71563804255E+01  0.24109616508E+03  0.26192146771E+03  0.10048215304E+03 0.  0.
        -24    2    1    2    0    0  0.62936791715E+02 -0.18390181543E+02 -0.13649317223E+02  0.10418958658E+03  0.79811825958E+02 0.  0.
         13    1    4    4    0    0  0.48133618693E+02 -0.45027709873E+02  0.85819497450E+01  0.66467960449E+02  0.00000000000E+00 0. -1.
        -14    1    4    4    0    0  0.14803173023E+02  0.26637528330E+02 -0.22231266968E+02  0.37721626132E+02  0.00000000000E+00 0.  1.
        -11    1    3    3    0    0 -0.57138107603E+02  0.12681399661E+02  0.13465272880E+03  0.14682281366E+03  0.00000000000E+00 0.  1.
         11    1    3    3    0    0  0.39037898484E+02 -0.19837780086E+02  0.10644343628E+03  0.11509865405E+03  0.00000000000E+00 0. -1.
         21    1    1    2  502  501 -0.44836582596E+02  0.25546561968E+02 -0.17332291928E+03  0.18084186549E+03  0.00000000000E+00 0.  1.
<scales pt_clust_5="13000.00000" pt_clust_6="13000.00000" pt_clust_7="13000.00000" pt_clust_8="13000.00000" pt_clust_9="51.60374"></scales>
<clustering>
<clus scale="   51.604">  2  9  1 -1</clus>
<clus scale="   79.812">  5  6 -1 -1</clus>
<clus scale="   83.652">  2  5  1 -1</clus>
<clus scale="  100.482">  7  8 -1 -1</clus>
<clus scale="   51.604">  2  5  1 -1</clus>
</clustering>
</event>
<event>
 9    1  0.2374319E-005  0.1939711E+03  0.7546771E-02  0.1157128E+00
          3   -1    0    0  502    0  0.00000000000E+00  0.00000000000E+00  0.74203610361E+02  0.74203610361E+02  0.00000000000E+00 0. -1.
         -4   -1    0    0    0  501 -0.00000000000E+00 -0.00000000000E+00 -0.72884569907E+03  0.72884569907E+03  0.00000000000E+00 0.  1.
         23    2    1    2    0    0 -0.32128041632E+02 -0.13578347097E+03 -0.27010176666E+03  0.32053877691E+03  0.10159124518E+03 0.  0.
        -24    2    1    2    0    0  0.87161813195E+02  0.16696089154E+03 -0.19646636057E+03  0.28408532608E+03  0.81439061111E+02 0.  0.
         13    1    4    4    0    0 -0.54403849643E+01  0.67299318300E+02 -0.82556373189E+02  0.10665060143E+03  0.00000000000E+00 0. -1.
        -14    1    4    4    0    0  0.92602198159E+02  0.99661573245E+02 -0.11390998738E+03  0.17743472464E+03  0.00000000000E+00 0.  1.
        -13    1    3    3    0    0 -0.10233212760E+01 -0.13161636203E+03 -0.25201872636E+03  0.28431910308E+03  0.00000000000E+00 0.  1.
         13    1    3    3    0    0 -0.31104720356E+02 -0.41671089389E+01 -0.18083040304E+02  0.36219673825E+02  0.00000000000E+00 0. -1.
         21    1    1    2  502  501 -0.55033771563E+02 -0.31177420574E+02 -0.18807396148E+03  0.19842520644E+03  0.00000000000E+00 0. -1.
<scales pt_clust_5="13000.00000" pt_clust_6="13000.00000" pt_clust_7="13000.00000" pt_clust_8="13000.00000" pt_clust_9="63.25146"></scales>
<clustering>
<clus scale="   63.251">  2  9  1 -1</clus>
<clus scale="   81.439">  5  6 -1 -1</clus>
<clus scale="  101.591">  7  8 -1 -1</clus>
<clus scale="  184.218">  1  5  2 -1</clus>
<clus scale="  184.218">  1  5  2 -1</clus>
</clustering>
</event>
<event>
 9    1  0.2374319E-005  0.1256408E+03  0.7546771E-02  0.1238391E+00
          1   -1    0    0  502    0  0.00000000000E+00  0.00000000000E+00  0.60631698324E+03  0.60631698324E+03  0.00000000000E+00 0. -1.
         -2   -1    0    0    0  501 -0.00000000000E+00 -0.00000000000E+00 -0.29153066991E+02  0.29153066991E+02  0.00000000000E+00 0.  1.
        -24    2    1    2    0    0  0.84891827462E+02 -0.32553567481E+02  0.22891463154E+03  0.25828295116E+03  0.77729127114E+02 0.  0.
         23    2    1    2    0    0 -0.65925450338E+02  0.42824364676E+02  0.27163783552E+03  0.29759735801E+03  0.92719914759E+02 0.  0.
         11    1    3    3    0    0  0.59674635552E+02 -0.54104390535E+02  0.19432494110E+03  0.21035809929E+03  0.00000000000E+00 0. -1.
        -12    1    3    3    0    0  0.25217191910E+02  0.21550823054E+02  0.34589690439E+02  0.47924851871E+02  0.00000000000E+00 0.  1.
        -13    1    4    4    0    0 -0.50804276514E+02  0.45483205665E+01  0.24087353611E+03  0.24621499169E+03  0.00000000000E+00 0. -1.
         13    1    4    4    0    0 -0.15121173824E+02  0.38276044109E+02  0.30764299412E+02  0.51382366321E+02  0.00000000000E+00 0.  1.
         21    1    1    2  502  501 -0.18966377124E+02 -0.10270797194E+02  0.76611449189E+02  0.79589741067E+02  0.00000000000E+00 0.  1.
<scales pt_clust_5="13000.00000" pt_clust_6="13000.00000" pt_clust_7="13000.00000" pt_clust_8="13000.00000" pt_clust_9="21.56879"></scales>
<clustering>
<clus scale="   21.569">  1  9  2 -1</clus>
<clus scale="   77.729">  5  6 -1 -1</clus>
<clus scale="   92.720">  7  8 -1 -1</clus>
<clus scale="  115.024">  2  5  1 -1</clus>
<clus scale="   21.569">  1  5  2 -1</clus>
</clustering>
</event>
<event>
 9    1  0.2374319E-005  0.1648092E+03  0.7546771E-02  0.1185554E+00
          1   -1    0    0  502    0  0.00000000000E+00  0.00000000000E+00  0.53391941612E+03  0.53391941612E+03  0.00000000000E+00 0. -1.
         -2   -1    0    0    0  501 -0.00000000000E+00 -0.00000000000E+00 -0.99613005825E+02  0.99613005825E+02  0.00000000000E+00 0.  1.
        -24    2    1    2    0    0 -0.82656562997E+02  0.11551282214E+03  0.14615290571E+02  0.16250406888E+03  0.77579934249E+02 0.  0.
         23    2    1    2    0    0  0.49483835136E+02 -0.11275304927E+03  0.21960441288E+03  0.26819162938E+03  0.92405367025E+02 0.  0.
         11    1    3    3    0    0 -0.12237002988E+02  0.21413828483E+02  0.35404818938E+02  0.43148551499E+02  0.00000000000E+00 0. -1.
        -12    1    3    3    0    0 -0.70419560009E+02  0.94098993659E+02 -0.20789528366E+02  0.11935551738E+03  0.00000000000E+00 0.  1.
        -13    1    4    4    0    0 -0.23677934192E+02 -0.18570271823E+02  0.21586743171E+02  0.37033593451E+02  0.00000000000E+00 0.  1.
         13    1    4    4    0    0  0.73161769328E+02 -0.94182777442E+02  0.19801766970E+03  0.23115803593E+03  0.00000000000E+00 0. -1.
         21    1    1    2  502  501  0.33172727861E+02 -0.27597728767E+01  0.20008670685E+03  0.20283672369E+03  0.00000000000E+00 0. -1.
<scales pt_clust_5="13000.00000" pt_clust_6="13000.00000" pt_clust_7="13000.00000" pt_clust_8="13000.00000" pt_clust_9="33.28733"></scales>
<clustering>
<clus scale="   33.287">  1  9  2 -1</clus>
<clus scale="   77.580">  5  6 -1 -1</clus>
<clus scale="   92.405">  7  8 -1 -1</clus>
<clus scale="  156.978">  2  5  1 -1</clus>
<clus scale="   33.287">  1  5  2 -1</clus>
</clustering>
</event>
<event>
 9    1  0.2374319E-005  0.1006312E+03  0.7546771E-02  0.1286465E+00
         -2   -1    0    0    0  501 -0.00000000000E+00  0.00000000000E+00  0.94117132436E+02  0.94117132436E+02  0.00000000000E+00 0.  1.
          1   -1    0    0  502    0  0.00000000000E+00 -0.00000000000E+00 -0.62905004961E+03  0.62905004961E+03  0.00000000000E+00 0. -1.
        -24    2    1    2    0    0  0.94215569947E+01 -0.28951536110E+02  0.63206750821E+02  0.10735754477E+03  0.81262487601E+02 0.  0.
         23    2    1    2    0    0 -0.19139808226E+02  0.56389674137E+02 -0.39893205963E+03  0.41448659573E+03  0.95426527922E+02 0.  0.
         13    1    3    3    0    0 -0.32190418050E+02  0.34555698795E+01  0.34487637661E+02  0.47302865968E+02  0.00000000000E+00 0. -1.
        -14    1    3    3    0    0  0.41611975044E+02 -0.32407105989E+02  0.28719113160E+02  0.60054678805E+02  0.00000000000E+00 0.  1.
        -11    1    4    4    0    0 -0.48290475600E+02  0.13826506706E+02 -0.28535491865E+03  0.28974225083E+03  0.00000000000E+00 0. -1.
         11    1    4    4    0    0  0.29150667374E+02  0.42563167431E+02 -0.11357714098E+03  0.12474434490E+03  0.00000000000E+00 0.  1.
         21    1    1    2  502  501  0.97182512312E+01 -0.27438138027E+02 -0.19920760837E+03  0.20132304154E+03  0.00000000000E+00 0. -1.
<scales pt_clust_5="13000.00000" pt_clust_6="13000.00000" pt_clust_7="13000.00000" pt_clust_8="13000.00000" pt_clust_9="29.10835"></scales>
<clustering>
<clus scale="   29.108">  2  9  1 -1</clus>
<clus scale="   81.262">  5  6 -1 -1</clus>
<clus scale="   87.316">  1  5  2 -1</clus>
<clus scale="   95.427">  7  8 -1 -1</clus>
<clus scale="   29.108">  2  5  1 -1</clus>
</clustering>
</event>
<event>
 9    1  0.2374319E-005  0.1083301E+03  0.7546771E-02  0.1276298E+00
          1   -1    0    0  502    0  0.00000000000E+00  0.00000000000E+00  0.75949412971E+03  0.75949412971E+03  0.00000000000E+00 0. -1.
         -2   -1    0    0    0  501 -0.00000000000E+00 -0.00000000000E+00 -0.21673644305E+02  0.21673644305E+02  0.00000000000E+00 0.  1.
         23    2    1    2    0    0  0.34238671281E+02 -0.11910963987E+01  0.20648643854E+03  0.23450098917E+03  0.10573721814E+03 0.  0.
        -24    2    1    2    0    0 -0.62647673583E+01  0.19502232501E+02  0.25953423211E+03  0.27281832984E+03  0.81561259667E+02 0.  0.
         13    1    4    4    0    0 -0.41642466434E+02 -0.10479164520E+00  0.16116484574E+03  0.16645784299E+03  0.00000000000E+00 0. -1.
        -14    1    4    4    0    0  0.35377699075E+02  0.19607024146E+02  0.98369386370E+02  0.10636048685E+03  0.00000000000E+00 0.  1.
        -11    1    3    3    0    0  0.65176245744E+02  0.18859491380E+02  0.92607764065E+02  0.11480340321E+03  0.00000000000E+00 0.  1.
         11    1    3    3    0    0 -0.30937574463E+02 -0.20050587779E+02  0.11387867448E+03  0.11969758596E+03  0.00000000000E+00 0. -1.
         21    1    1    2  502  501 -0.27973903923E+02 -0.18311136103E+02  0.27179981476E+03  0.27384845500E+03  0.00000000000E+00 0. -1.
<scales pt_clust_5="13000.00000" pt_clust_6="13000.00000" pt_clust_7="13000.00000" pt_clust_8="13000.00000" pt_clust_9="33.43407"></scales>
<clustering>
<clus scale="   33.434">  1  9  2 -1</clus>
<clus scale="   81.561">  5  6 -1 -1</clus>
<clus scale="   84.896">  1  5  2 -1</clus>
<clus scale="  105.737">  7  8 -1 -1</clus>
<clus scale="   33.434">  1  5  2 -1</clus>
</clustering>
</event>
<event>
 9    1  0.2374319E-005  0.8438136E+02  0.7546771E-02  0.1318281E+00
          1   -1    0    0  502    0  0.00000000000E+00  0.00000000000E+00  0.52674281321E+03  0.52674281321E+03  0.00000000000E+00 0. -1.
         -2   -1    0    0    0  501 -0.00000000000E+00 -0.00000000000E+00 -0.37089621623E+02  0.37089621623E+02  0.00000000000E+00 0.  1.
        -24    2    1    2    0    0 -0.20069426193E+01 -0.22828361452E+02  0.49875399057E+02  0.95064240676E+02  0.77617604439E+02 0.  0.
         23    2    1    2    0    0  0.24387166728E+02  0.72656814454E+02  0.29175137095E+03  0.31098489135E+03  0.75624027982E+02 0.  0.
         13    1    3    3    0    0  0.35629545124E+02 -0.14301375808E+02  0.39542551407E+02  0.55114491810E+02  0.00000000000E+00 0. -1.
        -14    1    3    3    0    0 -0.37636487744E+02 -0.85269856438E+01  0.10332847651E+02  0.39949748865E+02  0.00000000000E+00 0.  1.
        -11    1    4    4    0    0  0.46187735735E+02  0.69727263182E+02  0.25248455115E+03  0.26597677855E+03  0.00000000000E+00 0.  1.
         11    1    4    4    0    0 -0.21800569007E+02  0.29295512724E+01  0.39266819803E+02  0.45008112792E+02  0.00000000000E+00 0. -1.
         21    1    1    2  502  501 -0.22380224108E+02 -0.49828453002E+02  0.14802642158E+03  0.15778330281E+03  0.00000000000E+00 0. -1.
<scales pt_clust_5="13000.00000" pt_clust_6="13000.00000" pt_clust_7="13000.00000" pt_clust_8="13000.00000" pt_clust_9="54.62371"></scales>
<clustering>
<clus scale="   54.624">  1  9  2 -1</clus>
<clus scale="   75.624">  7  8 -1 -1</clus>
<clus scale="   77.618">  5  6 -1 -1</clus>
<clus scale="   82.551">  1  7  2 -1</clus>
<clus scale="   54.624">  1  5  2 -1</clus>
</clustering>
</event>
<event>
 9    1  0.2374319E-005  0.1565771E+03  0.7546771E-02  0.1194386E+00
          1   -1    0    0  502    0  0.00000000000E+00  0.00000000000E+00  0.58141926387E+03  0.58141926387E+03  0.00000000000E+00 0. -1.
         -2   -1    0    0    0  501 -0.00000000000E+00 -0.00000000000E+00 -0.93401791489E+02  0.93401791489E+02  0.00000000000E+00 0.  1.
         23    2    1    2    0    0 -0.87717601538E+02  0.19396139355E+02  0.42079054348E+02  0.13376343523E+03  0.89729716080E+02 0.  0.
        -24    2    1    2    0    0  0.13924884719E+03  0.33111540380E+02  0.43747804661E+03  0.46700288636E+03  0.78854543613E+02 0.  0.
         11    1    4    4    0    0  0.14464982110E+03  0.28273748230E+02  0.43507886297E+03  0.45936542381E+03  0.00000000000E+00 0. -1.
        -12    1    4    4    0    0 -0.54009739106E+01  0.48377921504E+01  0.23991836390E+01  0.76374625503E+01  0.00000000000E+00 0.  1.
        -13    1    3    3    0    0 -0.29245802859E+02 -0.58468601852E+00  0.62235845229E+02  0.68767428875E+02  0.00000000000E+00 0. -1.
         13    1    3    3    0    0 -0.58471798678E+02  0.19980825374E+02 -0.20156790881E+02  0.64996006354E+02  0.00000000000E+00 0.  1.
         21    1    1    2  502  501 -0.51531245654E+02 -0.52507679735E+02  0.84603714231E+01  0.74054733775E+02  0.00000000000E+00 0.  1.
<scales pt_clust_5="13000.00000" pt_clust_6="13000.00000" pt_clust_7="13000.00000" pt_clust_8="13000.00000" pt_clust_9="73.56987"></scales>
<clustering>
<clus scale="   73.570">  2  9  1 -1</clus>
<clus scale="   78.855">  5  6 -1 -1</clus>
<clus scale="   89.730">  7  8 -1 -1</clus>
<clus scale="  150.609">  1  5  2 -1</clus>
<clus scale="  150.609">  1  5  2 -1</clus>
</clustering>
</event>
<event>
 9    1  0.2374319E-005  0.7873524E+03  0.7546771E-02  0.9780064E-01
         -2   -1    0    0    0  501 -0.00000000000E+00  0.00000000000E+00  0.67390839411E+03  0.67390839411E+03  0.00000000000E+00 0.  1.
          1   -1    0    0  502    0  0.00000000000E+00 -0.00000000000E+00 -0.19063562787E+04  0.19063562787E+04  0.00000000000E+00 0. -1.
        -24    2    1    2    0    0 -0.21158649157E+03 -0.69474730656E+03 -0.34205210887E+02  0.73192906143E+03  0.84305937712E+02 0.  0.
         23    2    1    2    0    0  0.24825690316E+03 -0.29901564069E+03 -0.23213785541E+03  0.46187680048E+03  0.91653431822E+02 0.  0.
         11    1    3    3    0    0 -0.30397736072E+02 -0.96829786571E+02  0.24514965025E+02  0.10440791845E+03  0.00000000000E+00 0. -1.
        -12    1    3    3    0    0 -0.18118875550E+03 -0.59791751999E+03 -0.58720175912E+02  0.62752114298E+03  0.00000000000E+00 0.  1.
        -11    1    4    4    0    0 -0.38357163791E+01 -0.29668995862E+02 -0.11718446238E+02  0.32129177049E+02  0.00000000000E+00 0. -1.
         11    1    4    4    0    0  0.25209261954E+03 -0.26934664482E+03 -0.22041940918E+03  0.42974762343E+03  0.00000000000E+00 0.  1.
         21    1    1    2  502  501 -0.36670411585E+02  0.99376294724E+03 -0.96610481832E+03  0.13864588109E+04  0.00000000000E+00 0. -1.
<scales pt_clust_5="13000.00000" pt_clust_6="13000.00000" pt_clust_7="13000.00000" pt_clust_8="13000.00000" pt_clust_9="782.82581"></scales>
<clustering>
<clus scale="   84.306">  5  6 -1 -1</clus>
<clus scale="   91.653">  7  8 -1 -1</clus>
<clus scale="  399.302">  2  7  1 -1</clus>
<clus scale="  782.826">  2  9  1 -1</clus>
<clus scale="  399.302">  2  5  1 -1</clus>
</clustering>
</event>
<event>
 9    1  0.2374319E-005  0.1105657E+03  0.7546771E-02  0.1261806E+00
         -4   -1    0    0    0  501 -0.00000000000E+00  0.00000000000E+00  0.78886021791E+02  0.78886021791E+02  0.00000000000E+00 0.  1.
          3   -1    0    0  502    0  0.00000000000E+00 -0.00000000000E+00 -0.74898255444E+03  0.74898255444E+03  0.00000000000E+00 0. -1.
        -24    2    1    2    0    0 -0.52715082676E+02 -0.38073485892E+02  0.29506603216E+02  0.11191305532E+03  0.86170888633E+02 0.  0.
         23    2    1    2    0    0  0.36451130920E+02 -0.71511731562E+01 -0.37955705894E+03  0.39232103995E+03  0.92045712416E+02 0.  0.
         11    1    3    3    0    0 -0.24555550232E+02 -0.27808422964E+02 -0.28392362904E+02  0.46716268111E+02  0.00000000000E+00 0. -1.
        -12    1    3    3    0    0 -0.28159532443E+02 -0.10265062928E+02  0.57898966120E+02  0.65196787207E+02  0.00000000000E+00 0.  1.
        -13    1    4    4    0    0 -0.27859146628E+02 -0.14617909519E+02 -0.82609142670E+02  0.88397317732E+02  0.00000000000E+00 0.  1.
         13    1    4    4    0    0  0.64310277548E+02  0.74667363625E+01 -0.29694791627E+03  0.30392372222E+03  0.00000000000E+00 0. -1.
         21    1    1    2  502  501  0.16263951756E+02  0.45224659048E+02 -0.32004607692E+03  0.32363448096E+03  0.00000000000E+00 0. -1.
<scales pt_clust_5="13000.00000" pt_clust_6="13000.00000" pt_clust_7="13000.00000" pt_clust_8="13000.00000" pt_clust_9="48.06023"></scales>
<clustering>
<clus scale="   48.060">  2  9  1 -1</clus>
<clus scale="   86.171">  5  6 -1 -1</clus>
<clus scale="   92.046">  7  8 -1 -1</clus>
<clus scale="  105.725">  1  5  2 -1</clus>
<clus scale="   48.060">  2  5  1 -1</clus>
</clustering>
</event>
<event>
 9    1  0.2374319E-005  0.1186003E+03  0.7546771E-02  0.1248145E+00
         -2   -1    0    0    0  501 -0.00000000000E+00  0.00000000000E+00  0.93159483562E+02  0.93159483562E+02  0.00000000000E+00 0.  1.
          1   -1    0    0  502    0  0.00000000000E+00 -0.00000000000E+00 -0.55559815732E+03  0.55559815732E+03  0.00000000000E+00 0. -1.
         23    2    1    2    0    0  0.43116660205E+02 -0.66831385838E+02  0.40603606469E+02  0.12664939338E+03  0.89810553189E+02 0.  0.
        -24    2    1    2    0    0 -0.10229173343E+02  0.60309159835E+02 -0.42783381961E+03  0.43976482778E+03  0.81298805656E+02 0.  0.
         11    1    4    4    0    0  0.19768271445E+02  0.67683338760E+02 -0.28040456619E+03  0.28913412051E+03  0.00000000000E+00 0. -1.
        -12    1    4    4    0    0 -0.29997444789E+02 -0.73741789253E+01 -0.14742925342E+03  0.15063070727E+03  0.00000000000E+00 0.  1.
        -13    1    3    3    0    0  0.21179328802E+02 -0.70662694073E+02  0.61552314117E+02  0.96075322925E+02  0.00000000000E+00 0.  1.
         13    1    3    3    0    0  0.21937331403E+02  0.38313082349E+01 -0.20948707647E+02  0.30574070451E+02  0.00000000000E+00 0. -1.
         21    1    1    2  502  501 -0.32887486861E+02  0.65222260031E+01 -0.75208460616E+02  0.82343419727E+02  0.00000000000E+00 0. -1.
<scales pt_clust_5="13000.00000" pt_clust_6="13000.00000" pt_clust_7="13000.00000" pt_clust_8="13000.00000" pt_clust_9="33.52799"></scales>
<clustering>
<clus scale="   33.528">  2  9  1 -1</clus>
<clus scale="   81.299">  5  6 -1 -1</clus>
<clus scale="   89.811">  7  8 -1 -1</clus>
<clus scale="  112.292">  2  5  1 -1</clus>
<clus scale="   33.528">  2  5  1 -1</clus>
</clustering>
</event>
<event>
 9    1  0.2374319E-005  0.8489118E+02  0.7546771E-02  0.1315726E+00
         -2   -1    0    0    0  501 -0.00000000000E+00  0.00000000000E+00  0.21594643276E+03  0.21594643276E+03  0.00000000000E+00 0.  1.
          1   -1    0    0  502    0  0.00000000000E+00 -0.00000000000E+00 -0.74162975483E+02  0.74162975483E+02  0.00000000000E+00 0. -1.
        -24    2    1    2    0    0  0.27671135697E+02  0.82210751163E+01  0.11558891095E+03  0.14366847080E+03  0.80290443644E+02 0.  0.
         23    2    1    2    0    0 -0.25414649594E+02  0.35281736561E+02  0.41476479443E+02  0.10027684065E+03  0.80277276206E+02 0.  0.
         11    1    3    3    0    0  0.53674762059E+02  0.34888332376E+01  0.52038511470E+02  0.74840889328E+02  0.00000000000E+00 0. -1.
        -12    1    3    3    0    0 -0.26003626362E+02  0.47322418787E+01  0.63550399478E+02  0.68827581470E+02  0.00000000000E+00 0.  1.
        -13    1    4    4    0    0 -0.41635937118E+02 -0.94546388062E+01  0.27083153212E+02  0.50561236561E+02  0.00000000000E+00 0. -1.
         13    1    4    4    0    0  0.16221287525E+02  0.44736375367E+02  0.14393326231E+02  0.49715604089E+02  0.00000000000E+00 0.  1.
         21    1    1    2  502  501 -0.22564861036E+01 -0.43502811677E+02 -0.15281933112E+02  0.46164096796E+02  0.00000000000E+00 0. -1.
<scales pt_clust_5="13000.00000" pt_clust_6="13000.00000" pt_clust_7="13000.00000" pt_clust_8="13000.00000" pt_clust_9="43.56129"></scales>
<clustering>
<clus scale="   43.561">  2  9  1 -1</clus>
<clus scale="   80.277">  7  8 -1 -1</clus>
<clus scale="   80.290">  5  6 -1 -1</clus>
<clus scale="   84.879">  2  7  1 -1</clus>
<clus scale="   43.561">  2  5  1 -1</clus>
</clustering>
</event>
<event>
 9    1  0.2374319E-005  0.1042229E+03  0.7546771E-02  0.1275872E+00
          1   -1    0    0  502    0  0.00000000000E+00  0.00000000000E+00  0.17256734403E+03  0.17256734403E+03  0.00000000000E+00 0. -1.
         -2   -1    0    0    0  501 -0.00000000000E+00 -0.00000000000E+00 -0.87760141234E+02  0.87760141234E+02  0.00000000000E+00 0.  1.
         23    2    1    2    0    0 -0.44165878661E+02 -0.33192314955E+02 -0.50241954074E+01  0.10574955182E+03  0.90029831508E+02 0.  0.
        -24    2    1    2    0    0  0.19377558528E+02  0.48697889200E+02  0.74490107000E+02  0.12155916811E+03  0.80503919933E+02 0.  0.
         11    1    4    4    0    0 -0.21359159866E+02  0.10747723273E+02 -0.50808078649E+01  0.24444669650E+02  0.00000000000E+00 0. -1.
        -12    1    4    4    0    0  0.40736718394E+02  0.37950165926E+02  0.79570914865E+02  0.97114498463E+02  0.00000000000E+00 0.  1.
        -11    1    3    3    0    0 -0.10518881256E+02  0.31218226221E+02 -0.24721929593E+01  0.33035378752E+02  0.00000000000E+00 0. -1.
         11    1    3    3    0    0 -0.33646997406E+02 -0.64410541176E+02 -0.25520024481E+01  0.72714173071E+02  0.00000000000E+00 0.  1.
         21    1    1    2  502  501  0.24788320134E+02 -0.15505574245E+02  0.15341291199E+02  0.33018765322E+02  0.00000000000E+00 0.  1.
<scales pt_clust_5="13000.00000" pt_clust_6="13000.00000" pt_clust_7="13000.00000" pt_clust_8="13000.00000" pt_clust_9="29.23839"></scales>
<clustering>
<clus scale="   29.238">  1  9  2 -1</clus>
<clus scale="   80.504">  5  6 -1 -1</clus>
<clus scale="   90.030">  7  8 -1 -1</clus>
<clus scale="   96.114">  1  5  2 -1</clus>
<clus scale="   29.238">  1  5  2 -1</clus>
</clustering>
</event>
<event>
 9    1  0.2374319E-005  0.1043546E+03  0.7546771E-02  0.1275151E+00
         -2   -1    0    0    0  501 -0.00000000000E+00  0.00000000000E+00  0.27988721510E+02  0.27988721510E+02  0.00000000000E+00 0.  1.
          1   -1    0    0  502    0  0.00000000000E+00 -0.00000000000E+00 -0.52624498658E+03  0.52624498658E+03  0.00000000000E+00 0. -1.
        -24    2    1    2    0    0  0.47083291040E+02 -0.24600223617E+02 -0.17386370149E+03  0.19901041990E+03  0.80960195392E+02 0.  0.
         23    2    1    2    0    0 -0.58388047629E+02 -0.39288498477E+01 -0.19683906305E+03  0.22403029656E+03  0.89550863012E+02 0.  0.
         11    1    3    3    0    0  0.13729997231E+02  0.21142552629E+02 -0.11345168153E+03  0.11621877817E+03  0.00000000000E+00 0. -1.
        -12    1    3    3    0    0  0.33353293809E+02 -0.45742776247E+02 -0.60412019955E+02  0.82791641738E+02  0.00000000000E+00 0.  1.
        -13    1    4    4    0    0 -0.18706138392E+02  0.22304391182E+02 -0.16318212857E+03  0.16575829561E+03  0.00000000000E+00 0. -1.
         13    1    4    4    0    0 -0.39681909237E+02 -0.26233241030E+02 -0.33656934479E+02  0.58272000945E+02  0.00000000000E+00 0.  1.
         21    1    1    2  502  501  0.11304756589E+02  0.28529073465E+02 -0.12755350054E+03  0.13119299163E+03  0.00000000000E+00 0.  1.
<scales pt_clust_5="13000.00000" pt_clust_6="13000.00000" pt_clust_7="13000.00000" pt_clust_8="13000.00000" pt_clust_9="30.68722"></scales>
<clustering>
<clus scale="   30.687">  2  9  1 -1</clus>
<clus scale="   80.960">  5  6 -1 -1</clus>
<clus scale="   89.551">  7  8 -1 -1</clus>
<clus scale="   97.083">  1  5  2 -1</clus>
<clus scale="   30.687">  2  5  1 -1</clus>
</clustering>
</event>
<event>
 9    1  0.2374319E-005  0.1304767E+03  0.7546771E-02  0.1228867E+00
         -4   -1    0    0    0  501 -0.00000000000E+00  0.00000000000E+00  0.13548318007E+03  0.13548318007E+03  0.00000000000E+00 0.  1.
          3   -1    0    0  502    0  0.00000000000E+00 -0.00000000000E+00 -0.24963917442E+03  0.24963917442E+03  0.00000000000E+00 0. -1.
        -24    2    1    2    0    0 -0.45730219604E+02  0.32470202964E+02  0.55897614254E+02  0.11401159893E+03  0.82027643791E+02 0.  0.
         23    2    1    2    0    0  0.66039434126E+02 -0.83067730946E+02 -0.16556162631E+03  0.21640470528E+03  0.90326571816E+02 0.  0.
         11    1    3    3    0    0 -0.46273688375E+02  0.27959302937E+02 -0.37469333647E+01  0.54194246615E+02  0.00000000000E+00 0. -1.
        -12    1    3    3    0    0  0.54346877093E+00  0.45109000269E+01  0.59644547619E+02  0.59817352316E+02  0.00000000000E+00 0.  1.
        -13    1    4    4    0    0  0.78515164438E+02 -0.33431565775E+02 -0.12372889809E+03  0.15030349584E+03  0.00000000000E+00 0. -1.
         13    1    4    4    0    0 -0.12475730312E+02 -0.49636165171E+02 -0.41832728212E+02  0.66101209440E+02  0.00000000000E+00 0.  1.
         21    1    1    2  502  501 -0.20309214522E+02  0.50597527982E+02 -0.44919823030E+01  0.54706050282E+02  0.00000000000E+00 0.  1.
<scales pt_clust_5="13000.00000" pt_clust_6="13000.00000" pt_clust_7="13000.00000" pt_clust_8="13000.00000" pt_clust_9="54.52132"></scales>
<clustering>
<clus scale="   54.521">  1  9  2 -1</clus>
<clus scale="   82.028">  5  6 -1 -1</clus>
<clus scale="   90.327">  7  8 -1 -1</clus>
<clus scale="  124.875">  1  5  2 -1</clus>
<clus scale="  130.477">  2  5  1 -1</clus>
</clustering>
</event>
<event>
 9    1  0.2374319E-005  0.9421442E+02  0.7546771E-02  0.1301647E+00
         -2   -1    0    0    0  501 -0.00000000000E+00  0.00000000000E+00  0.52650810589E+02  0.52650810589E+02  0.00000000000E+00 0.  1.
          1   -1    0    0  502    0  0.00000000000E+00 -0.00000000000E+00 -0.75003295239E+03  0.75003295239E+03  0.00000000000E+00 0. -1.
        -24    2    1    2    0    0 -0.14117363305E+02  0.57499698686E+01  0.13230940993E+02  0.81067771890E+02  0.78514735811E+02 0.  0.
         23    2    1    2    0    0  0.38532462542E+02 -0.75402090088E-01 -0.57197583904E+03  0.58073099137E+03  0.92775899552E+02 0.  0.
         13    1    3    3    0    0  0.27377086308E+02  0.16853255154E+02  0.19587299603E+02  0.37645708517E+02  0.00000000000E+00 0. -1.
        -14    1    3    3    0    0 -0.41494449613E+02 -0.11103285285E+02 -0.63563586099E+01  0.43422063373E+02  0.00000000000E+00 0.  1.
        -13    1    4    4    0    0  0.60920095137E+02  0.25832539058E+02 -0.36833252339E+03  0.37422910877E+03  0.00000000000E+00 0.  1.
         13    1    4    4    0    0 -0.22387632595E+02 -0.25907941148E+02 -0.20364331565E+03  0.20650188260E+03  0.00000000000E+00 0. -1.
         21    1    1    2  502  501 -0.24415099238E+02 -0.56745677785E+01 -0.13863724375E+03  0.14088499972E+03  0.00000000000E+00 0.  1.
<scales pt_clust_5="13000.00000" pt_clust_6="13000.00000" pt_clust_7="13000.00000" pt_clust_8="13000.00000" pt_clust_9="25.06587"></scales>
<clustering>
<clus scale="   25.066">  2  9  1 -1</clus>
<clus scale="   78.515">  5  6 -1 -1</clus>
<clus scale="   80.209">  1  5  2 -1</clus>
<clus scale="   92.776">  7  8 -1 -1</clus>
<clus scale="   25.066">  2  5  1 -1</clus>
</clustering>
</event>
<event>
 9    1  0.2374319E-005  0.9491148E+02  0.7546771E-02  0.1298701E+00
         -2   -1    0    0    0  501 -0.00000000000E+00  0.00000000000E+00  0.12045434224E+03  0.12045434224E+03  0.00000000000E+00 0.  1.
          1   -1    0    0  502    0  0.00000000000E+00 -0.00000000000E+00 -0.18837202648E+03  0.18837202648E+03  0.00000000000E+00 0. -1.
         23    2    1    2    0    0 -0.16202931798E+02 -0.20157491981E+02  0.60764776575E+02  0.11288113751E+03  0.91547439351E+02 0.  0.
        -24    2    1    2    0    0  0.46558944897E+02 -0.23467321927E+02 -0.81851022793E+02  0.12510883161E+03  0.78956818999E+02 0.  0.
         11    1    4    4    0    0 -0.20170722490E+02 -0.68176772004E+00 -0.35154129293E+02  0.40535609769E+02  0.00000000000E+00 0. -1.
        -12    1    4    4    0    0  0.66729667388E+02 -0.22785554207E+02 -0.46696893500E+02  0.84573221842E+02  0.00000000000E+00 0.  1.
        -13    1    3    3    0    0  0.37150623053E+02 -0.18359742143E+02  0.31073877546E+02  0.51796088564E+02  0.00000000000E+00 0.  1.
         13    1    3    3    0    0 -0.53353554850E+02 -0.17977498377E+01  0.29690899029E+02  0.61085048947E+02  0.00000000000E+00 0. -1.
         21    1    1    2  502  501 -0.30356013100E+02  0.43624813908E+02 -0.46831438027E+02  0.70836399595E+02  0.00000000000E+00 0. -1.
<scales pt_clust_5="13000.00000" pt_clust_6="13000.00000" pt_clust_7="13000.00000" pt_clust_8="13000.00000" pt_clust_9="53.14708"></scales>
<clustering>
<clus scale="   53.147">  2  9  1 -1</clus>
<clus scale="   78.957">  5  6 -1 -1</clus>
<clus scale="   82.834">  2  5  1 -1</clus>
<clus scale="   91.547">  7  8 -1 -1</clus>
<clus scale="   53.147">  2  5  1 -1</clus>
</clustering>
</event>
<event>
 9    1  0.2374319E-005  0.9060700E+02  0.7546771E-02  0.1305833E+00
          1   -1    0    0  502    0  0.00000000000E+00  0.00000000000E+00  0.10821957656E+03  0.10821957656E+03  0.00000000000E+00 0. -1.
         -2   -1    0    0    0  501 -0.00000000000E+00 -0.00000000000E+00 -0.13309270888E+03  0.13309270888E+03  0.00000000000E+00 0.  1.
        -24    2    1    2    0    0  0.13256388509E+02 -0.84179397760E+00 -0.75555695421E+02  0.11322910197E+03  0.83281006047E+02 0.  0.
         23    2    1    2    0    0  0.57979146733E+01 -0.79022414369E+01  0.55570450449E+02  0.10655608270E+03  0.90388398390E+02 0.  0.
         13    1    3    3    0    0 -0.72064862203E+01 -0.25623130948E+02  0.44712183403E+01  0.26990184821E+02  0.00000000000E+00 0. -1.
        -14    1    3    3    0    0  0.20462874729E+02  0.24781336971E+02 -0.80026913761E+02  0.86238917145E+02  0.00000000000E+00 0.  1.
        -11    1    4    4    0    0  0.27532610385E+02 -0.42139249741E+02  0.29449025718E+02  0.58318145710E+02  0.00000000000E+00 0. -1.
         11    1    4    4    0    0 -0.21734695712E+02  0.34237008304E+02  0.26121424732E+02  0.48237936993E+02  0.00000000000E+00 0.  1.
         21    1    1    2  502  501 -0.19054303182E+02  0.87440354145E+01 -0.48878873461E+01  0.21527100776E+02  0.00000000000E+00 0.  1.
<scales pt_clust_5="13000.00000" pt_clust_6="13000.00000" pt_clust_7="13000.00000" pt_clust_8="13000.00000" pt_clust_9="20.96484"></scales>
<clustering>
<clus scale="   20.965">  2  9  1 -1</clus>
<clus scale="   83.281">  5  6 -1 -1</clus>
<clus scale="   83.518">  2  5  1 -1</clus>
<clus scale="   90.388">  7  8 -1 -1</clus>
<clus scale="   90.607">  1  5  2 -1</clus>
</clustering>
</event>
<event>
 9    1  0.2374319E-005  0.1549723E+03  0.7546771E-02  0.1196147E+00
         -2   -1    0    0    0  501 -0.00000000000E+00  0.00000000000E+00  0.54700755439E+02  0.54700755439E+02  0.00000000000E+00 0.  1.
          1   -1    0    0  502    0  0.00000000000E+00 -0.00000000000E+00 -0.10396555539E+04  0.10396555539E+04  0.00000000000E+00 0. -1.
         23    2    1    2    0    0 -0.45586541773E+02 -0.97058246215E+02 -0.14005517926E+03  0.19791725273E+03  0.89762741401E+02 0.  0.
        -24    2    1    2    0    0  0.37668405400E+02  0.18552118834E+03 -0.50675688299E+03  0.54682655816E+03  0.79873188031E+02 0.  0.
         13    1    4    4    0    0 -0.20724920351E+02  0.98587851741E+02 -0.24878078124E+03  0.26840447826E+03  0.00000000000E+00 0. -1.
        -14    1    4    4    0    0  0.58393325752E+02  0.86933336598E+02 -0.25797610175E+03  0.27842207990E+03  0.00000000000E+00 0.  1.
        -11    1    3    3    0    0 -0.41499084835E+01 -0.97198463807E+02 -0.86321982671E+02  0.13006247652E+03  0.00000000000E+00 0.  1.
         11    1    3    3    0    0 -0.41436633290E+02  0.14021759228E+00 -0.53733196585E+02  0.67854776211E+02  0.00000000000E+00 0. -1.
         21    1    1    2  502  501  0.79181363728E+01 -0.88462942125E+02 -0.33814273625E+03  0.34961249848E+03  0.00000000000E+00 0.  1.
<scales pt_clust_5="13000.00000" pt_clust_6="13000.00000" pt_clust_7="13000.00000" pt_clust_8="13000.00000" pt_clust_9="88.81660"></scales>
<clustering>
<clus scale="   79.873">  5  6 -1 -1</clus>
<clus scale="   88.817">  2  9  1 -1</clus>
<clus scale="   89.763">  7  8 -1 -1</clus>
<clus scale="  149.462">  2  5  1 -1</clus>
<clus scale="   88.817">  2  5  1 -1</clus>
</clustering>
</event>
<event>
 9    1  0.2374319E-005  0.1009871E+03  0.7546771E-02  0.1284535E+00
         -2   -1    0    0    0  501 -0.00000000000E+00  0.00000000000E+00  0.11612622276E+03  0.11612622276E+03  0.00000000000E+00 0.  1.
          1   -1    0    0  502    0  0.00000000000E+00 -0.00000000000E+00 -0.22270970012E+03  0.22270970012E+03  0.00000000000E+00 0. -1.
         23    2    1    2    0    0  0.39362687195E+02 -0.19639373857E+02  0.68506813053E+02  0.12099721015E+03  0.89509861364E+02 0.  0.
        -24    2    1    2    0    0 -0.64419248671E+02  0.69545000259E+01 -0.12287628308E+03  0.15855094115E+03  0.76430460718E+02 0.  0.
         11    1    4    4    0    0 -0.59673641693E+02  0.23278246911E+02 -0.43627884481E+02  0.77499758686E+02  0.00000000000E+00 0. -1.
        -12    1    4    4    0    0 -0.47456069785E+01 -0.16323746885E+02 -0.79248398602E+02  0.81051182464E+02  0.00000000000E+00 0.  1.
        -13    1    3    3    0    0  0.13620408843E+02  0.35738147888E+02  0.31856446282E+02  0.49775133563E+02  0.00000000000E+00 0. -1.
         13    1    3    3    0    0  0.25742278353E+02 -0.55377521745E+02  0.36650366771E+02  0.71222076590E+02  0.00000000000E+00 0.  1.
         21    1    1    2  502  501  0.25056561476E+02  0.12684873831E+02 -0.52214007335E+02  0.59287771582E+02  0.00000000000E+00 0.  1.
<scales pt_clust_5="13000.00000" pt_clust_6="13000.00000" pt_clust_7="13000.00000" pt_clust_8="13000.00000" pt_clust_9="28.08447"></scales>
<clustering>
<clus scale="   28.084">  2  9  1 -1</clus>
<clus scale="   76.430">  5  6 -1 -1</clus>
<clus scale="   89.510">  7  8 -1 -1</clus>
<clus scale="   89.599">  2  5  1 -1</clus>
<clus scale="   28.084">  2  5  1 -1</clus>
</clustering>
</event>
<event>
 9    1  0.2374319E-005  0.1223217E+03  0.7546771E-02  0.1246577E+00
          1   -1    0    0  502    0  0.00000000000E+00  0.00000000000E+00  0.25592830863E+03  0.25592830863E+03  0.00000000000E+00 0. -1.
         -2   -1    0    0    0  501 -0.00000000000E+00 -0.00000000000E+00 -0.71971931278E+02  0.71971931278E+02  0.00000000000E+00 0.  1.
         23    2    1    2    0    0  0.18252890457E+02 -0.67896945698E+02  0.43008893201E+02  0.13404967849E+03  0.10571843814E+03 0.  0.
        -24    2    1    2    0    0  0.20979307459E+01  0.52416574492E+02  0.82691723765E+02  0.13023034895E+03  0.85849426404E+02 0.  0.
         11    1    4    4    0    0  0.42475028373E+02  0.14895874557E+02  0.43518839527E+02  0.62609140770E+02  0.00000000000E+00 0. -1.
        -12    1    4    4    0    0 -0.40377097627E+02  0.37520699935E+02  0.39172884238E+02  0.67621208182E+02  0.00000000000E+00 0.  1.
        -11    1    3    3    0    0  0.31280780378E+02 -0.48598659405E+01 -0.25053046727E+02  0.40370294380E+02  0.00000000000E+00 0.  1.
         11    1    3    3    0    0 -0.13027889921E+02 -0.63037079758E+02  0.68061939929E+02  0.93679384109E+02  0.00000000000E+00 0. -1.
         21    1    1    2  502  501 -0.20350821203E+02  0.15480371206E+02  0.58255760390E+02  0.63620212472E+02  0.00000000000E+00 0.  1.
<scales pt_clust_5="13000.00000" pt_clust_6="13000.00000" pt_clust_7="13000.00000" pt_clust_8="13000.00000" pt_clust_9="25.56947"></scales>
<clustering>
<clus scale="   25.569">  1  9  2 -1</clus>
<clus scale="   85.849">  5  6 -1 -1</clus>
<clus scale="  105.624">  1  5  2 -1</clus>
<clus scale="  105.718">  7  8 -1 -1</clus>
<clus scale="   25.569">  1  5  2 -1</clus>
</clustering>
</event>
<event>
 9    1  0.2374319E-005  0.1321288E+03  0.7546771E-02  0.1226013E+00
         -4   -1    0    0    0  501 -0.00000000000E+00  0.00000000000E+00  0.46881891911E+02  0.46881891911E+02  0.00000000000E+00 0.  1.
          3   -1    0    0  502    0  0.00000000000E+00 -0.00000000000E+00 -0.80833374997E+03  0.80833374997E+03  0.00000000000E+00 0. -1.
        -24    2    1    2    0    0  0.79858314910E+02 -0.37614195554E+02 -0.80471572530E+02  0.14679427428E+03  0.85327057894E+02 0.  0.
         23    2    1    2    0    0 -0.11168695093E+03  0.59535641974E+02 -0.53458398986E+03  0.55700971920E+03  0.91985419507E+02 0.  0.
         13    1    3    3    0    0  0.36460126194E+01  0.24277764970E+02 -0.14549003797E+02  0.28537287738E+02  0.00000000000E+00 0. -1.
        -14    1    3    3    0    0  0.76212302291E+02 -0.61891960524E+02 -0.65922568733E+02  0.11825698654E+03  0.00000000000E+00 0.  1.
        -13    1    4    4    0    0 -0.73367908966E+02 -0.21159343896E+01 -0.16840489541E+03  0.18370502454E+03  0.00000000000E+00 0.  1.
         13    1    4    4    0    0 -0.38319041964E+02  0.61651576364E+02 -0.36617909444E+03  0.37330469466E+03  0.00000000000E+00 0. -1.
         21    1    1    2  502  501  0.31828636019E+02 -0.21921446420E+02 -0.14639629567E+03  0.15141164839E+03  0.00000000000E+00 0.  1.
<scales pt_clust_5="13000.00000" pt_clust_6="13000.00000" pt_clust_7="13000.00000" pt_clust_8="13000.00000" pt_clust_9="38.64728"></scales>
<clustering>
<clus scale="   38.647">  2  9  1 -1</clus>
<clus scale="   85.327">  5  6 -1 -1</clus>
<clus scale="   91.985">  7  8 -1 -1</clus>
<clus scale="  127.583">  1  5  2 -1</clus>
<clus scale="   38.647">  2  5  1 -1</clus>
</clustering>
</event>
<event>
 9    1  0.2374319E-005  0.2350775E+03  0.7546771E-02  0.1160226E+00
          3   -1    0    0  502    0  0.00000000000E+00  0.00000000000E+00  0.66542876804E+02  0.66542876804E+02  0.00000000000E+00 0. -1.
         -4   -1    0    0    0  501 -0.00000000000E+00 -0.00000000000E+00 -0.11845940189E+04  0.11845940189E+04  0.00000000000E+00 0.  1.
        -24    2    1    2    0    0  0.37788219972E+02 -0.31463343910E+02 -0.23814885980E+03  0.25687326597E+03  0.82771394622E+02 0.  0.
         23    2    1    2    0    0  0.19698740578E+03 -0.23331995616E+02 -0.36369494212E+03  0.42453374485E+03  0.92771059798E+02 0.  0.
         11    1    3    3    0    0  0.47229471217E+02 -0.11190022938E+02 -0.22652948983E+03  0.23167099372E+03  0.00000000000E+00 0. -1.
        -12    1    3    3    0    0 -0.94412512445E+01 -0.20273320972E+02 -0.11619369961E+02  0.25202272250E+02  0.00000000000E+00 0.  1.
        -11    1    4    4    0    0  0.17770603112E+03 -0.51108070596E+02 -0.31471358713E+03  0.36501521927E+03  0.00000000000E+00 0. -1.
         11    1    4    4    0    0  0.19281374661E+02  0.27776074980E+02 -0.48981354989E+02  0.59518525575E+02  0.00000000000E+00 0.  1.
         21    1    1    2  502  501 -0.23477562575E+03  0.54795339526E+02 -0.51620734018E+03  0.56972988489E+03  0.00000000000E+00 0.  1.
<scales pt_clust_5="13000.00000" pt_clust_6="13000.00000" pt_clust_7="13000.00000" pt_clust_8="13000.00000" pt_clust_9="215.99760"></scales>
<clustering>
<clus scale="   82.771">  5  6 -1 -1</clus>
<clus scale="   92.771">  7  8 -1 -1</clus>
<clus scale="   96.276">  2  5  1 -1</clus>
<clus scale="  215.998">  2  9  1 -1</clus>
<clus scale="  235.078">  1  5  2 -1</clus>
</clustering>
</event>
<event>
 9    1  0.2374319E-005  0.1983198E+03  0.7546771E-02  0.1152151E+00
          1   -1    0    0  502    0  0.00000000000E+00  0.00000000000E+00  0.25624326912E+03  0.25624326912E+03  0.00000000000E+00 0. -1.
         -2   -1    0    0    0  501 -0.00000000000E+00 -0.00000000000E+00 -0.19422694415E+03  0.19422694415E+03  0.00000000000E+00 0.  1.
        -24    2    1    2    0    0  0.87091267967E+02  0.13068959319E+03  0.18140396637E+02  0.17765426537E+03  0.81038912210E+02 0.  0.
         23    2    1    2    0    0 -0.10803535687E+03 -0.16567069944E+03  0.72559049377E+01  0.21801303951E+03  0.91425479222E+02 0.  0.
         13    1    3    3    0    0  0.34304105949E+02  0.96146032356E+02  0.41757970293E+02  0.11029306100E+03  0.00000000000E+00 0. -1.
        -14    1    3    3    0    0  0.52787162018E+02  0.34543560829E+02 -0.23617573656E+02  0.67361204369E+02  0.00000000000E+00 0.  1.
        -13    1    4    4    0    0  0.78746561386E+01 -0.25538762799E+02  0.23291049055E+02  0.35450128077E+02  0.00000000000E+00 0.  1.
         13    1    4    4    0    0 -0.11591001301E+03 -0.14013193664E+03 -0.16035144117E+02  0.18256291143E+03  0.00000000000E+00 0. -1.
         21    1    1    2  502  501  0.20944088902E+02  0.34981106255E+02  0.36620023390E+02  0.54802908388E+02  0.00000000000E+00 0. -1.
<scales pt_clust_5="13000.00000" pt_clust_6="13000.00000" pt_clust_7="13000.00000" pt_clust_8="13000.00000" pt_clust_9="40.77171"></scales>
<clustering>
<clus scale="   40.772">  1  9  2 -1</clus>
<clus scale="   81.039">  5  6 -1 -1</clus>
<clus scale="   91.425">  7  8 -1 -1</clus>
<clus scale="  193.751">  2  5  1 -1</clus>
<clus scale="   40.772">  1  5  2 -1</clus>
</clustering>
</event>
<event>
 9    1  0.2374319E-005  0.1181174E+03  0.7546771E-02  0.1260400E+00
          1   -1    0    0  502    0  0.00000000000E+00  0.00000000000E+00  0.55468928735E+02  0.55468928735E+02  0.00000000000E+00 0. -1.
         -2   -1    0    0    0  501 -0.00000000000E+00 -0.00000000000E+00 -0.35644629460E+03  0.35644629460E+03  0.00000000000E+00 0.  1.
        -24    2    1    2    0    0  0.25190098575E+02 -0.20832016688E+02 -0.17463419552E+03  0.18983827441E+03  0.66880148035E+02 0.  0.
         23    2    1    2    0    0 -0.34926801832E+02  0.65120812425E+02 -0.55380207242E+02  0.13786268083E+03  0.10236478747E+03 0.  0.
         13    1    3    3    0    0 -0.22758109212E+02 -0.11224501394E+02 -0.53805650823E+02  0.59489234547E+02  0.00000000000E+00 0. -1.
        -14    1    3    3    0    0  0.47948207787E+02 -0.96075152935E+01 -0.12082854470E+03  0.13034903986E+03  0.00000000000E+00 0.  1.
        -13    1    4    4    0    0  0.52988944804E+01  0.69307556312E+02 -0.27664749024E+00  0.69510374611E+02  0.00000000000E+00 0. -1.
         13    1    4    4    0    0 -0.40225696312E+02 -0.41867438874E+01 -0.55103559752E+02  0.68352306220E+02  0.00000000000E+00 0.  1.
         21    1    1    2  502  501  0.97367032571E+01 -0.44288795737E+02 -0.70962963101E+02  0.84214268092E+02  0.00000000000E+00 0.  1.
<scales pt_clust_5="13000.00000" pt_clust_6="13000.00000" pt_clust_7="13000.00000" pt_clust_8="13000.00000" pt_clust_9="45.34645"></scales>
<clustering>
<clus scale="   45.346">  2  9  1 -1</clus>
<clus scale="   66.880">  5  6 -1 -1</clus>
<clus scale="   89.141">  2  5  1 -1</clus>
<clus scale="  102.365">  7  8 -1 -1</clus>
<clus scale="  118.117">  1  5  2 -1</clus>
</clustering>
</event>
<event>
 9    1  0.2374319E-005  0.2011934E+03  0.7546771E-02  0.1186120E+00
          1   -1    0    0  502    0  0.00000000000E+00  0.00000000000E+00  0.18744529727E+04  0.18744529727E+04  0.00000000000E+00 0. -1.
         -2   -1    0    0    0  501 -0.00000000000E+00 -0.00000000000E+00 -0.70486427538E+02  0.70486427538E+02  0.00000000000E+00 0.  1.
        -24    2    1    2    0    0 -0.62999681801E+01 -0.83257688269E+01 -0.76593617449E+01  0.85550631132E+02  0.84564984710E+02 0.  0.
         23    2    1    2    0    0  0.16207250363E+03  0.91088521320E+02  0.59678694337E+03  0.63181047697E+03  0.92006564329E+02 0.  0.
         11    1    3    3    0    0 -0.27041574830E+02  0.30604552918E+02 -0.69957325823E+01  0.41434595484E+02  0.00000000000E+00 0. -1.
        -12    1    3    3    0    0  0.20741606650E+02 -0.38930321745E+02 -0.66362916252E+00  0.44116035647E+02  0.00000000000E+00 0.  1.
        -13    1    4    4    0    0  0.13678601613E+03  0.90735199064E+02  0.57643224298E+03  0.59934749629E+03  0.00000000000E+00 0. -1.
         13    1    4    4    0    0  0.25286487501E+02  0.35332225596E+00  0.20354700391E+02  0.32462980682E+02  0.00000000000E+00 0.  1.
         21    1    1    2  502  501 -0.15577253545E+03 -0.82762752493E+02  0.12148389635E+04  0.12275782921E+04  0.00000000000E+00 0. -1.
<scales pt_clust_5="13000.00000" pt_clust_6="13000.00000" pt_clust_7="13000.00000" pt_clust_8="13000.00000" pt_clust_9="178.92340"></scales>
<clustering>
<clus scale="   84.565">  5  6 -1 -1</clus>
<clus scale="   85.207">  2  5  1 -1</clus>
<clus scale="   92.007">  7  8 -1 -1</clus>
<clus scale="  178.923">  1  9  2 -1</clus>
<clus scale="  178.923">  1  5  2 -1</clus>
</clustering>
</event>
<event>
 9    1  0.2374319E-005  0.1064255E+03  0.7546771E-02  0.1273407E+00
         -2   -1    0    0    0  501 -0.00000000000E+00  0.00000000000E+00  0.48346171632E+02  0.48346171632E+02  0.00000000000E+00 0.  1.
          1   -1    0    0  502    0  0.00000000000E+00 -0.00000000000E+00 -0.53303785437E+03  0.53303785437E+03  0.00000000000E+00 0. -1.
         23    2    1    2    0    0  0.22959572963E+01  0.53795907757E+02 -0.61719000443E+02  0.12655154993E+03  0.96471698767E+02 0.  0.
        -24    2    1    2    0    0  0.48048722776E+02 -0.11512640927E+02 -0.30200705634E+03  0.31715479405E+03  0.83292740648E+02 0.  0.
         13    1    4    4    0    0  0.52073268808E+02  0.15238423036E+02 -0.26929315530E+03  0.27470463839E+03  0.00000000000E+00 0. -1.
        -14    1    4    4    0    0 -0.40245460320E+01 -0.26751063964E+02 -0.32713901043E+02  0.42450155658E+02  0.00000000000E+00 0.  1.
        -13    1    3    3    0    0  0.43090578271E+02  0.93199612737E+01 -0.46979458250E+02  0.64426152386E+02  0.00000000000E+00 0. -1.
         13    1    3    3    0    0 -0.40794620974E+02  0.44475946483E+02 -0.14739542192E+02  0.62125397545E+02  0.00000000000E+00 0.  1.
         21    1    1    2  502  501 -0.50344680073E+02 -0.42283266830E+02 -0.12096562595E+03  0.13767768203E+03  0.00000000000E+00 0.  1.
<scales pt_clust_5="13000.00000" pt_clust_6="13000.00000" pt_clust_7="13000.00000" pt_clust_8="13000.00000" pt_clust_9="65.74543"></scales>
<clustering>
<clus scale="   65.745">  2  9  1 -1</clus>
<clus scale="   83.293">  5  6 -1 -1</clus>
<clus scale="   94.643">  2  5  1 -1</clus>
<clus scale="   96.472">  7  8 -1 -1</clus>
<clus scale="   65.745">  2  5  1 -1</clus>
</clustering>
</event>
<event>
 9    1  0.2374319E-005  0.2262498E+03  0.7546771E-02  0.1154912E+00
         -2   -1    0    0    0  501 -0.00000000000E+00  0.00000000000E+00  0.22005364335E+03  0.22005364335E+03  0.00000000000E+00 0.  1.
          1   -1    0    0  502    0  0.00000000000E+00 -0.00000000000E+00 -0.97284206744E+03  0.97284206744E+03  0.00000000000E+00 0. -1.
         23    2    1    2    0    0  0.85525804671E+01 -0.82978637100E+02 -0.87327324841E+02  0.15025879410E+03  0.89403818109E+02 0.  0.
        -24    2    1    2    0    0  0.12792785053E+03  0.23804397834E+03  0.59736500678E+02  0.28859200621E+03  0.81770569090E+02 0.  0.
         11    1    4    4    0    0  0.11101565577E+03  0.17252658087E+03  0.11474236438E+02  0.20547884328E+03  0.00000000000E+00 0. -1.
        -12    1    4    4    0    0  0.16912194759E+02  0.65517397465E+02  0.48262264240E+02  0.83113162927E+02  0.00000000000E+00 0.  1.
        -13    1    3    3    0    0 -0.25334308032E+02 -0.83532137428E+02 -0.71589773913E+02  0.11289172191E+03  0.00000000000E+00 0. -1.
         13    1    3    3    0    0  0.33886888499E+02  0.55350032800E+00 -0.15737550927E+02  0.37367072189E+02  0.00000000000E+00 0.  1.
         21    1    1    2  502  501 -0.13648043100E+03 -0.15506534124E+03 -0.72519759992E+03  0.75404491048E+03  0.00000000000E+00 0. -1.
<scales pt_clust_5="13000.00000" pt_clust_6="13000.00000" pt_clust_7="13000.00000" pt_clust_8="13000.00000" pt_clust_9="210.95625"></scales>
<clustering>
<clus scale="   81.771">  5  6 -1 -1</clus>
<clus scale="   89.404">  7  8 -1 -1</clus>
<clus scale="  122.277">  1  7  2 -1</clus>
<clus scale="  210.956">  2  9  1 -1</clus>
<clus scale="  210.956">  2  5  1 -1</clus>
</clustering>
</event>
<event>
 9    1  0.2374319E-005  0.2419483E+03  0.7546771E-02  0.1134558E+00
          1   -1    0    0  502    0  0.00000000000E+00  0.00000000000E+00  0.17806369922E+03  0.17806369922E+03  0.00000000000E+00 0. -1.
         -2   -1    0    0    0  501 -0.00000000000E+00 -0.00000000000E+00 -0.63920647733E+03  0.63920647733E+03  0.00000000000E+00 0.  1.
        -24    2    1    2    0    0  0.13141032732E+03 -0.43991211686E+02 -0.20535780157E+03  0.26199597195E+03  0.85241784482E+02 0.  0.
         23    2    1    2    0    0  0.15572337649E+03  0.88794307179E+02 -0.11615507963E+03  0.23286206255E+03  0.92728305703E+02 0.  0.
         11    1    3    3    0    0  0.50680320223E+02 -0.26417767655E+01 -0.18016826216E+02  0.53852389634E+02  0.00000000000E+00 0. -1.
        -12    1    3    3    0    0  0.80730007097E+02 -0.41349434921E+02 -0.18734097535E+03  0.20814358232E+03  0.00000000000E+00 0.  1.
        -13    1    4    4    0    0  0.18975408375E+02  0.98422349697E+01  0.16203001355E+02  0.26822993217E+02  0.00000000000E+00 0.  1.
         13    1    4    4    0    0  0.13674796812E+03  0.78952072210E+02 -0.13235808099E+03  0.20603906934E+03  0.00000000000E+00 0. -1.
         21    1    1    2  502  501 -0.28713370381E+03 -0.44803095493E+02 -0.13962989691E+03  0.32241214205E+03  0.00000000000E+00 0. -1.
<scales pt_clust_5="13000.00000" pt_clust_6="13000.00000" pt_clust_7="13000.00000" pt_clust_8="13000.00000" pt_clust_9="223.47362"></scales>
<clustering>
<clus scale="   85.242">  5  6 -1 -1</clus>
<clus scale="   92.728">  7  8 -1 -1</clus>
<clus scale="  162.696">  2  5  1 -1</clus>
<clus scale="  223.474">  2  9  1 -1</clus>
<clus scale="  241.948">  1  5  2 -1</clus>
</clustering>
</event>
<event>
 9    1  0.2374319E-005  0.1009635E+03  0.7546771E-02  0.1286869E+00
          1   -1    0    0  502    0  0.00000000000E+00  0.00000000000E+00  0.15131349040E+03  0.15131349040E+03  0.00000000000E+00 0. -1.
         -2   -1    0    0    0  501 -0.00000000000E+00 -0.00000000000E+00 -0.13279170813E+03  0.13279170813E+03  0.00000000000E+00 0.  1.
         23    2    1    2    0    0 -0.27935116334E+01  0.53856154048E+02 -0.73169022048E+02  0.12742364071E+03  0.89301676292E+02 0.  0.
        -24    2    1    2    0    0  0.11728504934E+02 -0.33126496153E+02  0.21145551474E+02  0.82612768705E+02  0.71713406213E+02 0.  0.
         11    1    4    4    0    0  0.26241890550E+02  0.38077424335E+01  0.31915523881E+02  0.41493811426E+02  0.00000000000E+00 0. -1.
        -12    1    4    4    0    0 -0.14513385616E+02 -0.36934238587E+02 -0.10769972407E+02  0.41118957279E+02  0.00000000000E+00 0.  1.
        -13    1    3    3    0    0 -0.21778968622E+02  0.76374087540E+01  0.13968169222E+02  0.26977087281E+02  0.00000000000E+00 0. -1.
         13    1    3    3    0    0  0.18985456989E+02  0.46218745294E+02 -0.87137191271E+02  0.10044655343E+03  0.00000000000E+00 0.  1.
         21    1    1    2  502  501 -0.89349933011E+01 -0.20729657894E+02  0.70545252843E+02  0.74068789111E+02  0.00000000000E+00 0.  1.
<scales pt_clust_5="13000.00000" pt_clust_6="13000.00000" pt_clust_7="13000.00000" pt_clust_8="13000.00000" pt_clust_9="22.57328"></scales>
<clustering>
<clus scale="   22.573">  1  9  2 -1</clus>
<clus scale="   71.713">  5  6 -1 -1</clus>
<clus scale="   85.800">  1  5  2 -1</clus>
<clus scale="   89.302">  7  8 -1 -1</clus>
<clus scale="   22.573">  1  5  2 -1</clus>
</clustering>
</event>
<event>
 9    1  0.2374319E-005  0.1029935E+03  0.7546771E-02  0.1280934E+00
          1   -1    0    0  502    0  0.00000000000E+00  0.00000000000E+00  0.44184822099E+03  0.44184822099E+03  0.00000000000E+00 0. -1.
         -2   -1    0    0    0  501 -0.00000000000E+00 -0.00000000000E+00 -0.14838523078E+03  0.14838523078E+03  0.00000000000E+00 0.  1.
         23    2    1    2    0    0  0.11999075951E+02 -0.71523320185E+02 -0.75709828253E+02  0.13786940232E+03  0.89534523212E+02 0.  0.
        -24    2    1    2    0    0 -0.50082239203E+02 -0.54514935579E+01  0.19392205555E+02  0.92194746977E+02  0.74738639727E+02 0.  0.
         11    1    4    4    0    0 -0.23229996759E+02 -0.14036639713E+02  0.46012589121E+02  0.53421141522E+02  0.00000000000E+00 0. -1.
        -12    1    4    4    0    0 -0.26852242444E+02  0.85851461548E+01 -0.26620383566E+02  0.38773605455E+02  0.00000000000E+00 0.  1.
        -13    1    3    3    0    0 -0.22155373739E+02 -0.30792490170E+01 -0.53855625512E+02  0.58316127781E+02  0.00000000000E+00 0. -1.
         13    1    3    3    0    0  0.34154449691E+02 -0.68444071168E+02 -0.21854202741E+02  0.79553274535E+02  0.00000000000E+00 0.  1.
         21    1    1    2  502  501  0.38083163252E+02  0.76974813743E+02  0.34978061291E+03  0.36016930247E+03  0.00000000000E+00 0. -1.
<scales pt_clust_5="13000.00000" pt_clust_6="13000.00000" pt_clust_7="13000.00000" pt_clust_8="13000.00000" pt_clust_9="85.88044"></scales>
<clustering>
<clus scale="   74.739">  5  6 -1 -1</clus>
<clus scale="   85.880">  1  9  2 -1</clus>
<clus scale="   89.535">  7  8 -1 -1</clus>
<clus scale="   90.427">  1  5  2 -1</clus>
<clus scale="   85.880">  1  5  2 -1</clus>
</clustering>
</event>
<event>
 9    1  0.2374319E-005  0.1033968E+03  0.7546771E-02  0.1278814E+00
         -2   -1    0    0    0  501 -0.00000000000E+00  0.00000000000E+00  0.68909298690E+03  0.68909298690E+03  0.00000000000E+00 0.  1.
          1   -1    0    0  502    0  0.00000000000E+00 -0.00000000000E+00 -0.18284107406E+03  0.18284107406E+03  0.00000000000E+00 0. -1.
        -24    2    1    2    0    0 -0.49331365373E+02 -0.63295539957E+01  0.64029097187E+03  0.64711337769E+03  0.79432663707E+02 0.  0.
         23    2    1    2    0    0  0.29382420996E+02  0.15707104767E+01 -0.70785877695E+01  0.96214430545E+02  0.91330807756E+02 0.  0.
         11    1    3    3    0    0  0.12836903958E+02  0.20926419570E+02  0.12675849680E+03  0.12911397156E+03  0.00000000000E+00 0. -1.
        -12    1    3    3    0    0 -0.62168269331E+02 -0.27255973565E+02  0.51353247507E+03  0.51799940614E+03  0.00000000000E+00 0.  1.
        -11    1    4    4    0    0  0.56651296888E+02  0.70488625775E+01 -0.25840725526E+02  0.62664176357E+02  0.00000000000E+00 0. -1.
         11    1    4    4    0    0 -0.27268875893E+02 -0.54781521008E+01  0.18762137757E+02  0.33550254188E+02  0.00000000000E+00 0.  1.
         21    1    1    2  502  501  0.19948944378E+02  0.47588435189E+01 -0.12696047127E+03  0.12860625272E+03  0.00000000000E+00 0. -1.
<scales pt_clust_5="13000.00000" pt_clust_6="13000.00000" pt_clust_7="13000.00000" pt_clust_8="13000.00000" pt_clust_9="20.50870"></scales>
<clustering>
<clus scale="   20.509">  2  9  1 -1</clus>
<clus scale="   79.433">  5  6 -1 -1</clus>
<clus scale="   91.331">  7  8 -1 -1</clus>
<clus scale="   93.054">  1  5  2 -1</clus>
<clus scale="   20.509">  2  5  1 -1</clus>
</clustering>
</event>
<event>
 9    1  0.2374319E-005  0.3337620E+03  0.7546771E-02  0.1069767E+00
          1   -1    0    0  502    0  0.00000000000E+00  0.00000000000E+00  0.26728961079E+03  0.26728961079E+03  0.00000000000E+00 0. -1.
         -2   -1    0    0    0  501 -0.00000000000E+00 -0.00000000000E+00 -0.50141860246E+03  0.50141860246E+03  0.00000000000E+00 0.  1.
        -24    2    1    2    0    0 -0.13834380856E+03  0.27980339336E+03 -0.19559076348E+03  0.37695197121E+03  0.80050568655E+02 0.  0.
         23    2    1    2    0    0  0.15170508420E+03 -0.29977727025E+03 -0.67269993120E+02  0.35429968373E+03  0.90123080207E+02 0.  0.
         11    1    3    3    0    0 -0.61133153249E+02  0.19407526122E+03 -0.98027754130E+02  0.22585816351E+03  0.00000000000E+00 0. -1.
        -12    1    3    3    0    0 -0.77210655312E+02  0.85728132137E+02 -0.97563009348E+02  0.15109380770E+03  0.00000000000E+00 0.  1.
        -11    1    4    4    0    0  0.34433033067E+02 -0.10102862208E+03 -0.62074769305E+02  0.12347345151E+03  0.00000000000E+00 0.  1.
         11    1    4    4    0    0  0.11727205114E+03 -0.19874864817E+03 -0.51952238150E+01  0.23082623222E+03  0.00000000000E+00 0. -1.
         21    1    1    2  502  501 -0.13361275641E+02  0.19973876891E+02  0.28731764919E+02  0.37456558307E+02  0.00000000000E+00 0. -1.
<scales pt_clust_5="13000.00000" pt_clust_6="13000.00000" pt_clust_7="13000.00000" pt_clust_8="13000.00000" pt_clust_9="24.03080"></scales>
<clustering>
<clus scale="   24.031">  1  9  2 -1</clus>
<clus scale="   80.051">  5  6 -1 -1</clus>
<clus scale="   90.123">  7  8 -1 -1</clus>
<clus scale="  331.184">  2  5  1 -1</clus>
<clus scale="   24.031">  1  5  2 -1</clus>
</clustering>
</event>
<event>
 9    1  0.2374319E-005  0.9393713E+02  0.7546771E-02  0.1301991E+00
          1   -1    0    0  502    0  0.00000000000E+00  0.00000000000E+00  0.10447751388E+03  0.10447751388E+03  0.00000000000E+00 0. -1.
         -2   -1    0    0    0  501 -0.00000000000E+00 -0.00000000000E+00 -0.28335020637E+03  0.28335020637E+03  0.00000000000E+00 0.  1.
        -24    2    1    2    0    0 -0.56047143222E+01 -0.29503295561E+02 -0.22282790136E+03  0.23867548146E+03  0.80074056705E+02 0.  0.
         23    2    1    2    0    0  0.29899405438E+01  0.42191072867E+01  0.66662808286E+02  0.11506760456E+03  0.93647653464E+02 0.  0.
         11    1    3    3    0    0  0.23144338602E+02  0.35664057890E+01 -0.18900394744E+02  0.30093264713E+02  0.00000000000E+00 0. -1.
        -12    1    3    3    0    0 -0.28749052925E+02 -0.33069701350E+02 -0.20392750661E+03  0.20858221675E+03  0.00000000000E+00 0.  1.
        -11    1    4    4    0    0 -0.15779541755E+02  0.45511289577E+02  0.30022110690E+02  0.56759127435E+02  0.00000000000E+00 0. -1.
         11    1    4    4    0    0  0.18769482298E+02 -0.41292182290E+02  0.36640697597E+02  0.58308477123E+02  0.00000000000E+00 0.  1.
         21    1    1    2  502  501  0.26147737784E+01  0.25284188274E+02 -0.22707599421E+02  0.34084634222E+02  0.00000000000E+00 0. -1.
<scales pt_clust_5="13000.00000" pt_clust_6="13000.00000" pt_clust_7="13000.00000" pt_clust_8="13000.00000" pt_clust_9="25.41903"></scales>
<clustering>
<clus scale="   25.419">  2  9  1 -1</clus>
<clus scale="   80.074">  5  6 -1 -1</clus>
<clus scale="   80.412">  2  5  1 -1</clus>
<clus scale="   93.648">  7  8 -1 -1</clus>
<clus scale="   93.937">  1  5  2 -1</clus>
</clustering>
</event>
<event>
 9    1  0.2374319E-005  0.2062755E+03  0.7546771E-02  0.1145561E+00
          1   -1    0    0  502    0  0.00000000000E+00  0.00000000000E+00  0.33919996839E+03  0.33919996839E+03  0.00000000000E+00 0. -1.
         -2   -1    0    0    0  501 -0.00000000000E+00 -0.00000000000E+00 -0.38710384484E+03  0.38710384484E+03  0.00000000000E+00 0.  1.
        -24    2    1    2    0    0 -0.12054781581E+03  0.83224692253E+02 -0.29939921784E+03  0.34311093189E+03  0.81406969259E+02 0.  0.
         23    2    1    2    0    0  0.16387537035E+03 -0.93207941192E+02  0.26357304092E+03  0.33711888576E+03  0.92927595110E+02 0.  0.
         13    1    3    3    0    0 -0.45537606256E+02  0.79175334337E+02 -0.14429086028E+03  0.17076960945E+03  0.00000000000E+00 0. -1.
        -14    1    3    3    0    0 -0.75010209549E+02  0.40493579152E+01 -0.15510835756E+03  0.17234132244E+03  0.00000000000E+00 0.  1.
        -11    1    4    4    0    0  0.49140174884E+02 -0.43047538692E+02  0.29551691500E+02  0.71701812011E+02  0.00000000000E+00 0.  1.
         11    1    4    4    0    0  0.11473519546E+03 -0.50160402500E+02  0.23402134942E+03  0.26541707375E+03  0.00000000000E+00 0. -1.
         21    1    1    2  502  501 -0.43327554540E+02  0.99832489397E+01 -0.12077699525E+02  0.46073995568E+02  0.00000000000E+00 0.  1.
<scales pt_clust_5="13000.00000" pt_clust_6="13000.00000" pt_clust_7="13000.00000" pt_clust_8="13000.00000" pt_clust_9="44.46282"></scales>
<clustering>
<clus scale="   44.463">  2  9  1 -1</clus>
<clus scale="   81.407">  5  6 -1 -1</clus>
<clus scale="   92.928">  7  8 -1 -1</clus>
<clus scale="  201.348">  2  5  1 -1</clus>
<clus scale="  206.275">  1  5  2 -1</clus>
</clustering>
</event>
<event>
 9    1  0.2374319E-005  0.1132623E+03  0.7546771E-02  0.1258020E+00
          1   -1    0    0  502    0  0.00000000000E+00  0.00000000000E+00  0.19375375965E+03  0.19375375965E+03  0.00000000000E+00 0. -1.
         -2   -1    0    0    0  501 -0.00000000000E+00 -0.00000000000E+00 -0.95297511705E+02  0.95297511705E+02  0.00000000000E+00 0.  1.
         23    2    1    2    0    0  0.66500555503E+02 -0.31631523666E+02 -0.61189004432E+01  0.11688729810E+03  0.90566673466E+02 0.  0.
        -24    2    1    2    0    0 -0.61724912705E+02  0.49243817368E+01  0.55909762137E+02  0.11644684830E+03  0.81238861350E+02 0.  0.
         11    1    4    4    0    0 -0.46528550513E+02  0.34052599591E+02  0.60148444117E+02  0.83320590981E+02  0.00000000000E+00 0. -1.
        -12    1    4    4    0    0 -0.15196362192E+02 -0.29128217854E+02 -0.42386819796E+01  0.33126257322E+02  0.00000000000E+00 0.  1.
        -11    1    3    3    0    0  0.45577087811E+02 -0.42734031581E+02 -0.40996107947E+02  0.74727165444E+02  0.00000000000E+00 0.  1.
         11    1    3    3    0    0  0.20923467692E+02  0.11102507915E+02  0.34877207504E+02  0.42160132655E+02  0.00000000000E+00 0. -1.
         21    1    1    2  502  501 -0.47756427977E+01  0.26707141929E+02  0.48665386250E+02  0.55717124953E+02  0.00000000000E+00 0. -1.
<scales pt_clust_5="13000.00000" pt_clust_6="13000.00000" pt_clust_7="13000.00000" pt_clust_8="13000.00000" pt_clust_9="27.13076"></scales>
<clustering>
<clus scale="   27.131">  1  9  2 -1</clus>
<clus scale="   81.239">  5  6 -1 -1</clus>
<clus scale="   90.567">  7  8 -1 -1</clus>
<clus scale="  105.952">  1  5  2 -1</clus>
<clus scale="   27.131">  1  5  2 -1</clus>
</clustering>
</event>
<event>
 9    1  0.2374319E-005  0.1028992E+03  0.7546771E-02  0.1278234E+00
          1   -1    0    0  502    0  0.00000000000E+00  0.00000000000E+00  0.25310799006E+03  0.25310799006E+03  0.00000000000E+00 0. -1.
         -2   -1    0    0    0  501 -0.00000000000E+00 -0.00000000000E+00 -0.25068595979E+03  0.25068595979E+03  0.00000000000E+00 0.  1.
        -24    2    1    2    0    0 -0.39104225805E+02  0.36982039170E+02 -0.19037141479E+03  0.21437109977E+03  0.82564406068E+02 0.  0.
         23    2    1    2    0    0  0.31813960892E+02  0.14160202766E+01  0.39210012417E+01  0.96548904290E+02  0.91061426783E+02 0.  0.
         11    1    3    3    0    0  0.24933864818E+02  0.29922236982E+01 -0.36870835174E+02  0.44610643392E+02  0.00000000000E+00 0. -1.
        -12    1    3    3    0    0 -0.64038090623E+02  0.33989815471E+02 -0.15350057962E+03  0.16976045638E+03  0.00000000000E+00 0.  1.
        -13    1    4    4    0    0 -0.16577189368E+02 -0.20541636592E+02 -0.24735575519E+02  0.36174725120E+02  0.00000000000E+00 0.  1.
         13    1    4    4    0    0  0.48391150261E+02  0.21957656869E+02  0.28656576761E+02  0.60374179170E+02  0.00000000000E+00 0. -1.
         21    1    1    2  502  501  0.72902649125E+01 -0.38398059446E+02  0.18887244382E+03  0.19287394579E+03  0.00000000000E+00 0. -1.
<scales pt_clust_5="13000.00000" pt_clust_6="13000.00000" pt_clust_7="13000.00000" pt_clust_8="13000.00000" pt_clust_9="39.08400"></scales>
<clustering>
<clus scale="   39.084">  1  9  2 -1</clus>
<clus scale="   82.564">  5  6 -1 -1</clus>
<clus scale="   91.061">  7  8 -1 -1</clus>
<clus scale="   95.462">  2  5  1 -1</clus>
<clus scale="   39.084">  1  5  2 -1</clus>
</clustering>
</event>
<event>
 9    1  0.2374319E-005  0.1096719E+03  0.7546771E-02  0.1265799E+00
         -2   -1    0    0    0  501 -0.00000000000E+00  0.00000000000E+00  0.18629513858E+03  0.18629513858E+03  0.00000000000E+00 0.  1.
          1   -1    0    0  502    0  0.00000000000E+00 -0.00000000000E+00 -0.22791948314E+03  0.22791948314E+03  0.00000000000E+00 0. -1.
        -24    2    1    2    0    0  0.63688057669E+01 -0.60259762385E+02  0.14144000521E+03  0.17248488015E+03  0.77935602623E+02 0.  0.
         23    2    1    2    0    0 -0.52821030142E+01  0.84175408199E+02 -0.11108966431E+03  0.16587794933E+03  0.89784077661E+02 0.  0.
         13    1    3    3    0    0  0.68432925911E+01 -0.51189259390E+02  0.28124837802E+02  0.58806270344E+02  0.00000000000E+00 0. -1.
        -14    1    3    3    0    0 -0.47448682422E+00 -0.90705029952E+01  0.11331516741E+03  0.11367860980E+03  0.00000000000E+00 0.  1.
        -13    1    4    4    0    0 -0.33534390796E+02  0.68242008255E+02 -0.36093361847E+02  0.84168033279E+02  0.00000000000E+00 0.  1.
         13    1    4    4    0    0  0.28252287781E+02  0.15933399944E+02 -0.74996302463E+02  0.81709916055E+02  0.00000000000E+00 0. -1.
         21    1    1    2  502  501 -0.10867027527E+01 -0.23915645814E+02 -0.71974685459E+02  0.75851792229E+02  0.00000000000E+00 0. -1.
<scales pt_clust_5="13000.00000" pt_clust_6="13000.00000" pt_clust_7="13000.00000" pt_clust_8="13000.00000" pt_clust_9="23.94032"></scales>
<clustering>
<clus scale="   23.940">  2  9  1 -1</clus>
<clus scale="   77.936">  5  6 -1 -1</clus>
<clus scale="   89.784">  7  8 -1 -1</clus>
<clus scale="  100.203">  1  5  2 -1</clus>
<clus scale="   23.940">  2  5  1 -1</clus>
</clustering>
</event>
<event>
 9    1  0.2374319E-005  0.9853660E+02  0.7546771E-02  0.1293892E+00
         -2   -1    0    0    0  501 -0.00000000000E+00  0.00000000000E+00  0.21412409834E+03  0.21412409834E+03  0.00000000000E+00 0.  1.
          1   -1    0    0  502    0  0.00000000000E+00 -0.00000000000E+00 -0.11661586458E+03  0.11661586458E+03  0.00000000000E+00 0. -1.
         23    2    1    2    0    0  0.39627484930E+02 -0.12350781549E+02  0.17332079717E+03  0.19962292261E+03  0.89924040909E+02 0.  0.
        -24    2    1    2    0    0 -0.37837727533E+02 -0.13639113938E+02 -0.55958810850E+02  0.98362660607E+02  0.70186219702E+02 0.  0.
         11    1    4    4    0    0 -0.32930837845E+02  0.19991907039E+02 -0.76185539518E+01  0.39270329672E+02  0.00000000000E+00 0. -1.
        -12    1    4    4    0    0 -0.49068896878E+01 -0.33631020977E+02 -0.48340256898E+02  0.59092330935E+02  0.00000000000E+00 0.  1.
        -11    1    3    3    0    0  0.57943203819E+02  0.67968434820E+01  0.61758734085E+02  0.84957360987E+02  0.00000000000E+00 0. -1.
         11    1    3    3    0    0 -0.18315718889E+02 -0.19147625031E+02  0.11156206308E+03  0.11466556162E+03  0.00000000000E+00 0.  1.
         21    1    1    2  502  501 -0.17897573968E+01  0.25989895488E+02 -0.19853752557E+02  0.32754379701E+02  0.00000000000E+00 0. -1.
<scales pt_clust_5="13000.00000" pt_clust_6="13000.00000" pt_clust_7="13000.00000" pt_clust_8="13000.00000" pt_clust_9="26.05145"></scales>
<clustering>
<clus scale="   26.051">  2  9  1 -1</clus>
<clus scale="   70.186">  5  6 -1 -1</clus>
<clus scale="   80.927">  2  5  1 -1</clus>
<clus scale="   89.924">  7  8 -1 -1</clus>
<clus scale="   26.051">  2  5  1 -1</clus>
</clustering>
</event>
<event>
 9    1  0.2374319E-005  0.1187847E+03  0.7546771E-02  0.1250131E+00
          1   -1    0    0  502    0  0.00000000000E+00  0.00000000000E+00  0.22497325318E+03  0.22497325318E+03  0.00000000000E+00 0. -1.
         -2   -1    0    0    0  501 -0.00000000000E+00 -0.00000000000E+00 -0.26512698543E+03  0.26512698543E+03  0.00000000000E+00 0.  1.
        -24    2    1    2    0    0 -0.35592721194E+02 -0.67749609282E+02 -0.23243689321E+03  0.25649003326E+03  0.76833433335E+02 0.  0.
         23    2    1    2    0    0  0.17233001941E+02  0.53567101648E+02  0.14297771140E+03  0.17911937887E+03  0.92058216338E+02 0.  0.
         11    1    3    3    0    0  0.88077459586E+01 -0.26692702550E+02 -0.17277781430E+02  0.32993915946E+02  0.00000000000E+00 0. -1.
        -12    1    3    3    0    0 -0.44400467153E+02 -0.41056906732E+02 -0.21515911178E+03  0.22349611731E+03  0.00000000000E+00 0.  1.
        -11    1    4    4    0    0  0.72395008644E+01  0.25804593819E+02  0.14692565737E+03  0.14935004596E+03  0.00000000000E+00 0. -1.
         11    1    4    4    0    0  0.99935010768E+01  0.27762507830E+02 -0.39479459673E+01  0.29769332914E+02  0.00000000000E+00 0.  1.
         21    1    1    2  502  501  0.18359719253E+02  0.14182507633E+02  0.49305449555E+02  0.54490826473E+02  0.00000000000E+00 0. -1.
<scales pt_clust_5="13000.00000" pt_clust_6="13000.00000" pt_clust_7="13000.00000" pt_clust_8="13000.00000" pt_clust_9="23.19963"></scales>
<clustering>
<clus scale="   23.200">  1  9  2 -1</clus>
<clus scale="   76.833">  5  6 -1 -1</clus>
<clus scale="   92.058">  7  8 -1 -1</clus>
<clus scale="  107.417">  2  5  1 -1</clus>
<clus scale="   23.200">  1  5  2 -1</clus>
</clustering>
</event>
<event>
 9    1  0.2374319E-005  0.1124916E+03  0.7546771E-02  0.1260053E+00
          1   -1    0    0  502    0  0.00000000000E+00  0.00000000000E+00  0.11867450453E+03  0.11867450453E+03  0.00000000000E+00 0. -1.
         -2   -1    0    0    0  501 -0.00000000000E+00 -0.00000000000E+00 -0.32235126265E+03  0.32235126265E+03  0.00000000000E+00 0.  1.
        -24    2    1    2    0    0  0.11994597359E+02 -0.66264796241E+02 -0.27428928743E+03  0.29366530317E+03  0.80435088727E+02 0.  0.
         23    2    1    2    0    0  0.48271721491E+01  0.54011653317E+02  0.47623163104E+02  0.11635042693E+03  0.91262784850E+02 0.  0.
         11    1    3    3    0    0 -0.23359692335E+02 -0.63419138992E+02 -0.15225367363E+03  0.16657984137E+03  0.00000000000E+00 0. -1.
        -12    1    3    3    0    0  0.35354289695E+02 -0.28456572496E+01 -0.12203561380E+03  0.12708546180E+03  0.00000000000E+00 0.  1.
        -11    1    4    4    0    0  0.36606919460E+02  0.32317499748E+02 -0.72128547477E+01  0.49361043505E+02  0.00000000000E+00 0.  1.
         11    1    4    4    0    0 -0.31779747311E+02  0.21694153569E+02  0.54836017852E+02  0.66989383428E+02  0.00000000000E+00 0. -1.
         21    1    1    2  502  501 -0.16821769508E+02  0.12253142924E+02  0.22989366204E+02  0.31010037074E+02  0.00000000000E+00 0. -1.
<scales pt_clust_5="13000.00000" pt_clust_6="13000.00000" pt_clust_7="13000.00000" pt_clust_8="13000.00000" pt_clust_9="20.81133"></scales>
<clustering>
<clus scale="   20.811">  1  9  2 -1</clus>
<clus scale="   80.435">  5  6 -1 -1</clus>
<clus scale="   91.263">  7  8 -1 -1</clus>
<clus scale="  103.900">  2  5  1 -1</clus>
<clus scale="   20.811">  1  5  2 -1</clus>
</clustering>
</event>
<event>
 9    1  0.2374319E-005  0.1007548E+03  0.7546771E-02  0.1284711E+00
          1   -1    0    0  502    0  0.00000000000E+00  0.00000000000E+00  0.20895642470E+03  0.20895642470E+03  0.00000000000E+00 0. -1.
         -2   -1    0    0    0  501 -0.00000000000E+00 -0.00000000000E+00 -0.12737137830E+03  0.12737137830E+03  0.00000000000E+00 0.  1.
        -24    2    1    2    0    0 -0.25555082170E+02  0.34624297863E+02 -0.87116559496E+02  0.12574545863E+03  0.79816797729E+02 0.  0.
         23    2    1    2    0    0  0.37193083605E+01 -0.30340563513E+02  0.15934083410E+03  0.18644160191E+03  0.91850892547E+02 0.  0.
         11    1    3    3    0    0  0.17563200138E+02  0.19722060063E+02  0.10988899950E+01  0.26431670614E+02  0.00000000000E+00 0. -1.
        -12    1    3    3    0    0 -0.43118282308E+02  0.14902237800E+02 -0.88215449491E+02  0.99313788013E+02  0.00000000000E+00 0.  1.
        -11    1    4    4    0    0  0.30112964058E+02 -0.52998521345E+02  0.11423425196E+03  0.12948010731E+03  0.00000000000E+00 0. -1.
         11    1    4    4    0    0 -0.26393655697E+02  0.22657957832E+02  0.45106582136E+02  0.56961494592E+02  0.00000000000E+00 0.  1.
         21    1    1    2  502  501  0.21835773810E+02 -0.42837343500E+01  0.93607718005E+01  0.24140742461E+02  0.00000000000E+00 0.  1.
<scales pt_clust_5="13000.00000" pt_clust_6="13000.00000" pt_clust_7="13000.00000" pt_clust_8="13000.00000" pt_clust_9="22.25200"></scales>
<clustering>
<clus scale="   22.252">  1  9  2 -1</clus>
<clus scale="   79.817">  5  6 -1 -1</clus>
<clus scale="   89.920">  2  5  1 -1</clus>
<clus scale="   91.851">  7  8 -1 -1</clus>
<clus scale="   22.252">  1  5  2 -1</clus>
</clustering>
</event>
<event>
 9    1  0.2374319E-005  0.9872128E+02  0.7546771E-02  0.1288567E+00
         -2   -1    0    0    0  501 -0.00000000000E+00  0.00000000000E+00  0.44184134090E+02  0.44184134090E+02  0.00000000000E+00 0.  1.
          1   -1    0    0  502    0  0.00000000000E+00 -0.00000000000E+00 -0.62763528842E+03  0.62763528842E+03  0.00000000000E+00 0. -1.
        -24    2    1    2    0    0  0.34174342635E+02 -0.16588068270E+02 -0.22849101901E+02  0.92077771855E+02  0.80704305391E+02 0.  0.
         23    2    1    2    0    0 -0.90731985164E+01  0.48320547609E+02 -0.45414314443E+03  0.46585347403E+03  0.91412610656E+02 0.  0.
         13    1    3    3    0    0 -0.46815073433E+01 -0.33012153915E+02  0.13907059687E+02  0.36126515556E+02  0.00000000000E+00 0. -1.
        -14    1    3    3    0    0  0.38855849979E+02  0.16424085644E+02 -0.36756161588E+02  0.55951256299E+02  0.00000000000E+00 0.  1.
        -13    1    4    4    0    0 -0.40441939420E+02  0.51285282203E+02 -0.37541936851E+03  0.38105830641E+03  0.00000000000E+00 0. -1.
         13    1    4    4    0    0  0.31368740903E+02 -0.29647345940E+01 -0.78723775919E+02  0.84795167622E+02  0.00000000000E+00 0.  1.
         21    1    1    2  502  501 -0.25101144119E+02 -0.31732479339E+02 -0.10645890801E+03  0.11388817662E+03  0.00000000000E+00 0.  1.
<scales pt_clust_5="13000.00000" pt_clust_6="13000.00000" pt_clust_7="13000.00000" pt_clust_8="13000.00000" pt_clust_9="40.46008"></scales>
<clustering>
<clus scale="   40.460">  2  9  1 -1</clus>
<clus scale="   80.704">  5  6 -1 -1</clus>
<clus scale="   88.898">  1  5  2 -1</clus>
<clus scale="   91.413">  7  8 -1 -1</clus>
<clus scale="   40.460">  2  5  1 -1</clus>
</clustering>
</event>
<event>
 9    1  0.2374319E-005  0.3100077E+03  0.7546771E-02  0.1080732E+00
          1   -1    0    0  502    0  0.00000000000E+00  0.00000000000E+00  0.70495208275E+03  0.70495208275E+03  0.00000000000E+00 0. -1.
         -2   -1    0    0    0  501 -0.00000000000E+00 -0.00000000000E+00 -0.39172073050E+03  0.39172073050E+03  0.00000000000E+00 0.  1.
         23    2    1    2    0    0 -0.26672831716E+02  0.29050273877E+03 -0.24584756243E+03  0.39205653969E+03  0.90354995309E+02 0.  0.
        -24    2    1    2    0    0  0.10155512452E+03 -0.31813187998E+03  0.40248670089E+03  0.52885550252E+03  0.78557378841E+02 0.  0.
         13    1    4    4    0    0  0.10518776964E+03 -0.21003213053E+03  0.27659557605E+03  0.36288162730E+03  0.00000000000E+00 0. -1.
        -14    1    4    4    0    0 -0.36326451259E+01 -0.10809974945E+03  0.12589112484E+03  0.16597387522E+03  0.00000000000E+00 0.  1.
        -13    1    3    3    0    0 -0.48057084291E+02  0.24627594891E+03 -0.23014654332E+03  0.34048312405E+03  0.00000000000E+00 0.  1.
         13    1    3    3    0    0  0.21384252575E+02  0.44226789866E+02 -0.15701019109E+02  0.51573415643E+02  0.00000000000E+00 0. -1.
         21    1    1    2  502  501 -0.74882292803E+02  0.27629141205E+02  0.15659221378E+03  0.17576077104E+03  0.00000000000E+00 0.  1.
<scales pt_clust_5="13000.00000" pt_clust_6="13000.00000" pt_clust_7="13000.00000" pt_clust_8="13000.00000" pt_clust_9="79.81684"></scales>
<clustering>
<clus scale="   78.557">  5  6 -1 -1</clus>
<clus scale="   79.817">  1  9  2 -1</clus>
<clus scale="   90.355">  7  8 -1 -1</clus>
<clus scale="  306.777">  1  5  2 -1</clus>
<clus scale="   79.817">  1  5  2 -1</clus>
</clustering>
</event>
<event>
 9    1  0.2374319E-005  0.2313609E+03  0.7546771E-02  0.1146381E+00
          1   -1    0    0  502    0  0.00000000000E+00  0.00000000000E+00  0.23276853313E+04  0.23276853313E+04  0.00000000000E+00 0. -1.
         -2   -1    0    0    0  501 -0.00000000000E+00 -0.00000000000E+00 -0.44831007939E+02  0.44831007939E+02  0.00000000000E+00 0.  1.
         23    2    1    2    0    0 -0.26261118339E+02  0.17947792588E+03  0.50469910532E+03  0.54386882226E+03  0.90388808462E+02 0.  0.
        -24    2    1    2    0    0  0.51594264922E+02  0.10268055202E+03  0.70328232107E+03  0.71706894594E+03  0.79853529407E+02 0.  0.
         13    1    4    4    0    0  0.43356796698E+02  0.11597073471E+03  0.64151394980E+03  0.65335225638E+03  0.00000000000E+00 0. -1.
        -14    1    4    4    0    0  0.82374682245E+01 -0.13290182686E+02  0.61768371277E+02  0.63716689562E+02  0.00000000000E+00 0.  1.
        -11    1    3    3    0    0 -0.12935947345E+02  0.12203265021E+03  0.20914471321E+03  0.24248879874E+03  0.00000000000E+00 0. -1.
         11    1    3    3    0    0 -0.13325170993E+02  0.57445275677E+02  0.29555439211E+03  0.30138002352E+03  0.00000000000E+00 0.  1.
         21    1    1    2  502  501 -0.25333146584E+02 -0.28215847791E+03  0.10748728970E+04  0.11115785711E+04  0.00000000000E+00 0.  1.
<scales pt_clust_5="13000.00000" pt_clust_6="13000.00000" pt_clust_7="13000.00000" pt_clust_8="13000.00000" pt_clust_9="212.97349"></scales>
<clustering>
<clus scale="   79.854">  5  6 -1 -1</clus>
<clus scale="   90.389">  7  8 -1 -1</clus>
<clus scale="  139.935">  1  5  2 -1</clus>
<clus scale="  212.973">  1  9  2 -1</clus>
<clus scale="  139.935">  1  5  2 -1</clus>
</clustering>
</event>
<event>
 9    1  0.2374319E-005  0.1328733E+03  0.7546771E-02  0.1226210E+00
         -2   -1    0    0    0  501 -0.00000000000E+00  0.00000000000E+00  0.20330140277E+03  0.20330140277E+03  0.00000000000E+00 0.  1.
          1   -1    0    0  502    0  0.00000000000E+00 -0.00000000000E+00 -0.24703403565E+03  0.24703403565E+03  0.00000000000E+00 0. -1.
        -24    2    1    2    0    0  0.97470249333E+02  0.22672909456E+02  0.11606860610E+03  0.17256934961E+03  0.79333150538E+02 0.  0.
         23    2    1    2    0    0 -0.81002984100E+02 -0.36909585376E+02 -0.11689910245E+02  0.12806365241E+03  0.91322747113E+02 0.  0.
         13    1    3    3    0    0  0.48911448892E+02 -0.45512586554E+01  0.63444896619E+01  0.49530761524E+02  0.00000000000E+00 0. -1.
        -14    1    3    3    0    0  0.48558800441E+02  0.27224168112E+02  0.10972411644E+03  0.12303858809E+03  0.00000000000E+00 0.  1.
        -13    1    4    4    0    0 -0.50904026555E+02 -0.67244781329E+02 -0.12860102590E+02  0.85313907273E+02  0.00000000000E+00 0. -1.
         13    1    4    4    0    0 -0.30098957545E+02  0.30335195953E+02  0.11701923454E+01  0.42749745133E+02  0.00000000000E+00 0.  1.
         21    1    1    2  502  501 -0.16467265233E+02  0.14236675920E+02 -0.14811132874E+03  0.14970243640E+03  0.00000000000E+00 0.  1.
<scales pt_clust_5="13000.00000" pt_clust_6="13000.00000" pt_clust_7="13000.00000" pt_clust_8="13000.00000" pt_clust_9="21.76818"></scales>
<clustering>
<clus scale="   21.768">  2  9  1 -1</clus>
<clus scale="   79.333">  5  6 -1 -1</clus>
<clus scale="   91.323">  7  8 -1 -1</clus>
<clus scale="  124.937">  1  5  2 -1</clus>
<clus scale="   21.768">  2  5  1 -1</clus>
</clustering>
</event>
<event>
 9    1  0.2374319E-005  0.9014831E+02  0.7546771E-02  0.1308471E+00
         -2   -1    0    0    0  501 -0.00000000000E+00  0.00000000000E+00  0.81565754829E+02  0.81565754829E+02  0.00000000000E+00 0.  1.
          1   -1    0    0  502    0  0.00000000000E+00 -0.00000000000E+00 -0.16779359174E+03  0.16779359174E+03  0.00000000000E+00 0. -1.
        -24    2    1    2    0    0 -0.17116833701E+01  0.14086378944E+02  0.21139388615E+02  0.82526648259E+02  0.78501069993E+02 0.  0.
         23    2    1    2    0    0 -0.21014212607E+02 -0.34445406950E+02 -0.76631375630E+02  0.12352393663E+03  0.88077874626E+02 0.  0.
         13    1    3    3    0    0 -0.19246229199E+02  0.33483250136E+02  0.35704390742E+02  0.52596092025E+02  0.00000000000E+00 0. -1.
        -14    1    3    3    0    0  0.17534545829E+02 -0.19396871192E+02 -0.14565002127E+02  0.29930556233E+02  0.00000000000E+00 0.  1.
        -11    1    4    4    0    0  0.27870508554E+02  0.10304919941E+02 -0.16249200420E+02  0.33867287112E+02  0.00000000000E+00 0.  1.
         11    1    4    4    0    0 -0.48884721161E+02 -0.44750326891E+02 -0.60382175211E+02  0.89656649520E+02  0.00000000000E+00 0. -1.
         21    1    1    2  502  501  0.22725895977E+02  0.20359028006E+02 -0.30735849894E+02  0.43308761677E+02  0.00000000000E+00 0. -1.
<scales pt_clust_5="13000.00000" pt_clust_6="13000.00000" pt_clust_7="13000.00000" pt_clust_8="13000.00000" pt_clust_9="30.51158"></scales>
<clustering>
<clus scale="   30.512">  2  9  1 -1</clus>
<clus scale="   78.501">  5  6 -1 -1</clus>
<clus scale="   80.817">  1  5  2 -1</clus>
<clus scale="   88.078">  7  8 -1 -1</clus>
<clus scale="   30.512">  2  5  1 -1</clus>
</clustering>
</event>
<event>
 9    1  0.2374319E-005  0.1349814E+03  0.7546771E-02  0.1222030E+00
         -2   -1    0    0    0  501 -0.00000000000E+00  0.00000000000E+00  0.18130695645E+03  0.18130695645E+03  0.00000000000E+00 0.  1.
          1   -1    0    0  502    0  0.00000000000E+00 -0.00000000000E+00 -0.90005001182E+03  0.90005001182E+03  0.00000000000E+00 0. -1.
         23    2    1    2    0    0 -0.93541608937E+02  0.23115365918E+02  0.13323068604E+03  0.18926915574E+03  0.93744572465E+02 0.  0.
        -24    2    1    2    0    0  0.12820805192E+03  0.65581828518E+02 -0.50006177131E+03  0.52751821797E+03  0.86460478600E+02 0.  0.
         11    1    4    4    0    0  0.10934460473E+03  0.66904331092E+02 -0.48918840195E+03  0.50570517567E+03  0.00000000000E+00 0. -1.
        -12    1    4    4    0    0  0.18863447194E+02 -0.13225025735E+01 -0.10873369359E+02  0.21813042299E+02  0.00000000000E+00 0.  1.
        -11    1    3    3    0    0 -0.39154915907E+02  0.40384044679E+02  0.11719750062E+03  0.12999704864E+03  0.00000000000E+00 0.  1.
         11    1    3    3    0    0 -0.54386693029E+02 -0.17268678761E+02  0.16033185424E+02  0.59272107096E+02  0.00000000000E+00 0. -1.
         21    1    1    2  502  501 -0.34666442987E+02 -0.88697194437E+02 -0.35191197011E+03  0.36456959456E+03  0.00000000000E+00 0.  1.
<scales pt_clust_5="13000.00000" pt_clust_6="13000.00000" pt_clust_7="13000.00000" pt_clust_8="13000.00000" pt_clust_9="95.23106"></scales>
<clustering>
<clus scale="   86.460">  5  6 -1 -1</clus>
<clus scale="   93.745">  7  8 -1 -1</clus>
<clus scale="   95.231">  2  9  1 -1</clus>
<clus scale="  130.028">  2  5  1 -1</clus>
<clus scale="   95.231">  2  5  1 -1</clus>
</clustering>
</event>
<event>
 9    1  0.2374319E-005  0.1285861E+03  0.7546771E-02  0.1232791E+00
         -2   -1    0    0    0  501 -0.00000000000E+00  0.00000000000E+00  0.17688213478E+03  0.17688213478E+03  0.00000000000E+00 0.  1.
          1   -1    0    0  502    0  0.00000000000E+00 -0.00000000000E+00 -0.17396817967E+03  0.17396817967E+03  0.00000000000E+00 0. -1.
         23    2    1    2    0    0  0.42935900546E+02 -0.33612877142E+02  0.21565787089E+01  0.10705287430E+03  0.92099674255E+02 0.  0.
        -24    2    1    2    0    0 -0.11612425028E+03  0.61969007242E+02  0.35201984089E+02  0.15808258934E+03  0.80161873765E+02 0.  0.
         11    1    4    4    0    0 -0.55540075268E+02 -0.19101946758E+01  0.42178933330E+02  0.69766834681E+02  0.00000000000E+00 0. -1.
        -12    1    4    4    0    0 -0.60584175014E+02  0.63879201918E+02 -0.69769492419E+01  0.88315754656E+02  0.00000000000E+00 0.  1.
        -13    1    3    3    0    0  0.22216471047E+02 -0.44516187421E+02  0.39125536468E+02  0.63293523620E+02  0.00000000000E+00 0.  1.
         13    1    3    3    0    0  0.20719429499E+02  0.10903310279E+02 -0.36968957759E+02  0.43759350676E+02  0.00000000000E+00 0. -1.
         21    1    1    2  502  501  0.73188349737E+02 -0.28356130100E+02 -0.34444607686E+02  0.85714850814E+02  0.00000000000E+00 0.  1.
<scales pt_clust_5="13000.00000" pt_clust_6="13000.00000" pt_clust_7="13000.00000" pt_clust_8="13000.00000" pt_clust_9="78.48952"></scales>
<clustering>
<clus scale="   78.490">  2  9  1 -1</clus>
<clus scale="   80.162">  5  6 -1 -1</clus>
<clus scale="   92.100">  7  8 -1 -1</clus>
<clus scale="  120.324">  2  5  1 -1</clus>
<clus scale="   78.490">  2  5  1 -1</clus>
</clustering>
</event>
<event>
 9    1  0.2374319E-005  0.1261525E+03  0.7546771E-02  0.1234247E+00
         -2   -1    0    0    0  501 -0.00000000000E+00  0.00000000000E+00  0.25388733564E+03  0.25388733564E+03  0.00000000000E+00 0.  1.
          1   -1    0    0  502    0  0.00000000000E+00 -0.00000000000E+00 -0.24065761414E+03  0.24065761414E+03  0.00000000000E+00 0. -1.
        -24    2    1    2    0    0 -0.74132910196E+02 -0.43144393187E+02  0.16398519713E+03  0.20273578229E+03  0.82786022419E+02 0.  0.
         23    2    1    2    0    0  0.11942399495E+03  0.27997121444E+02 -0.18505352433E+02  0.15120042919E+03  0.86447627733E+02 0.  0.
         13    1    3    3    0    0  0.89593652530E+01 -0.33047085978E+02  0.34932297653E+02  0.48914676087E+02  0.00000000000E+00 0. -1.
        -14    1    3    3    0    0 -0.83092275449E+02 -0.10097307209E+02  0.12905289947E+03  0.15382110621E+03  0.00000000000E+00 0.  1.
        -13    1    4    4    0    0  0.82307304239E+02  0.48163435746E+02 -0.40463263757E+02  0.10359287904E+03  0.00000000000E+00 0. -1.
         13    1    4    4    0    0  0.37116690707E+02 -0.20166314302E+02  0.21957911324E+02  0.47607550150E+02  0.00000000000E+00 0.  1.
         21    1    1    2  502  501 -0.45291084751E+02  0.15147271743E+02 -0.13225012320E+03  0.14060873830E+03  0.00000000000E+00 0.  1.
<scales pt_clust_5="13000.00000" pt_clust_6="13000.00000" pt_clust_7="13000.00000" pt_clust_8="13000.00000" pt_clust_9="47.75691"></scales>
<clustering>
<clus scale="   47.757">  2  9  1 -1</clus>
<clus scale="   82.786">  5  6 -1 -1</clus>
<clus scale="   86.448">  7  8 -1 -1</clus>
<clus scale="  123.672">  1  5  2 -1</clus>
<clus scale="   47.757">  2  5  1 -1</clus>
</clustering>
</event>
<event>
 9    1  0.2374319E-005  0.9767522E+02  0.7546771E-02  0.1285495E+00
         -4   -1    0    0    0  501 -0.00000000000E+00  0.00000000000E+00  0.37094067383E+03  0.37094067383E+03  0.00000000000E+00 0.  1.
          3   -1    0    0  502    0  0.00000000000E+00 -0.00000000000E+00 -0.93683514669E+02  0.93683514669E+02  0.00000000000E+00 0. -1.
        -24    2    1    2    0    0  0.89414481043E+01 -0.59124711215E+02  0.30357275886E+03  0.31969804715E+03  0.80465771962E+02 0.  0.
         23    2    1    2    0    0 -0.25245374938E+02  0.95920262914E+01 -0.34623004644E+02  0.92121616137E+02  0.80983354987E+02 0.  0.
         13    1    3    3    0    0 -0.19173353940E+02  0.64388370235E+01  0.25109280175E+02  0.32242085454E+02  0.00000000000E+00 0. -1.
        -14    1    3    3    0    0  0.28114802044E+02 -0.65563548238E+02  0.27846347869E+03  0.28745596170E+03  0.00000000000E+00 0.  1.
        -13    1    4    4    0    0 -0.27373673961E+02 -0.31762284100E+02 -0.74342102861E+01  0.42584365675E+02  0.00000000000E+00 0.  1.
         13    1    4    4    0    0  0.21282990230E+01  0.41354310391E+02 -0.27188794358E+02  0.49537250461E+02  0.00000000000E+00 0. -1.
         21    1    1    2  502  501  0.16303926834E+02  0.49532684923E+02  0.83074049398E+01  0.52804525211E+02  0.00000000000E+00 0. -1.
<scales pt_clust_5="13000.00000" pt_clust_6="13000.00000" pt_clust_7="13000.00000" pt_clust_8="13000.00000" pt_clust_9="52.14695"></scales>
<clustering>
<clus scale="   52.147">  2  9  1 -1</clus>
<clus scale="   80.466">  5  6 -1 -1</clus>
<clus scale="   80.983">  7  8 -1 -1</clus>
<clus scale="   97.247">  1  5  2 -1</clus>
<clus scale="   52.147">  2  5  1 -1</clus>
</clustering>
</event>
<event>
 9    1  0.2374319E-005  0.1190341E+03  0.7546771E-02  0.1247919E+00
          1   -1    0    0  502    0  0.00000000000E+00  0.00000000000E+00  0.20779190690E+03  0.20779190690E+03  0.00000000000E+00 0. -1.
         -2   -1    0    0    0  501 -0.00000000000E+00 -0.00000000000E+00 -0.27246086429E+03  0.27246086429E+03  0.00000000000E+00 0.  1.
         23    2    1    2    0    0  0.76084326146E+02 -0.29947006465E+02 -0.22509592065E+03  0.25546211019E+03  0.88921697972E+02 0.  0.
        -24    2    1    2    0    0 -0.34078664605E+02  0.59787589288E+02  0.12116585150E+03  0.16001125932E+03  0.78654487001E+02 0.  0.
         13    1    4    4    0    0 -0.42198575166E+02  0.53855309882E+02  0.12981881620E+03  0.14674480975E+03  0.00000000000E+00 0. -1.
        -14    1    4    4    0    0  0.81199105614E+01  0.59322794057E+01 -0.86529646914E+01  0.13266449579E+02  0.00000000000E+00 0.  1.
        -13    1    3    3    0    0  0.43199777104E+02  0.27327455827E+02 -0.12993775077E+03  0.13963104833E+03  0.00000000000E+00 0.  1.
         13    1    3    3    0    0  0.32884549042E+02 -0.57274462293E+02 -0.95158169879E+02  0.11583106186E+03  0.00000000000E+00 0. -1.
         21    1    1    2  502  501 -0.42005661541E+02 -0.29840582823E+02  0.39261111753E+02  0.64779401671E+02  0.00000000000E+00 0. -1.
<scales pt_clust_5="13000.00000" pt_clust_6="13000.00000" pt_clust_7="13000.00000" pt_clust_8="13000.00000" pt_clust_9="51.52607"></scales>
<clustering>
<clus scale="   51.526">  1  9  2 -1</clus>
<clus scale="   78.654">  5  6 -1 -1</clus>
<clus scale="   88.922">  7  8 -1 -1</clus>
<clus scale="  111.573">  1  5  2 -1</clus>
<clus scale="   51.526">  1  5  2 -1</clus>
</clustering>
</event>
<event>
 9    1  0.2374319E-005  0.1263168E+03  0.7546771E-02  0.1237486E+00
         -2   -1    0    0    0  501 -0.00000000000E+00  0.00000000000E+00  0.66721248498E+02  0.66721248498E+02  0.00000000000E+00 0.  1.
          1   -1    0    0  502    0  0.00000000000E+00 -0.00000000000E+00 -0.36197734034E+03  0.36197734034E+03  0.00000000000E+00 0. -1.
        -24    2    1    2    0    0  0.64119099251E+02 -0.35473043875E+02 -0.40066967949E+02  0.11601726000E+03  0.80529789320E+02 0.  0.
         23    2    1    2    0    0 -0.91407711759E+02  0.58093434515E+02 -0.19294349553E+03  0.24105124650E+03  0.95646714879E+02 0.  0.
         11    1    3    3    0    0  0.58207690111E+02 -0.54377263459E+02 -0.10379730692E+02  0.80329078038E+02  0.00000000000E+00 0. -1.
        -12    1    3    3    0    0  0.59114091400E+01  0.18904219584E+02 -0.29687237257E+02  0.35688181966E+02  0.00000000000E+00 0.  1.
        -13    1    4    4    0    0 -0.38433737506E+02 -0.18977672580E+02 -0.27266503081E+02  0.50801244330E+02  0.00000000000E+00 0. -1.
         13    1    4    4    0    0 -0.52973974253E+02  0.77071107095E+02 -0.16567699245E+03  0.19025000217E+03  0.00000000000E+00 0.  1.
         21    1    1    2  502  501  0.27288612509E+02 -0.22620390640E+02 -0.62245628365E+02  0.71630082339E+02  0.00000000000E+00 0. -1.
<scales pt_clust_5="13000.00000" pt_clust_6="13000.00000" pt_clust_7="13000.00000" pt_clust_8="13000.00000" pt_clust_9="35.44503"></scales>
<clustering>
<clus scale="   35.445">  2  9  1 -1</clus>
<clus scale="   80.530">  5  6 -1 -1</clus>
<clus scale="   95.647">  7  8 -1 -1</clus>
<clus scale="  115.294">  1  5  2 -1</clus>
<clus scale="   35.445">  2  5  1 -1</clus>
</clustering>
</event>
<event>
 9    1  0.2374319E-005  0.1793921E+03  0.7546771E-02  0.1169643E+00
         -2   -1    0    0    0  501 -0.00000000000E+00  0.00000000000E+00  0.23259789725E+03  0.23259789725E+03  0.00000000000E+00 0.  1.
          1   -1    0    0  502    0  0.00000000000E+00 -0.00000000000E+00 -0.26617460204E+03  0.26617460204E+03  0.00000000000E+00 0. -1.
         23    2    1    2    0    0 -0.23411803252E+02 -0.19453671256E+03  0.91581669121E+02  0.23415137649E+03  0.89705183403E+02 0.  0.
        -24    2    1    2    0    0  0.11362025791E+02  0.10601795464E+03 -0.34116097581E+02  0.13706931481E+03  0.79089737721E+02 0.  0.
         11    1    4    4    0    0  0.45078909676E+02  0.58932881020E+02 -0.25844640667E+02  0.78569319801E+02  0.00000000000E+00 0. -1.
        -12    1    4    4    0    0 -0.33716883885E+02  0.47085073622E+02 -0.82714569133E+01  0.58499995012E+02  0.00000000000E+00 0.  1.
        -11    1    3    3    0    0  0.31092982527E+02 -0.46595362687E+02  0.10988723845E+02  0.57084616475E+02  0.00000000000E+00 0. -1.
         11    1    3    3    0    0 -0.54504785779E+02 -0.14794134987E+03  0.80592945276E+02  0.17706676002E+03  0.00000000000E+00 0.  1.
         21    1    1    2  502  501  0.12049777461E+02  0.88518757916E+02 -0.91042276339E+02  0.12755180799E+03  0.00000000000E+00 0. -1.
<scales pt_clust_5="13000.00000" pt_clust_6="13000.00000" pt_clust_7="13000.00000" pt_clust_8="13000.00000" pt_clust_9="89.33514"></scales>
<clustering>
<clus scale="   79.090">  5  6 -1 -1</clus>
<clus scale="   89.335">  2  9  1 -1</clus>
<clus scale="   89.705">  7  8 -1 -1</clus>
<clus scale="  174.326">  2  5  1 -1</clus>
<clus scale="   89.335">  2  5  1 -1</clus>
</clustering>
</event>
<event>
 9    1  0.2374319E-005  0.1026052E+03  0.7546771E-02  0.1276210E+00
         -4   -1    0    0    0  501 -0.00000000000E+00  0.00000000000E+00  0.89090030271E+02  0.89090030271E+02  0.00000000000E+00 0.  1.
          3   -1    0    0  502    0  0.00000000000E+00 -0.00000000000E+00 -0.23170514002E+03  0.23170514002E+03  0.00000000000E+00 0. -1.
        -24    2    1    2    0    0 -0.14556484072E+02 -0.22547642124E+02  0.19000335957E+02  0.99898701435E+02  0.94331598036E+02 0.  0.
         23    2    1    2    0    0  0.12302707818E+02  0.52885722842E+02 -0.89811169625E+02  0.14291356873E+03  0.97005080468E+02 0.  0.
         11    1    3    3    0    0 -0.24376112724E+02  0.15650050371E+02 -0.26795782950E+02  0.39460523718E+02  0.00000000000E+00 0. -1.
        -12    1    3    3    0    0  0.98196286525E+01 -0.38197692495E+02  0.45796118907E+02  0.60438177717E+02  0.00000000000E+00 0.  1.
        -11    1    4    4    0    0 -0.23422967606E+02  0.67654844340E+02 -0.49363613773E+02  0.86963094120E+02  0.00000000000E+00 0. -1.
         11    1    4    4    0    0  0.35725675423E+02 -0.14769121498E+02 -0.40447555853E+02  0.55950474607E+02  0.00000000000E+00 0.  1.
         21    1    1    2  502  501  0.22537762539E+01 -0.30338080719E+02 -0.71804276076E+02  0.77982900125E+02  0.00000000000E+00 0.  1.
<scales pt_clust_5="13000.00000" pt_clust_6="13000.00000" pt_clust_7="13000.00000" pt_clust_8="13000.00000" pt_clust_9="30.42168"></scales>
<clustering>
<clus scale="   30.422">  2  9  1 -1</clus>
<clus scale="   94.332">  5  6 -1 -1</clus>
<clus scale="   97.005">  7  8 -1 -1</clus>
<clus scale="  100.081">  1  5  2 -1</clus>
<clus scale="   30.422">  2  5  1 -1</clus>
</clustering>
</event>
<event>
 9    1  0.2374319E-005  0.1751846E+03  0.7546771E-02  0.1175048E+00
         -2   -1    0    0    0  501 -0.00000000000E+00  0.00000000000E+00  0.20880310847E+03  0.20880310847E+03  0.00000000000E+00 0.  1.
          1   -1    0    0  502    0  0.00000000000E+00 -0.00000000000E+00 -0.29305116971E+03  0.29305116971E+03  0.00000000000E+00 0. -1.
         23    2    1    2    0    0  0.14631312419E+03  0.12579308672E+02  0.12793359391E+03  0.21776417860E+03  0.97408745581E+02 0.  0.
        -24    2    1    2    0    0 -0.14076032466E+03  0.13151452557E+02 -0.19090097143E+03  0.25024082845E+03  0.78682028608E+02 0.  0.
         11    1    4    4    0    0 -0.11478550954E+03  0.66350136694E+01 -0.19160121672E+03  0.22345192516E+03  0.00000000000E+00 0. -1.
        -12    1    4    4    0    0 -0.25974815120E+02  0.65164388878E+01  0.70024528601E+00  0.26788903295E+02  0.00000000000E+00 0.  1.
        -13    1    3    3    0    0  0.60291087992E+02 -0.10070076567E+02 -0.98559725603E+00  0.61134222292E+02  0.00000000000E+00 0. -1.
         13    1    3    3    0    0  0.86022036195E+02  0.22649385239E+02  0.12891919117E+03  0.15662995631E+03  0.00000000000E+00 0.  1.
         21    1    1    2  502  501 -0.55527995231E+01 -0.25730761229E+02 -0.21280683723E+02  0.33849271125E+02  0.00000000000E+00 0.  1.
<scales pt_clust_5="13000.00000" pt_clust_6="13000.00000" pt_clust_7="13000.00000" pt_clust_8="13000.00000" pt_clust_9="26.32310"></scales>
<clustering>
<clus scale="   26.323">  2  9  1 -1</clus>
<clus scale="   78.682">  5  6 -1 -1</clus>
<clus scale="   97.409">  7  8 -1 -1</clus>
<clus scale="  165.505">  2  5  1 -1</clus>
<clus scale="   26.323">  2  5  1 -1</clus>
</clustering>
</event>
<event>
 9    1  0.2374319E-005  0.1839570E+03  0.7546771E-02  0.1176694E+00
          1   -1    0    0  502    0  0.00000000000E+00  0.00000000000E+00  0.49565697345E+03  0.49565697345E+03  0.00000000000E+00 0. -1.
         -2   -1    0    0    0  501 -0.00000000000E+00 -0.00000000000E+00 -0.65989534854E+03  0.65989534854E+03  0.00000000000E+00 0.  1.
        -24    2    1    2    0    0  0.97984929758E+02 -0.19360221039E+02 -0.58604442373E+03  0.60200690980E+03  0.94807110743E+02 0.  0.
         23    2    1    2    0    0 -0.69262762722E+02  0.16972992914E+03  0.26187064326E+03  0.33215131588E+03  0.90236820026E+02 0.  0.
         13    1    3    3    0    0 -0.17189413867E+00 -0.27068500085E+02 -0.48707750600E+02  0.55724125951E+02  0.00000000000E+00 0. -1.
        -14    1    3    3    0    0  0.98156823897E+02  0.77082790457E+01 -0.53733667313E+03  0.54628278385E+03  0.00000000000E+00 0.  1.
        -11    1    4    4    0    0 -0.49282089602E+02  0.14940694999E+03  0.15241749288E+03  0.21904851791E+03  0.00000000000E+00 0.  1.
         11    1    4    4    0    0 -0.19980673120E+02  0.20322979153E+02  0.10945315038E+03  0.11310279797E+03  0.00000000000E+00 0. -1.
         21    1    1    2  502  501 -0.28722167036E+02 -0.15036970810E+03  0.15993540537E+03  0.22139409632E+03  0.00000000000E+00 0.  1.
<scales pt_clust_5="13000.00000" pt_clust_6="13000.00000" pt_clust_7="13000.00000" pt_clust_8="13000.00000" pt_clust_9="160.30442"></scales>
<clustering>
<clus scale="   90.237">  7  8 -1 -1</clus>
<clus scale="   94.807">  5  6 -1 -1</clus>
<clus scale="  137.711">  2  5  1 -1</clus>
<clus scale="  160.304">  2  9  1 -1</clus>
<clus scale="  183.957">  1  5  2 -1</clus>
</clustering>
</event>
<event>
 9    1  0.2374319E-005  0.1088202E+03  0.7546771E-02  0.1265446E+00
          1   -1    0    0  502    0  0.00000000000E+00  0.00000000000E+00  0.44475346428E+03  0.44475346428E+03  0.00000000000E+00 0. -1.
         -2   -1    0    0    0  501 -0.00000000000E+00 -0.00000000000E+00 -0.95884049626E+02  0.95884049626E+02  0.00000000000E+00 0.  1.
        -24    2    1    2    0    0  0.31447805585E+02 -0.10201972647E+03 -0.50362669769E+01  0.13533869217E+03  0.83031370867E+02 0.  0.
         23    2    1    2    0    0 -0.20882592381E+02  0.52141730595E+02  0.33428195631E+03  0.35066798064E+03  0.89826296834E+02 0.  0.
         13    1    3    3    0    0  0.39484918181E+02 -0.16589558270E+02  0.18055088184E+02  0.46478580192E+02  0.00000000000E+00 0. -1.
        -14    1    3    3    0    0 -0.80371125959E+01 -0.85430168200E+02 -0.23091355161E+02  0.88860111978E+02  0.00000000000E+00 0.  1.
        -11    1    4    4    0    0 -0.52465011272E+02  0.47967007760E+02  0.26574828030E+03  0.27509191141E+03  0.00000000000E+00 0.  1.
         11    1    4    4    0    0  0.31582418891E+02  0.41747228343E+01  0.68533676003E+02  0.75576069230E+02  0.00000000000E+00 0. -1.
         21    1    1    2  502  501 -0.10565213204E+02  0.49877995875E+02  0.19623725321E+02  0.54630841088E+02  0.00000000000E+00 0. -1.
<scales pt_clust_5="13000.00000" pt_clust_6="13000.00000" pt_clust_7="13000.00000" pt_clust_8="13000.00000" pt_clust_9="50.98469"></scales>
<clustering>
<clus scale="   50.985">  2  9  1 -1</clus>
<clus scale="   83.031">  5  6 -1 -1</clus>
<clus scale="   89.826">  7  8 -1 -1</clus>
<clus scale="  103.283">  2  5  1 -1</clus>
<clus scale="  108.820">  1  5  2 -1</clus>
</clustering>
</event>
<event>
 9    1  0.2374319E-005  0.2479327E+03  0.7546771E-02  0.1115109E+00
         -2   -1    0    0    0  501 -0.00000000000E+00  0.00000000000E+00  0.13717524204E+04  0.13717524204E+04  0.00000000000E+00 0.  1.
          1   -1    0    0  502    0  0.00000000000E+00 -0.00000000000E+00 -0.54328090987E+02  0.54328090987E+02  0.00000000000E+00 0. -1.
        -24    2    1    2    0    0 -0.10412618040E+03 -0.19561760244E+03  0.64435710924E+03  0.68633021307E+03  0.82125326901E+02 0.  0.
         23    2    1    2    0    0  0.11796693083E+03  0.21021996678E+03  0.67190940357E+03  0.71959748325E+03  0.90827639428E+02 0.  0.
         11    1    3    3    0    0 -0.62295163783E+02 -0.55548973191E+02  0.16095565125E+03  0.18130939723E+03  0.00000000000E+00 0. -1.
        -12    1    3    3    0    0 -0.41831016619E+02 -0.14006862925E+03  0.48340145799E+03  0.50502081585E+03  0.00000000000E+00 0.  1.
        -11    1    4    4    0    0  0.58606379511E+02  0.29256750033E+02  0.13851714883E+03  0.15322423328E+03  0.00000000000E+00 0. -1.
         11    1    4    4    0    0  0.59360551324E+02  0.18096321675E+03  0.53339225474E+03  0.56637324997E+03  0.00000000000E+00 0.  1.
         21    1    1    2  502  501 -0.13840750433E+02 -0.14602364341E+02  0.11578166288E+01  0.20152815095E+02  0.00000000000E+00 0. -1.
<scales pt_clust_5="13000.00000" pt_clust_6="13000.00000" pt_clust_7="13000.00000" pt_clust_8="13000.00000" pt_clust_9="20.11953"></scales>
<clustering>
<clus scale="   20.120">  2  9  1 -1</clus>
<clus scale="   82.125">  5  6 -1 -1</clus>
<clus scale="   90.828">  7  8 -1 -1</clus>
<clus scale="  244.879">  1  5  2 -1</clus>
<clus scale="   20.120">  2  5  1 -1</clus>
</clustering>
</event>
<event>
 9    1  0.2374319E-005  0.9368611E+02  0.7546771E-02  0.1298633E+00
          1   -1    0    0  502    0  0.00000000000E+00  0.00000000000E+00  0.24621732323E+02  0.24621732323E+02  0.00000000000E+00 0. -1.
         -2   -1    0    0    0  501 -0.00000000000E+00 -0.00000000000E+00 -0.71665947726E+03  0.71665947726E+03  0.00000000000E+00 0.  1.
         23    2    1    2    0    0 -0.15088286194E+02 -0.26944084589E+01 -0.31288236216E+03  0.32636982271E+03  0.91580414970E+02 0.  0.
        -24    2    1    2    0    0 -0.33407266180E+02 -0.74756127694E+01 -0.11646286573E+03  0.14758647887E+03  0.83941881259E+02 0.  0.
         13    1    4    4    0    0 -0.21291636430E+02 -0.45679272982E+02 -0.60259539869E+02  0.78556615936E+02  0.00000000000E+00 0. -1.
        -14    1    4    4    0    0 -0.12115629750E+02  0.38203660213E+02 -0.56203325864E+02  0.69029862929E+02  0.00000000000E+00 0.  1.
        -11    1    3    3    0    0 -0.47324010255E+02  0.19256358826E+02 -0.21538084400E+03  0.22135780371E+03  0.00000000000E+00 0.  1.
         11    1    3    3    0    0  0.32235724061E+02 -0.21950767285E+02 -0.97501518157E+02  0.10501201899E+03  0.00000000000E+00 0. -1.
         21    1    1    2  502  501  0.48495552374E+02  0.10170021228E+02 -0.26269251704E+03  0.26732490801E+03  0.00000000000E+00 0.  1.
<scales pt_clust_5="13000.00000" pt_clust_6="13000.00000" pt_clust_7="13000.00000" pt_clust_8="13000.00000" pt_clust_9="49.55046"></scales>
<clustering>
<clus scale="   49.550">  2  9  1 -1</clus>
<clus scale="   83.942">  5  6 -1 -1</clus>
<clus scale="   86.234">  1  5  2 -1</clus>
<clus scale="   91.580">  7  8 -1 -1</clus>
<clus scale="   86.234">  1  5  2 -1</clus>
</clustering>
</event>
<event>
 9    1  0.2374319E-005  0.9248535E+02  0.7546771E-02  0.1299413E+00
          1   -1    0    0  502    0  0.00000000000E+00  0.00000000000E+00  0.15883136606E+03  0.15883136606E+03  0.00000000000E+00 0. -1.
         -2   -1    0    0    0  501 -0.00000000000E+00 -0.00000000000E+00 -0.14320581109E+03  0.14320581109E+03  0.00000000000E+00 0.  1.
         23    2    1    2    0    0  0.34360409686E+02  0.23955593519E+02 -0.81963935348E+02  0.12925179516E+03  0.90738258961E+02 0.  0.
        -24    2    1    2    0    0 -0.15412619343E+02  0.40828059127E+01  0.10615753253E+03  0.13787718884E+03  0.86524443656E+02 0.  0.
         13    1    4    4    0    0 -0.22621274840E+02  0.67795076526E+00  0.11988511241E+03  0.12200254863E+03  0.00000000000E+00 0. -1.
        -14    1    4    4    0    0  0.72086554973E+01  0.34048551474E+01 -0.13727579880E+02  0.15874640216E+02  0.00000000000E+00 0.  1.
        -13    1    3    3    0    0  0.29769885183E+02  0.54507162639E+02 -0.30416648117E+02  0.69155255227E+02  0.00000000000E+00 0. -1.
         13    1    3    3    0    0  0.45905245022E+01 -0.30551569120E+02 -0.51547287231E+02  0.60096539932E+02  0.00000000000E+00 0.  1.
         21    1    1    2  502  501 -0.18947790342E+02 -0.28038399432E+02 -0.85680422141E+01  0.34908193149E+02  0.00000000000E+00 0. -1.
<scales pt_clust_5="13000.00000" pt_clust_6="13000.00000" pt_clust_7="13000.00000" pt_clust_8="13000.00000" pt_clust_9="33.84037"></scales>
<clustering>
<clus scale="   33.840">  2  9  1 -1</clus>
<clus scale="   86.524">  5  6 -1 -1</clus>
<clus scale="   88.355">  1  5  2 -1</clus>
<clus scale="   90.738">  7  8 -1 -1</clus>
<clus scale="   88.355">  1  5  2 -1</clus>
</clustering>
</event>
<event>
 9    1  0.2374319E-005  0.1456038E+03  0.7546771E-02  0.1207199E+00
         -2   -1    0    0    0  501 -0.00000000000E+00  0.00000000000E+00  0.11429971292E+04  0.11429971292E+04  0.00000000000E+00 0.  1.
          1   -1    0    0  502    0  0.00000000000E+00 -0.00000000000E+00 -0.26925296575E+02  0.26925296575E+02  0.00000000000E+00 0. -1.
        -24    2    1    2    0    0  0.33096227288E+02  0.10147545868E+03  0.48299748886E+03  0.50031743843E+03  0.75088853873E+02 0.  0.
         23    2    1    2    0    0 -0.58578315514E+02 -0.12405530514E+03  0.60415409248E+03  0.62493321526E+03  0.81964738114E+02 0.  0.
         13    1    3    3    0    0  0.38858285072E+02  0.42964726122E+02  0.12819399173E+03  0.14067563230E+03  0.00000000000E+00 0. -1.
        -14    1    3    3    0    0 -0.57620577844E+01  0.58510732560E+02  0.35480349713E+03  0.35964180612E+03  0.00000000000E+00 0.  1.
        -13    1    4    4    0    0 -0.39214441096E+01 -0.85413688558E+02  0.42871356125E+03  0.43715694380E+03  0.00000000000E+00 0.  1.
         13    1    4    4    0    0 -0.54656871404E+02 -0.38641616579E+02  0.17544053123E+03  0.18777627146E+03  0.00000000000E+00 0. -1.
         21    1    1    2  502  501  0.25482088226E+02  0.22579846454E+02  0.28920251269E+02  0.44671772068E+02  0.00000000000E+00 0. -1.
<scales pt_clust_5="13000.00000" pt_clust_6="13000.00000" pt_clust_7="13000.00000" pt_clust_8="13000.00000" pt_clust_9="34.04682"></scales>
<clustering>
<clus scale="   34.047">  2  9  1 -1</clus>
<clus scale="   75.089">  5  6 -1 -1</clus>
<clus scale="   81.965">  7  8 -1 -1</clus>
<clus scale="  141.847">  1  5  2 -1</clus>
<clus scale="   34.047">  2  5  1 -1</clus>
</clustering>
</event>
<event>
 9    1  0.2374319E-005  0.1070060E+03  0.7546771E-02  0.1269487E+00
         -2   -1    0    0    0  501 -0.00000000000E+00  0.00000000000E+00  0.56833603743E+02  0.56833603743E+02  0.00000000000E+00 0.  1.
          1   -1    0    0  502    0  0.00000000000E+00 -0.00000000000E+00 -0.37048234061E+03  0.37048234061E+03  0.00000000000E+00 0. -1.
        -24    2    1    2    0    0 -0.13348453689E+02 -0.57947359122E+02 -0.35581063249E+02  0.10760204257E+03  0.82317129797E+02 0.  0.
         23    2    1    2    0    0 -0.29983927573E+02  0.55642646311E+02 -0.22958587484E+03  0.25464861319E+03  0.90228057016E+02 0.  0.
         11    1    3    3    0    0 -0.27729473604E+02 -0.33336410797E+02  0.17969456208E+02  0.46937632531E+02  0.00000000000E+00 0. -1.
        -12    1    3    3    0    0  0.14381019915E+02 -0.24610948324E+02 -0.53550519456E+02  0.60664410038E+02  0.00000000000E+00 0.  1.
        -11    1    4    4    0    0 -0.25638843131E+02  0.78008533827E+02 -0.14088505032E+03  0.16306832627E+03  0.00000000000E+00 0.  1.
         11    1    4    4    0    0 -0.43450844414E+01 -0.22365887516E+02 -0.88700824514E+02  0.91580286922E+02  0.00000000000E+00 0. -1.
         21    1    1    2  502  501  0.43332381262E+02  0.23047128105E+01 -0.48481798778E+02  0.65065288594E+02  0.00000000000E+00 0.  1.
<scales pt_clust_5="13000.00000" pt_clust_6="13000.00000" pt_clust_7="13000.00000" pt_clust_8="13000.00000" pt_clust_9="43.39363"></scales>
<clustering>
<clus scale="   43.394">  2  9  1 -1</clus>
<clus scale="   82.317">  5  6 -1 -1</clus>
<clus scale="   90.228">  7  8 -1 -1</clus>
<clus scale="  100.426">  1  5  2 -1</clus>
<clus scale="   43.394">  2  5  1 -1</clus>
</clustering>
</event>
<event>
 9    1  0.2374319E-005  0.1187489E+03  0.7546771E-02  0.1248282E+00
         -2   -1    0    0    0  501 -0.00000000000E+00  0.00000000000E+00  0.15332287472E+03  0.15332287472E+03  0.00000000000E+00 0.  1.
          1   -1    0    0  502    0  0.00000000000E+00 -0.00000000000E+00 -0.13286479264E+03  0.13286479264E+03  0.00000000000E+00 0. -1.
         23    2    1    2    0    0 -0.62667986601E+02 -0.95237127488E+01  0.73216794777E+02  0.13248064426E+03  0.90401573092E+02 0.  0.
        -24    2    1    2    0    0  0.81785234124E+02 -0.11565535450E+01 -0.61238673028E+02  0.13022411510E+03  0.80734025925E+02 0.  0.
         11    1    4    4    0    0  0.34908788974E+02 -0.16188541049E+01 -0.73830736054E+02  0.81683669252E+02  0.00000000000E+00 0. -1.
        -12    1    4    4    0    0  0.46876445150E+02  0.46230055987E+00  0.12592063025E+02  0.48540445846E+02  0.00000000000E+00 0.  1.
        -11    1    3    3    0    0 -0.85873380522E+02 -0.37913886942E+01  0.62544184084E+02  0.10630327875E+03  0.00000000000E+00 0.  1.
         11    1    3    3    0    0  0.23205393921E+02 -0.57323240546E+01  0.10672610693E+02  0.26177365511E+02  0.00000000000E+00 0. -1.
         21    1    1    2  502  501 -0.19117247523E+02  0.10680266294E+02  0.84799603313E+01  0.23482908001E+02  0.00000000000E+00 0. -1.
<scales pt_clust_5="13000.00000" pt_clust_6="13000.00000" pt_clust_7="13000.00000" pt_clust_8="13000.00000" pt_clust_9="21.89834"></scales>
<clustering>
<clus scale="   21.898">  1  9  2 -1</clus>
<clus scale="   80.734">  5  6 -1 -1</clus>
<clus scale="   90.402">  7  8 -1 -1</clus>
<clus scale="  111.565">  2  5  1 -1</clus>
<clus scale="  111.565">  2  5  1 -1</clus>
</clustering>
</event>
<event>
 9    1  0.2374319E-005  0.1125836E+03  0.7546771E-02  0.1259518E+00
          1   -1    0    0  502    0  0.00000000000E+00  0.00000000000E+00  0.14729635583E+03  0.14729635583E+03  0.00000000000E+00 0. -1.
         -2   -1    0    0    0  501 -0.00000000000E+00 -0.00000000000E+00 -0.11729631345E+03  0.11729631345E+03  0.00000000000E+00 0.  1.
         23    2    1    2    0    0  0.67507531782E+02  0.40265572160E+02 -0.13483251590E+02  0.12055155877E+03  0.90400758298E+02 0.  0.
        -24    2    1    2    0    0 -0.48529333975E+02 -0.28316412780E+02  0.34671309604E+01  0.98169030719E+02  0.80425257889E+02 0.  0.
         11    1    4    4    0    0 -0.46559322490E+02 -0.35845475048E+02  0.33161920921E+02  0.67471339036E+02  0.00000000000E+00 0. -1.
        -12    1    4    4    0    0 -0.19700114844E+01  0.75290622686E+01 -0.29694789960E+02  0.30697691683E+02  0.00000000000E+00 0.  1.
        -13    1    3    3    0    0  0.89756994959E+02  0.37151259094E+02 -0.83052885485E+01  0.97496215384E+02  0.00000000000E+00 0. -1.
         13    1    3    3    0    0 -0.22249463178E+02  0.31143130654E+01 -0.51779630416E+01  0.23055343390E+02  0.00000000000E+00 0.  1.
         21    1    1    2  502  501 -0.18978197807E+02 -0.11949159380E+02  0.40016163008E+02  0.45872079784E+02  0.00000000000E+00 0. -1.
<scales pt_clust_5="13000.00000" pt_clust_6="13000.00000" pt_clust_7="13000.00000" pt_clust_8="13000.00000" pt_clust_9="22.42664"></scales>
<clustering>
<clus scale="   22.427">  1  9  2 -1</clus>
<clus scale="   80.425">  5  6 -1 -1</clus>
<clus scale="   90.401">  7  8 -1 -1</clus>
<clus scale="  104.743">  1  5  2 -1</clus>
<clus scale="   22.427">  1  5  2 -1</clus>
</clustering>
</event>
<event>
 9    1  0.2374319E-005  0.1050658E+03  0.7546771E-02  0.1274280E+00
          3   -1    0    0  502    0  0.00000000000E+00  0.00000000000E+00  0.31678072295E+03  0.31678072295E+03  0.00000000000E+00 0. -1.
         -4   -1    0    0    0  501 -0.00000000000E+00 -0.00000000000E+00 -0.60272673390E+02  0.60272673390E+02  0.00000000000E+00 0.  1.
         23    2    1    2    0    0  0.24470934146E+02 -0.31466414789E+02  0.64784256703E+02  0.11782923062E+03  0.89987586888E+02 0.  0.
        -24    2    1    2    0    0 -0.14552584751E+02  0.70280780428E+02  0.63515827358E+02  0.12490286789E+03  0.80095569545E+02 0.  0.
         11    1    4    4    0    0 -0.29068649000E+02  0.22914295218E+01  0.43838160578E+02  0.52649988859E+02  0.00000000000E+00 0. -1.
        -12    1    4    4    0    0  0.14516064249E+02  0.67989350906E+02  0.19677666780E+02  0.72252879028E+02  0.00000000000E+00 0.  1.
        -13    1    3    3    0    0  0.21275231634E+02  0.16693334313E+02  0.64086550148E+02  0.69558527884E+02  0.00000000000E+00 0. -1.
         13    1    3    3    0    0  0.31957025115E+01 -0.48159749101E+02  0.69770655522E+00  0.48270702734E+02  0.00000000000E+00 0.  1.
         21    1    1    2  502  501 -0.99183493945E+01 -0.38814365640E+02  0.12820796550E+03  0.13432129784E+03  0.00000000000E+00 0.  1.
<scales pt_clust_5="13000.00000" pt_clust_6="13000.00000" pt_clust_7="13000.00000" pt_clust_8="13000.00000" pt_clust_9="40.06156"></scales>
<clustering>
<clus scale="   40.062">  1  9  2 -1</clus>
<clus scale="   80.096">  5  6 -1 -1</clus>
<clus scale="   89.988">  7  8 -1 -1</clus>
<clus scale="   96.728">  1  5  2 -1</clus>
<clus scale="   40.062">  1  5  2 -1</clus>
</clustering>
</event>
<event>
 9    1  0.2374319E-005  0.1074212E+03  0.7546771E-02  0.1270395E+00
          3   -1    0    0  502    0  0.00000000000E+00  0.00000000000E+00  0.19404639124E+02  0.19404639124E+02  0.00000000000E+00 0. -1.
         -4   -1    0    0    0  501 -0.00000000000E+00 -0.00000000000E+00 -0.10325940218E+04  0.10325940218E+04  0.00000000000E+00 0.  1.
        -24    2    1    2    0    0 -0.53025085707E+02  0.20142438564E+02 -0.77220281636E+03  0.77847954755E+03  0.80720745853E+02 0.  0.
         23    2    1    2    0    0  0.37461205580E+02 -0.33093846328E+02 -0.22267332572E+03  0.24621804913E+03  0.92419549545E+02 0.  0.
         11    1    3    3    0    0 -0.13319103363E+02  0.41676650752E+02 -0.21253141789E+03  0.21698835296E+03  0.00000000000E+00 0. -1.
        -12    1    3    3    0    0 -0.39705982344E+02 -0.21534212189E+02 -0.55967139848E+03  0.56149119459E+03  0.00000000000E+00 0.  1.
        -13    1    4    4    0    0  0.29052744415E+02 -0.56646849415E+02 -0.20731520949E+03  0.21686983099E+03  0.00000000000E+00 0.  1.
         13    1    4    4    0    0  0.84084611654E+01  0.23553003087E+02 -0.15358116232E+02  0.29348218136E+02  0.00000000000E+00 0. -1.
         21    1    1    2  502  501  0.15563880126E+02  0.12951407765E+02 -0.18313240565E+02  0.27301064222E+02  0.00000000000E+00 0. -1.
<scales pt_clust_5="13000.00000" pt_clust_6="13000.00000" pt_clust_7="13000.00000" pt_clust_8="13000.00000" pt_clust_9="20.24780"></scales>
<clustering>
<clus scale="   20.248">  1  9  2 -1</clus>
<clus scale="   80.721">  5  6 -1 -1</clus>
<clus scale="   92.420">  7  8 -1 -1</clus>
<clus scale="   97.539">  2  5  1 -1</clus>
<clus scale="   20.248">  1  5  2 -1</clus>
</clustering>
</event>
<event>
 9    1  0.2374319E-005  0.8951166E+02  0.7546771E-02  0.1307697E+00
         -2   -1    0    0    0  501 -0.00000000000E+00  0.00000000000E+00  0.17368905262E+03  0.17368905262E+03  0.00000000000E+00 0.  1.
          1   -1    0    0  502    0  0.00000000000E+00 -0.00000000000E+00 -0.89752714377E+02  0.89752714377E+02  0.00000000000E+00 0. -1.
        -24    2    1    2    0    0 -0.68861453464E+01 -0.21692515059E+01  0.11459210563E+03  0.14187461384E+03  0.83336250985E+02 0.  0.
         23    2    1    2    0    0  0.11052196782E+02 -0.18735149842E+02 -0.10729284867E+02  0.92388142099E+02  0.89147598697E+02 0.  0.
         11    1    3    3    0    0 -0.20048833959E+02  0.34941002636E+02  0.36246564703E+02  0.54190800521E+02  0.00000000000E+00 0. -1.
        -12    1    3    3    0    0  0.13162688613E+02 -0.37110254142E+02  0.78345540930E+02  0.87683813316E+02  0.00000000000E+00 0.  1.
        -11    1    4    4    0    0  0.40747851983E+02 -0.38479717763E+02 -0.49670963338E+01  0.56264981705E+02  0.00000000000E+00 0.  1.
         11    1    4    4    0    0 -0.29695655201E+02  0.19744567920E+02 -0.57621885334E+01  0.36123160394E+02  0.00000000000E+00 0. -1.
         21    1    1    2  502  501 -0.41660514356E+01  0.20904401348E+02 -0.19926482528E+02  0.29179011057E+02  0.00000000000E+00 0. -1.
<scales pt_clust_5="13000.00000" pt_clust_6="13000.00000" pt_clust_7="13000.00000" pt_clust_8="13000.00000" pt_clust_9="21.31549"></scales>
<clustering>
<clus scale="   21.315">  2  9  1 -1</clus>
<clus scale="   83.336">  5  6 -1 -1</clus>
<clus scale="   83.726">  1  5  2 -1</clus>
<clus scale="   89.148">  7  8 -1 -1</clus>
<clus scale="   21.315">  2  5  1 -1</clus>
</clustering>
</event>
<event>
 9    1  0.2707309E-005  0.2462814E+03  0.7546771E-02  0.1116669E+00
         -4   -1    0    0    0  501 -0.00000000000E+00  0.00000000000E+00  0.11997052479E+04  0.11997052479E+04  0.00000000000E+00 0.  1.
          3   -1    0    0  502    0  0.00000000000E+00 -0.00000000000E+00 -0.27111011816E+03  0.27111011816E+03  0.00000000000E+00 0. -1.
        -24    2    1    2    0    0  0.17162132367E+03  0.28920451708E+02  0.10525888333E+04  0.10693885966E+04  0.73201416268E+02 0.  0.
         23    2    1    2    0    0 -0.23117048377E+03 -0.19729559856E+02 -0.18897031592E+03  0.31281223837E+03  0.91173834364E+02 0.  0.
         13    1    3    3    0    0  0.12487291404E+02  0.26800756366E+02  0.17750598512E+03  0.17995162612E+03  0.00000000000E+00 0. -1.
        -14    1    3    3    0    0  0.15913403227E+03  0.21196953422E+01  0.87508284819E+03  0.88943697052E+03  0.00000000000E+00 0.  1.
        -13    1    4    4    0    0 -0.90794219115E+02 -0.50119848067E+02 -0.60224298791E+02  0.11992729281E+03  0.00000000000E+00 0.  1.
         13    1    4    4    0    0 -0.14037626466E+03  0.30390288211E+02 -0.12874601713E+03  0.19288494556E+03  0.00000000000E+00 0. -1.
         21    1    1    2  502  501  0.59549160102E+02 -0.91908918520E+01  0.64976612393E+02  0.88614531088E+02  0.00000000000E+00 0.  1.
<scales pt_clust_5="13000.00000" pt_clust_6="13000.00000" pt_clust_7="13000.00000" pt_clust_8="13000.00000" pt_clust_9="60.25425"></scales>
<clustering>
<clus scale="   60.254">  1  9  2 -1</clus>
<clus scale="   73.201">  5  6 -1 -1</clus>
<clus scale="   91.174">  7  8 -1 -1</clus>
<clus scale="  240.209">  1  5  2 -1</clus>
<clus scale="  246.281">  2  5  1 -1</clus>
</clustering>
</event>
<event>
 9    1  0.2374319E-005  0.9875555E+02  0.7546771E-02  0.1288974E+00
          1   -1    0    0  502    0  0.00000000000E+00  0.00000000000E+00  0.95988618857E+03  0.95988618857E+03  0.00000000000E+00 0. -1.
         -2   -1    0    0    0  501 -0.00000000000E+00 -0.00000000000E+00 -0.17002090846E+02  0.17002090846E+02  0.00000000000E+00 0.  1.
        -24    2    1    2    0    0 -0.28656291209E+02  0.17568373769E+02  0.17291124664E+03  0.19338957652E+03  0.79821039265E+02 0.  0.
         23    2    1    2    0    0  0.19260773052E+02 -0.52803421923E+02  0.52821018921E+03  0.53900132243E+03  0.91417956916E+02 0.  0.
         11    1    3    3    0    0  0.26462378623E+02  0.16987373463E+02  0.65738517081E+02  0.72872360793E+02  0.00000000000E+00 0. -1.
        -12    1    3    3    0    0 -0.55118669832E+02  0.58100030611E+00  0.10717272955E+03  0.12051721572E+03  0.00000000000E+00 0.  1.
        -11    1    4    4    0    0  0.90211211480E+01 -0.78768225614E+02  0.37918161041E+03  0.38738160471E+03  0.00000000000E+00 0. -1.
         11    1    4    4    0    0  0.10239651904E+02  0.25964803691E+02  0.14902857880E+03  0.15161971772E+03  0.00000000000E+00 0.  1.
         21    1    1    2  502  501  0.93955181573E+01  0.35235048154E+02  0.24176266188E+03  0.24449738047E+03  0.00000000000E+00 0.  1.
<scales pt_clust_5="13000.00000" pt_clust_6="13000.00000" pt_clust_7="13000.00000" pt_clust_8="13000.00000" pt_clust_9="36.46621"></scales>
<clustering>
<clus scale="   36.466">  1  9  2 -1</clus>
<clus scale="   79.821">  5  6 -1 -1</clus>
<clus scale="   88.130">  2  5  1 -1</clus>
<clus scale="   91.418">  7  8 -1 -1</clus>
<clus scale="   36.466">  1  5  2 -1</clus>
</clustering>
</event>
<event>
 9    1  0.2374319E-005  0.1905547E+03  0.7546771E-02  0.1159100E+00
         -2   -1    0    0    0  501 -0.00000000000E+00  0.00000000000E+00  0.19604441051E+03  0.19604441051E+03  0.00000000000E+00 0.  1.
          1   -1    0    0  502    0  0.00000000000E+00 -0.00000000000E+00 -0.39240565253E+03  0.39240565253E+03  0.00000000000E+00 0. -1.
         23    2    1    2    0    0  0.74006935991E+02 -0.15045495625E+03  0.10433435387E+03  0.21746658266E+03  0.91062268489E+02 0.  0.
        -24    2    1    2    0    0 -0.10061426650E+03  0.13491268254E+03 -0.26153687026E+03  0.32115459216E+03  0.80087920615E+02 0.  0.
         11    1    4    4    0    0 -0.15578994107E+02  0.29642688037E+02 -0.12305960535E+03  0.12753454622E+03  0.00000000000E+00 0. -1.
        -12    1    4    4    0    0 -0.85035272390E+02  0.10526999450E+03 -0.13847726492E+03  0.19362004594E+03  0.00000000000E+00 0.  1.
        -11    1    3    3    0    0  0.51780186661E+02 -0.14105015396E+03  0.50573848312E+02  0.15853721266E+03  0.00000000000E+00 0.  1.
         11    1    3    3    0    0  0.22226749330E+02 -0.94048022896E+01  0.53760505554E+02  0.58929370006E+02  0.00000000000E+00 0. -1.
         21    1    1    2  502  501  0.26607330505E+02  0.15542273716E+02 -0.39158725628E+02  0.49828888224E+02  0.00000000000E+00 0.  1.
<scales pt_clust_5="13000.00000" pt_clust_6="13000.00000" pt_clust_7="13000.00000" pt_clust_8="13000.00000" pt_clust_9="30.81416"></scales>
<clustering>
<clus scale="   30.814">  2  9  1 -1</clus>
<clus scale="   80.088">  5  6 -1 -1</clus>
<clus scale="   91.062">  7  8 -1 -1</clus>
<clus scale="  185.561">  2  5  1 -1</clus>
<clus scale="   30.814">  2  5  1 -1</clus>
</clustering>
</event>
<event>
 9    1  0.2374319E-005  0.2055331E+03  0.7546771E-02  0.1145945E+00
         -2   -1    0    0    0  501 -0.00000000000E+00  0.00000000000E+00  0.36845569892E+03  0.36845569892E+03  0.00000000000E+00 0.  1.
          1   -1    0    0  502    0  0.00000000000E+00 -0.00000000000E+00 -0.18198905520E+03  0.18198905520E+03  0.00000000000E+00 0. -1.
         23    2    1    2    0    0 -0.20390128573E+03  0.14188187228E+02  0.22487455312E+03  0.31704654583E+03  0.90404140426E+02 0.  0.
        -24    2    1    2    0    0  0.14544879394E+03 -0.18909314868E+02 -0.93270082256E+01  0.16794072855E+03  0.81266114554E+02 0.  0.
         11    1    4    4    0    0  0.15200504379E+03 -0.28382845188E+02 -0.14502297257E+02  0.15531077189E+03  0.00000000000E+00 0. -1.
        -12    1    4    4    0    0 -0.65562498449E+01  0.94735303196E+01  0.51752890317E+01  0.12629956663E+02  0.00000000000E+00 0.  1.
        -13    1    3    3    0    0 -0.82027609482E+02  0.15275572015E+02  0.15636151934E+03  0.17723091307E+03  0.00000000000E+00 0.  1.
         13    1    3    3    0    0 -0.12187367625E+03 -0.10873847867E+01  0.68513033780E+02  0.13981563276E+03  0.00000000000E+00 0. -1.
         21    1    1    2  502  501  0.58452491784E+02  0.47211276402E+01 -0.29080901169E+02  0.65457479746E+02  0.00000000000E+00 0.  1.
<scales pt_clust_5="13000.00000" pt_clust_6="13000.00000" pt_clust_7="13000.00000" pt_clust_8="13000.00000" pt_clust_9="58.64284"></scales>
<clustering>
<clus scale="   58.643">  2  9  1 -1</clus>
<clus scale="   81.266">  5  6 -1 -1</clus>
<clus scale="   90.404">  7  8 -1 -1</clus>
<clus scale="  201.681">  2  5  1 -1</clus>
<clus scale="   58.643">  2  5  1 -1</clus>
</clustering>
</event>
<event>
 9    1  0.2374319E-005  0.8939219E+02  0.7546771E-02  0.1304570E+00
         -2   -1    0    0    0  501 -0.00000000000E+00  0.00000000000E+00  0.14049858349E+03  0.14049858349E+03  0.00000000000E+00 0.  1.
          1   -1    0    0  502    0  0.00000000000E+00 -0.00000000000E+00 -0.62800158066E+03  0.62800158066E+03  0.00000000000E+00 0. -1.
        -24    2    1    2    0    0 -0.29535700269E+02 -0.82033477440E+01  0.11789599874E+03  0.14758602516E+03  0.83321760643E+02 0.  0.
         23    2    1    2    0    0  0.55763869014E+02 -0.16252159125E+02 -0.43424143332E+03  0.44604018473E+03  0.83740564904E+02 0.  0.
         11    1    3    3    0    0 -0.56302566529E+02 -0.11095308918E+02  0.56430414709E+02  0.80482771958E+02  0.00000000000E+00 0. -1.
        -12    1    3    3    0    0  0.26766866260E+02  0.28919611743E+01  0.61465584036E+02  0.67103253198E+02  0.00000000000E+00 0.  1.
        -13    1    4    4    0    0  0.20435375519E+02 -0.49268459780E+02 -0.24233401532E+03  0.24813456164E+03  0.00000000000E+00 0. -1.
         13    1    4    4    0    0  0.35328493495E+02  0.33016300655E+02 -0.19190741800E+03  0.19790562308E+03  0.00000000000E+00 0.  1.
         21    1    1    2  502  501 -0.26228168745E+02  0.24455506869E+02 -0.17115756259E+03  0.17487395428E+03  0.00000000000E+00 0.  1.
<scales pt_clust_5="13000.00000" pt_clust_6="13000.00000" pt_clust_7="13000.00000" pt_clust_8="13000.00000" pt_clust_9="35.86068"></scales>
<clustering>
<clus scale="   35.861">  2  9  1 -1</clus>
<clus scale="   83.322">  5  6 -1 -1</clus>
<clus scale="   83.741">  7  8 -1 -1</clus>
<clus scale="   89.000">  1  5  2 -1</clus>
<clus scale="   35.861">  2  5  1 -1</clus>
</clustering>
</event>
<event>
 9    1  0.2374319E-005  0.1323309E+03  0.7546771E-02  0.1226764E+00
          1   -1    0    0  502    0  0.00000000000E+00  0.00000000000E+00  0.21499632924E+03  0.21499632924E+03  0.00000000000E+00 0. -1.
         -2   -1    0    0    0  501 -0.00000000000E+00 -0.00000000000E+00 -0.15732676671E+03  0.15732676671E+03  0.00000000000E+00 0.  1.
        -24    2    1    2    0    0  0.97086998579E+02  0.33366591707E+02 -0.57420623627E+02  0.14134121225E+03  0.78364504265E+02 0.  0.
         23    2    1    2    0    0 -0.88410499715E+02 -0.14041701947E+02  0.13652321732E+02  0.12735576085E+03  0.89551762013E+02 0.  0.
         13    1    3    3    0    0  0.42958746344E+02  0.47448812569E+02 -0.42128665958E+01  0.64145085132E+02  0.00000000000E+00 0. -1.
        -14    1    3    3    0    0  0.54128252234E+02 -0.14082220862E+02 -0.53207757031E+02  0.77196127122E+02  0.00000000000E+00 0.  1.
        -11    1    4    4    0    0 -0.32778973508E+02 -0.14965491221E+02 -0.37335034091E+02  0.51887684496E+02  0.00000000000E+00 0.  1.
         11    1    4    4    0    0 -0.55631526206E+02  0.92378927387E+00  0.50987355824E+02  0.75468076354E+02  0.00000000000E+00 0. -1.
         21    1    1    2  502  501 -0.86764988640E+01 -0.19324889760E+02  0.10143786442E+03  0.10362612284E+03  0.00000000000E+00 0.  1.
<scales pt_clust_5="13000.00000" pt_clust_6="13000.00000" pt_clust_7="13000.00000" pt_clust_8="13000.00000" pt_clust_9="21.18332"></scales>
<clustering>
<clus scale="   21.183">  1  9  2 -1</clus>
<clus scale="   78.365">  5  6 -1 -1</clus>
<clus scale="   89.552">  7  8 -1 -1</clus>
<clus scale="  125.032">  2  5  1 -1</clus>
<clus scale="   21.183">  1  5  2 -1</clus>
</clustering>
</event>
<event>
 9    1  0.2374319E-005  0.1046795E+03  0.7546771E-02  0.1275729E+00
         -2   -1    0    0    0  501 -0.00000000000E+00  0.00000000000E+00  0.29842778782E+03  0.29842778782E+03  0.00000000000E+00 0.  1.
          1   -1    0    0  502    0  0.00000000000E+00 -0.00000000000E+00 -0.93331346676E+02  0.93331346676E+02  0.00000000000E+00 0. -1.
         23    2    1    2    0    0 -0.45857884741E+02  0.27193159607E+02  0.23411021747E+03  0.25705424328E+03  0.91798020370E+02 0.  0.
        -24    2    1    2    0    0  0.40953673440E+02  0.75863358152E+01 -0.37971158443E+02  0.98457142527E+02  0.80729450523E+02 0.  0.
         13    1    4    4    0    0  0.65736873597E+02  0.57090908256E+01 -0.27873207019E+02  0.71629923481E+02  0.00000000000E+00 0. -1.
        -14    1    4    4    0    0 -0.24783200157E+02  0.18772449897E+01 -0.10097951424E+02  0.26827219046E+02  0.00000000000E+00 0.  1.
        -13    1    3    3    0    0 -0.62506071635E+02 -0.10177895154E+02  0.16508899242E+03  0.17681904298E+03  0.00000000000E+00 0.  1.
         13    1    3    3    0    0  0.16648186894E+02  0.37371054762E+02  0.69021225051E+02  0.80235200308E+02  0.00000000000E+00 0. -1.
         21    1    1    2  502  501  0.49042113014E+01 -0.34779495423E+02  0.89573821180E+01  0.36247748685E+02  0.00000000000E+00 0.  1.
<scales pt_clust_5="13000.00000" pt_clust_6="13000.00000" pt_clust_7="13000.00000" pt_clust_8="13000.00000" pt_clust_9="35.12356"></scales>
<clustering>
<clus scale="   35.124">  2  9  1 -1</clus>
<clus scale="   80.729">  5  6 -1 -1</clus>
<clus scale="   91.798">  7  8 -1 -1</clus>
<clus scale="   95.122">  2  5  1 -1</clus>
<clus scale="   35.124">  2  5  1 -1</clus>
</clustering>
</event>
<event>
 9    1  0.2374319E-005  0.1919355E+03  0.7546771E-02  0.1157722E+00
          1   -1    0    0  502    0  0.00000000000E+00  0.00000000000E+00  0.63223383045E+03  0.63223383045E+03  0.00000000000E+00 0. -1.
         -2   -1    0    0    0  501 -0.00000000000E+00 -0.00000000000E+00 -0.78848240981E+02  0.78848240981E+02  0.00000000000E+00 0.  1.
        -24    2    1    2    0    0 -0.14412823852E+03  0.58021725917E+02  0.17935537052E+03  0.25037065943E+03  0.79860180027E+02 0.  0.
         23    2    1    2    0    0  0.17854133033E+03 -0.33261176603E+02  0.36487900851E+03  0.41733987360E+03  0.89736094952E+02 0.  0.
         13    1    3    3    0    0 -0.30807954359E+02  0.27410054083E+02  0.10139088905E+03  0.10945571478E+03  0.00000000000E+00 0. -1.
        -14    1    3    3    0    0 -0.11332028416E+03  0.30611671834E+02  0.77964481470E+02  0.14091494465E+03  0.00000000000E+00 0.  1.
        -13    1    4    4    0    0  0.13774245732E+03 -0.32266982361E+02  0.18502008103E+03  0.23290893732E+03  0.00000000000E+00 0.  1.
         13    1    4    4    0    0  0.40798873009E+02 -0.99419424201E+00  0.17985892748E+03  0.18443093628E+03  0.00000000000E+00 0. -1.
         21    1    1    2  502  501 -0.34413091813E+02 -0.24760549315E+02  0.91512104367E+01  0.43371538398E+02  0.00000000000E+00 0.  1.
<scales pt_clust_5="13000.00000" pt_clust_6="13000.00000" pt_clust_7="13000.00000" pt_clust_8="13000.00000" pt_clust_9="42.39511"></scales>
<clustering>
<clus scale="   42.395">  2  9  1 -1</clus>
<clus scale="   79.860">  5  6 -1 -1</clus>
<clus scale="   89.736">  7  8 -1 -1</clus>
<clus scale="  187.522">  2  5  1 -1</clus>
<clus scale="  191.936">  1  5  2 -1</clus>
</clustering>
</event>
<event>
 9    1  0.2374319E-005  0.3710556E+03  0.7546771E-02  0.1097407E+00
          1   -1    0    0  502    0  0.00000000000E+00  0.00000000000E+00  0.15858638406E+04  0.15858638406E+04  0.00000000000E+00 0. -1.
         -2   -1    0    0    0  501 -0.00000000000E+00 -0.00000000000E+00 -0.18325465249E+03  0.18325465249E+03  0.00000000000E+00 0.  1.
        -24    2    1    2    0    0  0.38751513999E+02  0.78798987557E+02 -0.26182240378E+02  0.11797842445E+03  0.74313112217E+02 0.  0.
         23    2    1    2    0    0  0.33315591486E+03 -0.13007690095E+03  0.10709282581E+04  0.11324777423E+04  0.87781769208E+02 0.  0.
         11    1    3    3    0    0  0.21432445118E+02  0.91062718589E+02 -0.24410267762E+02  0.96683140168E+02  0.00000000000E+00 0. -1.
        -12    1    3    3    0    0  0.17319068881E+02 -0.12263731032E+02 -0.17719726162E+01  0.21295284283E+02  0.00000000000E+00 0.  1.
        -13    1    4    4    0    0  0.10111484442E+03 -0.18943387526E+02  0.42317742064E+03  0.43550223081E+03  0.00000000000E+00 0.  1.
         13    1    4    4    0    0  0.23204107044E+03 -0.11113351342E+03  0.64775083745E+03  0.69697551147E+03  0.00000000000E+00 0. -1.
         21    1    1    2  502  501 -0.37190742886E+03  0.51277913392E+02  0.35786317036E+03  0.51866232632E+03  0.00000000000E+00 0.  1.
<scales pt_clust_5="13000.00000" pt_clust_6="13000.00000" pt_clust_7="13000.00000" pt_clust_8="13000.00000" pt_clust_9="360.52266"></scales>
<clustering>
<clus scale="   74.313">  5  6 -1 -1</clus>
<clus scale="   87.782">  7  8 -1 -1</clus>
<clus scale="  115.037">  2  5  1 -1</clus>
<clus scale="  360.523">  2  9  1 -1</clus>
<clus scale="  371.056">  1  5  2 -1</clus>
</clustering>
</event>
<event>
 9    1  0.2374319E-005  0.2539333E+03  0.7546771E-02  0.1111099E+00
          1   -1    0    0  502    0  0.00000000000E+00  0.00000000000E+00  0.20319785297E+04  0.20319785297E+04  0.00000000000E+00 0. -1.
         -2   -1    0    0    0  501 -0.00000000000E+00 -0.00000000000E+00 -0.45172224720E+02  0.45172224720E+02  0.00000000000E+00 0.  1.
         23    2    1    2    0    0 -0.16613820936E+03  0.21677077882E+03  0.66163957179E+03  0.72065899884E+03  0.83612167154E+02 0.  0.
        -24    2    1    2    0    0  0.11877387503E+03 -0.14963586359E+03  0.99994397714E+03  0.10210512719E+04  0.78483230383E+02 0.  0.
         13    1    4    4    0    0  0.78287034611E+02 -0.47831536988E+02  0.34414359901E+03  0.35616222772E+03  0.00000000000E+00 0. -1.
        -14    1    4    4    0    0  0.40486840419E+02 -0.10180432660E+03  0.65580037814E+03  0.66488904422E+03  0.00000000000E+00 0.  1.
        -11    1    3    3    0    0 -0.66788292781E+02  0.12135377933E+03  0.24019997781E+03  0.27727864171E+03  0.00000000000E+00 0.  1.
         11    1    3    3    0    0 -0.99349916582E+02  0.95416999490E+02  0.42143959398E+03  0.44338035713E+03  0.00000000000E+00 0. -1.
         21    1    1    2  502  501  0.47364334333E+02 -0.67134915230E+02  0.32522275603E+03  0.33544048362E+03  0.00000000000E+00 0.  1.
<scales pt_clust_5="13000.00000" pt_clust_6="13000.00000" pt_clust_7="13000.00000" pt_clust_8="13000.00000" pt_clust_9="82.16129"></scales>
<clustering>
<clus scale="   78.483">  5  6 -1 -1</clus>
<clus scale="   82.161">  1  9  2 -1</clus>
<clus scale="   83.612">  7  8 -1 -1</clus>
<clus scale="  252.291">  1  5  2 -1</clus>
<clus scale="   82.161">  1  5  2 -1</clus>
</clustering>
</event>
<event>
 9    1  0.2374319E-005  0.1035990E+03  0.7546771E-02  0.1278053E+00
         -2   -1    0    0    0  501 -0.00000000000E+00  0.00000000000E+00  0.41895782289E+02  0.41895782289E+02  0.00000000000E+00 0.  1.
          1   -1    0    0  502    0  0.00000000000E+00 -0.00000000000E+00 -0.41228033504E+03  0.41228033504E+03  0.00000000000E+00 0. -1.
        -24    2    1    2    0    0 -0.41542341418E+02  0.25881871135E+02 -0.56092319566E+02  0.11043185831E+03  0.81567209291E+02 0.  0.
         23    2    1    2    0    0  0.24296539311E+02 -0.36203345655E+02 -0.17286088937E+03  0.20089197328E+03  0.92605041962E+02 0.  0.
         11    1    3    3    0    0 -0.40643066580E+02  0.46102241244E+02 -0.12995077811E+02  0.62818369575E+02  0.00000000000E+00 0. -1.
        -12    1    3    3    0    0 -0.89927483804E+00 -0.20220370109E+02 -0.43097241755E+02  0.47613488735E+02  0.00000000000E+00 0.  1.
        -11    1    4    4    0    0 -0.13701125797E+02  0.25980102125E+02 -0.45515720370E+02  0.54169801138E+02  0.00000000000E+00 0. -1.
         11    1    4    4    0    0  0.37997665108E+02 -0.62183447780E+02 -0.12734516900E+03  0.14672217214E+03  0.00000000000E+00 0.  1.
         21    1    1    2  502  501  0.17245802107E+02  0.10321474519E+02 -0.14143134382E+03  0.14285228574E+03  0.00000000000E+00 0. -1.
<scales pt_clust_5="13000.00000" pt_clust_6="13000.00000" pt_clust_7="13000.00000" pt_clust_8="13000.00000" pt_clust_9="20.09852"></scales>
<clustering>
<clus scale="   20.099">  2  9  1 -1</clus>
<clus scale="   81.567">  5  6 -1 -1</clus>
<clus scale="   92.605">  7  8 -1 -1</clus>
<clus scale="   93.863">  1  5  2 -1</clus>
<clus scale="   20.099">  2  5  1 -1</clus>
</clustering>
</event>
<event>
 9    1  0.2374319E-005  0.1332155E+03  0.7546771E-02  0.1226099E+00
         -2   -1    0    0    0  501 -0.00000000000E+00  0.00000000000E+00  0.84814768700E+03  0.84814768700E+03  0.00000000000E+00 0.  1.
          1   -1    0    0  502    0  0.00000000000E+00 -0.00000000000E+00 -0.40099239276E+02  0.40099239276E+02  0.00000000000E+00 0. -1.
         23    2    1    2    0    0 -0.99095177667E+02 -0.14791225810E+02  0.61834646620E+03  0.63340298730E+03  0.93852849993E+02 0.  0.
        -24    2    1    2    0    0  0.78097980899E+02 -0.29312222164E+02  0.10213623084E+03  0.15457551380E+03  0.80642909348E+02 0.  0.
         13    1    4    4    0    0  0.77315806158E+02 -0.22411045166E+02  0.11475371986E+03  0.14017276857E+03  0.00000000000E+00 0. -1.
        -14    1    4    4    0    0  0.78217474036E+00 -0.69011769978E+01 -0.12617489014E+02  0.14402745235E+02  0.00000000000E+00 0.  1.
        -13    1    3    3    0    0 -0.17729750348E+02  0.36537653745E+02  0.20833282008E+03  0.21225434768E+03  0.00000000000E+00 0.  1.
         13    1    3    3    0    0 -0.81365427319E+02 -0.51328879555E+02  0.41001364613E+03  0.42114863962E+03  0.00000000000E+00 0. -1.
         21    1    1    2  502  501  0.20997196768E+02  0.44103447974E+02  0.87565750680E+02  0.10026842518E+03  0.00000000000E+00 0.  1.
<scales pt_clust_5="13000.00000" pt_clust_6="13000.00000" pt_clust_7="13000.00000" pt_clust_8="13000.00000" pt_clust_9="48.84666"></scales>
<clustering>
<clus scale="   48.847">  2  9  1 -1</clus>
<clus scale="   80.643">  5  6 -1 -1</clus>
<clus scale="   93.853">  7  8 -1 -1</clus>
<clus scale="  124.263">  2  5  1 -1</clus>
<clus scale="   48.847">  2  5  1 -1</clus>
</clustering>
</event>
<event>
 9    1  0.2374319E-005  0.9061183E+02  0.7546771E-02  0.1306344E+00
         -2   -1    0    0    0  501 -0.00000000000E+00  0.00000000000E+00  0.31534558733E+03  0.31534558733E+03  0.00000000000E+00 0.  1.
          1   -1    0    0  502    0  0.00000000000E+00 -0.00000000000E+00 -0.46314442792E+03  0.46314442792E+03  0.00000000000E+00 0. -1.
         23    2    1    2    0    0  0.53722626167E+01  0.18184399730E+02  0.30135181738E+03  0.31470798219E+03  0.88705482443E+02 0.  0.
        -24    2    1    2    0    0  0.21627715292E+02 -0.29798876409E+01 -0.29801761782E+03  0.30950510083E+03  0.80636648667E+02 0.  0.
         11    1    4    4    0    0 -0.21980626990E+02  0.21418281472E+02 -0.15500238202E+03  0.15801148431E+03  0.00000000000E+00 0. -1.
        -12    1    4    4    0    0  0.43608342282E+02 -0.24398169113E+02 -0.14301523580E+03  0.15149361651E+03  0.00000000000E+00 0.  1.
        -13    1    3    3    0    0 -0.42522076271E+01  0.52056360817E+02  0.21903069028E+03  0.22517191045E+03  0.00000000000E+00 0.  1.
         13    1    3    3    0    0  0.96244702438E+01 -0.33871961086E+02  0.82321127106E+02  0.89536071744E+02  0.00000000000E+00 0. -1.
         21    1    1    2  502  501 -0.26999977909E+02 -0.15204512090E+02 -0.15113304015E+03  0.15427693224E+03  0.00000000000E+00 0. -1.
<scales pt_clust_5="13000.00000" pt_clust_6="13000.00000" pt_clust_7="13000.00000" pt_clust_8="13000.00000" pt_clust_9="30.98671"></scales>
<clustering>
<clus scale="   30.987">  2  9  1 -1</clus>
<clus scale="   80.637">  5  6 -1 -1</clus>
<clus scale="   82.729">  2  5  1 -1</clus>
<clus scale="   88.705">  7  8 -1 -1</clus>
<clus scale="   30.987">  2  5  1 -1</clus>
</clustering>
</event>
<event>
 9    1  0.2374319E-005  0.1036925E+03  0.7546771E-02  0.1279331E+00
         -2   -1    0    0    0  501 -0.00000000000E+00  0.00000000000E+00  0.30648270600E+03  0.30648270600E+03  0.00000000000E+00 0.  1.
          1   -1    0    0  502    0  0.00000000000E+00 -0.00000000000E+00 -0.97652780922E+02  0.97652780922E+02  0.00000000000E+00 0. -1.
        -24    2    1    2    0    0 -0.28299391679E+02 -0.38513998870E+02  0.23697557557E+03  0.25462951813E+03  0.79966145381E+02 0.  0.
         23    2    1    2    0    0  0.15646048790E+02  0.22549212124E+02  0.17703233922E+02  0.99335243228E+02  0.93812687019E+02 0.  0.
         11    1    3    3    0    0 -0.55364322353E+02 -0.16295544561E+02  0.15907811767E+03  0.16922352225E+03  0.00000000000E+00 0. -1.
        -12    1    3    3    0    0  0.27064930674E+02 -0.22218454309E+02  0.77897457902E+02  0.85405995878E+02  0.00000000000E+00 0.  1.
        -13    1    4    4    0    0  0.24662179916E+02  0.42965507551E+02  0.43000812041E+02  0.65599754523E+02  0.00000000000E+00 0.  1.
         13    1    4    4    0    0 -0.90161311266E+01 -0.20416295427E+02 -0.25297578119E+02  0.33735488704E+02  0.00000000000E+00 0. -1.
         21    1    1    2  502  501  0.12653342889E+02  0.15964786746E+02 -0.45848884412E+02  0.50170725567E+02  0.00000000000E+00 0. -1.
<scales pt_clust_5="13000.00000" pt_clust_6="13000.00000" pt_clust_7="13000.00000" pt_clust_8="13000.00000" pt_clust_9="20.37109"></scales>
<clustering>
<clus scale="   20.371">  2  9  1 -1</clus>
<clus scale="   79.966">  5  6 -1 -1</clus>
<clus scale="   91.356">  1  5  2 -1</clus>
<clus scale="   93.813">  7  8 -1 -1</clus>
<clus scale="   20.371">  2  5  1 -1</clus>
</clustering>
</event>
<event>
 9    1  0.2374319E-005  0.1396709E+03  0.7546771E-02  0.1223196E+00
          1   -1    0    0  502    0  0.00000000000E+00  0.00000000000E+00  0.43396911630E+03  0.43396911630E+03  0.00000000000E+00 0. -1.
         -2   -1    0    0    0  501 -0.00000000000E+00 -0.00000000000E+00 -0.67122393039E+02  0.67122393039E+02  0.00000000000E+00 0.  1.
         23    2    1    2    0    0 -0.26284232405E+02 -0.90053651208E+02  0.47843160555E+02  0.15436809301E+03  0.11287169334E+03 0.  0.
        -24    2    1    2    0    0  0.11482764722E+02  0.55038899936E+02  0.21892499605E+03  0.23966812335E+03  0.79696430663E+02 0.  0.
         11    1    4    4    0    0  0.17391647385E+02  0.60687823446E+02  0.22210038739E+03  0.23089838326E+03  0.00000000000E+00 0. -1.
        -12    1    4    4    0    0 -0.59088826626E+01 -0.56489235100E+01 -0.31753913335E+01  0.87697400910E+01  0.00000000000E+00 0.  1.
        -13    1    3    3    0    0 -0.43744482516E+02 -0.10038118619E+03  0.65397518108E+02  0.12754135669E+03  0.00000000000E+00 0. -1.
         13    1    3    3    0    0  0.17460250111E+02  0.10327534978E+02 -0.17554357553E+02  0.26826736323E+02  0.00000000000E+00 0.  1.
         21    1    1    2  502  501  0.14801467682E+02  0.35014751272E+02  0.10007856665E+03  0.10705529298E+03  0.00000000000E+00 0. -1.
<scales pt_clust_5="13000.00000" pt_clust_6="13000.00000" pt_clust_7="13000.00000" pt_clust_8="13000.00000" pt_clust_9="38.01468"></scales>
<clustering>
<clus scale="   38.015">  1  9  2 -1</clus>
<clus scale="   79.696">  5  6 -1 -1</clus>
<clus scale="  112.872">  7  8 -1 -1</clus>
<clus scale="  114.540">  1  5  2 -1</clus>
<clus scale="   38.015">  1  5  2 -1</clus>
</clustering>
</event>
<event>
 9    1  0.2374319E-005  0.1624183E+03  0.7546771E-02  0.1189212E+00
         -2   -1    0    0    0  501 -0.00000000000E+00  0.00000000000E+00  0.25091896877E+03  0.25091896877E+03  0.00000000000E+00 0.  1.
          1   -1    0    0  502    0  0.00000000000E+00 -0.00000000000E+00 -0.15625265929E+03  0.15625265929E+03  0.00000000000E+00 0. -1.
        -24    2    1    2    0    0 -0.40148580047E+02 -0.10352581690E+03  0.89788243371E+02  0.15989754776E+03  0.71942990530E+02 0.  0.
         23    2    1    2    0    0  0.75044372482E+01  0.14755040853E+03 -0.36680585359E+02  0.17849235134E+03  0.93202009140E+02 0.  0.
         11    1    3    3    0    0 -0.23923578389E+02  0.24035581087E+01  0.24924059119E+02  0.34631249147E+02  0.00000000000E+00 0. -1.
        -12    1    3    3    0    0 -0.16225001659E+02 -0.10592937501E+03  0.64864184252E+02  0.12526629861E+03  0.00000000000E+00 0.  1.
        -13    1    4    4    0    0  0.34245525822E+02  0.72005653406E+02  0.17661438551E+02  0.81666985820E+02  0.00000000000E+00 0.  1.
         13    1    4    4    0    0 -0.26741088574E+02  0.75544755123E+02 -0.54342023910E+02  0.96825365516E+02  0.00000000000E+00 0. -1.
         21    1    1    2  502  501  0.32644142799E+02 -0.44024591624E+02  0.41558651475E+02  0.68781728963E+02  0.00000000000E+00 0.  1.
<scales pt_clust_5="13000.00000" pt_clust_6="13000.00000" pt_clust_7="13000.00000" pt_clust_8="13000.00000" pt_clust_9="54.80698"></scales>
<clustering>
<clus scale="   54.807">  1  9  2 -1</clus>
<clus scale="   71.943">  5  6 -1 -1</clus>
<clus scale="   93.202">  7  8 -1 -1</clus>
<clus scale="  151.225">  1  5  2 -1</clus>
<clus scale="  162.418">  2  5  1 -1</clus>
</clustering>
</event>
<event>
 9    1  0.2374319E-005  0.9651632E+02  0.7546771E-02  0.1297024E+00
         -2   -1    0    0    0  501 -0.00000000000E+00  0.00000000000E+00  0.13505851574E+03  0.13505851574E+03  0.00000000000E+00 0.  1.
          1   -1    0    0  502    0  0.00000000000E+00 -0.00000000000E+00 -0.12532287013E+03  0.12532287013E+03  0.00000000000E+00 0. -1.
         23    2    1    2    0    0  0.73274725904E+01 -0.15259588016E+02  0.69541328709E+02  0.11980459456E+03  0.96075999073E+02 0.  0.
        -24    2    1    2    0    0  0.27260135129E+02 -0.79325963136E+01 -0.40656655018E+02  0.94741594160E+02  0.80727721479E+02 0.  0.
         13    1    4    4    0    0 -0.16539857551E+02 -0.30677586477E+02 -0.86221164149E+01  0.35902953797E+02  0.00000000000E+00 0. -1.
        -14    1    4    4    0    0  0.43799992680E+02  0.22744990163E+02 -0.32034538603E+02  0.58838640364E+02  0.00000000000E+00 0.  1.
        -11    1    3    3    0    0 -0.26805943118E+02 -0.39691677898E+02  0.13454921852E+02  0.49749601032E+02  0.00000000000E+00 0.  1.
         11    1    3    3    0    0  0.34133415709E+02  0.24432089882E+02  0.56086406857E+02  0.70054993527E+02  0.00000000000E+00 0. -1.
         21    1    1    2  502  501 -0.34587607720E+02  0.23192184330E+02 -0.19149028077E+02  0.45835197153E+02  0.00000000000E+00 0. -1.
<scales pt_clust_5="13000.00000" pt_clust_6="13000.00000" pt_clust_7="13000.00000" pt_clust_8="13000.00000" pt_clust_9="41.64349"></scales>
<clustering>
<clus scale="   41.643">  2  9  1 -1</clus>
<clus scale="   80.728">  5  6 -1 -1</clus>
<clus scale="   81.251">  2  5  1 -1</clus>
<clus scale="   96.076">  7  8 -1 -1</clus>
<clus scale="   41.643">  2  5  1 -1</clus>
</clustering>
</event>
<event>
 9    1  0.2374319E-005  0.1575815E+03  0.7546771E-02  0.1193187E+00
         -4   -1    0    0    0  501 -0.00000000000E+00  0.00000000000E+00  0.37388029806E+03  0.37388029806E+03  0.00000000000E+00 0.  1.
          3   -1    0    0  502    0  0.00000000000E+00 -0.00000000000E+00 -0.20792322436E+03  0.20792322436E+03  0.00000000000E+00 0. -1.
        -24    2    1    2    0    0 -0.10882254730E+03 -0.29395000930E+02  0.30153126881E+03  0.33191169391E+03  0.80856994768E+02 0.  0.
         23    2    1    2    0    0  0.11712303787E+03  0.56956616046E+02 -0.14911744889E+03  0.21808050200E+03  0.91439759830E+02 0.  0.
         13    1    3    3    0    0  0.40094758772E+01 -0.20876831492E+02  0.23242061428E+02  0.31497800072E+02  0.00000000000E+00 0. -1.
        -14    1    3    3    0    0 -0.11283202318E+03 -0.85181694380E+01  0.27828920739E+03  0.30041389384E+03  0.00000000000E+00 0.  1.
        -13    1    4    4    0    0  0.97775764266E+02  0.35733283066E+02 -0.15692958001E+03  0.18831850859E+03  0.00000000000E+00 0. -1.
         13    1    4    4    0    0  0.19347273601E+02  0.21223332980E+02  0.78121311245E+01  0.29761993402E+02  0.00000000000E+00 0.  1.
         21    1    1    2  502  501 -0.83004905620E+01 -0.27561615116E+02  0.13543253780E+02  0.31811326510E+02  0.00000000000E+00 0.  1.
<scales pt_clust_5="13000.00000" pt_clust_6="13000.00000" pt_clust_7="13000.00000" pt_clust_8="13000.00000" pt_clust_9="28.78438"></scales>
<clustering>
<clus scale="   28.784">  1  9  2 -1</clus>
<clus scale="   80.857">  5  6 -1 -1</clus>
<clus scale="   91.440">  7  8 -1 -1</clus>
<clus scale="  151.686">  1  5  2 -1</clus>
<clus scale="  157.581">  2  5  1 -1</clus>
</clustering>
</event>
<event>
 9    1  0.2374319E-005  0.1177383E+03  0.7546771E-02  0.1251062E+00
          1   -1    0    0  502    0  0.00000000000E+00  0.00000000000E+00  0.77235583577E+02  0.77235583577E+02  0.00000000000E+00 0. -1.
         -2   -1    0    0    0  501 -0.00000000000E+00 -0.00000000000E+00 -0.64215644181E+03  0.64215644181E+03  0.00000000000E+00 0.  1.
        -24    2    1    2    0    0 -0.59089260940E+02 -0.50084957604E+02 -0.57357263410E+03  0.58408047208E+03  0.78513613665E+02 0.  0.
         23    2    1    2    0    0  0.32670543536E+02  0.29173405057E+02  0.99805837964E+01  0.10159201313E+03  0.91120102620E+02 0.  0.
         13    1    3    3    0    0 -0.21882532282E+01 -0.45120821211E+02 -0.14942002535E+03  0.15609939440E+03  0.00000000000E+00 0. -1.
        -14    1    3    3    0    0 -0.56901007712E+02 -0.49641363924E+01 -0.42415260876E+03  0.42798107767E+03  0.00000000000E+00 0.  1.
        -11    1    4    4    0    0  0.27395307476E+02 -0.25779984233E+02  0.24015122251E+02  0.44629996141E+02  0.00000000000E+00 0. -1.
         11    1    4    4    0    0  0.52752360605E+01  0.54953389290E+02 -0.14034538455E+02  0.56962016990E+02  0.00000000000E+00 0.  1.
         21    1    1    2  502  501  0.26418717404E+02  0.20911552547E+02 -0.13288079209E+01  0.33719540176E+02  0.00000000000E+00 0. -1.
<scales pt_clust_5="13000.00000" pt_clust_6="13000.00000" pt_clust_7="13000.00000" pt_clust_8="13000.00000" pt_clust_9="33.69335"></scales>
<clustering>
<clus scale="   33.693">  1  9  2 -1</clus>
<clus scale="   78.514">  5  6 -1 -1</clus>
<clus scale="   91.120">  7  8 -1 -1</clus>
<clus scale="  108.277">  2  5  1 -1</clus>
<clus scale="   33.693">  1  5  2 -1</clus>
</clustering>
</event>
<event>
 9    1  0.2374319E-005  0.1036889E+03  0.7546771E-02  0.1280135E+00
         -2   -1    0    0    0  501 -0.00000000000E+00  0.00000000000E+00  0.15837788868E+03  0.15837788868E+03  0.00000000000E+00 0.  1.
          1   -1    0    0  502    0  0.00000000000E+00 -0.00000000000E+00 -0.17087613846E+03  0.17087613846E+03  0.00000000000E+00 0. -1.
         23    2    1    2    0    0  0.11817408067E+02 -0.41345331202E+02  0.98295448369E+02  0.14401340706E+03  0.96066532656E+02 0.  0.
        -24    2    1    2    0    0 -0.31135138959E+02  0.24194493272E+02 -0.12625070760E+03  0.15513671487E+03  0.81076437685E+02 0.  0.
         11    1    4    4    0    0  0.22654646029E+02 -0.88856047798E+01 -0.53679452433E+02  0.58937853477E+02  0.00000000000E+00 0. -1.
        -12    1    4    4    0    0 -0.53789784988E+02  0.33080098052E+02 -0.72571255165E+02  0.96198861388E+02  0.00000000000E+00 0.  1.
        -13    1    3    3    0    0  0.44927288660E+02  0.60699770478E+01  0.29269210399E+02  0.53962881364E+02  0.00000000000E+00 0. -1.
         13    1    3    3    0    0 -0.33109880594E+02 -0.47415308250E+02  0.69026237970E+02  0.90050525694E+02  0.00000000000E+00 0.  1.
         21    1    1    2  502  501  0.19317730893E+02  0.17150837930E+02  0.15457009442E+02  0.30103905219E+02  0.00000000000E+00 0. -1.
<scales pt_clust_5="13000.00000" pt_clust_6="13000.00000" pt_clust_7="13000.00000" pt_clust_8="13000.00000" pt_clust_9="25.83265"></scales>
<clustering>
<clus scale="   25.833">  1  9  2 -1</clus>
<clus scale="   81.076">  5  6 -1 -1</clus>
<clus scale="   89.978">  2  5  1 -1</clus>
<clus scale="   96.067">  7  8 -1 -1</clus>
<clus scale="   89.978">  2  5  1 -1</clus>
</clustering>
</event>
<event>
 9    1  0.2374319E-005  0.1814947E+03  0.7546771E-02  0.1167715E+00
         -2   -1    0    0    0  501 -0.00000000000E+00  0.00000000000E+00  0.33308745904E+03  0.33308745904E+03  0.00000000000E+00 0.  1.
          1   -1    0    0  502    0  0.00000000000E+00 -0.00000000000E+00 -0.25655267016E+03  0.25655267016E+03  0.00000000000E+00 0. -1.
         23    2    1    2    0    0  0.13567159950E+03  0.72524000257E+02  0.24945030926E+03  0.30700609590E+03  0.91437260493E+02 0.  0.
        -24    2    1    2    0    0 -0.15871357695E+03 -0.81611989283E+02 -0.16709057722E+03  0.25718891132E+03  0.79852105829E+02 0.  0.
         13    1    4    4    0    0 -0.16405601804E+03 -0.82217559468E+02 -0.14338314549E+03  0.23287943351E+03  0.00000000000E+00 0. -1.
        -14    1    4    4    0    0  0.53424410930E+01  0.60557018413E+00 -0.23707431726E+02  0.24309477805E+02  0.00000000000E+00 0.  1.
        -13    1    3    3    0    0  0.24066586449E+02 -0.20415606284E+02  0.64850366875E+02  0.72121894367E+02  0.00000000000E+00 0. -1.
         13    1    3    3    0    0  0.11160501305E+03  0.92939606541E+02  0.18459994239E+03  0.23488420154E+03  0.00000000000E+00 0.  1.
         21    1    1    2  502  501  0.23041977455E+02  0.90879890265E+01 -0.58249431684E+01  0.25445121979E+02  0.00000000000E+00 0.  1.
<scales pt_clust_5="13000.00000" pt_clust_6="13000.00000" pt_clust_7="13000.00000" pt_clust_8="13000.00000" pt_clust_9="24.76942"></scales>
<clustering>
<clus scale="   24.769">  2  9  1 -1</clus>
<clus scale="   79.852">  5  6 -1 -1</clus>
<clus scale="   91.437">  7  8 -1 -1</clus>
<clus scale="  175.943">  2  5  1 -1</clus>
<clus scale="   24.769">  2  5  1 -1</clus>
</clustering>
</event>
<event>
 9    1  0.2374319E-005  0.9835229E+02  0.7546771E-02  0.1289330E+00
          1   -1    0    0  502    0  0.00000000000E+00  0.00000000000E+00  0.47052726850E+02  0.47052726850E+02  0.00000000000E+00 0. -1.
         -2   -1    0    0    0  501 -0.00000000000E+00 -0.00000000000E+00 -0.52219173361E+03  0.52219173361E+03  0.00000000000E+00 0.  1.
        -24    2    1    2    0    0  0.12057468051E+02  0.28194069607E+02 -0.31716564962E+03  0.32876834809E+03  0.80958565382E+02 0.  0.
         23    2    1    2    0    0 -0.30020452685E+02 -0.39800308261E+02 -0.18112303795E+03  0.20895974656E+03  0.91505894285E+02 0.  0.
         11    1    3    3    0    0  0.22866528886E+02  0.52784521500E+02 -0.17901200909E+03  0.18802761301E+03  0.00000000000E+00 0. -1.
        -12    1    3    3    0    0 -0.10809060835E+02 -0.24590451893E+02 -0.13815364053E+03  0.14074073509E+03  0.00000000000E+00 0.  1.
        -13    1    4    4    0    0 -0.40237745698E+02  0.35313309008E+01 -0.14815343957E+03  0.15356102413E+03  0.00000000000E+00 0.  1.
         13    1    4    4    0    0  0.10217293013E+02 -0.43331639162E+02 -0.32969598379E+02  0.55398722424E+02  0.00000000000E+00 0. -1.
         21    1    1    2  502  501  0.17962984634E+02  0.11606238654E+02  0.23149680808E+02  0.31516365815E+02  0.00000000000E+00 0. -1.
<scales pt_clust_5="13000.00000" pt_clust_6="13000.00000" pt_clust_7="13000.00000" pt_clust_8="13000.00000" pt_clust_9="21.38629"></scales>
<clustering>
<clus scale="   21.386">  1  9  2 -1</clus>
<clus scale="   80.959">  5  6 -1 -1</clus>
<clus scale="   88.624">  2  5  1 -1</clus>
<clus scale="   91.506">  7  8 -1 -1</clus>
<clus scale="   21.386">  1  5  2 -1</clus>
</clustering>
</event>
<event>
 9    1  0.2374319E-005  0.1043766E+03  0.7546771E-02  0.1275871E+00
          1   -1    0    0  502    0  0.00000000000E+00  0.00000000000E+00  0.66285164387E+03  0.66285164387E+03  0.00000000000E+00 0. -1.
         -2   -1    0    0    0  501 -0.00000000000E+00 -0.00000000000E+00 -0.36157442728E+02  0.36157442728E+02  0.00000000000E+00 0.  1.
        -24    2    1    2    0    0 -0.24632582597E+02  0.44985690208E+02  0.56257719166E+02  0.11114303914E+03  0.80977575506E+02 0.  0.
         23    2    1    2    0    0 -0.36761636027E+01 -0.56606964725E+02  0.49427114350E+03  0.50578317520E+03  0.91075761789E+02 0.  0.
         13    1    3    3    0    0 -0.25516047119E+02 -0.11825019349E+02 -0.39037338983E+01  0.28392584974E+02  0.00000000000E+00 0. -1.
        -14    1    3    3    0    0  0.88346452212E+00  0.56810709557E+02  0.60161453064E+02  0.82750454166E+02  0.00000000000E+00 0.  1.
        -13    1    4    4    0    0 -0.25094338669E+02  0.16979986260E+02  0.15934986814E+03  0.16220488970E+03  0.00000000000E+00 0.  1.
         13    1    4    4    0    0  0.21418175067E+02 -0.73586950985E+02  0.33492127536E+03  0.34357828550E+03  0.00000000000E+00 0. -1.
         21    1    1    2  502  501  0.28308746199E+02  0.11621274517E+02  0.76165338478E+02  0.82082872258E+02  0.00000000000E+00 0. -1.
<scales pt_clust_5="13000.00000" pt_clust_6="13000.00000" pt_clust_7="13000.00000" pt_clust_8="13000.00000" pt_clust_9="30.60129"></scales>
<clustering>
<clus scale="   30.601">  1  9  2 -1</clus>
<clus scale="   80.978">  5  6 -1 -1</clus>
<clus scale="   91.076">  7  8 -1 -1</clus>
<clus scale="   95.692">  2  5  1 -1</clus>
<clus scale="   30.601">  1  5  2 -1</clus>
</clustering>
</event>
<event>
 9    1  0.2374319E-005  0.9059298E+02  0.7546771E-02  0.1307165E+00
         -2   -1    0    0    0  501 -0.00000000000E+00  0.00000000000E+00  0.10312451372E+03  0.10312451372E+03  0.00000000000E+00 0.  1.
          1   -1    0    0  502    0  0.00000000000E+00 -0.00000000000E+00 -0.41856171031E+03  0.41856171031E+03  0.00000000000E+00 0. -1.
        -24    2    1    2    0    0 -0.29446081254E+01 -0.10197894911E+02  0.67210178694E+02  0.10597123012E+03  0.81240542319E+02 0.  0.
         23    2    1    2    0    0 -0.28792626880E+02 -0.18555615122E+02 -0.14491513557E+03  0.17415623455E+03  0.90314291778E+02 0.  0.
         11    1    3    3    0    0 -0.26587037168E+02 -0.25481456187E+02  0.43342187503E+01  0.37080461256E+02  0.00000000000E+00 0. -1.
        -12    1    3    3    0    0  0.23642429043E+02  0.15283561276E+02  0.62875959944E+02  0.68890768868E+02  0.00000000000E+00 0.  1.
        -11    1    4    4    0    0  0.29384663384E+02 -0.24282697095E+02 -0.55766029097E+02  0.67549669293E+02  0.00000000000E+00 0.  1.
         11    1    4    4    0    0 -0.58177290265E+02  0.57270819722E+01 -0.89149106473E+02  0.10660656525E+03  0.00000000000E+00 0. -1.
         21    1    1    2  502  501  0.31737235006E+02  0.28753510033E+02 -0.23773223971E+03  0.24155875936E+03  0.00000000000E+00 0. -1.
<scales pt_clust_5="13000.00000" pt_clust_6="13000.00000" pt_clust_7="13000.00000" pt_clust_8="13000.00000" pt_clust_9="42.82542"></scales>
<clustering>
<clus scale="   42.825">  2  9  1 -1</clus>
<clus scale="   81.241">  5  6 -1 -1</clus>
<clus scale="   81.550">  1  5  2 -1</clus>
<clus scale="   90.314">  7  8 -1 -1</clus>
<clus scale="   42.825">  2  5  1 -1</clus>
</clustering>
</event>
<event>
 9    1  0.2374319E-005  0.1691006E+03  0.7546771E-02  0.1180491E+00
         -2   -1    0    0    0  501 -0.00000000000E+00  0.00000000000E+00  0.28440780577E+03  0.28440780577E+03  0.00000000000E+00 0.  1.
          1   -1    0    0  502    0  0.00000000000E+00 -0.00000000000E+00 -0.27291892771E+03  0.27291892771E+03  0.00000000000E+00 0. -1.
         23    2    1    2    0    0 -0.11638741477E+03 -0.89964666522E+01  0.21587436219E+03  0.26208122830E+03  0.91966642050E+02 0.  0.
        -24    2    1    2    0    0  0.14500220175E+03 -0.32849288279E+01 -0.20578942663E+03  0.26407484969E+03  0.79685687899E+02 0.  0.
         11    1    4    4    0    0  0.16441199171E+02  0.28324141241E+02 -0.34239770580E+02  0.47380712284E+02  0.00000000000E+00 0. -1.
        -12    1    4    4    0    0  0.12856100258E+03 -0.31609070069E+02 -0.17154965605E+03  0.21669413741E+03  0.00000000000E+00 0.  1.
        -13    1    3    3    0    0 -0.71472557930E+02  0.12562546092E+02  0.19499752264E+03  0.20806291822E+03  0.00000000000E+00 0.  1.
         13    1    3    3    0    0 -0.44914856836E+02 -0.21559012744E+02  0.20876839552E+02  0.54018310088E+02  0.00000000000E+00 0. -1.
         21    1    1    2  502  501 -0.28614786987E+02  0.12281395480E+02  0.14039424981E+01  0.31170655491E+02  0.00000000000E+00 0.  1.
<scales pt_clust_5="13000.00000" pt_clust_6="13000.00000" pt_clust_7="13000.00000" pt_clust_8="13000.00000" pt_clust_9="31.13902"></scales>
<clustering>
<clus scale="   31.139">  1  9  2 -1</clus>
<clus scale="   79.686">  5  6 -1 -1</clus>
<clus scale="   91.967">  7  8 -1 -1</clus>
<clus scale="  162.748">  2  5  1 -1</clus>
<clus scale="  162.748">  2  5  1 -1</clus>
</clustering>
</event>
<event>
 9    1  0.2374319E-005  0.1233517E+03  0.7546771E-02  0.1253437E+00
          1   -1    0    0  502    0  0.00000000000E+00  0.00000000000E+00  0.15183318152E+03  0.15183318152E+03  0.00000000000E+00 0. -1.
         -2   -1    0    0    0  501 -0.00000000000E+00 -0.00000000000E+00 -0.48233770765E+03  0.48233770765E+03  0.00000000000E+00 0.  1.
        -24    2    1    2    0    0 -0.25123165427E+02  0.78368047338E+01 -0.38924010566E+03  0.39922261593E+03  0.84724543476E+02 0.  0.
         23    2    1    2    0    0  0.96782353204E+02 -0.15902035713E+01  0.26836785055E+02  0.15626160151E+03  0.11970013549E+03 0.  0.
         13    1    3    3    0    0 -0.11408964084E+02  0.46232832118E+02 -0.22663969094E+03  0.23158840372E+03  0.00000000000E+00 0. -1.
        -14    1    3    3    0    0 -0.13714201343E+02 -0.38396027384E+02 -0.16260041472E+03  0.16763421221E+03  0.00000000000E+00 0.  1.
        -13    1    4    4    0    0  0.49901787750E+02  0.50870477859E+02 -0.17140180919E+02  0.73292426214E+02  0.00000000000E+00 0.  1.
         13    1    4    4    0    0  0.46880565453E+02 -0.52460681431E+02  0.43976965975E+02  0.82969175299E+02  0.00000000000E+00 0. -1.
         21    1    1    2  502  501 -0.71659187777E+02 -0.62466011625E+01  0.31898794468E+02  0.78686671727E+02  0.00000000000E+00 0. -1.
<scales pt_clust_5="13000.00000" pt_clust_6="13000.00000" pt_clust_7="13000.00000" pt_clust_8="13000.00000" pt_clust_9="71.93093"></scales>
<clustering>
<clus scale="   71.931">  1  9  2 -1</clus>
<clus scale="   84.725">  5  6 -1 -1</clus>
<clus scale="   89.810">  2  5  1 -1</clus>
<clus scale="  119.700">  7  8 -1 -1</clus>
<clus scale="   71.931">  1  5  2 -1</clus>
</clustering>
</event>
<event>
 9    1  0.2374319E-005  0.1578883E+03  0.7546771E-02  0.1216514E+00
         -2   -1    0    0    0  501 -0.00000000000E+00  0.00000000000E+00  0.99465128345E+03  0.99465128345E+03  0.00000000000E+00 0.  1.
          1   -1    0    0  502    0  0.00000000000E+00 -0.00000000000E+00 -0.11251734802E+03  0.11251734802E+03  0.00000000000E+00 0. -1.
         23    2    1    2    0    0  0.17313427142E-02  0.12331128916E+03  0.63808350406E+03  0.65654445112E+03  0.93243681295E+02 0.  0.
        -24    2    1    2    0    0 -0.43307961912E+02  0.77955676804E+01 -0.65073082282E+02  0.11206578922E+03  0.79924243101E+02 0.  0.
         13    1    4    4    0    0 -0.16894688867E+02  0.43591415775E+02 -0.33510211685E+02  0.57520225385E+02  0.00000000000E+00 0. -1.
        -14    1    4    4    0    0 -0.26413273045E+02 -0.35795848094E+02 -0.31562870597E+02  0.54545563835E+02  0.00000000000E+00 0.  1.
        -13    1    3    3    0    0 -0.23579273069E+02  0.21129535827E+02  0.49980704358E+02  0.59165109743E+02  0.00000000000E+00 0. -1.
         13    1    3    3    0    0  0.23581004412E+02  0.10218175333E+03  0.58810279970E+03  0.59737934137E+03  0.00000000000E+00 0.  1.
         21    1    1    2  502  501  0.43306230569E+02 -0.13110685684E+03  0.30912351365E+03  0.33855839113E+03  0.00000000000E+00 0. -1.
<scales pt_clust_5="13000.00000" pt_clust_6="13000.00000" pt_clust_7="13000.00000" pt_clust_8="13000.00000" pt_clust_9="127.41397"></scales>
<clustering>
<clus scale="   79.924">  5  6 -1 -1</clus>
<clus scale="   91.237">  2  5  1 -1</clus>
<clus scale="   93.244">  7  8 -1 -1</clus>
<clus scale="  127.414">  2  9  1 -1</clus>
<clus scale="   91.237">  2  5  1 -1</clus>
</clustering>
</event>
<event>
 9    1  0.2374319E-005  0.9089206E+02  0.7546771E-02  0.1306360E+00
         -2   -1    0    0    0  501 -0.00000000000E+00  0.00000000000E+00  0.12518847671E+03  0.12518847671E+03  0.00000000000E+00 0.  1.
          1   -1    0    0  502    0  0.00000000000E+00 -0.00000000000E+00 -0.62435090725E+03  0.62435090725E+03  0.00000000000E+00 0. -1.
         23    2    1    2    0    0  0.17201295248E+02  0.69945379172E+01  0.64446856878E+02  0.11293726029E+03  0.90865941266E+02 0.  0.
        -24    2    1    2    0    0  0.59254245427E+02  0.14216813237E+02 -0.44338714615E+02  0.11130478034E+03  0.81912447978E+02 0.  0.
         13    1    4    4    0    0  0.21973343341E+02 -0.34302758316E+02 -0.14619405325E+02  0.43280874040E+02  0.00000000000E+00 0. -1.
        -14    1    4    4    0    0  0.37280902086E+02  0.48519571553E+02 -0.29719309290E+02  0.68023906303E+02  0.00000000000E+00 0.  1.
        -13    1    3    3    0    0  0.19517777899E+01  0.44982290473E+02  0.54721237775E+02  0.70863458541E+02  0.00000000000E+00 0.  1.
         13    1    3    3    0    0  0.15249517458E+02 -0.37987752556E+02  0.97256191030E+01  0.42073801752E+02  0.00000000000E+00 0. -1.
         21    1    1    2  502  501 -0.76455540675E+02 -0.21211351154E+02 -0.51927057280E+03  0.52529734332E+03  0.00000000000E+00 0. -1.
<scales pt_clust_5="13000.00000" pt_clust_6="13000.00000" pt_clust_7="13000.00000" pt_clust_8="13000.00000" pt_clust_9="79.34337"></scales>
<clustering>
<clus scale="   79.343">  2  9  1 -1</clus>
<clus scale="   81.912">  5  6 -1 -1</clus>
<clus scale="   81.941">  2  5  1 -1</clus>
<clus scale="   90.866">  7  8 -1 -1</clus>
<clus scale="   79.343">  2  5  1 -1</clus>
</clustering>
</event>
<event>
 9    1  0.2374319E-005  0.1820629E+03  0.7546771E-02  0.1166532E+00
          1   -1    0    0  502    0  0.00000000000E+00  0.00000000000E+00  0.15113604155E+04  0.15113604155E+04  0.00000000000E+00 0. -1.
         -2   -1    0    0    0  501 -0.00000000000E+00 -0.00000000000E+00 -0.64731369915E+02  0.64731369915E+02  0.00000000000E+00 0.  1.
         23    2    1    2    0    0  0.11384952467E+03 -0.10139765627E+03  0.85491857031E+02  0.19670116050E+03  0.90218013507E+02 0.  0.
        -24    2    1    2    0    0 -0.12209699133E+03  0.12398268998E+03  0.11712071081E+04  0.11879447059E+04  0.95953902716E+02 0.  0.
         13    1    4    4    0    0 -0.88249799883E+02  0.10227473126E+03  0.58646531882E+03  0.60182199861E+03  0.00000000000E+00 0. -1.
        -14    1    4    4    0    0 -0.33847191445E+02  0.21707958723E+02  0.58474178927E+03  0.58612270726E+03  0.00000000000E+00 0.  1.
        -13    1    3    3    0    0  0.49910742532E+02 -0.76088727662E+02  0.54271323787E+01  0.91159368489E+02  0.00000000000E+00 0.  1.
         13    1    3    3    0    0  0.63938782136E+02 -0.25308928606E+02  0.80064724652E+02  0.10554179202E+03  0.00000000000E+00 0. -1.
         21    1    1    2  502  501  0.82474666597E+01 -0.22585033710E+02  0.18993008047E+03  0.19144591905E+03  0.00000000000E+00 0.  1.
<scales pt_clust_5="13000.00000" pt_clust_6="13000.00000" pt_clust_7="13000.00000" pt_clust_8="13000.00000" pt_clust_9="24.04380"></scales>
<clustering>
<clus scale="   24.044">  1  9  2 -1</clus>
<clus scale="   90.218">  7  8 -1 -1</clus>
<clus scale="   95.954">  5  6 -1 -1</clus>
<clus scale="  179.106">  2  7  1 -1</clus>
<clus scale="   24.044">  1  5  2 -1</clus>
</clustering>
</event>
<event>
 9    1  0.2374319E-005  0.1752655E+03  0.7546771E-02  0.1184244E+00
         -2   -1    0    0    0  501 -0.00000000000E+00  0.00000000000E+00  0.10586304385E+03  0.10586304385E+03  0.00000000000E+00 0.  1.
          1   -1    0    0  502    0  0.00000000000E+00 -0.00000000000E+00 -0.57254318370E+03  0.57254318370E+03  0.00000000000E+00 0. -1.
        -24    2    1    2    0    0 -0.10744835060E+03  0.11523461257E+02 -0.68260514487E+02  0.15073393287E+03  0.79895447152E+02 0.  0.
         23    2    1    2    0    0  0.95404025328E+02  0.13992127086E+03 -0.25784657409E+03  0.32069076071E+03  0.87623159884E+02 0.  0.
         11    1    3    3    0    0 -0.56341052377E+02 -0.34105584760E+02 -0.32163875654E+02  0.73294065188E+02  0.00000000000E+00 0. -1.
        -12    1    3    3    0    0 -0.51107298224E+02  0.45629046017E+02 -0.36096638833E+02  0.77439867686E+02  0.00000000000E+00 0.  1.
        -11    1    4    4    0    0  0.30197105532E+02 -0.36372779241E+01 -0.24441006609E+02  0.39018684976E+02  0.00000000000E+00 0. -1.
         11    1    4    4    0    0  0.65206919796E+02  0.14355854878E+03 -0.23340556748E+03  0.28167207573E+03  0.00000000000E+00 0.  1.
         21    1    1    2  502  501  0.12044325273E+02 -0.15144473211E+03 -0.14057305128E+03  0.20698153396E+03  0.00000000000E+00 0. -1.
<scales pt_clust_5="13000.00000" pt_clust_6="13000.00000" pt_clust_7="13000.00000" pt_clust_8="13000.00000" pt_clust_9="151.78989"></scales>
<clustering>
<clus scale="   79.895">  5  6 -1 -1</clus>
<clus scale="   87.623">  7  8 -1 -1</clus>
<clus scale="  134.392">  1  5  2 -1</clus>
<clus scale="  151.790">  1  9  2 -1</clus>
<clus scale="  175.265">  2  5  1 -1</clus>
</clustering>
</event>
<event>
 9    1  0.2374319E-005  0.1136302E+03  0.7546771E-02  0.1258097E+00
          1   -1    0    0  502    0  0.00000000000E+00  0.00000000000E+00  0.39070027423E+03  0.39070027423E+03  0.00000000000E+00 0. -1.
         -2   -1    0    0    0  501 -0.00000000000E+00 -0.00000000000E+00 -0.10081398827E+03  0.10081398827E+03  0.00000000000E+00 0.  1.
         23    2    1    2    0    0  0.25978223536E+02  0.61764706828E+02 -0.53501672933E+02  0.12612788760E+03  0.92499015763E+02 0.  0.
        -24    2    1    2    0    0 -0.32980924275E+01 -0.60758564745E+02  0.29314531911E+03  0.31025268717E+03  0.81363819839E+02 0.  0.
         13    1    4    4    0    0 -0.24663445034E+02 -0.69288231703E+02  0.25775416001E+03  0.26804169746E+03  0.00000000000E+00 0. -1.
        -14    1    4    4    0    0  0.21365352606E+02  0.85296669575E+01  0.35391159101E+02  0.42210989717E+02  0.00000000000E+00 0.  1.
        -13    1    3    3    0    0 -0.83701210220E+01  0.48431378694E+02 -0.70183614685E+02  0.85681953400E+02  0.00000000000E+00 0.  1.
         13    1    3    3    0    0  0.34348344558E+02  0.13333328134E+02  0.16681941752E+02  0.40445934204E+02  0.00000000000E+00 0. -1.
         21    1    1    2  502  501 -0.22680131108E+02 -0.10061420826E+01  0.50242639787E+02  0.55133687721E+02  0.00000000000E+00 0.  1.
<scales pt_clust_5="13000.00000" pt_clust_6="13000.00000" pt_clust_7="13000.00000" pt_clust_8="13000.00000" pt_clust_9="22.70244"></scales>
<clustering>
<clus scale="   22.702">  1  9  2 -1</clus>
<clus scale="   81.364">  5  6 -1 -1</clus>
<clus scale="   92.499">  7  8 -1 -1</clus>
<clus scale="  104.766">  1  5  2 -1</clus>
<clus scale="   22.702">  1  5  2 -1</clus>
</clustering>
</event>
<event>
 9    1  0.2374319E-005  0.9662909E+02  0.7546771E-02  0.1293198E+00
          1   -1    0    0  502    0  0.00000000000E+00  0.00000000000E+00  0.12067830584E+03  0.12067830584E+03  0.00000000000E+00 0. -1.
         -2   -1    0    0    0  501 -0.00000000000E+00 -0.00000000000E+00 -0.17748826436E+03  0.17748826436E+03  0.00000000000E+00 0.  1.
        -24    2    1    2    0    0  0.20759652615E+02  0.22806643201E+02 -0.12404916840E+03  0.15085596948E+03  0.80113801532E+02 0.  0.
         23    2    1    2    0    0 -0.43962941616E+02 -0.31876300614E+02  0.59666003174E+02  0.12127207607E+03  0.90543060053E+02 0.  0.
         11    1    3    3    0    0  0.39504084458E+02 -0.15657626821E+02 -0.70432831010E+02  0.82258845424E+02  0.00000000000E+00 0. -1.
        -12    1    3    3    0    0 -0.18744431843E+02  0.38464270022E+02 -0.53616337394E+02  0.68597124057E+02  0.00000000000E+00 0.  1.
        -13    1    4    4    0    0 -0.71770003771E+02 -0.16468044234E+02  0.38643534419E+02  0.83159200781E+02  0.00000000000E+00 0. -1.
         13    1    4    4    0    0  0.27807062155E+02 -0.15408256380E+02  0.21022468755E+02  0.38112875291E+02  0.00000000000E+00 0.  1.
         21    1    1    2  502  501  0.23203289001E+02  0.90696574135E+01  0.75732067017E+01  0.26038524647E+02  0.00000000000E+00 0. -1.
<scales pt_clust_5="13000.00000" pt_clust_6="13000.00000" pt_clust_7="13000.00000" pt_clust_8="13000.00000" pt_clust_9="24.91287"></scales>
<clustering>
<clus scale="   24.913">  1  9  2 -1</clus>
<clus scale="   80.114">  5  6 -1 -1</clus>
<clus scale="   86.933">  2  5  1 -1</clus>
<clus scale="   90.543">  7  8 -1 -1</clus>
<clus scale="   24.913">  1  5  2 -1</clus>
</clustering>
</event>
<event>
 9    1  0.2374319E-005  0.1262194E+03  0.7546771E-02  0.1235151E+00
         -2   -1    0    0    0  501 -0.00000000000E+00  0.00000000000E+00  0.62706200724E+02  0.62706200724E+02  0.00000000000E+00 0.  1.
          1   -1    0    0  502    0  0.00000000000E+00 -0.00000000000E+00 -0.86807374953E+03  0.86807374953E+03  0.00000000000E+00 0. -1.
        -24    2    1    2    0    0 -0.43692043265E+02 -0.83651676353E+02 -0.47758902060E+02  0.13245224384E+03  0.79725068641E+02 0.  0.
         23    2    1    2    0    0 -0.70733780874E+02  0.20913845327E+02 -0.36332328885E+03  0.38300825332E+03  0.96181355809E+02 0.  0.
         13    1    3    3    0    0 -0.37235056472E+02 -0.59414834102E+01 -0.38563142890E+02  0.53933909975E+02  0.00000000000E+00 0. -1.
        -14    1    3    3    0    0 -0.64569867929E+01 -0.77710192943E+02 -0.91957591698E+01  0.78518333861E+02  0.00000000000E+00 0.  1.
        -11    1    4    4    0    0 -0.39210089530E+02  0.42223471556E+02 -0.32085167218E+03  0.32598473616E+03  0.00000000000E+00 0.  1.
         11    1    4    4    0    0 -0.31523691344E+02 -0.21309626229E+02 -0.42471616671E+02  0.57023517154E+02  0.00000000000E+00 0. -1.
         21    1    1    2  502  501  0.11442582414E+03  0.62737831026E+02 -0.39428535790E+03  0.41531945310E+03  0.00000000000E+00 0. -1.
<scales pt_clust_5="13000.00000" pt_clust_6="13000.00000" pt_clust_7="13000.00000" pt_clust_8="13000.00000" pt_clust_9="97.85321"></scales>
<clustering>
<clus scale="   79.725">  5  6 -1 -1</clus>
<clus scale="   96.181">  7  8 -1 -1</clus>
<clus scale="  121.209">  2  7  1 -1</clus>
<clus scale="   97.853">  2  9  1 -1</clus>
<clus scale="  121.209">  2  5  1 -1</clus>
</clustering>
</event>
<event>
 9    1  0.2374319E-005  0.1678003E+03  0.7546771E-02  0.1181087E+00
          1   -1    0    0  502    0  0.00000000000E+00  0.00000000000E+00  0.36295118745E+03  0.36295118745E+03  0.00000000000E+00 0. -1.
         -2   -1    0    0    0  501 -0.00000000000E+00 -0.00000000000E+00 -0.17848096349E+03  0.17848096349E+03  0.00000000000E+00 0.  1.
         23    2    1    2    0    0  0.13065792110E+03 -0.37400711930E+02 -0.84540055749E+02  0.18445132616E+03  0.91678596726E+02 0.  0.
        -24    2    1    2    0    0 -0.16284066308E+03  0.11080641182E+02  0.17423220132E+03  0.25348512850E+03  0.85193827422E+02 0.  0.
         11    1    4    4    0    0 -0.12778482450E+03  0.44543316192E+02  0.13477996237E+03  0.19099399636E+03  0.00000000000E+00 0. -1.
        -12    1    4    4    0    0 -0.35055838582E+02 -0.33462675010E+02  0.39452238954E+02  0.62491132138E+02  0.00000000000E+00 0.  1.
        -11    1    3    3    0    0  0.10055851147E+03 -0.62147909655E+02 -0.84800744003E+02  0.14548382415E+03  0.00000000000E+00 0.  1.
         11    1    3    3    0    0  0.30099409622E+02  0.24747197725E+02  0.26068825351E+00  0.38967502014E+02  0.00000000000E+00 0. -1.
         21    1    1    2  502  501  0.32182741981E+02  0.26320070748E+02  0.94778078388E+02  0.10349569628E+03  0.00000000000E+00 0. -1.
<scales pt_clust_5="13000.00000" pt_clust_6="13000.00000" pt_clust_7="13000.00000" pt_clust_8="13000.00000" pt_clust_9="41.57493"></scales>
<clustering>
<clus scale="   41.575">  1  9  2 -1</clus>
<clus scale="   85.194">  5  6 -1 -1</clus>
<clus scale="   91.679">  7  8 -1 -1</clus>
<clus scale="  164.347">  1  5  2 -1</clus>
<clus scale="   41.575">  1  5  2 -1</clus>
</clustering>
</event>
<event>
 9    1  0.2374319E-005  0.1126145E+03  0.7546771E-02  0.1260109E+00
         -2   -1    0    0    0  501 -0.00000000000E+00  0.00000000000E+00  0.17832038423E+03  0.17832038423E+03  0.00000000000E+00 0.  1.
          1   -1    0    0  502    0  0.00000000000E+00 -0.00000000000E+00 -0.92569913475E+02  0.92569913475E+02  0.00000000000E+00 0. -1.
         23    2    1    2    0    0 -0.44262042463E+02 -0.47762963688E+02  0.68810479454E+02  0.13068020098E+03  0.90011131219E+02 0.  0.
        -24    2    1    2    0    0  0.68444701442E+02  0.30263335317E+02  0.20355968919E+02  0.11016501573E+03  0.78239495146E+02 0.  0.
         11    1    4    4    0    0  0.25508360809E+02  0.19952973410E+02 -0.29330258362E+02  0.43692810331E+02  0.00000000000E+00 0. -1.
        -12    1    4    4    0    0  0.42936340633E+02  0.10310361907E+02  0.49686227280E+02  0.66472205402E+02  0.00000000000E+00 0.  1.
        -11    1    3    3    0    0 -0.53552073006E+01 -0.46599198780E+02 -0.50640291821E+01  0.47178469281E+02  0.00000000000E+00 0. -1.
         11    1    3    3    0    0 -0.38906835162E+02 -0.11637649081E+01  0.73874508636E+02  0.83501731702E+02  0.00000000000E+00 0.  1.
         21    1    1    2  502  501 -0.24182658980E+02  0.17499628371E+02 -0.34159776192E+01  0.30045080988E+02  0.00000000000E+00 0.  1.
<scales pt_clust_5="13000.00000" pt_clust_6="13000.00000" pt_clust_7="13000.00000" pt_clust_8="13000.00000" pt_clust_9="29.85026"></scales>
<clustering>
<clus scale="   29.850">  2  9  1 -1</clus>
<clus scale="   78.239">  5  6 -1 -1</clus>
<clus scale="   90.011">  7  8 -1 -1</clus>
<clus scale="  103.448">  2  5  1 -1</clus>
<clus scale="   29.850">  2  5  1 -1</clus>
</clustering>
</event>
<event>
 9    1  0.2374319E-005  0.9549178E+02  0.7546771E-02  0.1295547E+00
          1   -1    0    0  502    0  0.00000000000E+00  0.00000000000E+00  0.23973137636E+03  0.23973137636E+03  0.00000000000E+00 0. -1.
         -2   -1    0    0    0  501 -0.00000000000E+00 -0.00000000000E+00 -0.14190347530E+03  0.14190347530E+03  0.00000000000E+00 0.  1.
        -24    2    1    2    0    0  0.14856798602E+02  0.23071375473E+02 -0.10470387960E+03  0.13535606308E+03  0.81273295605E+02 0.  0.
         23    2    1    2    0    0 -0.48971694536E+01 -0.51048615306E+02  0.18300595823E+03  0.21073757443E+03  0.91045050045E+02 0.  0.
         13    1    3    3    0    0 -0.26639346954E+02 -0.14000970745E+02 -0.34744331288E+02  0.45965754042E+02  0.00000000000E+00 0. -1.
        -14    1    3    3    0    0  0.41496145556E+02  0.37072346218E+02 -0.69959548307E+02  0.89390309035E+02  0.00000000000E+00 0.  1.
        -13    1    4    4    0    0  0.23460565895E+02  0.18169980523E+02  0.53779203646E+02  0.61422708253E+02  0.00000000000E+00 0.  1.
         13    1    4    4    0    0 -0.28357735348E+02 -0.69218595829E+02  0.12922675458E+03  0.14931486618E+03  0.00000000000E+00 0. -1.
         21    1    1    2  502  501 -0.99596291481E+01  0.27977239832E+02  0.19525822437E+02  0.35541214150E+02  0.00000000000E+00 0. -1.
<scales pt_clust_5="13000.00000" pt_clust_6="13000.00000" pt_clust_7="13000.00000" pt_clust_8="13000.00000" pt_clust_9="29.69714"></scales>
<clustering>
<clus scale="   29.697">  1  9  2 -1</clus>
<clus scale="   81.273">  5  6 -1 -1</clus>
<clus scale="   86.225">  2  5  1 -1</clus>
<clus scale="   91.045">  7  8 -1 -1</clus>
<clus scale="   29.697">  1  5  2 -1</clus>
</clustering>
</event>
<event>
 9    1  0.2374319E-005  0.1280606E+03  0.7546771E-02  0.1233407E+00
          1   -1    0    0  502    0  0.00000000000E+00  0.00000000000E+00  0.22206368549E+03  0.22206368549E+03  0.00000000000E+00 0. -1.
         -2   -1    0    0    0  501 -0.00000000000E+00 -0.00000000000E+00 -0.22825739152E+03  0.22825739152E+03  0.00000000000E+00 0.  1.
         23    2    1    2    0    0  0.75116638967E+02 -0.58900686008E+02 -0.17166248266E+03  0.21653605599E+03  0.91148534429E+02 0.  0.
        -24    2    1    2    0    0 -0.19489420246E+02  0.57268278827E+02  0.14106909702E+03  0.17301992758E+03  0.79849307733E+02 0.  0.
         11    1    4    4    0    0 -0.39100701142E+02  0.66463622340E+02  0.97007731793E+02  0.12392246750E+03  0.00000000000E+00 0. -1.
        -12    1    4    4    0    0  0.19611280896E+02 -0.91953435122E+01  0.44061365227E+02  0.49097460081E+02  0.00000000000E+00 0.  1.
        -11    1    3    3    0    0 -0.19688096227E+02 -0.67391591178E+01 -0.13165722155E+02  0.24624655095E+02  0.00000000000E+00 0. -1.
         11    1    3    3    0    0  0.94804735194E+02 -0.52161526890E+02 -0.15849676050E+03  0.19191140089E+03  0.00000000000E+00 0.  1.
         21    1    1    2  502  501 -0.55627218720E+02  0.16324071803E+01  0.24399679605E+02  0.60765093438E+02  0.00000000000E+00 0. -1.
<scales pt_clust_5="13000.00000" pt_clust_6="13000.00000" pt_clust_7="13000.00000" pt_clust_8="13000.00000" pt_clust_9="55.65117"></scales>
<clustering>
<clus scale="   55.651">  1  9  2 -1</clus>
<clus scale="   79.849">  5  6 -1 -1</clus>
<clus scale="   91.149">  7  8 -1 -1</clus>
<clus scale="  120.280">  1  5  2 -1</clus>
<clus scale="   55.651">  1  5  2 -1</clus>
</clustering>
</event>
<event>
 9    1  0.2374319E-005  0.1412466E+03  0.7546771E-02  0.1213429E+00
         -2   -1    0    0    0  501 -0.00000000000E+00  0.00000000000E+00  0.13730601262E+03  0.13730601262E+03  0.00000000000E+00 0.  1.
          1   -1    0    0  502    0  0.00000000000E+00 -0.00000000000E+00 -0.37284410634E+03  0.37284410634E+03  0.00000000000E+00 0. -1.
        -24    2    1    2    0    0 -0.75026868423E+02  0.81279529642E+02  0.78255325714E+02  0.15885073969E+03  0.82911208968E+02 0.  0.
         23    2    1    2    0    0  0.70678139992E+02 -0.58779550351E+02 -0.22507809498E+03  0.25967204002E+03  0.91208467338E+02 0.  0.
         13    1    3    3    0    0  0.58242063910E+01  0.40767814581E+02  0.31591400442E+01  0.41302739033E+02  0.00000000000E+00 0. -1.
        -14    1    3    3    0    0 -0.80851074814E+02  0.40511715060E+02  0.75096185670E+02  0.11754800065E+03  0.00000000000E+00 0.  1.
        -11    1    4    4    0    0 -0.12755106184E+01 -0.56849451245E+02 -0.86530710087E+02  0.10354250732E+03  0.00000000000E+00 0.  1.
         11    1    4    4    0    0  0.71953650611E+02 -0.19300991058E+01 -0.13854738490E+03  0.15612953270E+03  0.00000000000E+00 0. -1.
         21    1    1    2  502  501  0.43487284309E+01 -0.22499979291E+02 -0.88715324443E+02  0.91627339251E+02  0.00000000000E+00 0.  1.
<scales pt_clust_5="13000.00000" pt_clust_6="13000.00000" pt_clust_7="13000.00000" pt_clust_8="13000.00000" pt_clust_9="22.91638"></scales>
<clustering>
<clus scale="   22.916">  2  9  1 -1</clus>
<clus scale="   82.911">  5  6 -1 -1</clus>
<clus scale="   91.208">  7  8 -1 -1</clus>
<clus scale="  136.036">  1  5  2 -1</clus>
<clus scale="   22.916">  2  5  1 -1</clus>
</clustering>
</event>
<event>
 9    1  0.2374319E-005  0.9187391E+02  0.7546771E-02  0.1304741E+00
          1   -1    0    0  502    0  0.00000000000E+00  0.00000000000E+00  0.78831583313E+02  0.78831583313E+02  0.00000000000E+00 0. -1.
         -2   -1    0    0    0  501 -0.00000000000E+00 -0.00000000000E+00 -0.30499906086E+03  0.30499906086E+03  0.00000000000E+00 0.  1.
        -24    2    1    2    0    0 -0.22364629074E+02 -0.20275625697E+02 -0.23822365251E+03  0.25351241779E+03  0.81281976651E+02 0.  0.
         23    2    1    2    0    0  0.62345290320E+01  0.25024532666E+00  0.32694786734E+02  0.97346294647E+02  0.91479068792E+02 0.  0.
         13    1    3    3    0    0 -0.26816072138E+02 -0.20367483133E+02 -0.29578908620E+02  0.44820173239E+02  0.00000000000E+00 0. -1.
        -14    1    3    3    0    0  0.44514430639E+01  0.91857435615E-01 -0.20864474389E+03  0.20869224455E+03  0.00000000000E+00 0.  1.
        -13    1    4    4    0    0 -0.26391877419E+02  0.35123734059E+02  0.15935526691E+02  0.46734878826E+02  0.00000000000E+00 0.  1.
         13    1    4    4    0    0  0.32626406451E+02 -0.34873488732E+02  0.16759260044E+02  0.50611415822E+02  0.00000000000E+00 0. -1.
         21    1    1    2  502  501  0.16130100042E+02  0.20025380371E+02 -0.20638611771E+02  0.32971931733E+02  0.00000000000E+00 0. -1.
<scales pt_clust_5="13000.00000" pt_clust_6="13000.00000" pt_clust_7="13000.00000" pt_clust_8="13000.00000" pt_clust_9="25.71373"></scales>
<clustering>
<clus scale="   25.714">  2  9  1 -1</clus>
<clus scale="   81.282">  5  6 -1 -1</clus>
<clus scale="   81.726">  2  5  1 -1</clus>
<clus scale="   91.479">  7  8 -1 -1</clus>
<clus scale="   91.874">  1  5  2 -1</clus>
</clustering>
</event>
<event>
 9    1  0.2374319E-005  0.9439100E+02  0.7546771E-02  0.1295302E+00
          1   -1    0    0  502    0  0.00000000000E+00  0.00000000000E+00  0.16354073359E+03  0.16354073359E+03  0.00000000000E+00 0. -1.
         -2   -1    0    0    0  501 -0.00000000000E+00 -0.00000000000E+00 -0.98250138568E+02  0.98250138568E+02  0.00000000000E+00 0.  1.
         23    2    1    2    0    0  0.52318289395E+02  0.75349476345E+01  0.52378411128E+01  0.10130774972E+03  0.86266136649E+02 0.  0.
        -24    2    1    2    0    0 -0.32546549712E+02  0.93938083438E+01  0.86547457425E+02  0.12334185452E+03  0.81087786720E+02 0.  0.
         11    1    4    4    0    0 -0.16716003051E+02  0.44731298127E+02  0.58576045276E+02  0.75574247401E+02  0.00000000000E+00 0. -1.
        -12    1    4    4    0    0 -0.15830546662E+02 -0.35337489783E+02  0.27971412149E+02  0.47767607114E+02  0.00000000000E+00 0.  1.
        -13    1    3    3    0    0  0.73053504348E+02 -0.93751573237E+01 -0.16793222226E+01  0.73671759823E+02  0.00000000000E+00 0.  1.
         13    1    3    3    0    0 -0.20735214953E+02  0.16910104958E+02  0.69171633354E+01  0.27635989895E+02  0.00000000000E+00 0. -1.
         21    1    1    2  502  501 -0.19771739682E+02 -0.16928755978E+02 -0.26494703513E+02  0.37141267928E+02  0.00000000000E+00 0.  1.
<scales pt_clust_5="13000.00000" pt_clust_6="13000.00000" pt_clust_7="13000.00000" pt_clust_8="13000.00000" pt_clust_9="26.02892"></scales>
<clustering>
<clus scale="   26.029">  2  9  1 -1</clus>
<clus scale="   81.088">  5  6 -1 -1</clus>
<clus scale="   86.266">  7  8 -1 -1</clus>
<clus scale="   89.683">  1  5  2 -1</clus>
<clus scale="   89.683">  1  5  2 -1</clus>
</clustering>
</event>
<event>
 9    1  0.2374319E-005  0.2008622E+03  0.7546771E-02  0.1149989E+00
          1   -1    0    0  502    0  0.00000000000E+00  0.00000000000E+00  0.11248466999E+04  0.11248466999E+04  0.00000000000E+00 0. -1.
         -2   -1    0    0    0  501 -0.00000000000E+00 -0.00000000000E+00 -0.91038906812E+02  0.91038906812E+02  0.00000000000E+00 0.  1.
         23    2    1    2    0    0 -0.10706171324E+03 -0.14266459886E+03  0.53785001782E+02  0.20795933921E+03  0.92405963749E+02 0.  0.
        -24    2    1    2    0    0  0.13419889152E+03  0.12149698643E+03  0.77700585767E+03  0.80201276721E+03  0.81948250256E+02 0.  0.
         13    1    4    4    0    0  0.14208600231E+03  0.11977852027E+03  0.76681423851E+03  0.78901166173E+03  0.00000000000E+00 0. -1.
        -14    1    4    4    0    0 -0.78871107892E+01  0.17184661619E+01  0.10191619161E+02  0.13001105479E+02  0.00000000000E+00 0.  1.
        -13    1    3    3    0    0 -0.59616224979E+02 -0.10888480017E+03 -0.62772257648E+01  0.12429560552E+03  0.00000000000E+00 0.  1.
         13    1    3    3    0    0 -0.47445488265E+02 -0.33779798687E+02  0.60062227547E+02  0.83663733684E+02  0.00000000000E+00 0. -1.
         21    1    1    2  502  501 -0.27137178277E+02  0.21167612423E+02  0.20301693368E+03  0.20591350034E+03  0.00000000000E+00 0. -1.
<scales pt_clust_5="13000.00000" pt_clust_6="13000.00000" pt_clust_7="13000.00000" pt_clust_8="13000.00000" pt_clust_9="34.41648"></scales>
<clustering>
<clus scale="   34.416">  1  9  2 -1</clus>
<clus scale="   81.948">  5  6 -1 -1</clus>
<clus scale="   92.406">  7  8 -1 -1</clus>
<clus scale="  196.271">  1  5  2 -1</clus>
<clus scale="   34.416">  1  5  2 -1</clus>
</clustering>
</event>
<event>
 9    1  0.2374319E-005  0.9194873E+02  0.7546771E-02  0.1304993E+00
         -2   -1    0    0    0  501 -0.00000000000E+00  0.00000000000E+00  0.19288341924E+03  0.19288341924E+03  0.00000000000E+00 0.  1.
          1   -1    0    0  502    0  0.00000000000E+00 -0.00000000000E+00 -0.35345571896E+03  0.35345571896E+03  0.00000000000E+00 0. -1.
        -24    2    1    2    0    0 -0.68839063084E+01  0.88463467856E+01  0.16608206514E+03  0.18476105010E+03  0.80173232786E+02 0.  0.
         23    2    1    2    0    0  0.95401595542E+01 -0.34202820952E+02 -0.12684084620E+03  0.16014460353E+03  0.91087025258E+02 0.  0.
         11    1    3    3    0    0  0.36244285070E+02 -0.24226241758E+01  0.71297230335E+02  0.80017575329E+02  0.00000000000E+00 0. -1.
        -12    1    3    3    0    0 -0.43128191378E+02  0.11268970961E+02  0.94784834805E+02  0.10474347477E+03  0.00000000000E+00 0.  1.
        -11    1    4    4    0    0 -0.27371141039E+02 -0.49962017603E+02 -0.65113729650E+02  0.86516936802E+02  0.00000000000E+00 0.  1.
         11    1    4    4    0    0  0.36911300593E+02  0.15759196651E+02 -0.61727116549E+02  0.73627666729E+02  0.00000000000E+00 0. -1.
         21    1    1    2  502  501 -0.26562532458E+01  0.25356474166E+02 -0.19981351867E+03  0.20143348457E+03  0.00000000000E+00 0. -1.
<scales pt_clust_5="13000.00000" pt_clust_6="13000.00000" pt_clust_7="13000.00000" pt_clust_8="13000.00000" pt_clust_9="25.49522"></scales>
<clustering>
<clus scale="   25.495">  2  9  1 -1</clus>
<clus scale="   80.173">  5  6 -1 -1</clus>
<clus scale="   81.151">  1  5  2 -1</clus>
<clus scale="   91.087">  7  8 -1 -1</clus>
<clus scale="   25.495">  2  5  1 -1</clus>
</clustering>
</event>
<event>
 9    1  0.2374319E-005  0.9322511E+02  0.7546771E-02  0.1301666E+00
          1   -1    0    0  502    0  0.00000000000E+00  0.00000000000E+00  0.58991738505E+03  0.58991738505E+03  0.00000000000E+00 0. -1.
         -2   -1    0    0    0  501 -0.00000000000E+00 -0.00000000000E+00 -0.99817664514E+02  0.99817664514E+02  0.00000000000E+00 0.  1.
        -24    2    1    2    0    0 -0.76984348321E+01  0.13561076274E+02 -0.63638156500E+02  0.10397648544E+03  0.80734911122E+02 0.  0.
         23    2    1    2    0    0  0.71543075849E+02 -0.36542087203E+02  0.38891774170E+03  0.40751731731E+03  0.91430948066E+02 0.  0.
         11    1    3    3    0    0 -0.36650861940E+02  0.21785171534E+02 -0.12145457925E+02  0.44332736527E+02  0.00000000000E+00 0. -1.
        -12    1    3    3    0    0  0.28952427108E+02 -0.82240952601E+01 -0.51492698575E+02  0.59643748917E+02  0.00000000000E+00 0.  1.
        -13    1    4    4    0    0  0.49038735014E+02 -0.60807591285E+02  0.33709967041E+03  0.34603258298E+03  0.00000000000E+00 0. -1.
         13    1    4    4    0    0  0.22504340835E+02  0.24265504081E+02  0.51818071286E+02  0.61484734338E+02  0.00000000000E+00 0.  1.
         21    1    1    2  502  501 -0.63844641017E+02  0.22981010929E+02  0.16482013534E+03  0.17824124681E+03  0.00000000000E+00 0. -1.
<scales pt_clust_5="13000.00000" pt_clust_6="13000.00000" pt_clust_7="13000.00000" pt_clust_8="13000.00000" pt_clust_9="67.85473"></scales>
<clustering>
<clus scale="   67.855">  1  9  2 -1</clus>
<clus scale="   80.735">  5  6 -1 -1</clus>
<clus scale="   82.761">  2  5  1 -1</clus>
<clus scale="   91.431">  7  8 -1 -1</clus>
<clus scale="   67.855">  1  5  2 -1</clus>
</clustering>
</event>
<event>
 9    1  0.2374319E-005  0.9308884E+02  0.7546771E-02  0.1301968E+00
          1   -1    0    0  502    0  0.00000000000E+00  0.00000000000E+00  0.27925805584E+03  0.27925805584E+03  0.00000000000E+00 0. -1.
         -2   -1    0    0    0  501 -0.00000000000E+00 -0.00000000000E+00 -0.72437577477E+02  0.72437577477E+02  0.00000000000E+00 0.  1.
         23    2    1    2    0    0 -0.92164989785E+01 -0.11700683716E+02 -0.21039250287E+02  0.95358631835E+02  0.91808326201E+02 0.  0.
        -24    2    1    2    0    0 -0.15316345725E+02  0.27852094055E+02  0.15638644831E+03  0.17906373102E+03  0.81220495952E+02 0.  0.
         11    1    4    4    0    0  0.13684237548E+02  0.40458161437E+02  0.40206927251E+02  0.58657635335E+02  0.00000000000E+00 0. -1.
        -12    1    4    4    0    0 -0.29000583273E+02 -0.12606067382E+02  0.11617952106E+03  0.12040609569E+03  0.00000000000E+00 0.  1.
        -13    1    3    3    0    0 -0.21900693650E+01 -0.51351320907E+02 -0.19773424976E+02  0.55070344996E+02  0.00000000000E+00 0.  1.
         13    1    3    3    0    0 -0.70264296136E+01  0.39650637190E+02 -0.12658253117E+01  0.40288286839E+02  0.00000000000E+00 0. -1.
         21    1    1    2  502  501  0.24532844704E+02 -0.16151410338E+02  0.71473280341E+02  0.77273270462E+02  0.00000000000E+00 0. -1.
<scales pt_clust_5="13000.00000" pt_clust_6="13000.00000" pt_clust_7="13000.00000" pt_clust_8="13000.00000" pt_clust_9="29.37224"></scales>
<clustering>
<clus scale="   29.372">  1  9  2 -1</clus>
<clus scale="   81.220">  5  6 -1 -1</clus>
<clus scale="   82.665">  1  5  2 -1</clus>
<clus scale="   91.808">  7  8 -1 -1</clus>
<clus scale="   29.372">  1  5  2 -1</clus>
</clustering>
</event>
<event>
 9    1  0.2374319E-005  0.1533357E+03  0.7546771E-02  0.1197686E+00
          1   -1    0    0  502    0  0.00000000000E+00  0.00000000000E+00  0.39700998462E+03  0.39700998462E+03  0.00000000000E+00 0. -1.
         -2   -1    0    0    0  501 -0.00000000000E+00 -0.00000000000E+00 -0.11084140634E+03  0.11084140634E+03  0.00000000000E+00 0.  1.
        -24    2    1    2    0    0 -0.41366805799E+02  0.10154569411E+03  0.17817304133E+02  0.13948850678E+03  0.84361404577E+02 0.  0.
         23    2    1    2    0    0  0.54486655351E+02 -0.15869507184E+03  0.22635008761E+03  0.29623604107E+03  0.91479551994E+02 0.  0.
         13    1    3    3    0    0 -0.28092834493E+02  0.10592217431E+03  0.37081407669E+02  0.11568813749E+03  0.00000000000E+00 0. -1.
        -14    1    3    3    0    0 -0.13273971306E+02 -0.43764802043E+01 -0.19264103535E+02  0.23800369288E+02  0.00000000000E+00 0.  1.
        -11    1    4    4    0    0  0.28130293452E+02 -0.13681343282E+03  0.22118184695E+03  0.26159250415E+03  0.00000000000E+00 0.  1.
         11    1    4    4    0    0  0.26356361899E+02 -0.21881639022E+02  0.51682406592E+01  0.34643536920E+02  0.00000000000E+00 0. -1.
         21    1    1    2  502  501 -0.13119849552E+02  0.57149377732E+02  0.42001186537E+02  0.72126843116E+02  0.00000000000E+00 0. -1.
<scales pt_clust_5="13000.00000" pt_clust_6="13000.00000" pt_clust_7="13000.00000" pt_clust_8="13000.00000" pt_clust_9="58.63601"></scales>
<clustering>
<clus scale="   58.636">  1  9  2 -1</clus>
<clus scale="   84.361">  5  6 -1 -1</clus>
<clus scale="   91.480">  7  8 -1 -1</clus>
<clus scale="  149.198">  2  5  1 -1</clus>
<clus scale="   58.636">  1  5  2 -1</clus>
</clustering>
</event>
<event>
 9    1  0.2374319E-005  0.1019783E+03  0.7546771E-02  0.1281056E+00
         -2   -1    0    0    0  501 -0.00000000000E+00  0.00000000000E+00  0.26727763179E+02  0.26727763179E+02  0.00000000000E+00 0.  1.
          1   -1    0    0  502    0  0.00000000000E+00 -0.00000000000E+00 -0.53003371852E+03  0.53003371852E+03  0.00000000000E+00 0. -1.
         23    2    1    2    0    0  0.43171248241E+02 -0.37639074678E+02 -0.15098384216E+03  0.18520700003E+03  0.90692092541E+02 0.  0.
        -24    2    1    2    0    0 -0.13237470568E+02  0.28065614298E+02 -0.27098153987E+03  0.28435373021E+03  0.80393653962E+02 0.  0.
         11    1    4    4    0    0  0.80558419744E+01 -0.24200035047E+02 -0.13032265251E+03  0.13279507538E+03  0.00000000000E+00 0. -1.
        -12    1    4    4    0    0 -0.21293312543E+02  0.52265649345E+02 -0.14065888736E+03  0.15155865483E+03  0.00000000000E+00 0.  1.
        -13    1    3    3    0    0  0.23947719481E+02  0.29139148937E+02 -0.56012223558E+02  0.67527420038E+02  0.00000000000E+00 0.  1.
         13    1    3    3    0    0  0.19223528759E+02 -0.66778223615E+02 -0.94971618601E+02  0.11767957999E+03  0.00000000000E+00 0. -1.
         21    1    1    2  502  501 -0.29933777672E+02  0.95734603801E+01 -0.81340573314E+02  0.87200751467E+02  0.00000000000E+00 0.  1.
<scales pt_clust_5="13000.00000" pt_clust_6="13000.00000" pt_clust_7="13000.00000" pt_clust_8="13000.00000" pt_clust_9="31.42741"></scales>
<clustering>
<clus scale="   31.427">  2  9  1 -1</clus>
<clus scale="   80.394">  5  6 -1 -1</clus>
<clus scale="   90.692">  7  8 -1 -1</clus>
<clus scale="   92.939">  2  5  1 -1</clus>
<clus scale="   31.427">  2  5  1 -1</clus>
</clustering>
</event>
<event>
 9    1  0.2374319E-005  0.1081743E+03  0.7546771E-02  0.1268485E+00
          1   -1    0    0  502    0  0.00000000000E+00  0.00000000000E+00  0.57614825580E+03  0.57614825580E+03  0.00000000000E+00 0. -1.
         -2   -1    0    0    0  501 -0.00000000000E+00 -0.00000000000E+00 -0.60784859714E+02  0.60784859714E+02  0.00000000000E+00 0.  1.
         23    2    1    2    0    0 -0.60372877985E+02 -0.18236518778E+02  0.68939174276E+01  0.11180552257E+03  0.92062444923E+02 0.  0.
        -24    2    1    2    0    0  0.22231706762E+02 -0.77513139650E+01  0.35022533500E+03  0.36029032351E+03  0.81221919996E+02 0.  0.
         11    1    4    4    0    0  0.52087139113E+01 -0.44094597447E+02  0.17900833705E+03  0.18443277626E+03  0.00000000000E+00 0. -1.
        -12    1    4    4    0    0  0.17022992851E+02  0.36343283482E+02  0.17121699795E+03  0.17585754725E+03  0.00000000000E+00 0.  1.
        -13    1    3    3    0    0 -0.25145415630E+02 -0.50890627767E+02 -0.15449959967E+02  0.58828982523E+02  0.00000000000E+00 0.  1.
         13    1    3    3    0    0 -0.35227462355E+02  0.32654108989E+02  0.22343877395E+02  0.52976540042E+02  0.00000000000E+00 0. -1.
         21    1    1    2  502  501  0.38141171223E+02  0.25987832743E+02  0.15824414366E+03  0.16483726944E+03  0.00000000000E+00 0.  1.
<scales pt_clust_5="13000.00000" pt_clust_6="13000.00000" pt_clust_7="13000.00000" pt_clust_8="13000.00000" pt_clust_9="46.15318"></scales>
<clustering>
<clus scale="   46.153">  1  9  2 -1</clus>
<clus scale="   81.222">  5  6 -1 -1</clus>
<clus scale="   92.062">  7  8 -1 -1</clus>
<clus scale="   99.112">  1  5  2 -1</clus>
<clus scale="   46.153">  1  5  2 -1</clus>
</clustering>
</event>
<event>
 9    1  0.2374319E-005  0.1003644E+03  0.7546771E-02  0.1281512E+00
         -2   -1    0    0    0  501 -0.00000000000E+00  0.00000000000E+00  0.77702505800E+02  0.77702505800E+02  0.00000000000E+00 0.  1.
          1   -1    0    0  502    0  0.00000000000E+00 -0.00000000000E+00 -0.21276334947E+03  0.21276334947E+03  0.00000000000E+00 0. -1.
        -24    2    1    2    0    0  0.18617359182E+02 -0.44101896944E+02  0.15467795791E+02  0.99958344086E+02  0.86376122099E+02 0.  0.
         23    2    1    2    0    0 -0.18723497357E+02  0.23866606797E+02 -0.11344406176E+03  0.14826127898E+03  0.90507830716E+02 0.  0.
         11    1    3    3    0    0 -0.19117488036E+02 -0.25735518546E+02 -0.25761506609E+02  0.41127247493E+02  0.00000000000E+00 0. -1.
        -12    1    3    3    0    0  0.37734847217E+02 -0.18366378398E+02  0.41229302400E+02  0.58831096593E+02  0.00000000000E+00 0.  1.
        -13    1    4    4    0    0  0.68275585092E+01  0.41709667763E+02 -0.14751534081E+02  0.44765161653E+02  0.00000000000E+00 0.  1.
         13    1    4    4    0    0 -0.25551055867E+02 -0.17843060966E+02 -0.98692527684E+02  0.10349611732E+03  0.00000000000E+00 0. -1.
         21    1    1    2  502  501  0.10613817581E+00  0.20235290147E+02 -0.37084577693E+02  0.42246232203E+02  0.00000000000E+00 0. -1.
<scales pt_clust_5="13000.00000" pt_clust_6="13000.00000" pt_clust_7="13000.00000" pt_clust_8="13000.00000" pt_clust_9="20.23557"></scales>
<clustering>
<clus scale="   20.236">  2  9  1 -1</clus>
<clus scale="   86.376">  5  6 -1 -1</clus>
<clus scale="   90.508">  7  8 -1 -1</clus>
<clus scale="   96.655">  1  5  2 -1</clus>
<clus scale="   20.236">  2  5  1 -1</clus>
</clustering>
</event>
<event>
 9    1  0.2374319E-005  0.3292241E+03  0.7546771E-02  0.1080148E+00
          1   -1    0    0  502    0  0.00000000000E+00  0.00000000000E+00  0.10137528307E+04  0.10137528307E+04  0.00000000000E+00 0. -1.
         -2   -1    0    0    0  501 -0.00000000000E+00 -0.00000000000E+00 -0.43778532484E+03  0.43778532484E+03  0.00000000000E+00 0.  1.
        -24    2    1    2    0    0  0.18298377833E+03  0.16612299128E+03 -0.16042788891E+03  0.30567141934E+03  0.81351076820E+02 0.  0.
         23    2    1    2    0    0 -0.41808123208E+03  0.32544859762E+02  0.10261069838E+03  0.44129397972E+03  0.91434876269E+02 0.  0.
         13    1    3    3    0    0  0.59775905090E+02  0.70285513806E+02 -0.17265633110E+02  0.93868601603E+02  0.00000000000E+00 0. -1.
        -14    1    3    3    0    0  0.12320787324E+03  0.95837477474E+02 -0.14316225580E+03  0.21180281774E+03  0.00000000000E+00 0.  1.
        -11    1    4    4    0    0 -0.13538662874E+03  0.53751849766E+02  0.37786541551E+02  0.15048795074E+03  0.00000000000E+00 0.  1.
         11    1    4    4    0    0 -0.28269460334E+03 -0.21206990003E+02  0.64824156824E+02  0.29080602898E+03  0.00000000000E+00 0. -1.
         21    1    1    2  502  501  0.23509745375E+03 -0.19866785104E+03  0.63378469640E+03  0.70457275649E+03  0.00000000000E+00 0. -1.
<scales pt_clust_5="13000.00000" pt_clust_6="13000.00000" pt_clust_7="13000.00000" pt_clust_8="13000.00000" pt_clust_9="316.27228"></scales>
<clustering>
<clus scale="   81.351">  5  6 -1 -1</clus>
<clus scale="   91.435">  7  8 -1 -1</clus>
<clus scale="  260.188">  2  5  1 -1</clus>
<clus scale="  316.272">  1  9  2 -1</clus>
<clus scale="  316.272">  1  5  2 -1</clus>
</clustering>
</event>
<event>
 9    1  0.2374319E-005  0.2467323E+03  0.7546771E-02  0.1115849E+00
          1   -1    0    0  502    0  0.00000000000E+00  0.00000000000E+00  0.42899822886E+03  0.42899822886E+03  0.00000000000E+00 0. -1.
         -2   -1    0    0    0  501 -0.00000000000E+00 -0.00000000000E+00 -0.22888590028E+03  0.22888590028E+03  0.00000000000E+00 0.  1.
        -24    2    1    2    0    0  0.18005452053E+03  0.13425271705E+03 -0.77893759639E+02  0.25185899992E+03  0.83199132504E+02 0.  0.
         23    2    1    2    0    0 -0.19991014307E+03 -0.13961745447E+03  0.20850792121E+03  0.33354739905E+03  0.91220695594E+02 0.  0.
         13    1    3    3    0    0  0.40175063581E+02  0.10452639889E+02  0.13833202584E+02  0.43756724148E+02  0.00000000000E+00 0. -1.
        -14    1    3    3    0    0  0.13987945695E+03  0.12380007716E+03 -0.91726962223E+02  0.20810227577E+03  0.00000000000E+00 0.  1.
        -13    1    4    4    0    0 -0.58255930183E+02 -0.27041412626E+02  0.10085792075E+02  0.65013187894E+02  0.00000000000E+00 0.  1.
         13    1    4    4    0    0 -0.14165421289E+03 -0.11257604184E+03  0.19842212914E+03  0.26853421115E+03  0.00000000000E+00 0. -1.
         21    1    1    2  502  501  0.19855622541E+02  0.53647374180E+01  0.69498167003E+02  0.72477730172E+02  0.00000000000E+00 0.  1.
<scales pt_clust_5="13000.00000" pt_clust_6="13000.00000" pt_clust_7="13000.00000" pt_clust_8="13000.00000" pt_clust_9="20.56760"></scales>
<clustering>
<clus scale="   20.568">  1  9  2 -1</clus>
<clus scale="   83.199">  5  6 -1 -1</clus>
<clus scale="   91.221">  7  8 -1 -1</clus>
<clus scale="  243.880">  2  5  1 -1</clus>
<clus scale="   20.568">  1  5  2 -1</clus>
</clustering>
</event>
<event>
 9    1  0.2374319E-005  0.1258466E+03  0.7546771E-02  0.1236969E+00
          1   -1    0    0  502    0  0.00000000000E+00  0.00000000000E+00  0.44259182021E+03  0.44259182021E+03  0.00000000000E+00 0. -1.
         -2   -1    0    0    0  501 -0.00000000000E+00 -0.00000000000E+00 -0.15594943817E+03  0.15594943817E+03  0.00000000000E+00 0.  1.
         23    2    1    2    0    0 -0.33784222129E+02  0.91830666430E+02 -0.93360884149E+02  0.16278054409E+03  0.90592526643E+02 0.  0.
        -24    2    1    2    0    0  0.70463652577E+02 -0.20122753597E+02  0.11009669482E+03  0.15409253603E+03  0.79077025130E+02 0.  0.
         13    1    4    4    0    0  0.46964149059E+02 -0.39217040514E+02  0.10751249195E+03  0.12370344978E+03  0.00000000000E+00 0. -1.
        -14    1    4    4    0    0  0.23499503518E+02  0.19094286917E+02  0.25842028727E+01  0.30389086248E+02  0.00000000000E+00 0.  1.
        -11    1    3    3    0    0 -0.56527384308E+01  0.27960594450E+02 -0.88314656045E+02  0.92807471500E+02  0.00000000000E+00 0.  1.
         11    1    3    3    0    0 -0.28131483698E+02  0.63870071979E+02 -0.50462281040E+01  0.69973072591E+02  0.00000000000E+00 0. -1.
         21    1    1    2  502  501 -0.36679430447E+02 -0.71707912833E+02  0.26990657137E+03  0.28166817827E+03  0.00000000000E+00 0. -1.
<scales pt_clust_5="13000.00000" pt_clust_6="13000.00000" pt_clust_7="13000.00000" pt_clust_8="13000.00000" pt_clust_9="80.54443"></scales>
<clustering>
<clus scale="   79.077">  5  6 -1 -1</clus>
<clus scale="   80.544">  1  9  2 -1</clus>
<clus scale="   90.593">  7  8 -1 -1</clus>
<clus scale="  117.828">  1  5  2 -1</clus>
<clus scale="   80.544">  1  5  2 -1</clus>
</clustering>
</event>
<event>
 9    1  0.2374319E-005  0.1044785E+03  0.7546771E-02  0.1278158E+00
          1   -1    0    0  502    0  0.00000000000E+00  0.00000000000E+00  0.11766371745E+03  0.11766371745E+03  0.00000000000E+00 0. -1.
         -2   -1    0    0    0  501 -0.00000000000E+00 -0.00000000000E+00 -0.15647588115E+03  0.15647588115E+03  0.00000000000E+00 0.  1.
         23    2    1    2    0    0 -0.20049014864E+02  0.40488891687E+02 -0.10445474928E+03  0.14896877833E+03  0.96122780460E+02 0.  0.
        -24    2    1    2    0    0  0.47311516332E+01 -0.26881344142E+02  0.52398199453E+02  0.10077377028E+03  0.81638171297E+02 0.  0.
         13    1    4    4    0    0  0.79196931712E+00 -0.55214500205E+02  0.44981599199E+02  0.71222275412E+02  0.00000000000E+00 0. -1.
        -14    1    4    4    0    0  0.39391823161E+01  0.28333156064E+02  0.74166002534E+01  0.29551494872E+02  0.00000000000E+00 0.  1.
        -11    1    3    3    0    0  0.23952413203E+02  0.29903752209E+02 -0.95412214847E+02  0.10281752398E+03  0.00000000000E+00 0.  1.
         11    1    3    3    0    0 -0.44001428067E+02  0.10585139478E+02 -0.90425344328E+01  0.46151254356E+02  0.00000000000E+00 0. -1.
         21    1    1    2  502  501  0.15317863231E+02 -0.13607547545E+02  0.13244386123E+02  0.24397049984E+02  0.00000000000E+00 0. -1.
<scales pt_clust_5="13000.00000" pt_clust_6="13000.00000" pt_clust_7="13000.00000" pt_clust_8="13000.00000" pt_clust_9="20.48908"></scales>
<clustering>
<clus scale="   20.489">  1  9  2 -1</clus>
<clus scale="   81.638">  5  6 -1 -1</clus>
<clus scale="   91.329">  1  5  2 -1</clus>
<clus scale="   96.123">  7  8 -1 -1</clus>
<clus scale="   20.489">  1  5  2 -1</clus>
</clustering>
</event>
<event>
 9    1  0.2374319E-005  0.1572134E+03  0.7546771E-02  0.1193137E+00
          1   -1    0    0  502    0  0.00000000000E+00  0.00000000000E+00  0.27917429234E+03  0.27917429234E+03  0.00000000000E+00 0. -1.
         -2   -1    0    0    0  501 -0.00000000000E+00 -0.00000000000E+00 -0.22266657904E+03  0.22266657904E+03  0.00000000000E+00 0.  1.
         23    2    1    2    0    0 -0.56675308752E+02  0.12450065372E+03 -0.13168264831E+03  0.20898496577E+03  0.87303451546E+02 0.  0.
        -24    2    1    2    0    0  0.35399048444E+02 -0.11069765198E+03  0.45429902713E+02  0.14786021349E+03  0.79320261528E+02 0.  0.
         13    1    4    4    0    0  0.60734779095E+02 -0.76832164496E+02  0.37248115810E+02  0.10478223621E+03  0.00000000000E+00 0. -1.
        -14    1    4    4    0    0 -0.25335730651E+02 -0.33865487479E+02  0.81817869035E+01  0.43077977283E+02  0.00000000000E+00 0.  1.
        -13    1    3    3    0    0  0.54974937497E+01  0.62529870522E+02 -0.94957599170E+02  0.11382948996E+03  0.00000000000E+00 0.  1.
         13    1    3    3    0    0 -0.62172802501E+02  0.61970783202E+02 -0.36725049137E+02  0.95155475805E+02  0.00000000000E+00 0. -1.
         21    1    1    2  502  501  0.21276260307E+02 -0.13803001748E+02  0.14276045889E+03  0.14499569212E+03  0.00000000000E+00 0. -1.
<scales pt_clust_5="13000.00000" pt_clust_6="13000.00000" pt_clust_7="13000.00000" pt_clust_8="13000.00000" pt_clust_9="25.36143"></scales>
<clustering>
<clus scale="   25.361">  1  9  2 -1</clus>
<clus scale="   79.320">  5  6 -1 -1</clus>
<clus scale="   87.303">  7  8 -1 -1</clus>
<clus scale="  152.924">  1  5  2 -1</clus>
<clus scale="   25.361">  1  5  2 -1</clus>
</clustering>
</event>
<event>
 9    1  0.2374319E-005  0.1557931E+03  0.7546771E-02  0.1195308E+00
         -2   -1    0    0    0  501 -0.00000000000E+00  0.00000000000E+00  0.97330535084E+02  0.97330535084E+02  0.00000000000E+00 0.  1.
          1   -1    0    0  502    0  0.00000000000E+00 -0.00000000000E+00 -0.58862055175E+03  0.58862055175E+03  0.00000000000E+00 0. -1.
        -24    2    1    2    0    0 -0.11970258015E+02  0.12898082509E+03  0.11465317555E+02  0.15302799993E+03  0.80664582925E+02 0.  0.
         23    2    1    2    0    0 -0.85577208156E+01 -0.10586386175E+03 -0.45477574215E+03  0.47584565559E+03  0.91256344951E+02 0.  0.
         13    1    3    3    0    0 -0.46481017340E+02  0.73954364665E+02  0.11287783466E+02  0.88074667649E+02  0.00000000000E+00 0. -1.
        -14    1    3    3    0    0  0.34510759326E+02  0.55026460426E+02  0.17753408887E+00  0.64953332283E+02  0.00000000000E+00 0.  1.
        -13    1    4    4    0    0  0.33144950656E+02 -0.11840001527E+02 -0.84198791894E+02  0.91259026658E+02  0.00000000000E+00 0.  1.
         13    1    4    4    0    0 -0.41702671471E+02 -0.94023860219E+02 -0.37057695025E+03  0.38458662894E+03  0.00000000000E+00 0. -1.
         21    1    1    2  502  501  0.20527978830E+02 -0.23116963345E+02 -0.47979592075E+02  0.57077431309E+02  0.00000000000E+00 0.  1.
<scales pt_clust_5="13000.00000" pt_clust_6="13000.00000" pt_clust_7="13000.00000" pt_clust_8="13000.00000" pt_clust_9="30.91588"></scales>
<clustering>
<clus scale="   30.916">  2  9  1 -1</clus>
<clus scale="   80.665">  5  6 -1 -1</clus>
<clus scale="   91.256">  7  8 -1 -1</clus>
<clus scale="  149.835">  1  5  2 -1</clus>
<clus scale="   30.916">  2  5  1 -1</clus>
</clustering>
</event>
<event>
 9    1  0.2374319E-005  0.1057494E+03  0.7546771E-02  0.1274284E+00
         -2   -1    0    0    0  501 -0.00000000000E+00  0.00000000000E+00  0.18121128295E+03  0.18121128295E+03  0.00000000000E+00 0.  1.
          1   -1    0    0  502    0  0.00000000000E+00 -0.00000000000E+00 -0.12399809632E+03  0.12399809632E+03  0.00000000000E+00 0. -1.
        -24    2    1    2    0    0 -0.49481818959E+02 -0.73968019951E+01  0.57301785984E+02  0.11016886768E+03  0.79690160253E+02 0.  0.
         23    2    1    2    0    0  0.29579471807E+02  0.66681608898E+02  0.35671147203E+02  0.12300197172E+03  0.92388701624E+02 0.  0.
         13    1    3    3    0    0 -0.55262920890E+02 -0.35209636225E+02  0.42887619278E+02  0.78313835276E+02  0.00000000000E+00 0. -1.
        -14    1    3    3    0    0  0.57811019308E+01  0.27812834230E+02  0.14414166706E+02  0.31855032401E+02  0.00000000000E+00 0.  1.
        -11    1    4    4    0    0  0.45714795633E+02  0.33492352414E+01 -0.48670520129E+01  0.46094990094E+02  0.00000000000E+00 0. -1.
         11    1    4    4    0    0 -0.16135323825E+02  0.63332373657E+02  0.40538199216E+02  0.76906981631E+02  0.00000000000E+00 0.  1.
         21    1    1    2  502  501  0.19902347151E+02 -0.59284806903E+02 -0.35759746564E+02  0.72038539866E+02  0.00000000000E+00 0. -1.
<scales pt_clust_5="13000.00000" pt_clust_6="13000.00000" pt_clust_7="13000.00000" pt_clust_8="13000.00000" pt_clust_9="62.53632"></scales>
<clustering>
<clus scale="   62.536">  2  9  1 -1</clus>
<clus scale="   79.690">  5  6 -1 -1</clus>
<clus scale="   92.389">  7  8 -1 -1</clus>
<clus scale="   94.857">  1  5  2 -1</clus>
<clus scale="   62.536">  2  5  1 -1</clus>
</clustering>
</event>
<event>
 9    1  0.2374319E-005  0.1016446E+03  0.7546771E-02  0.1282247E+00
          1   -1    0    0  502    0  0.00000000000E+00  0.00000000000E+00  0.23677142438E+02  0.23677142438E+02  0.00000000000E+00 0. -1.
         -2   -1    0    0    0  501 -0.00000000000E+00 -0.00000000000E+00 -0.68819300183E+03  0.68819300183E+03  0.00000000000E+00 0.  1.
        -24    2    1    2    0    0 -0.43221286593E+02  0.23632838273E+02 -0.46889821468E+03  0.47844922557E+03  0.81372815229E+02 0.  0.
         23    2    1    2    0    0  0.25398837280E+02  0.23352116053E+01 -0.14513585811E+03  0.17391974146E+03  0.92374807239E+02 0.  0.
         11    1    3    3    0    0 -0.62977567240E+02  0.26144003479E+02 -0.26694568859E+03  0.27551712025E+03  0.00000000000E+00 0. -1.
        -12    1    3    3    0    0  0.19756280647E+02 -0.25111652059E+01 -0.20195252610E+03  0.20293210533E+03  0.00000000000E+00 0.  1.
        -13    1    4    4    0    0 -0.79800813316E+01  0.37431031508E+02 -0.10243105524E+03  0.10934754179E+03  0.00000000000E+00 0. -1.
         13    1    4    4    0    0  0.33378918611E+02 -0.35095819903E+02 -0.42704802870E+02  0.64572199672E+02  0.00000000000E+00 0.  1.
         21    1    1    2  502  501  0.17822449314E+02 -0.25968049878E+02 -0.50481786598E+02  0.59501177234E+02  0.00000000000E+00 0. -1.
<scales pt_clust_5="13000.00000" pt_clust_6="13000.00000" pt_clust_7="13000.00000" pt_clust_8="13000.00000" pt_clust_9="31.49570"></scales>
<clustering>
<clus scale="   31.496">  1  9  2 -1</clus>
<clus scale="   81.373">  5  6 -1 -1</clus>
<clus scale="   91.761">  2  5  1 -1</clus>
<clus scale="   92.375">  7  8 -1 -1</clus>
<clus scale="   31.496">  1  5  2 -1</clus>
</clustering>
</event>
<event>
 9    1  0.2374319E-005  0.1421976E+03  0.7546771E-02  0.1213907E+00
         -2   -1    0    0    0  501 -0.00000000000E+00  0.00000000000E+00  0.30990041124E+02  0.30990041124E+02  0.00000000000E+00 0.  1.
          1   -1    0    0  502    0  0.00000000000E+00 -0.00000000000E+00 -0.11356002506E+04  0.11356002506E+04  0.00000000000E+00 0. -1.
        -24    2    1    2    0    0 -0.18189237986E+02 -0.94136673666E+02 -0.22540635433E+03  0.25755744739E+03  0.79594298969E+02 0.  0.
         23    2    1    2    0    0  0.76204978968E+02  0.11590289216E+03 -0.66933466491E+03  0.69020717975E+03  0.95584403001E+02 0.  0.
         13    1    3    3    0    0 -0.29949060584E+02 -0.29446398084E+00 -0.58333634436E+02  0.65573209815E+02  0.00000000000E+00 0. -1.
        -14    1    3    3    0    0  0.11759822597E+02 -0.93842209685E+02 -0.16707271989E+03  0.19198423758E+03  0.00000000000E+00 0.  1.
        -13    1    4    4    0    0  0.65768835890E+02  0.23094628406E+02 -0.37457593162E+03  0.38100660124E+03  0.00000000000E+00 0.  1.
         13    1    4    4    0    0  0.10436143078E+02  0.92808263750E+02 -0.29475873329E+03  0.30920057851E+03  0.00000000000E+00 0. -1.
         21    1    1    2  502  501 -0.58015740982E+02 -0.21766218490E+02 -0.20986919023E+03  0.21882566457E+03  0.00000000000E+00 0. -1.
<scales pt_clust_5="13000.00000" pt_clust_6="13000.00000" pt_clust_7="13000.00000" pt_clust_8="13000.00000" pt_clust_9="61.96446"></scales>
<clustering>
<clus scale="   61.964">  2  9  1 -1</clus>
<clus scale="   79.594">  5  6 -1 -1</clus>
<clus scale="   95.584">  7  8 -1 -1</clus>
<clus scale="  131.981">  1  5  2 -1</clus>
<clus scale="   61.964">  2  5  1 -1</clus>
</clustering>
</event>
<event>
 9    1  0.2374319E-005  0.1122546E+03  0.7546771E-02  0.1261111E+00
          1   -1    0    0  502    0  0.00000000000E+00  0.00000000000E+00  0.33568232366E+02  0.33568232366E+02  0.00000000000E+00 0. -1.
         -2   -1    0    0    0  501 -0.00000000000E+00 -0.00000000000E+00 -0.63493851702E+03  0.63493851702E+03  0.00000000000E+00 0.  1.
        -24    2    1    2    0    0 -0.58222895631E+02  0.27005065576E+01 -0.34958105286E+03  0.36318734279E+03  0.79378429927E+02 0.  0.
         23    2    1    2    0    0  0.83448720003E+02  0.33053082220E+02 -0.17627600867E+03  0.21804450646E+03  0.91727751806E+02 0.  0.
         11    1    3    3    0    0 -0.12820062658E+02  0.36505933438E+02 -0.98999418423E+02  0.10629168373E+03  0.00000000000E+00 0. -1.
        -12    1    3    3    0    0 -0.45402832973E+02 -0.33805426881E+02 -0.25058163443E+03  0.25689565906E+03  0.00000000000E+00 0.  1.
        -13    1    4    4    0    0  0.91504629447E+02 -0.15552196074E+01 -0.14004837796E+03  0.16729932483E+03  0.00000000000E+00 0.  1.
         13    1    4    4    0    0 -0.80559094437E+01  0.34608301827E+02 -0.36227630707E+02  0.50745181633E+02  0.00000000000E+00 0. -1.
         21    1    1    2  502  501 -0.25225824372E+02 -0.35753588777E+02 -0.75513223122E+02  0.87274900126E+02  0.00000000000E+00 0.  1.
<scales pt_clust_5="13000.00000" pt_clust_6="13000.00000" pt_clust_7="13000.00000" pt_clust_8="13000.00000" pt_clust_9="43.75684"></scales>
<clustering>
<clus scale="   43.757">  1  9  2 -1</clus>
<clus scale="   79.378">  5  6 -1 -1</clus>
<clus scale="   91.728">  7  8 -1 -1</clus>
<clus scale="  102.411">  2  5  1 -1</clus>
<clus scale="   43.757">  1  5  2 -1</clus>
</clustering>
</event>
<event>
 9    1  0.2713298E-005  0.9277612E+02  0.7546771E-02  0.1307115E+00
          1   -1    0    0  502    0  0.00000000000E+00  0.00000000000E+00  0.15842814448E+03  0.15842814448E+03  0.00000000000E+00 0. -1.
         -2   -1    0    0    0  501 -0.00000000000E+00 -0.00000000000E+00 -0.29577613343E+03  0.29577613343E+03  0.00000000000E+00 0.  1.
        -24    2    1    2    0    0 -0.49211923314E+01  0.48790398471E+01 -0.25432535196E+03  0.26500628898E+03  0.74154739460E+02 0.  0.
         23    2    1    2    0    0 -0.64217747326E+01  0.16750560302E+02  0.13128021074E+03  0.16089473898E+03  0.91273231782E+02 0.  0.
         11    1    3    3    0    0  0.45232199935E+00  0.37826979863E+02 -0.95689209290E+02  0.10289562564E+03  0.00000000000E+00 0. -1.
        -12    1    3    3    0    0 -0.53735143308E+01 -0.32947940015E+02 -0.15863614267E+03  0.16211066334E+03  0.00000000000E+00 0.  1.
        -11    1    4    4    0    0 -0.43618168223E+02 -0.42544368860E+01  0.36875860596E+02  0.57275421666E+02  0.00000000000E+00 0.  1.
         11    1    4    4    0    0  0.37196393490E+02  0.21004997188E+02  0.94404350140E+02  0.10361931731E+03  0.00000000000E+00 0. -1.
         21    1    1    2  502  501  0.11342967064E+02 -0.21629600149E+02 -0.14302847725E+02  0.28303249945E+02  0.00000000000E+00 0. -1.
<scales pt_clust_5="13000.00000" pt_clust_6="13000.00000" pt_clust_7="13000.00000" pt_clust_8="13000.00000" pt_clust_9="24.42340"></scales>
<clustering>
<clus scale="   24.423">  2  9  1 -1</clus>
<clus scale="   74.155">  5  6 -1 -1</clus>
<clus scale="   75.997">  2  5  1 -1</clus>
<clus scale="   91.273">  7  8 -1 -1</clus>
<clus scale="   92.776">  1  5  2 -1</clus>
</clustering>
</event>
<event>
 9    1  0.2374319E-005  0.9115666E+02  0.7546771E-02  0.1305494E+00
         -2   -1    0    0    0  501 -0.00000000000E+00  0.00000000000E+00  0.29726351096E+02  0.29726351096E+02  0.00000000000E+00 0.  1.
          1   -1    0    0  502    0  0.00000000000E+00 -0.00000000000E+00 -0.43578090049E+03  0.43578090049E+03  0.00000000000E+00 0. -1.
        -24    2    1    2    0    0 -0.81861240118E+01  0.68991954300E+01 -0.62705991929E+02  0.10348741555E+03  0.81627153757E+02 0.  0.
         23    2    1    2    0    0 -0.37518426868E+01 -0.24249251530E+02 -0.27477312130E+03  0.29028330460E+03  0.90343932953E+02 0.  0.
         13    1    3    3    0    0  0.24841862480E+02 -0.45763138968E+01  0.63837492785E+01  0.26054040670E+02  0.00000000000E+00 0. -1.
        -14    1    3    3    0    0 -0.33027986492E+02  0.11475509327E+02 -0.69089741207E+02  0.77433374885E+02  0.00000000000E+00 0.  1.
        -11    1    4    4    0    0  0.26097617154E+02 -0.39969860436E+02 -0.84575493018E+02  0.97116885162E+02  0.00000000000E+00 0.  1.
         11    1    4    4    0    0 -0.29849459840E+02  0.15720608906E+02 -0.19019762828E+03  0.19316641944E+03  0.00000000000E+00 0. -1.
         21    1    1    2  502  501  0.11937966699E+02  0.17350056100E+02 -0.68575436173E+02  0.71736531432E+02  0.00000000000E+00 0. -1.
<scales pt_clust_5="13000.00000" pt_clust_6="13000.00000" pt_clust_7="13000.00000" pt_clust_8="13000.00000" pt_clust_9="21.06038"></scales>
<clustering>
<clus scale="   21.060">  2  9  1 -1</clus>
<clus scale="   81.627">  5  6 -1 -1</clus>
<clus scale="   82.526">  1  5  2 -1</clus>
<clus scale="   90.344">  7  8 -1 -1</clus>
<clus scale="   21.060">  2  5  1 -1</clus>
</clustering>
</event>
<event>
 9    1  0.2374319E-005  0.1354045E+03  0.7546771E-02  0.1220593E+00
          1   -1    0    0  502    0  0.00000000000E+00  0.00000000000E+00  0.63791245283E+03  0.63791245283E+03  0.00000000000E+00 0. -1.
         -2   -1    0    0    0  501 -0.00000000000E+00 -0.00000000000E+00 -0.59529779297E+02  0.59529779297E+02  0.00000000000E+00 0.  1.
        -24    2    1    2    0    0 -0.46778252136E+01 -0.13183752370E+03  0.12861763732E+03  0.20193907636E+03  0.82667280265E+02 0.  0.
         23    2    1    2    0    0  0.46848503287E+02  0.73390009496E+02  0.16863356145E+03  0.20528016545E+03  0.78241884735E+02 0.  0.
         13    1    3    3    0    0  0.19790046088E+02 -0.22005115797E+02  0.67919284957E+02  0.74087113012E+02  0.00000000000E+00 0. -1.
        -14    1    3    3    0    0 -0.24467871302E+02 -0.10983240790E+03  0.60698352366E+02  0.12785196335E+03  0.00000000000E+00 0.  1.
        -13    1    4    4    0    0  0.67562323659E+02  0.56171056892E+02  0.14449174137E+03  0.16910859982E+03  0.00000000000E+00 0.  1.
         13    1    4    4    0    0 -0.20713820372E+02  0.17218952604E+02  0.24141820077E+02  0.36171565626E+02  0.00000000000E+00 0. -1.
         21    1    1    2  502  501 -0.42170678074E+02  0.58447514206E+02  0.28113147476E+03  0.29022299031E+03  0.00000000000E+00 0. -1.
<scales pt_clust_5="13000.00000" pt_clust_6="13000.00000" pt_clust_7="13000.00000" pt_clust_8="13000.00000" pt_clust_9="72.07273"></scales>
<clustering>
<clus scale="   72.073">  1  9  2 -1</clus>
<clus scale="   78.242">  7  8 -1 -1</clus>
<clus scale="   82.667">  5  6 -1 -1</clus>
<clus scale="  132.749">  1  7  2 -1</clus>
<clus scale="   72.073">  1  5  2 -1</clus>
</clustering>
</event>
<event>
 9    1  0.2374319E-005  0.1870200E+03  0.7546771E-02  0.1162603E+00
          1   -1    0    0  502    0  0.00000000000E+00  0.00000000000E+00  0.21945390375E+03  0.21945390375E+03  0.00000000000E+00 0. -1.
         -2   -1    0    0    0  501 -0.00000000000E+00 -0.00000000000E+00 -0.34138269878E+03  0.34138269878E+03  0.00000000000E+00 0.  1.
        -24    2    1    2    0    0 -0.16016784630E+03 -0.48470392424E+02 -0.19083588599E+03  0.26603200193E+03  0.79696754891E+02 0.  0.
         23    2    1    2    0    0  0.14135605578E+03  0.60256086376E+02 -0.39834445064E+02  0.18382033280E+03  0.92686575538E+02 0.  0.
         11    1    3    3    0    0 -0.23126955062E+02 -0.33164890011E+02 -0.16292738135E+02  0.43591504858E+02  0.00000000000E+00 0. -1.
        -12    1    3    3    0    0 -0.13704089124E+03 -0.15305502413E+02 -0.17454314785E+03  0.22244049707E+03  0.00000000000E+00 0.  1.
        -13    1    4    4    0    0  0.98311650164E+02  0.17959856176E+02 -0.64152897652E+02  0.11875744721E+03  0.00000000000E+00 0.  1.
         13    1    4    4    0    0  0.43044405618E+02  0.42296230200E+02  0.24318452589E+02  0.65062885584E+02  0.00000000000E+00 0. -1.
         21    1    1    2  502  501  0.18811790516E+02 -0.11785693952E+02  0.10874153602E+03  0.11098426781E+03  0.00000000000E+00 0. -1.
<scales pt_clust_5="13000.00000" pt_clust_6="13000.00000" pt_clust_7="13000.00000" pt_clust_8="13000.00000" pt_clust_9="22.19878"></scales>
<clustering>
<clus scale="   22.199">  1  9  2 -1</clus>
<clus scale="   79.697">  5  6 -1 -1</clus>
<clus scale="   92.687">  7  8 -1 -1</clus>
<clus scale="  180.934">  2  5  1 -1</clus>
<clus scale="   22.199">  1  5  2 -1</clus>
</clustering>
</event>
<event>
 9    1  0.2374319E-005  0.1315526E+03  0.7546771E-02  0.1237284E+00
          1   -1    0    0  502    0  0.00000000000E+00  0.00000000000E+00  0.67001891472E+03  0.67001891472E+03  0.00000000000E+00 0. -1.
         -2   -1    0    0    0  501 -0.00000000000E+00 -0.00000000000E+00 -0.61918019119E+02  0.61918019119E+02  0.00000000000E+00 0.  1.
         23    2    1    2    0    0 -0.22764210565E+02  0.40947591885E+02  0.30857905492E+02  0.10703488402E+03  0.91155589532E+02 0.  0.
        -24    2    1    2    0    0 -0.88338467059E+02 -0.43951096175E+02  0.29807219614E+03  0.32442050593E+03  0.81647087734E+02 0.  0.
         11    1    4    4    0    0 -0.68714935572E+02 -0.68240610072E+02  0.22525130572E+03  0.24518701834E+03  0.00000000000E+00 0. -1.
        -12    1    4    4    0    0 -0.19623531487E+02  0.24289513897E+02  0.72820890420E+02  0.79233487586E+02  0.00000000000E+00 0.  1.
        -13    1    3    3    0    0 -0.45049087762E+02  0.58702710352E+02  0.22069470514E+02  0.77217161562E+02  0.00000000000E+00 0.  1.
         13    1    3    3    0    0  0.22284877197E+02 -0.17755118468E+02  0.87884349778E+01  0.29817722463E+02  0.00000000000E+00 0. -1.
         21    1    1    2  502  501  0.11110267762E+03  0.30035042899E+01  0.27917079397E+03  0.30048154389E+03  0.00000000000E+00 0.  1.
<scales pt_clust_5="13000.00000" pt_clust_6="13000.00000" pt_clust_7="13000.00000" pt_clust_8="13000.00000" pt_clust_9="103.14959"></scales>
<clustering>
<clus scale="   81.647">  5  6 -1 -1</clus>
<clus scale="   91.156">  7  8 -1 -1</clus>
<clus scale="  102.490">  2  7  1 -1</clus>
<clus scale="  103.150">  2  9  1 -1</clus>
<clus scale="  131.553">  1  5  2 -1</clus>
</clustering>
</event>
<event>
 9    1  0.2374319E-005  0.9145986E+02  0.7546771E-02  0.1305795E+00
         -2   -1    0    0    0  501 -0.00000000000E+00  0.00000000000E+00  0.25847907685E+03  0.25847907685E+03  0.00000000000E+00 0.  1.
          1   -1    0    0  502    0  0.00000000000E+00 -0.00000000000E+00 -0.89921391452E+02  0.89921391452E+02  0.00000000000E+00 0. -1.
        -24    2    1    2    0    0 -0.24541510130E+01 -0.85380723070E-01  0.19482386506E+03  0.21107396487E+03  0.81177891716E+02 0.  0.
         23    2    1    2    0    0 -0.17421736273E+02 -0.26073697236E+02 -0.22742285226E+01  0.96645279568E+02  0.91388092031E+02 0.  0.
         13    1    3    3    0    0  0.32076143475E+02  0.22238301659E+02  0.77903926427E+02  0.87134624540E+02  0.00000000000E+00 0. -1.
        -14    1    3    3    0    0 -0.34530294488E+02 -0.22323682382E+02  0.11691993863E+03  0.12393934033E+03  0.00000000000E+00 0.  1.
        -11    1    4    4    0    0 -0.22174441469E+02 -0.50540799170E+02  0.24218303835E+02  0.60271091544E+02  0.00000000000E+00 0.  1.
         11    1    4    4    0    0  0.47527051961E+01  0.24467101934E+02 -0.26492532357E+02  0.36374188024E+02  0.00000000000E+00 0. -1.
         21    1    1    2  502  501  0.19875887286E+02  0.26159077959E+02 -0.23991951142E+02  0.40681223859E+02  0.00000000000E+00 0. -1.
<scales pt_clust_5="13000.00000" pt_clust_6="13000.00000" pt_clust_7="13000.00000" pt_clust_8="13000.00000" pt_clust_9="32.85344"></scales>
<clustering>
<clus scale="   32.853">  2  9  1 -1</clus>
<clus scale="   81.178">  5  6 -1 -1</clus>
<clus scale="   81.259">  1  5  2 -1</clus>
<clus scale="   91.388">  7  8 -1 -1</clus>
<clus scale="   32.853">  2  5  1 -1</clus>
</clustering>
</event>
<event>
 9    1  0.2374319E-005  0.1747392E+03  0.7546771E-02  0.1174085E+00
          1   -1    0    0  502    0  0.00000000000E+00  0.00000000000E+00  0.30511283196E+03  0.30511283196E+03  0.00000000000E+00 0. -1.
         -2   -1    0    0    0  501 -0.00000000000E+00 -0.00000000000E+00 -0.12193318358E+03  0.12193318358E+03  0.00000000000E+00 0.  1.
         23    2    1    2    0    0 -0.14360037371E+02  0.14046937722E+03  0.52457127151E+02  0.17498228462E+03  0.89046016939E+02 0.  0.
        -24    2    1    2    0    0  0.26902026418E+02 -0.15956815946E+03  0.82301550381E+02  0.19852257489E+03  0.80324037527E+02 0.  0.
         11    1    4    4    0    0  0.17611582753E+02 -0.12747209859E+03  0.23384990222E+02  0.13079052540E+03  0.00000000000E+00 0. -1.
        -12    1    4    4    0    0  0.92904436654E+01 -0.32096060873E+02  0.58916560159E+02  0.67732049489E+02  0.00000000000E+00 0.  1.
        -11    1    3    3    0    0  0.36131308249E+02  0.82414574545E+02  0.27446415564E+02  0.94079430592E+02  0.00000000000E+00 0.  1.
         11    1    3    3    0    0 -0.50491345620E+02  0.58054802676E+02  0.25010711587E+02  0.80902854031E+02  0.00000000000E+00 0. -1.
         21    1    1    2  502  501 -0.12541989048E+02  0.19098782242E+02  0.48420970848E+02  0.53541156041E+02  0.00000000000E+00 0.  1.
<scales pt_clust_5="13000.00000" pt_clust_6="13000.00000" pt_clust_7="13000.00000" pt_clust_8="13000.00000" pt_clust_9="22.84874"></scales>
<clustering>
<clus scale="   22.849">  1  9  2 -1</clus>
<clus scale="   80.324">  5  6 -1 -1</clus>
<clus scale="   89.046">  7  8 -1 -1</clus>
<clus scale="  170.460">  1  5  2 -1</clus>
<clus scale="   22.849">  1  5  2 -1</clus>
</clustering>
</event>
<event>
 9    1  0.2374319E-005  0.1173723E+03  0.7546771E-02  0.1253732E+00
         -4   -1    0    0    0  501 -0.00000000000E+00  0.00000000000E+00  0.20354776459E+03  0.20354776459E+03  0.00000000000E+00 0.  1.
          3   -1    0    0  502    0  0.00000000000E+00 -0.00000000000E+00 -0.26785253431E+03  0.26785253431E+03  0.00000000000E+00 0. -1.
         23    2    1    2    0    0  0.36972011537E+01  0.66635707665E+02  0.11861977135E+03  0.16685127645E+03  0.96512752874E+02 0.  0.
        -24    2    1    2    0    0  0.83866243779E+02 -0.59130980019E+02 -0.38076848438E+02  0.13512490408E+03  0.79239344220E+02 0.  0.
         13    1    4    4    0    0  0.40321472400E+02 -0.28755307368E+02  0.22652731395E+02  0.54459481066E+02  0.00000000000E+00 0. -1.
        -14    1    4    4    0    0  0.43544771379E+02 -0.30375672651E+02 -0.60729579834E+02  0.80665423015E+02  0.00000000000E+00 0.  1.
        -11    1    3    3    0    0 -0.39079160616E+01  0.39281877209E+02 -0.52012541285E+01  0.39816965347E+02  0.00000000000E+00 0. -1.
         11    1    3    3    0    0  0.76051172153E+01  0.27353830457E+02  0.12382102547E+03  0.12703431110E+03  0.00000000000E+00 0.  1.
         21    1    1    2  502  501 -0.87563444932E+02 -0.75047276461E+01 -0.14484769263E+03  0.16942411837E+03  0.00000000000E+00 0. -1.
<scales pt_clust_5="13000.00000" pt_clust_6="13000.00000" pt_clust_7="13000.00000" pt_clust_8="13000.00000" pt_clust_9="87.88446"></scales>
<clustering>
<clus scale="   79.239">  5  6 -1 -1</clus>
<clus scale="   87.884">  2  9  1 -1</clus>
<clus scale="   96.513">  7  8 -1 -1</clus>
<clus scale="  103.636">  2  5  1 -1</clus>
<clus scale="   87.884">  2  5  1 -1</clus>
</clustering>
</event>
<event>
 9    1  0.2374319E-005  0.4441357E+03  0.7546771E-02  0.1029485E+00
          1   -1    0    0  502    0  0.00000000000E+00  0.00000000000E+00  0.26845090577E+04  0.26845090577E+04  0.00000000000E+00 0. -1.
         -2   -1    0    0    0  501 -0.00000000000E+00 -0.00000000000E+00 -0.81636010708E+02  0.81636010708E+02  0.00000000000E+00 0.  1.
        -24    2    1    2    0    0 -0.21356794656E+02  0.15548966697E+03  0.35439149393E+03  0.39493129668E+03  0.75790823378E+02 0.  0.
         23    2    1    2    0    0 -0.54953651029E+02  0.24206034910E+03  0.41385349923E+03  0.49245636448E+03  0.98109304992E+02 0.  0.
         13    1    3    3    0    0 -0.49689882391E+02  0.10552270114E+03  0.22811491300E+03  0.25620409521E+03  0.00000000000E+00 0. -1.
        -14    1    3    3    0    0  0.28333087735E+02  0.49966965837E+02  0.12627658093E+03  0.13872720147E+03  0.00000000000E+00 0.  1.
        -11    1    4    4    0    0 -0.27596900019E+02  0.23002767589E+03  0.32815693553E+03  0.40169801456E+03  0.00000000000E+00 0. -1.
         11    1    4    4    0    0 -0.27356751011E+02  0.12032673212E+02  0.85696563701E+02  0.90758349923E+02  0.00000000000E+00 0.  1.
         21    1    1    2  502  501  0.76310445686E+02 -0.39755001607E+03  0.18346280538E+04  0.18787574072E+04  0.00000000000E+00 0.  1.
<scales pt_clust_5="13000.00000" pt_clust_6="13000.00000" pt_clust_7="13000.00000" pt_clust_8="13000.00000" pt_clust_9="404.80773"></scales>
<clustering>
<clus scale="   75.791">  5  6 -1 -1</clus>
<clus scale="   98.109">  7  8 -1 -1</clus>
<clus scale="  106.058">  5  7 -1 -1</clus>
<clus scale="  404.808">  1  9  2 -1</clus>
<clus scale="  404.808">  1  5  2 -1</clus>
</clustering>
</event>
<event>
 9    1  0.2374319E-005  0.1450668E+03  0.7546771E-02  0.1208203E+00
          1   -1    0    0  502    0  0.00000000000E+00  0.00000000000E+00  0.76468530640E+03  0.76468530640E+03  0.00000000000E+00 0. -1.
         -2   -1    0    0    0  501 -0.00000000000E+00 -0.00000000000E+00 -0.50493653182E+02  0.50493653182E+02  0.00000000000E+00 0.  1.
         23    2    1    2    0    0 -0.49977274388E+02 -0.10610240631E+03  0.93966096693E+02  0.17409872410E+03  0.87893627912E+02 0.  0.
        -24    2    1    2    0    0  0.26798784573E+02  0.10562930728E+03  0.56941723355E+03  0.58523265812E+03  0.79909654357E+02 0.  0.
         13    1    4    4    0    0 -0.60237512667E+01  0.10055289524E+03  0.45925451482E+03  0.47017218091E+03  0.00000000000E+00 0. -1.
        -14    1    4    4    0    0  0.32822535840E+02  0.50764120372E+01  0.11016271873E+03  0.11506047721E+03  0.00000000000E+00 0.  1.
        -11    1    3    3    0    0 -0.11625569464E+02 -0.83482553593E+02  0.18219402324E+02  0.86234779763E+02  0.00000000000E+00 0.  1.
         11    1    3    3    0    0 -0.38351704923E+02 -0.22619852716E+02  0.75746694369E+02  0.87863944341E+02  0.00000000000E+00 0. -1.
         21    1    1    2  502  501  0.23178489814E+02  0.47309902741E+00  0.50808322976E+02  0.55847577355E+02  0.00000000000E+00 0.  1.
<scales pt_clust_5="13000.00000" pt_clust_6="13000.00000" pt_clust_7="13000.00000" pt_clust_8="13000.00000" pt_clust_9="23.18332"></scales>
<clustering>
<clus scale="   23.183">  1  9  2 -1</clus>
<clus scale="   79.910">  5  6 -1 -1</clus>
<clus scale="   87.894">  7  8 -1 -1</clus>
<clus scale="  140.373">  1  5  2 -1</clus>
<clus scale="   23.183">  1  5  2 -1</clus>
</clustering>
</event>
<event>
 9    1  0.2374319E-005  0.1141431E+03  0.7546771E-02  0.1256264E+00
         -2   -1    0    0    0  501 -0.00000000000E+00  0.00000000000E+00  0.13892687707E+03  0.13892687707E+03  0.00000000000E+00 0.  1.
          1   -1    0    0  502    0  0.00000000000E+00 -0.00000000000E+00 -0.16004385318E+03  0.16004385318E+03  0.00000000000E+00 0. -1.
        -24    2    1    2    0    0  0.76472094688E+02  0.12662598989E+02  0.54329540574E+02  0.12411696214E+03  0.80280748835E+02 0.  0.
         23    2    1    2    0    0 -0.49637926918E+02 -0.40203646045E+02 -0.27229567279E+02  0.11318160224E+03  0.89377675106E+02 0.  0.
         11    1    3    3    0    0  0.62894577243E+02 -0.25717524664E+02  0.47330377172E+02  0.82808716478E+02  0.00000000000E+00 0. -1.
        -12    1    3    3    0    0  0.13577517445E+02  0.38380123653E+02  0.69991634019E+01  0.41308245665E+02  0.00000000000E+00 0.  1.
        -13    1    4    4    0    0  0.32961889143E+01 -0.21784481848E+02 -0.48471632152E+02  0.53244038486E+02  0.00000000000E+00 0. -1.
         13    1    4    4    0    0 -0.52934115832E+02 -0.18419164197E+02  0.21242064874E+02  0.59937563754E+02  0.00000000000E+00 0.  1.
         21    1    1    2  502  501 -0.26834167770E+02  0.27541047056E+02 -0.48216949403E+02  0.61672165866E+02  0.00000000000E+00 0. -1.
<scales pt_clust_5="13000.00000" pt_clust_6="13000.00000" pt_clust_7="13000.00000" pt_clust_8="13000.00000" pt_clust_9="38.45233"></scales>
<clustering>
<clus scale="   38.452">  2  9  1 -1</clus>
<clus scale="   80.281">  5  6 -1 -1</clus>
<clus scale="   89.378">  7  8 -1 -1</clus>
<clus scale="  107.169">  1  5  2 -1</clus>
<clus scale="   38.452">  2  5  1 -1</clus>
</clustering>
</event>
<event>
 9    1  0.2374319E-005  0.1181639E+03  0.7546771E-02  0.1247029E+00
         -2   -1    0    0    0  501 -0.00000000000E+00  0.00000000000E+00  0.75494652262E+02  0.75494652262E+02  0.00000000000E+00 0.  1.
          1   -1    0    0  502    0  0.00000000000E+00 -0.00000000000E+00 -0.24618947155E+03  0.24618947155E+03  0.00000000000E+00 0. -1.
        -24    2    1    2    0    0 -0.79197813019E+02  0.90509169854E+01 -0.52893991755E+02  0.13050647026E+03  0.88769092205E+02 0.  0.
         23    2    1    2    0    0  0.62472897053E+02 -0.36938914522E+02 -0.81109314915E+02  0.14214980107E+03  0.91435762728E+02 0.  0.
         13    1    3    3    0    0 -0.28816556854E+02  0.45424257084E+02 -0.92782544053E+01  0.54587939010E+02  0.00000000000E+00 0. -1.
        -14    1    3    3    0    0 -0.50381256165E+02 -0.36373340099E+02 -0.43615737350E+02  0.75918531251E+02  0.00000000000E+00 0.  1.
        -11    1    4    4    0    0  0.46155362863E+02  0.15146871577E+02 -0.54855475849E+01  0.48885953728E+02  0.00000000000E+00 0. -1.
         11    1    4    4    0    0  0.16317534190E+02 -0.52085786099E+02 -0.75623767330E+02  0.93263847341E+02  0.00000000000E+00 0.  1.
         21    1    1    2  502  501  0.16724915966E+02  0.27887997537E+02 -0.36691512615E+02  0.49027852478E+02  0.00000000000E+00 0. -1.
<scales pt_clust_5="13000.00000" pt_clust_6="13000.00000" pt_clust_7="13000.00000" pt_clust_8="13000.00000" pt_clust_9="32.51866"></scales>
<clustering>
<clus scale="   32.519">  2  9  1 -1</clus>
<clus scale="   88.769">  5  6 -1 -1</clus>
<clus scale="   91.436">  7  8 -1 -1</clus>
<clus scale="  116.113">  1  5  2 -1</clus>
<clus scale="   32.519">  2  5  1 -1</clus>
</clustering>
</event>
<event>
 9    1  0.2374319E-005  0.1587826E+03  0.7546771E-02  0.1191858E+00
          1   -1    0    0  502    0  0.00000000000E+00  0.00000000000E+00  0.15050783942E+03  0.15050783942E+03  0.00000000000E+00 0. -1.
         -2   -1    0    0    0  501 -0.00000000000E+00 -0.00000000000E+00 -0.35672595351E+03  0.35672595351E+03  0.00000000000E+00 0.  1.
         23    2    1    2    0    0 -0.99593031474E+02  0.87165310726E+02 -0.28344950648E+03  0.32585211640E+03  0.91210831189E+02 0.  0.
        -24    2    1    2    0    0  0.97464242742E+02 -0.66082178848E+02  0.71887889192E+02  0.15952799910E+03  0.80094824482E+02 0.  0.
         11    1    4    4    0    0  0.58826360341E+02 -0.72746254907E+02  0.75407801233E+02  0.12016195222E+03  0.00000000000E+00 0. -1.
        -12    1    4    4    0    0  0.38637882401E+02  0.66640760587E+01 -0.35199120407E+01  0.39366046880E+02  0.00000000000E+00 0.  1.
        -11    1    3    3    0    0 -0.48223153310E+02  0.48507313182E+02 -0.23663715232E+03  0.24632412347E+03  0.00000000000E+00 0.  1.
         11    1    3    3    0    0 -0.51369878164E+02  0.38657997545E+02 -0.46812354159E+02  0.79527992925E+02  0.00000000000E+00 0. -1.
         21    1    1    2  502  501  0.21287887315E+01 -0.21083131878E+02  0.53435031961E+01  0.21853677440E+02  0.00000000000E+00 0. -1.
<scales pt_clust_5="13000.00000" pt_clust_6="13000.00000" pt_clust_7="13000.00000" pt_clust_8="13000.00000" pt_clust_9="21.19033"></scales>
<clustering>
<clus scale="   21.190">  1  9  2 -1</clus>
<clus scale="   80.095">  5  6 -1 -1</clus>
<clus scale="   91.211">  7  8 -1 -1</clus>
<clus scale="  152.669">  1  5  2 -1</clus>
<clus scale="   21.190">  1  5  2 -1</clus>
</clustering>
</event>
<event>
 9    1  0.2374319E-005  0.9183384E+02  0.7546771E-02  0.1302026E+00
          1   -1    0    0  502    0  0.00000000000E+00  0.00000000000E+00  0.72310953283E+03  0.72310953283E+03  0.00000000000E+00 0. -1.
         -2   -1    0    0    0  501 -0.00000000000E+00 -0.00000000000E+00 -0.72944303404E+02  0.72944303404E+02  0.00000000000E+00 0.  1.
         23    2    1    2    0    0  0.35538420160E+02 -0.21429872570E+02 -0.36367593348E+02  0.94931963397E+02  0.77248023163E+02 0.  0.
        -24    2    1    2    0    0  0.18455425116E+02  0.89596501731E+01  0.38302280516E+03  0.39259444688E+03  0.83684242264E+02 0.  0.
         13    1    4    4    0    0  0.49742648448E+01 -0.32889018560E+02  0.83824757450E+02  0.90183262383E+02  0.00000000000E+00 0. -1.
        -14    1    4    4    0    0  0.13481160272E+02  0.41848668733E+02  0.29919804771E+03  0.30241118450E+03  0.00000000000E+00 0.  1.
        -11    1    3    3    0    0  0.46142321107E+02 -0.43326145525E+02 -0.24611204199E+02  0.67911560543E+02  0.00000000000E+00 0.  1.
         11    1    3    3    0    0 -0.10603900947E+02  0.21896272954E+02 -0.11756389148E+02  0.27020402854E+02  0.00000000000E+00 0. -1.
         21    1    1    2  502  501 -0.53993845276E+02  0.12470222397E+02  0.30351001762E+03  0.30852742596E+03  0.00000000000E+00 0. -1.
<scales pt_clust_5="13000.00000" pt_clust_6="13000.00000" pt_clust_7="13000.00000" pt_clust_8="13000.00000" pt_clust_9="55.41518"></scales>
<clustering>
<clus scale="   55.415">  1  9  2 -1</clus>
<clus scale="   77.248">  7  8 -1 -1</clus>
<clus scale="   83.684">  5  6 -1 -1</clus>
<clus scale="   86.010">  2  7  1 -1</clus>
<clus scale="   55.415">  1  5  2 -1</clus>
</clustering>
</event>
<event>
 9    1  0.2374319E-005  0.1022952E+03  0.7546771E-02  0.1285025E+00
         -2   -1    0    0    0  501 -0.00000000000E+00  0.00000000000E+00  0.23743122886E+03  0.23743122886E+03  0.00000000000E+00 0.  1.
          1   -1    0    0  502    0  0.00000000000E+00 -0.00000000000E+00 -0.56688975383E+03  0.56688975383E+03  0.00000000000E+00 0. -1.
        -24    2    1    2    0    0 -0.14666915744E+02 -0.25922351991E+02  0.20530165354E+03  0.22217970410E+03  0.79548508584E+02 0.  0.
         23    2    1    2    0    0  0.91038948608E+01  0.10511140232E+03 -0.40834656542E+03  0.43286886162E+03  0.97453815048E+02 0.  0.
         11    1    3    3    0    0 -0.11810223653E+01 -0.53311778609E+02  0.11277982890E+03  0.12475107358E+03  0.00000000000E+00 0. -1.
        -12    1    3    3    0    0 -0.13485893379E+02  0.27389426618E+02  0.92521824641E+02  0.97428630523E+02  0.00000000000E+00 0.  1.
        -11    1    4    4    0    0 -0.30692342368E+02  0.97751685146E+00 -0.11577558520E+03  0.11977880258E+03  0.00000000000E+00 0.  1.
         11    1    4    4    0    0  0.39796237229E+02  0.10413388546E+03 -0.29257098022E+03  0.31309005904E+03  0.00000000000E+00 0. -1.
         21    1    1    2  502  501  0.55630208834E+01 -0.79189050325E+02 -0.12641361309E+03  0.14927241697E+03  0.00000000000E+00 0. -1.
<scales pt_clust_5="13000.00000" pt_clust_6="13000.00000" pt_clust_7="13000.00000" pt_clust_8="13000.00000" pt_clust_9="79.38421"></scales>
<clustering>
<clus scale="   79.384">  2  9  1 -1</clus>
<clus scale="   79.549">  5  6 -1 -1</clus>
<clus scale="   85.411">  1  5  2 -1</clus>
<clus scale="   97.454">  7  8 -1 -1</clus>
<clus scale="   79.384">  2  5  1 -1</clus>
</clustering>
</event>
<event>
 9    1  0.2374319E-005  0.9647432E+02  0.7546771E-02  0.1297949E+00
          1   -1    0    0  502    0  0.00000000000E+00  0.00000000000E+00  0.49431588894E+02  0.49431588894E+02  0.00000000000E+00 0. -1.
         -2   -1    0    0    0  501 -0.00000000000E+00 -0.00000000000E+00 -0.38713962222E+03  0.38713962222E+03  0.00000000000E+00 0.  1.
        -24    2    1    2    0    0 -0.32777974792E+01 -0.26925246007E+02 -0.26614921777E+03  0.27904269708E+03  0.79332892576E+02 0.  0.
         23    2    1    2    0    0  0.10804769466E+02 -0.14529685425E+01 -0.20621578409E+02  0.98735823195E+02  0.95940914760E+02 0.  0.
         13    1    3    3    0    0  0.68824374661E+01 -0.48753560929E+02 -0.23256259753E+03  0.23771756229E+03  0.00000000000E+00 0. -1.
        -14    1    3    3    0    0 -0.10160234945E+02  0.21828314923E+02 -0.33586620235E+02  0.41325134789E+02  0.00000000000E+00 0.  1.
        -13    1    4    4    0    0 -0.30416966674E+02  0.19059950285E+02 -0.35364324782E+02  0.50389572670E+02  0.00000000000E+00 0.  1.
         13    1    4    4    0    0  0.41221736140E+02 -0.20512918828E+02  0.14742746373E+02  0.48346250525E+02  0.00000000000E+00 0. -1.
         21    1    1    2  502  501 -0.75269719869E+01  0.28378214549E+02 -0.50937237149E+02  0.58792690844E+02  0.00000000000E+00 0.  1.
<scales pt_clust_5="13000.00000" pt_clust_6="13000.00000" pt_clust_7="13000.00000" pt_clust_8="13000.00000" pt_clust_9="29.35947"></scales>
<clustering>
<clus scale="   29.359">  2  9  1 -1</clus>
<clus scale="   79.333">  5  6 -1 -1</clus>
<clus scale="   79.977">  2  5  1 -1</clus>
<clus scale="   95.941">  7  8 -1 -1</clus>
<clus scale="   96.474">  1  5  2 -1</clus>
</clustering>
</event>
<event>
 9    1  0.2374319E-005  0.1009846E+03  0.7546771E-02  0.1282697E+00
          1   -1    0    0  502    0  0.00000000000E+00  0.00000000000E+00  0.34880060334E+03  0.34880060334E+03  0.00000000000E+00 0. -1.
         -2   -1    0    0    0  501 -0.00000000000E+00 -0.00000000000E+00 -0.84728652216E+02  0.84728652216E+02  0.00000000000E+00 0.  1.
         23    2    1    2    0    0  0.33699814647E+02 -0.23792485669E+02 -0.31827054761E+02  0.10450535946E+03  0.90590556124E+02 0.  0.
        -24    2    1    2    0    0 -0.36078345731E+02  0.59885053422E+02  0.20952430770E+03  0.23538138789E+03  0.81339385256E+02 0.  0.
         13    1    4    4    0    0 -0.16178106286E+02  0.65643279468E+02  0.82426523320E+02  0.10660629911E+03  0.00000000000E+00 0. -1.
        -14    1    4    4    0    0 -0.19900239445E+02 -0.57582260463E+01  0.12709778438E+03  0.12877508879E+03  0.00000000000E+00 0.  1.
        -11    1    3    3    0    0  0.23362388347E+02 -0.50900866197E+02 -0.45757428637E+02  0.72321792320E+02  0.00000000000E+00 0.  1.
         11    1    3    3    0    0  0.10337426300E+02  0.27108380528E+02  0.13930373876E+02  0.32183567137E+02  0.00000000000E+00 0. -1.
         21    1    1    2  502  501  0.23785310837E+01 -0.36092567752E+02  0.86374698182E+02  0.93642508206E+02  0.00000000000E+00 0. -1.
<scales pt_clust_5="13000.00000" pt_clust_6="13000.00000" pt_clust_7="13000.00000" pt_clust_8="13000.00000" pt_clust_9="36.17086"></scales>
<clustering>
<clus scale="   36.171">  1  9  2 -1</clus>
<clus scale="   81.339">  5  6 -1 -1</clus>
<clus scale="   90.591">  7  8 -1 -1</clus>
<clus scale="   92.776">  1  5  2 -1</clus>
<clus scale="   36.171">  1  5  2 -1</clus>
</clustering>
</event>
<event>
 9    1  0.2374319E-005  0.9479146E+02  0.7546771E-02  0.1292827E+00
          3   -1    0    0  502    0  0.00000000000E+00  0.00000000000E+00  0.62949399887E+02  0.62949399887E+02  0.00000000000E+00 0. -1.
         -4   -1    0    0    0  501 -0.00000000000E+00 -0.00000000000E+00 -0.35111797062E+03  0.35111797062E+03  0.00000000000E+00 0.  1.
         23    2    1    2    0    0  0.37094314264E+02  0.17835919303E+02 -0.25923810550E+03  0.27480946417E+03  0.81374062738E+02 0.  0.
        -24    2    1    2    0    0 -0.44772310109E+02 -0.43499554307E+02 -0.37767518169E+02  0.11105033135E+03  0.83719888243E+02 0.  0.
         13    1    4    4    0    0 -0.12364084028E+02 -0.61089554761E+02 -0.64303692334E+01  0.62659029064E+02  0.00000000000E+00 0. -1.
        -14    1    4    4    0    0 -0.32408226081E+02  0.17590000455E+02 -0.31337148936E+02  0.48391302288E+02  0.00000000000E+00 0.  1.
        -13    1    3    3    0    0  0.37988321019E+02 -0.16825703835E+02 -0.21300421692E+03  0.21701846297E+03  0.00000000000E+00 0.  1.
         13    1    3    3    0    0 -0.89400675525E+00  0.34661623138E+02 -0.46233888575E+02  0.57791001197E+02  0.00000000000E+00 0. -1.
         21    1    1    2  502  501  0.76779958451E+01  0.25663635004E+02  0.88370529376E+01  0.28207574983E+02  0.00000000000E+00 0. -1.
<scales pt_clust_5="13000.00000" pt_clust_6="13000.00000" pt_clust_7="13000.00000" pt_clust_8="13000.00000" pt_clust_9="26.78757"></scales>
<clustering>
<clus scale="   26.788">  1  9  2 -1</clus>
<clus scale="   81.374">  7  8 -1 -1</clus>
<clus scale="   83.720">  5  6 -1 -1</clus>
<clus scale="   92.726">  2  7  1 -1</clus>
<clus scale="   26.788">  1  5  2 -1</clus>
</clustering>
</event>
<event>
 9    1  0.2374319E-005  0.1284373E+03  0.7546771E-02  0.1231830E+00
          3   -1    0    0  502    0  0.00000000000E+00  0.00000000000E+00  0.88157439758E+02  0.88157439758E+02  0.00000000000E+00 0. -1.
         -4   -1    0    0    0  501 -0.00000000000E+00 -0.00000000000E+00 -0.29402150402E+03  0.29402150402E+03  0.00000000000E+00 0.  1.
         23    2    1    2    0    0 -0.36293156428E+02  0.84880770330E+02 -0.18403005656E+03  0.22448736537E+03  0.89473890687E+02 0.  0.
        -24    2    1    2    0    0  0.74970319511E+01 -0.95015101451E+02 -0.19848370176E+02  0.12709968065E+03  0.81708604388E+02 0.  0.
         11    1    4    4    0    0 -0.11666732724E+02 -0.20309613546E+02  0.27871313152E+02  0.36406086739E+02  0.00000000000E+00 0. -1.
        -12    1    4    4    0    0  0.19163764675E+02 -0.74705487905E+02 -0.47719683328E+02  0.90693593912E+02  0.00000000000E+00 0.  1.
        -11    1    3    3    0    0 -0.26268938667E+02  0.11985376366E+02 -0.29450162739E+01  0.29023774844E+02  0.00000000000E+00 0.  1.
         11    1    3    3    0    0 -0.10024217761E+02  0.72895393964E+02 -0.18108504029E+03  0.19546359052E+03  0.00000000000E+00 0. -1.
         21    1    1    2  502  501  0.28796124476E+02  0.10134331122E+02 -0.19856375196E+01  0.30591897759E+02  0.00000000000E+00 0. -1.
<scales pt_clust_5="13000.00000" pt_clust_6="13000.00000" pt_clust_7="13000.00000" pt_clust_8="13000.00000" pt_clust_9="30.52739"></scales>
<clustering>
<clus scale="   30.527">  1  9  2 -1</clus>
<clus scale="   81.709">  5  6 -1 -1</clus>
<clus scale="   89.474">  7  8 -1 -1</clus>
<clus scale="  123.154">  1  5  2 -1</clus>
<clus scale="   30.527">  1  5  2 -1</clus>
</clustering>
</event>
<event>
 9    1  0.2374319E-005  0.1628641E+03  0.7546771E-02  0.1188174E+00
         -2   -1    0    0    0  501 -0.00000000000E+00  0.00000000000E+00  0.17440800572E+03  0.17440800572E+03  0.00000000000E+00 0.  1.
          1   -1    0    0  502    0  0.00000000000E+00 -0.00000000000E+00 -0.15745651601E+04  0.15745651601E+04  0.00000000000E+00 0. -1.
         23    2    1    2    0    0  0.54809611696E+02  0.10695396950E+03  0.12465553669E+03  0.19654342652E+03  0.92989626069E+02 0.  0.
        -24    2    1    2    0    0 -0.50133697212E+02 -0.18130913645E+03 -0.11602492139E+04  0.11803315212E+04  0.10778622838E+03 0.  0.
         11    1    4    4    0    0 -0.49708104772E+01 -0.16981141041E+03 -0.93576035411E+03  0.95105628876E+03  0.00000000000E+00 0. -1.
        -12    1    4    4    0    0 -0.45162886735E+02 -0.11497726045E+02 -0.22448885983E+03  0.22927523249E+03  0.00000000000E+00 0.  1.
        -11    1    3    3    0    0  0.26795756640E+02  0.11841849565E+03  0.94927863665E+02  0.15411765631E+03  0.00000000000E+00 0.  1.
         11    1    3    3    0    0  0.28013855056E+02 -0.11464526151E+02  0.29727673023E+02  0.42425770215E+02  0.00000000000E+00 0. -1.
         21    1    1    2  502  501 -0.46759144847E+01  0.74355166957E+02 -0.36456347715E+03  0.37209821808E+03  0.00000000000E+00 0. -1.
<scales pt_clust_5="13000.00000" pt_clust_6="13000.00000" pt_clust_7="13000.00000" pt_clust_8="13000.00000" pt_clust_9="74.50205"></scales>
<clustering>
<clus scale="   74.502">  2  9  1 -1</clus>
<clus scale="   92.990">  7  8 -1 -1</clus>
<clus scale="  107.786">  5  6 -1 -1</clus>
<clus scale="  153.473">  1  7  2 -1</clus>
<clus scale="   74.502">  2  5  1 -1</clus>
</clustering>
</event>
<event>
 9    1  0.2374319E-005  0.1223982E+03  0.7546771E-02  0.1243479E+00
          1   -1    0    0  502    0  0.00000000000E+00  0.00000000000E+00  0.18785134028E+03  0.18785134028E+03  0.00000000000E+00 0. -1.
         -2   -1    0    0    0  501 -0.00000000000E+00 -0.00000000000E+00 -0.10041088993E+03  0.10041088993E+03  0.00000000000E+00 0.  1.
         23    2    1    2    0    0  0.68474591993E+02 -0.25905284361E+02 -0.82856742883E+00  0.11921696385E+03  0.94085835487E+02 0.  0.
        -24    2    1    2    0    0 -0.64933704054E+02  0.49537821343E+02  0.89056338328E+02  0.14513596764E+03  0.80393009909E+02 0.  0.
         11    1    4    4    0    0 -0.31737252413E+02 -0.18471501690E+02  0.42993535429E+02  0.56541079350E+02  0.00000000000E+00 0. -1.
        -12    1    4    4    0    0 -0.33196451641E+02  0.68009323033E+02  0.46062802899E+02  0.88594888294E+02  0.00000000000E+00 0.  1.
        -13    1    3    3    0    0  0.42500094160E+02  0.31809764410E+02 -0.13260131945E+02  0.54717001148E+02  0.00000000000E+00 0.  1.
         13    1    3    3    0    0  0.25974497833E+02 -0.57715048771E+02  0.12431564516E+02  0.64499962702E+02  0.00000000000E+00 0. -1.
         21    1    1    2  502  501 -0.35408879390E+01 -0.23632536982E+02 -0.78732055424E+00  0.23909298719E+02  0.00000000000E+00 0. -1.
<scales pt_clust_5="13000.00000" pt_clust_6="13000.00000" pt_clust_7="13000.00000" pt_clust_8="13000.00000" pt_clust_9="23.89633"></scales>
<clustering>
<clus scale="   23.896">  2  9  1 -1</clus>
<clus scale="   80.393">  5  6 -1 -1</clus>
<clus scale="   94.086">  7  8 -1 -1</clus>
<clus scale="  112.215">  1  5  2 -1</clus>
<clus scale="  112.215">  1  5  2 -1</clus>
</clustering>
</event>
<event>
 9    1  0.2374319E-005  0.2773591E+03  0.7546771E-02  0.1098040E+00
         -2   -1    0    0    0  501 -0.00000000000E+00  0.00000000000E+00  0.15601787245E+04  0.15601787245E+04  0.00000000000E+00 0.  1.
          1   -1    0    0  502    0  0.00000000000E+00 -0.00000000000E+00 -0.15646524566E+03  0.15646524566E+03  0.00000000000E+00 0. -1.
        -24    2    1    2    0    0  0.25194714076E+03  0.77807190950E+02  0.12825011666E+04  0.13117523295E+04  0.79709540914E+02 0.  0.
         23    2    1    2    0    0 -0.23040235996E+03 -0.60944540239E+02  0.19669432925E+03  0.32460427268E+03  0.99397133870E+02 0.  0.
         11    1    3    3    0    0  0.38283331166E+02 -0.12183787630E+02  0.12630310409E+03  0.13253879518E+03  0.00000000000E+00 0. -1.
        -12    1    3    3    0    0  0.21366380959E+03  0.89990978580E+02  0.11561980625E+04  0.11792135343E+04  0.00000000000E+00 0.  1.
        -13    1    4    4    0    0 -0.21616949692E+03 -0.42566147525E+02  0.20397577477E+03  0.30024530805E+03  0.00000000000E+00 0. -1.
         13    1    4    4    0    0 -0.14232863038E+02 -0.18378392714E+02 -0.72814455147E+01  0.24358964629E+02  0.00000000000E+00 0.  1.
         21    1    1    2  502  501 -0.21544780801E+02 -0.16862650712E+02 -0.75482017005E+02  0.80287367997E+02  0.00000000000E+00 0. -1.
<scales pt_clust_5="13000.00000" pt_clust_6="13000.00000" pt_clust_7="13000.00000" pt_clust_8="13000.00000" pt_clust_9="27.35921"></scales>
<clustering>
<clus scale="   27.359">  2  9  1 -1</clus>
<clus scale="   79.710">  5  6 -1 -1</clus>
<clus scale="   99.397">  7  8 -1 -1</clus>
<clus scale="  270.928">  1  5  2 -1</clus>
<clus scale="   27.359">  2  5  1 -1</clus>
</clustering>
</event>
<event>
 9    1  0.2374319E-005  0.9274993E+02  0.7546771E-02  0.1302918E+00
         -2   -1    0    0    0  501 -0.00000000000E+00  0.00000000000E+00  0.56117858314E+02  0.56117858314E+02  0.00000000000E+00 0.  1.
          1   -1    0    0  502    0  0.00000000000E+00 -0.00000000000E+00 -0.32412754848E+03  0.32412754848E+03  0.00000000000E+00 0. -1.
         23    2    1    2    0    0 -0.18457190980E+02 -0.14230595272E+02 -0.20573598903E+02  0.97066745619E+02  0.91953805754E+02 0.  0.
        -24    2    1    2    0    0 -0.11936521616E+02 -0.25543641821E+02 -0.17684759177E+03  0.19664251865E+03  0.81229620473E+02 0.  0.
         13    1    4    4    0    0  0.32629674853E+02 -0.21011786931E+02 -0.59529778176E+02  0.71063249016E+02  0.00000000000E+00 0. -1.
        -14    1    4    4    0    0 -0.44566196469E+02 -0.45318548895E+01 -0.11731781359E+03  0.12557926963E+03  0.00000000000E+00 0.  1.
        -11    1    3    3    0    0 -0.39026868388E+02  0.31294989807E+01 -0.45746711771E+02  0.60213386036E+02  0.00000000000E+00 0. -1.
         11    1    3    3    0    0  0.20569677408E+02 -0.17360094253E+02  0.25173112868E+02  0.36853359583E+02  0.00000000000E+00 0.  1.
         21    1    1    2  502  501  0.30393712596E+02  0.39774237093E+02 -0.70588499497E+02  0.86536142524E+02  0.00000000000E+00 0. -1.
<scales pt_clust_5="13000.00000" pt_clust_6="13000.00000" pt_clust_7="13000.00000" pt_clust_8="13000.00000" pt_clust_9="50.05764"></scales>
<clustering>
<clus scale="   50.058">  2  9  1 -1</clus>
<clus scale="   81.230">  5  6 -1 -1</clus>
<clus scale="   82.130">  2  5  1 -1</clus>
<clus scale="   91.954">  7  8 -1 -1</clus>
<clus scale="   50.058">  2  5  1 -1</clus>
</clustering>
</event>
<event>
 9    1  0.2374319E-005  0.9790467E+02  0.7546771E-02  0.1287058E+00
         -2   -1    0    0    0  501 -0.00000000000E+00  0.00000000000E+00  0.10829543850E+03  0.10829543850E+03  0.00000000000E+00 0.  1.
          1   -1    0    0  502    0  0.00000000000E+00 -0.00000000000E+00 -0.23293676201E+03  0.23293676201E+03  0.00000000000E+00 0. -1.
        -24    2    1    2    0    0 -0.90376071416E+01 -0.49134038124E+02  0.54336576905E+02  0.10884716863E+03  0.79996315439E+02 0.  0.
         23    2    1    2    0    0 -0.26881405024E+02  0.47824984458E+02 -0.85860214966E+02  0.13257124325E+03  0.84813436135E+02 0.  0.
         13    1    3    3    0    0  0.21412294460E+02  0.13049775808E+02  0.14357393824E+02  0.28894943505E+02  0.00000000000E+00 0. -1.
        -14    1    3    3    0    0 -0.30449901602E+02 -0.62183813932E+02  0.39979183081E+02  0.79952225126E+02  0.00000000000E+00 0.  1.
        -13    1    4    4    0    0  0.29120469783E+02  0.28847996754E+02 -0.43928276697E+02  0.60082461423E+02  0.00000000000E+00 0. -1.
         13    1    4    4    0    0 -0.56001874806E+02  0.18976987704E+02 -0.41931938269E+02  0.72488781829E+02  0.00000000000E+00 0.  1.
         21    1    1    2  502  501  0.35919012165E+02  0.13090536663E+01 -0.93117685449E+02  0.99813788625E+02  0.00000000000E+00 0.  1.
<scales pt_clust_5="13000.00000" pt_clust_6="13000.00000" pt_clust_7="13000.00000" pt_clust_8="13000.00000" pt_clust_9="35.94286"></scales>
<clustering>
<clus scale="   35.943">  2  9  1 -1</clus>
<clus scale="   79.996">  5  6 -1 -1</clus>
<clus scale="   84.813">  7  8 -1 -1</clus>
<clus scale="   93.763">  1  5  2 -1</clus>
<clus scale="   35.943">  2  5  1 -1</clus>
</clustering>
</event>
<event>
 9    1  0.2374319E-005  0.2127112E+03  0.7546771E-02  0.1140500E+00
         -2   -1    0    0    0  501 -0.00000000000E+00  0.00000000000E+00  0.74568047195E+02  0.74568047195E+02  0.00000000000E+00 0.  1.
          1   -1    0    0  502    0  0.00000000000E+00 -0.00000000000E+00 -0.75876669882E+03  0.75876669882E+03  0.00000000000E+00 0. -1.
        -24    2    1    2    0    0 -0.19188723816E+03  0.28702203382E+02 -0.22356666922E+03  0.30627833508E+03  0.78611922176E+02 0.  0.
         23    2    1    2    0    0  0.17949410937E+03 -0.68829204479E+02 -0.40144787440E+03  0.45448558692E+03  0.91875775737E+02 0.  0.
         11    1    3    3    0    0 -0.19750978516E+03  0.33805785567E+02 -0.20724446705E+03  0.28827628327E+03  0.00000000000E+00 0. -1.
        -12    1    3    3    0    0  0.56225470020E+01 -0.51035821846E+01 -0.16322202168E+02  0.18002051814E+02  0.00000000000E+00 0.  1.
        -11    1    4    4    0    0  0.20165305702E+02  0.17854666902E+02 -0.25599301653E+02  0.37158483948E+02  0.00000000000E+00 0. -1.
         11    1    4    4    0    0  0.15932880366E+03 -0.86683871381E+02 -0.37584857275E+03  0.41732710297E+03  0.00000000000E+00 0.  1.
         21    1    1    2  502  501  0.12393128791E+02  0.40127001097E+02 -0.59184108008E+02  0.72570824020E+02  0.00000000000E+00 0. -1.
<scales pt_clust_5="13000.00000" pt_clust_6="13000.00000" pt_clust_7="13000.00000" pt_clust_8="13000.00000" pt_clust_9="41.99721"></scales>
<clustering>
<clus scale="   41.997">  1  9  2 -1</clus>
<clus scale="   78.612">  5  6 -1 -1</clus>
<clus scale="   91.876">  7  8 -1 -1</clus>
<clus scale="  207.328">  1  5  2 -1</clus>
<clus scale="  212.711">  2  5  1 -1</clus>
</clustering>
</event>
<event>
 9    1  0.2374319E-005  0.1085612E+03  0.7546771E-02  0.1267498E+00
         -2   -1    0    0    0  501 -0.00000000000E+00  0.00000000000E+00  0.22757759258E+03  0.22757759258E+03  0.00000000000E+00 0.  1.
          1   -1    0    0  502    0  0.00000000000E+00 -0.00000000000E+00 -0.21528132913E+03  0.21528132913E+03  0.00000000000E+00 0. -1.
         23    2    1    2    0    0  0.58135193246E+02  0.21090511785E+02  0.19117564444E+03  0.22041644516E+03  0.90613309679E+02 0.  0.
        -24    2    1    2    0    0 -0.35727545544E+02 -0.19984540691E+01 -0.17064445028E+03  0.19187413628E+03  0.80098092556E+02 0.  0.
         11    1    4    4    0    0 -0.19381606173E+02  0.30853570360E+02 -0.13810524586E+03  0.14283083840E+03  0.00000000000E+00 0. -1.
        -12    1    4    4    0    0 -0.16345939370E+02 -0.32852024429E+02 -0.32539204419E+02  0.49043297883E+02  0.00000000000E+00 0.  1.
        -11    1    3    3    0    0  0.71592750862E+02 -0.10168414849E+02  0.10254759458E+03  0.12547879419E+03  0.00000000000E+00 0.  1.
         11    1    3    3    0    0 -0.13457557616E+02  0.31258926634E+02  0.88628049852E+02  0.94937650971E+02  0.00000000000E+00 0. -1.
         21    1    1    2  502  501 -0.22407647702E+02 -0.19092057716E+02 -0.82349307008E+01  0.30568340273E+02  0.00000000000E+00 0. -1.
<scales pt_clust_5="13000.00000" pt_clust_6="13000.00000" pt_clust_7="13000.00000" pt_clust_8="13000.00000" pt_clust_9="29.43823"></scales>
<clustering>
<clus scale="   29.438">  2  9  1 -1</clus>
<clus scale="   80.098">  5  6 -1 -1</clus>
<clus scale="   90.613">  7  8 -1 -1</clus>
<clus scale="   99.952">  2  5  1 -1</clus>
<clus scale="   29.438">  2  5  1 -1</clus>
</clustering>
</event>
<event>
 9    1  0.2374319E-005  0.8746124E+02  0.7546771E-02  0.1309353E+00
          1   -1    0    0  502    0  0.00000000000E+00  0.00000000000E+00  0.23552097535E+03  0.23552097535E+03  0.00000000000E+00 0. -1.
         -2   -1    0    0    0  501 -0.00000000000E+00 -0.00000000000E+00 -0.11544048275E+03  0.11544048275E+03  0.00000000000E+00 0.  1.
        -24    2    1    2    0    0 -0.13538934506E+02 -0.27945886397E+01 -0.78564182085E+02  0.11759663667E+03  0.86403274106E+02 0.  0.
         23    2    1    2    0    0 -0.14954257978E+02 -0.76002971691E+01  0.17021341339E+03  0.19179256760E+03  0.86777811342E+02 0.  0.
         13    1    3    3    0    0  0.73040537354E+01  0.32753189442E+02 -0.59160317560E+01  0.34075211685E+02  0.00000000000E+00 0. -1.
        -14    1    3    3    0    0 -0.20842988242E+02 -0.35547778082E+02 -0.72648150329E+02  0.83521424986E+02  0.00000000000E+00 0.  1.
        -11    1    4    4    0    0  0.18634695823E+02 -0.33483796191E+02  0.42506820988E+02  0.57229767834E+02  0.00000000000E+00 0. -1.
         11    1    4    4    0    0 -0.33588953801E+02  0.25883499022E+02  0.12770659240E+03  0.13456279977E+03  0.00000000000E+00 0.  1.
         21    1    1    2  502  501  0.28493192485E+02  0.10394885809E+02  0.28431261298E+02  0.41572253823E+02  0.00000000000E+00 0.  1.
<scales pt_clust_5="13000.00000" pt_clust_6="13000.00000" pt_clust_7="13000.00000" pt_clust_8="13000.00000" pt_clust_9="30.33011"></scales>
<clustering>
<clus scale="   30.330">  1  9  2 -1</clus>
<clus scale="   86.403">  5  6 -1 -1</clus>
<clus scale="   86.778">  7  8 -1 -1</clus>
<clus scale="   87.090">  2  5  1 -1</clus>
<clus scale="   30.330">  1  5  2 -1</clus>
</clustering>
</event>
<event>
 9    1  0.2374319E-005  0.1873581E+03  0.7546771E-02  0.1178131E+00
          1   -1    0    0  502    0  0.00000000000E+00  0.00000000000E+00  0.47834403521E+03  0.47834403521E+03  0.00000000000E+00 0. -1.
         -2   -1    0    0    0  501 -0.00000000000E+00 -0.00000000000E+00 -0.19106502659E+03  0.19106502659E+03  0.00000000000E+00 0.  1.
        -24    2    1    2    0    0  0.66016512226E+02  0.75875201616E+02 -0.42793276457E+02  0.13324260257E+03  0.76204334023E+02 0.  0.
         23    2    1    2    0    0  0.14135241070E+03 -0.18897322518E+02  0.25431439022E+03  0.30815854812E+03  0.99741009093E+02 0.  0.
         11    1    3    3    0    0  0.82630554344E+02  0.64717720025E+02 -0.28848306583E+02  0.10885043220E+03  0.00000000000E+00 0. -1.
        -12    1    3    3    0    0 -0.16614042118E+02  0.11157481591E+02 -0.13944969874E+02  0.24392170378E+02  0.00000000000E+00 0.  1.
        -13    1    4    4    0    0  0.53836214445E+02 -0.43719371134E+02  0.53132024879E+02  0.87365516458E+02  0.00000000000E+00 0.  1.
         13    1    4    4    0    0  0.87516196250E+02  0.24822048616E+02  0.20118236534E+03  0.22079303166E+03  0.00000000000E+00 0. -1.
         21    1    1    2  502  501 -0.20736892292E+03 -0.56977879098E+02  0.75757894851E+02  0.22800791112E+03  0.00000000000E+00 0.  1.
<scales pt_clust_5="13000.00000" pt_clust_6="13000.00000" pt_clust_7="13000.00000" pt_clust_8="13000.00000" pt_clust_9="158.60258"></scales>
<clustering>
<clus scale="   76.204">  5  6 -1 -1</clus>
<clus scale="   99.741">  7  8 -1 -1</clus>
<clus scale="  126.184">  2  5  1 -1</clus>
<clus scale="  158.603">  2  9  1 -1</clus>
<clus scale="  187.358">  1  5  2 -1</clus>
</clustering>
</event>
<event>
 9    1  0.2374319E-005  0.1658785E+03  0.7546771E-02  0.1184276E+00
          1   -1    0    0  502    0  0.00000000000E+00  0.00000000000E+00  0.15665782405E+03  0.15665782405E+03  0.00000000000E+00 0. -1.
         -2   -1    0    0    0  501 -0.00000000000E+00 -0.00000000000E+00 -0.51038354775E+03  0.51038354775E+03  0.00000000000E+00 0.  1.
         23    2    1    2    0    0 -0.26934520582E+02 -0.13487975858E+03 -0.40202995347E+03  0.43453407034E+03  0.90960195306E+02 0.  0.
        -24    2    1    2    0    0 -0.22868720876E+02  0.15315376118E+03  0.48719378144E+02  0.17945568151E+03  0.76496476137E+02 0.  0.
         13    1    4    4    0    0 -0.19293478093E+02  0.76644265141E+02  0.63579610681E+02  0.10143445455E+03  0.00000000000E+00 0. -1.
        -14    1    4    4    0    0 -0.35752427832E+01  0.76509496034E+02 -0.14860232537E+02  0.78021226954E+02  0.00000000000E+00 0.  1.
        -11    1    3    3    0    0  0.18546163773E+02 -0.11076973855E+03 -0.25126602568E+03  0.27522447353E+03  0.00000000000E+00 0.  1.
         11    1    3    3    0    0 -0.45480684354E+02 -0.24110020038E+02 -0.15076392779E+03  0.15930959682E+03  0.00000000000E+00 0. -1.
         21    1    1    2  502  501  0.49803241458E+02 -0.18274002592E+02 -0.41514837802E+00  0.53051619943E+02  0.00000000000E+00 0. -1.
<scales pt_clust_5="13000.00000" pt_clust_6="13000.00000" pt_clust_7="13000.00000" pt_clust_8="13000.00000" pt_clust_9="53.05000"></scales>
<clustering>
<clus scale="   53.050">  1  9  2 -1</clus>
<clus scale="   76.496">  5  6 -1 -1</clus>
<clus scale="   90.960">  7  8 -1 -1</clus>
<clus scale="  158.410">  1  5  2 -1</clus>
<clus scale="   53.050">  1  5  2 -1</clus>
</clustering>
</event>
<event>
 9    1  0.2374319E-005  0.9682385E+02  0.7546771E-02  0.1293956E+00
          1   -1    0    0  502    0  0.00000000000E+00  0.00000000000E+00  0.19430104552E+03  0.19430104552E+03  0.00000000000E+00 0. -1.
         -2   -1    0    0    0  501 -0.00000000000E+00 -0.00000000000E+00 -0.13380494050E+03  0.13380494050E+03  0.00000000000E+00 0.  1.
        -24    2    1    2    0    0 -0.30147206050E+02  0.89255474502E+01 -0.88159677565E+02  0.12361030220E+03  0.80739449036E+02 0.  0.
         23    2    1    2    0    0 -0.11247455913E+02 -0.13558878681E+02  0.12447967339E+03  0.15633480704E+03  0.92924885530E+02 0.  0.
         11    1    3    3    0    0  0.22822343727E+02 -0.11321498002E+02 -0.10748221185E+02  0.27650677186E+02  0.00000000000E+00 0. -1.
        -12    1    3    3    0    0 -0.52969549777E+02  0.20247045453E+02 -0.77411456380E+02  0.95959625009E+02  0.00000000000E+00 0.  1.
        -13    1    4    4    0    0  0.29910397482E+01 -0.33959420528E+02  0.51961799160E+01  0.34484617543E+02  0.00000000000E+00 0.  1.
         13    1    4    4    0    0 -0.14238495661E+02  0.20400541847E+02  0.11928349347E+03  0.12185018950E+03  0.00000000000E+00 0. -1.
         21    1    1    2  502  501  0.41394661962E+02  0.46333312304E+01  0.24176109197E+02  0.48160876790E+02  0.00000000000E+00 0.  1.
<scales pt_clust_5="13000.00000" pt_clust_6="13000.00000" pt_clust_7="13000.00000" pt_clust_8="13000.00000" pt_clust_9="41.65316"></scales>
<clustering>
<clus scale="   41.653">  1  9  2 -1</clus>
<clus scale="   80.739">  5  6 -1 -1</clus>
<clus scale="   85.198">  2  5  1 -1</clus>
<clus scale="   92.925">  7  8 -1 -1</clus>
<clus scale="   41.653">  1  5  2 -1</clus>
</clustering>
</event>
<event>
 9    1  0.2374319E-005  0.1544308E+03  0.7546771E-02  0.1197617E+00
          1   -1    0    0  502    0  0.00000000000E+00  0.00000000000E+00  0.18572641912E+03  0.18572641912E+03  0.00000000000E+00 0. -1.
         -2   -1    0    0    0  501 -0.00000000000E+00 -0.00000000000E+00 -0.12581264146E+04  0.12581264146E+04  0.00000000000E+00 0.  1.
        -24    2    1    2    0    0 -0.31318451459E+02 -0.11153965268E+03 -0.82211057730E+03  0.83395434446E+03  0.78689947395E+02 0.  0.
         23    2    1    2    0    0  0.12127683853E+02  0.14705011240E+03 -0.40979523628E+03  0.44536464983E+03  0.92987737748E+02 0.  0.
         11    1    3    3    0    0  0.24081415526E+02 -0.28487767031E+02 -0.15562522627E+03  0.16003336682E+03  0.00000000000E+00 0. -1.
        -12    1    3    3    0    0 -0.55399866985E+02 -0.83051885646E+02 -0.66648535103E+03  0.67392097764E+03  0.00000000000E+00 0.  1.
        -11    1    4    4    0    0 -0.32209051892E+02  0.83811049874E+02 -0.28297426108E+03  0.29687732743E+03  0.00000000000E+00 0.  1.
         11    1    4    4    0    0  0.44336735745E+02  0.63239062525E+02 -0.12682097520E+03  0.14848732241E+03  0.00000000000E+00 0. -1.
         21    1    1    2  502  501  0.19190767606E+02 -0.35510459723E+02  0.15950581809E+03  0.16453383943E+03  0.00000000000E+00 0. -1.
<scales pt_clust_5="13000.00000" pt_clust_6="13000.00000" pt_clust_7="13000.00000" pt_clust_8="13000.00000" pt_clust_9="40.36432"></scales>
<clustering>
<clus scale="   40.364">  1  9  2 -1</clus>
<clus scale="   78.690">  5  6 -1 -1</clus>
<clus scale="   92.988">  7  8 -1 -1</clus>
<clus scale="  146.268">  2  5  1 -1</clus>
<clus scale="   40.364">  1  5  2 -1</clus>
</clustering>
</event>
<event>
 9    1  0.2374319E-005  0.1820899E+03  0.7546771E-02  0.1167032E+00
          1   -1    0    0  502    0  0.00000000000E+00  0.00000000000E+00  0.85974734146E+03  0.85974734146E+03  0.00000000000E+00 0. -1.
         -2   -1    0    0    0  501 -0.00000000000E+00 -0.00000000000E+00 -0.64386565784E+02  0.64386565784E+02  0.00000000000E+00 0.  1.
        -24    2    1    2    0    0  0.11438577316E+03 -0.10346825519E+03  0.11351537322E+03  0.20715189600E+03  0.78970773871E+02 0.  0.
         23    2    1    2    0    0 -0.13883228325E+03  0.10541670275E+03  0.58127694833E+03  0.61346659080E+03  0.89840321025E+02 0.  0.
         13    1    3    3    0    0  0.39603610014E+02 -0.32021960388E+02  0.86296020630E+02  0.10020406703E+03  0.00000000000E+00 0. -1.
        -14    1    3    3    0    0  0.74782163145E+02 -0.71446294801E+02  0.27219352591E+02  0.10694782897E+03  0.00000000000E+00 0.  1.
        -11    1    4    4    0    0 -0.88586911989E+02  0.12144983532E+02  0.23956398367E+03  0.25570694921E+03  0.00000000000E+00 0.  1.
         11    1    4    4    0    0 -0.50245371260E+02  0.93271719221E+02  0.34171296465E+03  0.35775964159E+03  0.00000000000E+00 0. -1.
         21    1    1    2  502  501  0.24446510090E+02 -0.19484475637E+01  0.10056845413E+03  0.10351542044E+03  0.00000000000E+00 0. -1.
<scales pt_clust_5="13000.00000" pt_clust_6="13000.00000" pt_clust_7="13000.00000" pt_clust_8="13000.00000" pt_clust_9="24.52404"></scales>
<clustering>
<clus scale="   24.524">  1  9  2 -1</clus>
<clus scale="   78.971">  5  6 -1 -1</clus>
<clus scale="   89.840">  7  8 -1 -1</clus>
<clus scale="  176.980">  2  5  1 -1</clus>
<clus scale="   24.524">  1  5  2 -1</clus>
</clustering>
</event>
<event>
 9    1  0.2374319E-005  0.9791563E+02  0.7546771E-02  0.1296635E+00
          1   -1    0    0  502    0  0.00000000000E+00  0.00000000000E+00  0.24783482729E+03  0.24783482729E+03  0.00000000000E+00 0. -1.
         -2   -1    0    0    0  501 -0.00000000000E+00 -0.00000000000E+00 -0.17566507225E+03  0.17566507225E+03  0.00000000000E+00 0.  1.
        -24    2    1    2    0    0  0.14230645663E+02  0.38188315071E+01 -0.14890686984E+03  0.16836288871E+03  0.77173257401E+02 0.  0.
         23    2    1    2    0    0  0.19613259682E+01  0.19468173298E+02  0.17566295057E+03  0.20159388474E+03  0.96952388254E+02 0.  0.
         11    1    3    3    0    0 -0.25651647601E+02  0.22053252963E+02 -0.77563263805E+02  0.84619222892E+02  0.00000000000E+00 0. -1.
        -12    1    3    3    0    0  0.39882293264E+02 -0.18234421455E+02 -0.71343606039E+02  0.83743665817E+02  0.00000000000E+00 0.  1.
        -13    1    4    4    0    0 -0.41103020192E+02  0.85514308101E+01  0.13496523575E+03  0.14134426093E+03  0.00000000000E+00 0. -1.
         13    1    4    4    0    0  0.43064346160E+02  0.10916742488E+02  0.40697714826E+02  0.60249623806E+02  0.00000000000E+00 0.  1.
         21    1    1    2  502  501 -0.16191971631E+02 -0.23287004805E+02  0.45413674307E+02  0.53543126096E+02  0.00000000000E+00 0. -1.
<scales pt_clust_5="13000.00000" pt_clust_6="13000.00000" pt_clust_7="13000.00000" pt_clust_8="13000.00000" pt_clust_9="28.36308"></scales>
<clustering>
<clus scale="   28.363">  1  9  2 -1</clus>
<clus scale="   77.173">  5  6 -1 -1</clus>
<clus scale="   78.380">  2  5  1 -1</clus>
<clus scale="   96.952">  7  8 -1 -1</clus>
<clus scale="   28.363">  1  5  2 -1</clus>
</clustering>
</event>
<event>
 9    1  0.2374319E-005  0.9231766E+02  0.7546771E-02  0.1303655E+00
          1   -1    0    0  502    0  0.00000000000E+00  0.00000000000E+00  0.47149103345E+03  0.47149103345E+03  0.00000000000E+00 0. -1.
         -2   -1    0    0    0  501 -0.00000000000E+00 -0.00000000000E+00 -0.66577095783E+02  0.66577095783E+02  0.00000000000E+00 0.  1.
        -24    2    1    2    0    0 -0.21513286952E+02  0.14132230792E+02  0.77508729445E+01  0.84625591635E+02  0.80242590098E+02 0.  0.
         23    2    1    2    0    0  0.28378310428E+01  0.63779947487E+02  0.11334251747E+03  0.15853037573E+03  0.90605842940E+02 0.  0.
         13    1    3    3    0    0 -0.45487719886E+02  0.38315113175E+01  0.26232926093E+02  0.52649592124E+02  0.00000000000E+00 0. -1.
        -14    1    3    3    0    0  0.23974432934E+02  0.10300719475E+02 -0.18482053148E+02  0.31975999512E+02  0.00000000000E+00 0.  1.
        -11    1    4    4    0    0 -0.23740306411E+02  0.75396497740E+02  0.65850177765E+02  0.10288090169E+03  0.00000000000E+00 0.  1.
         11    1    4    4    0    0  0.26578137454E+02 -0.11616550253E+02  0.47492339706E+02  0.55649474041E+02  0.00000000000E+00 0. -1.
         21    1    1    2  502  501  0.18675455909E+02 -0.77912178279E+02  0.28382054726E+03  0.29491216187E+03  0.00000000000E+00 0.  1.
<scales pt_clust_5="13000.00000" pt_clust_6="13000.00000" pt_clust_7="13000.00000" pt_clust_8="13000.00000" pt_clust_9="80.11916"></scales>
<clustering>
<clus scale="   80.119">  1  9  2 -1</clus>
<clus scale="   80.243">  5  6 -1 -1</clus>
<clus scale="   82.171">  2  5  1 -1</clus>
<clus scale="   90.606">  7  8 -1 -1</clus>
<clus scale="   80.119">  1  5  2 -1</clus>
</clustering>
</event>
<event>
 9    1  0.2374319E-005  0.1298306E+03  0.7546771E-02  0.1230232E+00
         -2   -1    0    0    0  501 -0.00000000000E+00  0.00000000000E+00  0.40124494896E+03  0.40124494896E+03  0.00000000000E+00 0.  1.
          1   -1    0    0  502    0  0.00000000000E+00 -0.00000000000E+00 -0.72396804581E+02  0.72396804581E+02  0.00000000000E+00 0. -1.
         23    2    1    2    0    0 -0.40982155991E+02 -0.82405097221E+02  0.28401059336E+03  0.31177399471E+03  0.89838018020E+02 0.  0.
        -24    2    1    2    0    0  0.22419454495E+02  0.98974709197E+02  0.45442543567E+02  0.13697816374E+03  0.79996047242E+02 0.  0.
         13    1    4    4    0    0  0.25593367652E+01  0.89399470047E+02  0.33947253734E+01  0.89500500611E+02  0.00000000000E+00 0. -1.
        -14    1    4    4    0    0  0.19860117730E+02  0.95752391509E+01  0.42047818193E+02  0.47477663126E+02  0.00000000000E+00 0.  1.
        -13    1    3    3    0    0  0.28325035886E+01 -0.77353877805E+02  0.22608441877E+03  0.23896821944E+03  0.00000000000E+00 0.  1.
         13    1    3    3    0    0 -0.43814659580E+02 -0.50512194157E+01  0.57926174583E+02  0.72805775276E+02  0.00000000000E+00 0. -1.
         21    1    1    2  502  501  0.18562701496E+02 -0.16569611977E+02 -0.60499254479E+00  0.24889595093E+02  0.00000000000E+00 0.  1.
<scales pt_clust_5="13000.00000" pt_clust_6="13000.00000" pt_clust_7="13000.00000" pt_clust_8="13000.00000" pt_clust_9="24.88224"></scales>
<clustering>
<clus scale="   24.882">  2  9  1 -1</clus>
<clus scale="   79.996">  5  6 -1 -1</clus>
<clus scale="   89.838">  7  8 -1 -1</clus>
<clus scale="  123.225">  2  5  1 -1</clus>
<clus scale="   24.882">  2  5  1 -1</clus>
</clustering>
</event>
<event>
 9    1  0.2374319E-005  0.1874379E+03  0.7546771E-02  0.1162655E+00
          1   -1    0    0  502    0  0.00000000000E+00  0.00000000000E+00  0.67438635805E+03  0.67438635805E+03  0.00000000000E+00 0. -1.
         -2   -1    0    0    0  501 -0.00000000000E+00 -0.00000000000E+00 -0.65718641689E+02  0.65718641689E+02  0.00000000000E+00 0.  1.
        -24    2    1    2    0    0 -0.16758882674E+03 -0.43469547269E+02  0.18195059045E+03  0.26316396152E+03  0.78572494488E+02 0.  0.
         23    2    1    2    0    0  0.14375280888E+03  0.12925436654E+02  0.32623121131E+03  0.36924462475E+03  0.95304001496E+02 0.  0.
         11    1    3    3    0    0 -0.63427345300E+02  0.13740062692E+01  0.11535933084E+03  0.13165367916E+03  0.00000000000E+00 0. -1.
        -12    1    3    3    0    0 -0.10416148144E+03 -0.44843553538E+02  0.66591259611E+02  0.13151028236E+03  0.00000000000E+00 0.  1.
        -13    1    4    4    0    0  0.36667369343E+02  0.22528085810E+02  0.25850474396E+02  0.50202167795E+02  0.00000000000E+00 0.  1.
         13    1    4    4    0    0  0.10708543954E+03 -0.96026491567E+01  0.30038073691E+03  0.31904245695E+03  0.00000000000E+00 0. -1.
         21    1    1    2  502  501  0.23836017858E+02  0.30544110615E+02  0.10048591461E+03  0.10769641347E+03  0.00000000000E+00 0. -1.
<scales pt_clust_5="13000.00000" pt_clust_6="13000.00000" pt_clust_7="13000.00000" pt_clust_8="13000.00000" pt_clust_9="38.74401"></scales>
<clustering>
<clus scale="   38.744">  1  9  2 -1</clus>
<clus scale="   78.572">  5  6 -1 -1</clus>
<clus scale="   95.304">  7  8 -1 -1</clus>
<clus scale="  179.510">  2  5  1 -1</clus>
<clus scale="   38.744">  1  5  2 -1</clus>
</clustering>
</event>
<event>
 9    1  0.2374319E-005  0.1063326E+03  0.7546771E-02  0.1270576E+00
          3   -1    0    0  502    0  0.00000000000E+00  0.00000000000E+00  0.11168697193E+03  0.11168697193E+03  0.00000000000E+00 0. -1.
         -4   -1    0    0    0  501 -0.00000000000E+00 -0.00000000000E+00 -0.26874184888E+03  0.26874184888E+03  0.00000000000E+00 0.  1.
        -24    2    1    2    0    0 -0.96028723169E+01 -0.61013639802E+02 -0.21484250046E+03  0.23774266692E+03  0.80928340361E+02 0.  0.
         23    2    1    2    0    0 -0.15651689019E+02  0.43856734536E+02  0.43181869567E+02  0.10884120870E+03  0.88393135018E+02 0.  0.
         11    1    3    3    0    0  0.26366957005E+02 -0.24021432537E+02 -0.32548208415E+02  0.48286970436E+02  0.00000000000E+00 0. -1.
        -12    1    3    3    0    0 -0.35969829322E+02 -0.36992207265E+02 -0.18229429204E+03  0.18945569649E+03  0.00000000000E+00 0.  1.
        -13    1    4    4    0    0 -0.20246498289E+02 -0.19325010499E+02 -0.60210317017E+01  0.28629172998E+02  0.00000000000E+00 0.  1.
         13    1    4    4    0    0  0.45948092702E+01  0.63181745035E+02  0.49202901269E+02  0.80212035700E+02  0.00000000000E+00 0. -1.
         21    1    1    2  502  501  0.25254561336E+02  0.17156905266E+02  0.14605753939E+02  0.33844945187E+02  0.00000000000E+00 0. -1.
<scales pt_clust_5="13000.00000" pt_clust_6="13000.00000" pt_clust_7="13000.00000" pt_clust_8="13000.00000" pt_clust_9="30.53117"></scales>
<clustering>
<clus scale="   30.531">  1  9  2 -1</clus>
<clus scale="   80.928">  5  6 -1 -1</clus>
<clus scale="   88.393">  7  8 -1 -1</clus>
<clus scale="  100.213">  2  5  1 -1</clus>
<clus scale="   30.531">  1  5  2 -1</clus>
</clustering>
</event>
<event>
 9    1  0.2374319E-005  0.9814749E+02  0.7546771E-02  0.1289121E+00
          1   -1    0    0  502    0  0.00000000000E+00  0.00000000000E+00  0.31360855580E+03  0.31360855580E+03  0.00000000000E+00 0. -1.
         -2   -1    0    0    0  501 -0.00000000000E+00 -0.00000000000E+00 -0.15986323948E+03  0.15986323948E+03  0.00000000000E+00 0.  1.
         23    2    1    2    0    0  0.32580941945E+01 -0.44541269829E+02 -0.12657697243E+03  0.16109282207E+03  0.89076525970E+02 0.  0.
        -24    2    1    2    0    0  0.32332136221E+02  0.78112540333E+01  0.16232662511E+03  0.18377595925E+03  0.79481364202E+02 0.  0.
         13    1    4    4    0    0  0.21825174690E+02  0.32718426565E+02  0.14808998840E+03  0.15322362204E+03  0.00000000000E+00 0. -1.
        -14    1    4    4    0    0  0.10506961531E+02 -0.24907172531E+02  0.14236636717E+02  0.30552337213E+02  0.00000000000E+00 0.  1.
        -13    1    3    3    0    0  0.11187913681E+01 -0.70446781460E+02 -0.10873174541E+03  0.12956308569E+03  0.00000000000E+00 0.  1.
         13    1    3    3    0    0  0.21393028265E+01  0.25905511630E+02 -0.17845227013E+02  0.31529736386E+02  0.00000000000E+00 0. -1.
         21    1    1    2  502  501 -0.35590230416E+02  0.36730015796E+02  0.11799566364E+03  0.12860301395E+03  0.00000000000E+00 0. -1.
<scales pt_clust_5="13000.00000" pt_clust_6="13000.00000" pt_clust_7="13000.00000" pt_clust_8="13000.00000" pt_clust_9="51.14449"></scales>
<clustering>
<clus scale="   51.144">  1  9  2 -1</clus>
<clus scale="   79.481">  5  6 -1 -1</clus>
<clus scale="   89.077">  7  8 -1 -1</clus>
<clus scale="   89.530">  1  5  2 -1</clus>
<clus scale="   51.144">  1  5  2 -1</clus>
</clustering>
</event>
<event>
 9    1  0.2374319E-005  0.1146190E+03  0.7546771E-02  0.1256824E+00
          1   -1    0    0  502    0  0.00000000000E+00  0.00000000000E+00  0.62405751302E+03  0.62405751302E+03  0.00000000000E+00 0. -1.
         -2   -1    0    0    0  501 -0.00000000000E+00 -0.00000000000E+00 -0.12175488343E+03  0.12175488343E+03  0.00000000000E+00 0.  1.
        -24    2    1    2    0    0  0.58871123263E+02 -0.11629059299E+02 -0.58179131689E+02  0.11978013941E+03  0.85798754411E+02 0.  0.
         23    2    1    2    0    0 -0.33306615864E+02  0.10988789603E+03  0.45630705427E+03  0.48056503525E+03  0.97682879614E+02 0.  0.
         11    1    3    3    0    0  0.32806255359E+02  0.35561099158E+02 -0.40345946862E+02  0.62997123682E+02  0.00000000000E+00 0. -1.
        -12    1    3    3    0    0  0.26064867903E+02 -0.47190158456E+02 -0.17833184826E+02  0.56783015727E+02  0.00000000000E+00 0.  1.
        -13    1    4    4    0    0 -0.58259659455E+02  0.11107662802E+03  0.39192376974E+03  0.41150509900E+03  0.00000000000E+00 0. -1.
         13    1    4    4    0    0  0.24953043591E+02 -0.11887319836E+01  0.64383284531E+02  0.69059936252E+02  0.00000000000E+00 0.  1.
         21    1    1    2  502  501 -0.25564507399E+02 -0.98258836734E+02  0.10417470701E+03  0.14546722179E+03  0.00000000000E+00 0. -1.
<scales pt_clust_5="13000.00000" pt_clust_6="13000.00000" pt_clust_7="13000.00000" pt_clust_8="13000.00000" pt_clust_9="101.53001"></scales>
<clustering>
<clus scale="   85.799">  5  6 -1 -1</clus>
<clus scale="   97.683">  7  8 -1 -1</clus>
<clus scale="  101.530">  1  9  2 -1</clus>
<clus scale="  104.676">  2  5  1 -1</clus>
<clus scale="  101.530">  1  5  2 -1</clus>
</clustering>
</event>
<event>
 9    1  0.2374319E-005  0.1470366E+03  0.7546771E-02  0.1206054E+00
         -2   -1    0    0    0  501 -0.00000000000E+00  0.00000000000E+00  0.10255511506E+03  0.10255511506E+03  0.00000000000E+00 0.  1.
          1   -1    0    0  502    0  0.00000000000E+00 -0.00000000000E+00 -0.35352056774E+03  0.35352056774E+03  0.00000000000E+00 0. -1.
        -24    2    1    2    0    0  0.10794609749E+03 -0.35637389677E+02  0.10591914073E+02  0.13844815763E+03  0.78315516993E+02 0.  0.
         23    2    1    2    0    0 -0.12284311930E+03  0.49964021551E+02 -0.22752537916E+03  0.27781107355E+03  0.88455406949E+02 0.  0.
         13    1    3    3    0    0  0.25014449196E+02  0.24607395189E+02  0.75871393366E+01  0.35900017408E+02  0.00000000000E+00 0. -1.
        -14    1    3    3    0    0  0.82931648295E+02 -0.60244784866E+02  0.30047747367E+01  0.10254814023E+03  0.00000000000E+00 0.  1.
        -13    1    4    4    0    0 -0.50974865163E+02  0.23806258994E+02 -0.25453087968E+02  0.61749773544E+02  0.00000000000E+00 0.  1.
         13    1    4    4    0    0 -0.71868254139E+02  0.26157762557E+02 -0.20207229119E+03  0.21606130001E+03  0.00000000000E+00 0. -1.
         21    1    1    2  502  501  0.14897021811E+02 -0.14326631874E+02 -0.34031987599E+02  0.39816451621E+02  0.00000000000E+00 0.  1.
<scales pt_clust_5="13000.00000" pt_clust_6="13000.00000" pt_clust_7="13000.00000" pt_clust_8="13000.00000" pt_clust_9="20.66818"></scales>
<clustering>
<clus scale="   20.668">  2  9  1 -1</clus>
<clus scale="   78.316">  5  6 -1 -1</clus>
<clus scale="   88.455">  7  8 -1 -1</clus>
<clus scale="  141.169">  1  5  2 -1</clus>
<clus scale="   20.668">  2  5  1 -1</clus>
</clustering>
</event>
<event>
 9    1  0.2374319E-005  0.1939394E+03  0.7546771E-02  0.1155949E+00
          1   -1    0    0  502    0  0.00000000000E+00  0.00000000000E+00  0.59778813997E+03  0.59778813997E+03  0.00000000000E+00 0. -1.
         -2   -1    0    0    0  501 -0.00000000000E+00 -0.00000000000E+00 -0.21114851967E+03  0.21114851967E+03  0.00000000000E+00 0.  1.
        -24    2    1    2    0    0  0.14138988452E+03  0.82170760191E+02 -0.92415720656E+02  0.20465972671E+03  0.81251492543E+02 0.  0.
         23    2    1    2    0    0 -0.17084675644E+03 -0.16947137014E+03  0.42672515286E+03  0.49831678765E+03  0.91192682205E+02 0.  0.
         11    1    3    3    0    0  0.25013586109E+02 -0.48383927420E+01 -0.45179808705E+02  0.51868146766E+02  0.00000000000E+00 0. -1.
        -12    1    3    3    0    0  0.11637629841E+03  0.87009152933E+02 -0.47235911951E+02  0.15279157995E+03  0.00000000000E+00 0.  1.
        -13    1    4    4    0    0 -0.11609916276E+03 -0.53601961571E+02  0.23828757674E+03  0.27043142404E+03  0.00000000000E+00 0.  1.
         13    1    4    4    0    0 -0.54747593682E+02 -0.11586940856E+03  0.18843757612E+03  0.22788536361E+03  0.00000000000E+00 0. -1.
         21    1    1    2  502  501  0.29456871925E+02  0.87300609944E+02  0.52330188103E+02  0.10596014528E+03  0.00000000000E+00 0.  1.
<scales pt_clust_5="13000.00000" pt_clust_6="13000.00000" pt_clust_7="13000.00000" pt_clust_8="13000.00000" pt_clust_9="92.13633"></scales>
<clustering>
<clus scale="   81.251">  5  6 -1 -1</clus>
<clus scale="   91.193">  7  8 -1 -1</clus>
<clus scale="   92.136">  1  9  2 -1</clus>
<clus scale="  189.468">  2  5  1 -1</clus>
<clus scale="   92.136">  1  5  2 -1</clus>
</clustering>
</event>
<event>
 9    1  0.2374319E-005  0.1563609E+03  0.7546771E-02  0.1194534E+00
         -2   -1    0    0    0  501 -0.00000000000E+00  0.00000000000E+00  0.65913070311E+03  0.65913070311E+03  0.00000000000E+00 0.  1.
          1   -1    0    0  502    0  0.00000000000E+00 -0.00000000000E+00 -0.88653130604E+02  0.88653130604E+02  0.00000000000E+00 0. -1.
         23    2    1    2    0    0 -0.12317634647E+03 -0.42291765150E+02  0.56233355400E+03  0.58433138696E+03  0.90901804715E+02 0.  0.
        -24    2    1    2    0    0  0.99123764131E+02  0.43128731334E+02 -0.67225525573E+01  0.13516389492E+03  0.80860853913E+02 0.  0.
         13    1    4    4    0    0  0.51149856417E+02  0.24328854911E+02 -0.43869922725E+02  0.71643360562E+02  0.00000000000E+00 0. -1.
        -14    1    4    4    0    0  0.47973907714E+02  0.18799876423E+02  0.37147370168E+02  0.63520534359E+02  0.00000000000E+00 0.  1.
        -11    1    3    3    0    0 -0.10518388996E+03 -0.23647908160E+02  0.53830454280E+03  0.54899422134E+03  0.00000000000E+00 0.  1.
         11    1    3    3    0    0 -0.17992456504E+02 -0.18643856990E+02  0.24029011203E+02  0.35337165618E+02  0.00000000000E+00 0. -1.
         21    1    1    2  502  501  0.24052582338E+02 -0.83696618426E+00  0.14866571056E+02  0.28288551827E+02  0.00000000000E+00 0. -1.
<scales pt_clust_5="13000.00000" pt_clust_6="13000.00000" pt_clust_7="13000.00000" pt_clust_8="13000.00000" pt_clust_9="24.06714"></scales>
<clustering>
<clus scale="   24.067">  2  9  1 -1</clus>
<clus scale="   80.861">  5  6 -1 -1</clus>
<clus scale="   90.902">  7  8 -1 -1</clus>
<clus scale="  150.745">  2  5  1 -1</clus>
<clus scale="   24.067">  2  5  1 -1</clus>
</clustering>
</event>
<event>
 9    1  0.2374319E-005  0.1476254E+03  0.7546771E-02  0.1220016E+00
         -2   -1    0    0    0  501 -0.00000000000E+00  0.00000000000E+00  0.13302926189E+03  0.13302926189E+03  0.00000000000E+00 0.  1.
          1   -1    0    0  502    0  0.00000000000E+00 -0.00000000000E+00 -0.41775253349E+03  0.41775253349E+03  0.00000000000E+00 0. -1.
         23    2    1    2    0    0 -0.13398708390E+02  0.81795438183E+02 -0.30986682989E+02  0.12745089383E+03  0.91725333037E+02 0.  0.
        -24    2    1    2    0    0 -0.28726137987E+02  0.57283898895E+02 -0.25789017855E+03  0.27795271545E+03  0.81509090033E+02 0.  0.
         13    1    4    4    0    0 -0.40818029487E+02  0.67556504063E+02 -0.24533626521E+03  0.25772053818E+03  0.00000000000E+00 0. -1.
        -14    1    4    4    0    0  0.12091891500E+02 -0.10272605168E+02 -0.12553913340E+02  0.20232177271E+02  0.00000000000E+00 0.  1.
        -11    1    3    3    0    0  0.21948325383E+02  0.92459144102E+01  0.20751022715E+02  0.31588302648E+02  0.00000000000E+00 0.  1.
         11    1    3    3    0    0 -0.35347033774E+02  0.72549523773E+02 -0.51737705704E+02  0.95862591180E+02  0.00000000000E+00 0. -1.
         21    1    1    2  502  501  0.42124846377E+02 -0.13907933708E+03  0.41535899356E+01  0.14537818610E+03  0.00000000000E+00 0.  1.
<scales pt_clust_5="13000.00000" pt_clust_6="13000.00000" pt_clust_7="13000.00000" pt_clust_8="13000.00000" pt_clust_9="115.67074"></scales>
<clustering>
<clus scale="   81.509">  5  6 -1 -1</clus>
<clus scale="   91.725">  7  8 -1 -1</clus>
<clus scale="  103.684">  2  5  1 -1</clus>
<clus scale="  115.671">  2  9  1 -1</clus>
<clus scale="  103.684">  2  5  1 -1</clus>
</clustering>
</event>
<event>
 9    1  0.2374319E-005  0.9397564E+02  0.7546771E-02  0.1299490E+00
          1   -1    0    0  502    0  0.00000000000E+00  0.00000000000E+00  0.33788790292E+03  0.33788790292E+03  0.00000000000E+00 0. -1.
         -2   -1    0    0    0  501 -0.00000000000E+00 -0.00000000000E+00 -0.47603347584E+02  0.47603347584E+02  0.00000000000E+00 0.  1.
         23    2    1    2    0    0  0.26527369271E+02 -0.68601893190E+01  0.24911203265E+02  0.97482135452E+02  0.90174470701E+02 0.  0.
        -24    2    1    2    0    0 -0.14764107267E+02  0.26358405466E+02  0.23518985654E+03  0.25019908770E+03  0.79828381323E+02 0.  0.
         11    1    4    4    0    0 -0.16340388934E+02  0.54454813690E+02  0.16779325162E+03  0.17716351298E+03  0.00000000000E+00 0. -1.
        -12    1    4    4    0    0  0.15762816668E+01 -0.28096408224E+02  0.67396604918E+02  0.73035574712E+02  0.00000000000E+00 0.  1.
        -13    1    3    3    0    0  0.37543132786E+01 -0.29755478428E+02 -0.24314698150E+02  0.38609427745E+02  0.00000000000E+00 0.  1.
         13    1    3    3    0    0  0.22773055992E+02  0.22895289109E+02  0.49225901415E+02  0.58872707707E+02  0.00000000000E+00 0. -1.
         21    1    1    2  502  501 -0.11763262004E+02 -0.19498216147E+02  0.30183495531E+02  0.37810027352E+02  0.00000000000E+00 0. -1.
<scales pt_clust_5="13000.00000" pt_clust_6="13000.00000" pt_clust_7="13000.00000" pt_clust_8="13000.00000" pt_clust_9="22.77180"></scales>
<clustering>
<clus scale="   22.772">  1  9  2 -1</clus>
<clus scale="   79.828">  5  6 -1 -1</clus>
<clus scale="   84.098">  1  5  2 -1</clus>
<clus scale="   90.174">  7  8 -1 -1</clus>
<clus scale="   22.772">  1  5  2 -1</clus>
</clustering>
</event>
<event>
 9    1  0.2374319E-005  0.2283767E+03  0.7546771E-02  0.1152473E+00
         -4   -1    0    0    0  501 -0.00000000000E+00  0.00000000000E+00  0.44076916851E+03  0.44076916851E+03  0.00000000000E+00 0.  1.
          3   -1    0    0  502    0  0.00000000000E+00 -0.00000000000E+00 -0.32875571017E+03  0.32875571017E+03  0.00000000000E+00 0. -1.
         23    2    1    2    0    0  0.65346527178E+02  0.60660803934E+02  0.21914810592E+03  0.25274660404E+03  0.88910358081E+02 0.  0.
        -24    2    1    2    0    0 -0.22729838769E+03 -0.16063335938E+03  0.14507191408E+02  0.29090296843E+03  0.83345337280E+02 0.  0.
         13    1    4    4    0    0 -0.20932367605E+03 -0.16952041665E+03  0.68675478568E+01  0.26944523791E+03  0.00000000000E+00 0. -1.
        -14    1    4    4    0    0 -0.17974711639E+02  0.88870572745E+01  0.76396435513E+01  0.21457730520E+02  0.00000000000E+00 0.  1.
        -11    1    3    3    0    0  0.90025769477E+01  0.63055469506E+02  0.15356664682E+03  0.16625207861E+03  0.00000000000E+00 0.  1.
         11    1    3    3    0    0  0.56343950231E+02 -0.23946655721E+01  0.65581459104E+02  0.86494525428E+02  0.00000000000E+00 0. -1.
         21    1    1    2  502  501  0.16195186051E+03  0.99972555446E+02 -0.12164183899E+03  0.22587530622E+03  0.00000000000E+00 0.  1.
<scales pt_clust_5="13000.00000" pt_clust_6="13000.00000" pt_clust_7="13000.00000" pt_clust_8="13000.00000" pt_clust_9="212.62518"></scales>
<clustering>
<clus scale="   83.345">  5  6 -1 -1</clus>
<clus scale="   88.910">  7  8 -1 -1</clus>
<clus scale="  125.916">  1  7  2 -1</clus>
<clus scale="  212.625">  2  9  1 -1</clus>
<clus scale="  212.625">  2  5  1 -1</clus>
</clustering>
</event>
<event>
 9    1  0.2794050E-005  0.1253363E+03  0.7546771E-02  0.1237190E+00
          1   -1    0    0  502    0  0.00000000000E+00  0.00000000000E+00  0.15147232462E+03  0.15147232462E+03  0.00000000000E+00 0. -1.
         -2   -1    0    0    0  501 -0.00000000000E+00 -0.00000000000E+00 -0.14038706789E+04  0.14038706789E+04  0.00000000000E+00 0.  1.
        -24    2    1    2    0    0  0.80997147770E+02 -0.30887063493E+02 -0.13540052861E+04  0.13591887851E+04  0.80927683695E+02 0.  0.
         23    2    1    2    0    0 -0.83523978830E+02  0.54681918760E+02  0.10658016313E+03  0.17171422989E+03  0.90333151695E+02 0.  0.
         13    1    3    3    0    0  0.35382042993E+02  0.16230706196E+02 -0.22991641014E+03  0.23318850838E+03  0.00000000000E+00 0. -1.
        -14    1    3    3    0    0  0.45615104776E+02 -0.47117769689E+02 -0.11240888760E+04  0.11260002767E+04  0.00000000000E+00 0.  1.
        -11    1    4    4    0    0 -0.61918620627E+02  0.21427760107E+02  0.86884722216E+01  0.66095037885E+02  0.00000000000E+00 0.  1.
         11    1    4    4    0    0 -0.21605358204E+02  0.33254158652E+02  0.97891690910E+02  0.10561919201E+03  0.00000000000E+00 0. -1.
         21    1    1    2  502  501  0.25268310609E+01 -0.23794855266E+02 -0.49732313345E+01  0.24439988589E+02  0.00000000000E+00 0. -1.
<scales pt_clust_5="13000.00000" pt_clust_6="13000.00000" pt_clust_7="13000.00000" pt_clust_8="13000.00000" pt_clust_9="23.92864"></scales>
<clustering>
<clus scale="   23.929">  1  9  2 -1</clus>
<clus scale="   80.928">  5  6 -1 -1</clus>
<clus scale="   90.333">  7  8 -1 -1</clus>
<clus scale="  118.737">  2  5  1 -1</clus>
<clus scale="   23.929">  1  5  2 -1</clus>
</clustering>
</event>
<event>
 9    1  0.2374319E-005  0.1046205E+03  0.7546771E-02  0.1276836E+00
          1   -1    0    0  502    0  0.00000000000E+00  0.00000000000E+00  0.33371582544E+03  0.33371582544E+03  0.00000000000E+00 0. -1.
         -2   -1    0    0    0  501 -0.00000000000E+00 -0.00000000000E+00 -0.18613804720E+03  0.18613804720E+03  0.00000000000E+00 0.  1.
        -24    2    1    2    0    0  0.89963798270E+01 -0.44391224378E+02 -0.15318993774E+03  0.17935206337E+03  0.81538272984E+02 0.  0.
         23    2    1    2    0    0  0.34998213652E+02  0.52374778243E+02  0.19338777329E+03  0.22418451271E+03  0.94296725949E+02 0.  0.
         13    1    3    3    0    0  0.40069913473E+02 -0.45123420019E+02 -0.83299310743E+02  0.10286153883E+03  0.00000000000E+00 0. -1.
        -14    1    3    3    0    0 -0.31073533646E+02  0.73219564078E+00 -0.69890626994E+02  0.76490524546E+02  0.00000000000E+00 0.  1.
        -13    1    4    4    0    0 -0.30376475802E+02  0.10398128905E+02  0.33392575568E+02  0.46324026918E+02  0.00000000000E+00 0.  1.
         13    1    4    4    0    0  0.65374689454E+02  0.41976649339E+02  0.15999519772E+03  0.17786048579E+03  0.00000000000E+00 0. -1.
         21    1    1    2  502  501 -0.43994593479E+02 -0.79835538656E+01  0.10737994269E+03  0.11631729656E+03  0.00000000000E+00 0.  1.
<scales pt_clust_5="13000.00000" pt_clust_6="13000.00000" pt_clust_7="13000.00000" pt_clust_8="13000.00000" pt_clust_9="44.71310"></scales>
<clustering>
<clus scale="   44.713">  1  9  2 -1</clus>
<clus scale="   81.538">  5  6 -1 -1</clus>
<clus scale="   93.285">  2  5  1 -1</clus>
<clus scale="   94.297">  7  8 -1 -1</clus>
<clus scale="   44.713">  1  5  2 -1</clus>
</clustering>
</event>
<event>
 9    1  0.2374319E-005  0.1547922E+03  0.7546771E-02  0.1197298E+00
          1   -1    0    0  502    0  0.00000000000E+00  0.00000000000E+00  0.11381737559E+03  0.11381737559E+03  0.00000000000E+00 0. -1.
         -2   -1    0    0    0  501 -0.00000000000E+00 -0.00000000000E+00 -0.38351089923E+03  0.38351089923E+03  0.00000000000E+00 0.  1.
        -24    2    1    2    0    0 -0.98407858717E+01 -0.12778417389E+03 -0.25672880224E+03  0.29773665959E+03  0.79446865278E+02 0.  0.
         23    2    1    2    0    0 -0.35052727043E+02  0.10428551437E+03  0.72323298067E+01  0.14504314707E+03  0.94239300378E+02 0.  0.
         13    1    3    3    0    0 -0.38626394681E+02 -0.40587117294E+02 -0.12687455766E+03  0.13869558695E+03  0.00000000000E+00 0. -1.
        -14    1    3    3    0    0  0.28785608809E+02 -0.87197056599E+02 -0.12985424457E+03  0.15904107264E+03  0.00000000000E+00 0.  1.
        -11    1    4    4    0    0  0.12263428789E+02  0.51321054138E+02 -0.34142537429E+02  0.62848668607E+02  0.00000000000E+00 0.  1.
         11    1    4    4    0    0 -0.47316155832E+02  0.52964460234E+02  0.41374867236E+02  0.82194478461E+02  0.00000000000E+00 0. -1.
         21    1    1    2  502  501  0.44893512915E+02  0.23498659520E+02 -0.20197051204E+02  0.54548468158E+02  0.00000000000E+00 0.  1.
<scales pt_clust_5="13000.00000" pt_clust_6="13000.00000" pt_clust_7="13000.00000" pt_clust_8="13000.00000" pt_clust_9="50.67163"></scales>
<clustering>
<clus scale="   50.672">  1  9  2 -1</clus>
<clus scale="   79.447">  5  6 -1 -1</clus>
<clus scale="   94.239">  7  8 -1 -1</clus>
<clus scale="  146.258">  2  5  1 -1</clus>
<clus scale="   50.672">  1  5  2 -1</clus>
</clustering>
</event>
<event>
 9    1  0.2374319E-005  0.9860241E+02  0.7546771E-02  0.1288969E+00
          1   -1    0    0  502    0  0.00000000000E+00  0.00000000000E+00  0.52400948694E+03  0.52400948694E+03  0.00000000000E+00 0. -1.
         -2   -1    0    0    0  501 -0.00000000000E+00 -0.00000000000E+00 -0.62558565359E+02  0.62558565359E+02  0.00000000000E+00 0.  1.
        -24    2    1    2    0    0  0.25268547873E+02 -0.29231416947E+02 -0.19574983702E+02  0.91534190426E+02  0.80637167495E+02 0.  0.
         23    2    1    2    0    0 -0.11057947753E+02  0.11761493607E+02  0.35280165534E+03  0.36484708201E+03  0.91562952668E+02 0.  0.
         11    1    3    3    0    0 -0.39055561830E+01  0.23645600298E+02 -0.19886246923E+02  0.31142103321E+02  0.00000000000E+00 0. -1.
        -12    1    3    3    0    0  0.29174104056E+02 -0.52877017245E+02  0.31126322072E+00  0.60392087105E+02  0.00000000000E+00 0.  1.
        -13    1    4    4    0    0  0.36633608974E+02 -0.10373207569E+02  0.10953953394E+03  0.11596781552E+03  0.00000000000E+00 0.  1.
         13    1    4    4    0    0 -0.47691556726E+02  0.22134701175E+02  0.24326212140E+03  0.24887926649E+03  0.00000000000E+00 0. -1.
         21    1    1    2  502  501 -0.14210600120E+02  0.17469923340E+02  0.12822424994E+03  0.13018677986E+03  0.00000000000E+00 0.  1.
<scales pt_clust_5="13000.00000" pt_clust_6="13000.00000" pt_clust_7="13000.00000" pt_clust_8="13000.00000" pt_clust_9="22.51976"></scales>
<clustering>
<clus scale="   22.520">  1  9  2 -1</clus>
<clus scale="   80.637">  5  6 -1 -1</clus>
<clus scale="   88.550">  2  5  1 -1</clus>
<clus scale="   91.563">  7  8 -1 -1</clus>
<clus scale="   22.520">  1  5  2 -1</clus>
</clustering>
</event>
<event>
 9    1  0.2374319E-005  0.1216194E+03  0.7546771E-02  0.1243214E+00
          1   -1    0    0  502    0  0.00000000000E+00  0.00000000000E+00  0.89252410374E+02  0.89252410374E+02  0.00000000000E+00 0. -1.
         -2   -1    0    0    0  501 -0.00000000000E+00 -0.00000000000E+00 -0.43059025018E+03  0.43059025018E+03  0.00000000000E+00 0.  1.
        -24    2    1    2    0    0 -0.78281640124E+02 -0.34337444154E+02 -0.34920196746E+03  0.36925812233E+03  0.84276162563E+02 0.  0.
         23    2    1    2    0    0  0.44751946486E+02  0.41660305087E+01 -0.55163110962E+01  0.10353572636E+03  0.93108132943E+02 0.  0.
         11    1    3    3    0    0 -0.11448780963E+02 -0.23999241987E+02 -0.20240896862E+02  0.33417541909E+02  0.00000000000E+00 0. -1.
        -12    1    3    3    0    0 -0.66832859160E+02 -0.10338202167E+02 -0.32896107059E+03  0.33584058042E+03  0.00000000000E+00 0.  1.
        -13    1    4    4    0    0  0.34868196982E+02  0.29551532788E+02 -0.39200565208E+02  0.60214355128E+02  0.00000000000E+00 0. -1.
         13    1    4    4    0    0  0.98837495041E+01 -0.25385502280E+02  0.33684254112E+02  0.43321371231E+02  0.00000000000E+00 0.  1.
         21    1    1    2  502  501  0.33529693638E+02  0.30171413645E+02  0.13380438750E+02  0.47048811865E+02  0.00000000000E+00 0. -1.
<scales pt_clust_5="13000.00000" pt_clust_6="13000.00000" pt_clust_7="13000.00000" pt_clust_8="13000.00000" pt_clust_9="45.10604"></scales>
<clustering>
<clus scale="   45.106">  1  9  2 -1</clus>
<clus scale="   84.276">  5  6 -1 -1</clus>
<clus scale="   93.108">  7  8 -1 -1</clus>
<clus scale="  114.998">  2  5  1 -1</clus>
<clus scale="   45.106">  1  5  2 -1</clus>
</clustering>
</event>
<event>
 9    1  0.2374319E-005  0.1149031E+03  0.7546771E-02  0.1256078E+00
          1   -1    0    0  502    0  0.00000000000E+00  0.00000000000E+00  0.11561785243E+03  0.11561785243E+03  0.00000000000E+00 0. -1.
         -2   -1    0    0    0  501 -0.00000000000E+00 -0.00000000000E+00 -0.14897806015E+03  0.14897806015E+03  0.00000000000E+00 0.  1.
         23    2    1    2    0    0  0.78732056697E+02 -0.29230217576E+02 -0.20265691251E+02  0.12585338735E+03  0.91516307262E+02 0.  0.
        -24    2    1    2    0    0 -0.61771063212E+02 -0.22459441494E+01  0.30888213452E+00  0.10055777499E+03  0.79316216423E+02 0.  0.
         13    1    4    4    0    0  0.78476038895E+01 -0.24095850987E+02  0.93954915523E+01  0.27027211901E+02  0.00000000000E+00 0. -1.
        -14    1    4    4    0    0 -0.69618667101E+02  0.21849906838E+02 -0.90866094178E+01  0.73530563091E+02  0.00000000000E+00 0.  1.
        -13    1    3    3    0    0  0.31137375775E+01  0.24707987372E+02  0.11843091194E+02  0.27576055024E+02  0.00000000000E+00 0. -1.
         13    1    3    3    0    0  0.75618319120E+02 -0.53938204948E+02 -0.32108782444E+02  0.98277332328E+02  0.00000000000E+00 0.  1.
         21    1    1    2  502  501 -0.16960993486E+02  0.31476161725E+02 -0.13403398604E+02  0.38184750243E+02  0.00000000000E+00 0.  1.
<scales pt_clust_5="13000.00000" pt_clust_6="13000.00000" pt_clust_7="13000.00000" pt_clust_8="13000.00000" pt_clust_9="35.75506"></scales>
<clustering>
<clus scale="   35.755">  2  9  1 -1</clus>
<clus scale="   79.316">  5  6 -1 -1</clus>
<clus scale="   91.516">  7  8 -1 -1</clus>
<clus scale="  105.445">  1  5  2 -1</clus>
<clus scale="  105.445">  1  5  2 -1</clus>
</clustering>
</event>
<event>
 9    1  0.2374319E-005  0.1053690E+03  0.7546771E-02  0.1274366E+00
         -2   -1    0    0    0  501 -0.00000000000E+00  0.00000000000E+00  0.12163261956E+03  0.12163261956E+03  0.00000000000E+00 0.  1.
          1   -1    0    0  502    0  0.00000000000E+00 -0.00000000000E+00 -0.23674452484E+03  0.23674452484E+03  0.00000000000E+00 0. -1.
         23    2    1    2    0    0  0.50827586823E+02  0.14923538158E+02  0.63959393664E+02  0.12393514701E+03  0.91994353371E+02 0.  0.
        -24    2    1    2    0    0 -0.50746715497E+02  0.31854239498E+02 -0.14543836040E+03  0.17682827006E+03  0.80783653723E+02 0.  0.
         11    1    4    4    0    0 -0.65650215496E+02  0.43237998928E+02 -0.96792734720E+02  0.12469285802E+03  0.00000000000E+00 0. -1.
        -12    1    4    4    0    0  0.14903499999E+02 -0.11383759430E+02 -0.48645625684E+02  0.52135412046E+02  0.00000000000E+00 0.  1.
        -13    1    3    3    0    0  0.62113419388E+02  0.42417317646E+02  0.37060071015E+02  0.83849594918E+02  0.00000000000E+00 0.  1.
         13    1    3    3    0    0 -0.11285832565E+02 -0.27493779487E+02  0.26899322649E+02  0.40085552088E+02  0.00000000000E+00 0. -1.
         21    1    1    2  502  501 -0.80871326654E-01 -0.46777777657E+02 -0.33632938531E+02  0.57613727330E+02  0.00000000000E+00 0. -1.
<scales pt_clust_5="13000.00000" pt_clust_6="13000.00000" pt_clust_7="13000.00000" pt_clust_8="13000.00000" pt_clust_9="46.77785"></scales>
<clustering>
<clus scale="   46.778">  2  9  1 -1</clus>
<clus scale="   80.784">  5  6 -1 -1</clus>
<clus scale="   91.994">  7  8 -1 -1</clus>
<clus scale="   95.737">  2  5  1 -1</clus>
<clus scale="   46.778">  2  5  1 -1</clus>
</clustering>
</event>
<event>
 9    1  0.2374319E-005  0.1204621E+03  0.7546771E-02  0.1243881E+00
          1   -1    0    0  502    0  0.00000000000E+00  0.00000000000E+00  0.19037158483E+03  0.19037158483E+03  0.00000000000E+00 0. -1.
         -2   -1    0    0    0  501 -0.00000000000E+00 -0.00000000000E+00 -0.20117011985E+03  0.20117011985E+03  0.00000000000E+00 0.  1.
         23    2    1    2    0    0  0.79612297579E+02  0.12140571806E+02 -0.14704002072E+03  0.18915369730E+03  0.87594760675E+02 0.  0.
        -24    2    1    2    0    0 -0.94228625123E+02 -0.27770147717E+02  0.11544407845E+03  0.17254755125E+03  0.82432440798E+02 0.  0.
         13    1    4    4    0    0 -0.96034303747E+01 -0.27820604221E+02  0.71224078722E+02  0.77065435079E+02  0.00000000000E+00 0. -1.
        -14    1    4    4    0    0 -0.84625194748E+02  0.50456504209E-01  0.44219999725E+02  0.95482116167E+02  0.00000000000E+00 0.  1.
        -13    1    3    3    0    0  0.36227722736E+01 -0.24377331453E+02 -0.68740283533E+01  0.25585758412E+02  0.00000000000E+00 0. -1.
         13    1    3    3    0    0  0.75989525305E+02  0.36517903258E+02 -0.14016599237E+03  0.16356793888E+03  0.00000000000E+00 0.  1.
         21    1    1    2  502  501  0.14616327544E+02  0.15629575912E+02  0.20797407250E+02  0.29840456136E+02  0.00000000000E+00 0.  1.
<scales pt_clust_5="13000.00000" pt_clust_6="13000.00000" pt_clust_7="13000.00000" pt_clust_8="13000.00000" pt_clust_9="21.39908"></scales>
<clustering>
<clus scale="   21.399">  1  9  2 -1</clus>
<clus scale="   82.432">  5  6 -1 -1</clus>
<clus scale="   87.595">  7  8 -1 -1</clus>
<clus scale="  116.762">  1  5  2 -1</clus>
<clus scale="   21.399">  1  5  2 -1</clus>
</clustering>
</event>
<event>
 9    1  0.2374319E-005  0.2137149E+03  0.7546771E-02  0.1139089E+00
         -2   -1    0    0    0  501 -0.00000000000E+00  0.00000000000E+00  0.15536403019E+03  0.15536403019E+03  0.00000000000E+00 0.  1.
          1   -1    0    0  502    0  0.00000000000E+00 -0.00000000000E+00 -0.66906865229E+03  0.66906865229E+03  0.00000000000E+00 0. -1.
        -24    2    1    2    0    0 -0.21243066578E+03 -0.14040758548E+02  0.49041515139E+01  0.22946750951E+03  0.85483077571E+02 0.  0.
         23    2    1    2    0    0  0.18960556249E+03  0.13779611986E+02 -0.52935008626E+03  0.56973762187E+03  0.90825640223E+02 0.  0.
         11    1    3    3    0    0 -0.93663811023E+02 -0.39451307463E+02 -0.24413613938E+02  0.10452434980E+03  0.00000000000E+00 0. -1.
        -12    1    3    3    0    0 -0.11876685476E+03  0.25410548916E+02  0.29317765452E+02  0.12494315970E+03  0.00000000000E+00 0.  1.
        -13    1    4    4    0    0  0.12199348792E+03  0.37973776386E+02 -0.24325555737E+03  0.27476842064E+03  0.00000000000E+00 0.  1.
         13    1    4    4    0    0  0.67612074576E+02 -0.24194164400E+02 -0.28609452888E+03  0.29496920123E+03  0.00000000000E+00 0. -1.
         21    1    1    2  502  501  0.22825103289E+02  0.26114656141E+00  0.10741312639E+02  0.25227551108E+02  0.00000000000E+00 0. -1.
<scales pt_clust_5="13000.00000" pt_clust_6="13000.00000" pt_clust_7="13000.00000" pt_clust_8="13000.00000" pt_clust_9="22.82660"></scales>
<clustering>
<clus scale="   22.827">  1  9  2 -1</clus>
<clus scale="   85.483">  5  6 -1 -1</clus>
<clus scale="   90.826">  7  8 -1 -1</clus>
<clus scale="  211.500">  1  5  2 -1</clus>
<clus scale="  213.715">  2  5  1 -1</clus>
</clustering>
</event>
<event>
 9    1  0.2374319E-005  0.1825236E+03  0.7546771E-02  0.1192291E+00
         -2   -1    0    0    0  501 -0.00000000000E+00  0.00000000000E+00  0.15596608023E+03  0.15596608023E+03  0.00000000000E+00 0.  1.
          1   -1    0    0  502    0  0.00000000000E+00 -0.00000000000E+00 -0.42694348317E+03  0.42694348317E+03  0.00000000000E+00 0. -1.
        -24    2    1    2    0    0  0.74593690332E+02  0.13942909985E+03  0.53824992653E+01  0.17754009097E+03  0.80540797620E+02 0.  0.
         23    2    1    2    0    0  0.38608194251E+02 -0.46684249315E+01 -0.17748606381E+03  0.20350035122E+03  0.91644439247E+02 0.  0.
         13    1    3    3    0    0  0.65822377466E+02  0.68889235702E+02  0.33642818326E+02  0.10104529378E+03  0.00000000000E+00 0. -1.
        -14    1    3    3    0    0  0.87713128660E+01  0.70539864146E+02 -0.28260319060E+02  0.76494797186E+02  0.00000000000E+00 0.  1.
        -13    1    4    4    0    0  0.64953325630E+02 -0.37597316363E+01 -0.15753231221E+03  0.17043913718E+03  0.00000000000E+00 0.  1.
         13    1    4    4    0    0 -0.26345131379E+02 -0.90869329515E+00 -0.19953751600E+02  0.33061214040E+02  0.00000000000E+00 0. -1.
         21    1    1    2  502  501 -0.11320188458E+03 -0.13476067492E+03 -0.98873838398E+02  0.20186912121E+03  0.00000000000E+00 0. -1.
<scales pt_clust_5="13000.00000" pt_clust_6="13000.00000" pt_clust_7="13000.00000" pt_clust_8="13000.00000" pt_clust_9="163.79272"></scales>
<clustering>
<clus scale="   80.541">  5  6 -1 -1</clus>
<clus scale="   91.644">  7  8 -1 -1</clus>
<clus scale="   99.554">  2  7  1 -1</clus>
<clus scale="  163.793">  2  9  1 -1</clus>
<clus scale="   99.554">  2  5  1 -1</clus>
</clustering>
</event>
<event>
 9    1  0.2374319E-005  0.1767384E+03  0.7546771E-02  0.1199356E+00
          1   -1    0    0  502    0  0.00000000000E+00  0.00000000000E+00  0.28287521224E+03  0.28287521224E+03  0.00000000000E+00 0. -1.
         -2   -1    0    0    0  501 -0.00000000000E+00 -0.00000000000E+00 -0.28737175530E+03  0.28737175530E+03  0.00000000000E+00 0.  1.
         23    2    1    2    0    0  0.20134247251E+02 -0.15592362973E+02 -0.12934333666E+03  0.15986551495E+03  0.90436576879E+02 0.  0.
        -24    2    1    2    0    0  0.60502096787E+02  0.14866199454E+03 -0.38802697839E+02  0.18456979904E+03  0.82458892926E+02 0.  0.
         11    1    4    4    0    0 -0.56972058992E+01  0.26988280009E+02 -0.36862212426E+02  0.46039636378E+02  0.00000000000E+00 0. -1.
        -12    1    4    4    0    0  0.66199302686E+02  0.12167371453E+03 -0.19404854134E+01  0.13853016267E+03  0.00000000000E+00 0.  1.
        -11    1    3    3    0    0  0.33145013215E+02 -0.44673194308E+02 -0.10810364965E+03  0.12157584159E+03  0.00000000000E+00 0. -1.
         11    1    3    3    0    0 -0.13010765964E+02  0.29080831334E+02 -0.21239687014E+02  0.38289673366E+02  0.00000000000E+00 0.  1.
         21    1    1    2  502  501 -0.80636344038E+02 -0.13306963157E+03  0.16364949145E+03  0.22581165354E+03  0.00000000000E+00 0. -1.
<scales pt_clust_5="13000.00000" pt_clust_6="13000.00000" pt_clust_7="13000.00000" pt_clust_8="13000.00000" pt_clust_9="156.32335"></scales>
<clustering>
<clus scale="   82.459">  5  6 -1 -1</clus>
<clus scale="   90.437">  7  8 -1 -1</clus>
<clus scale="   93.954">  2  7  1 -1</clus>
<clus scale="  156.323">  1  9  2 -1</clus>
<clus scale="  156.323">  1  5  2 -1</clus>
</clustering>
</event>
<event>
 9    1  0.2374319E-005  0.1480143E+03  0.7546771E-02  0.1205265E+00
         -2   -1    0    0    0  501 -0.00000000000E+00  0.00000000000E+00  0.10199955587E+03  0.10199955587E+03  0.00000000000E+00 0.  1.
          1   -1    0    0  502    0  0.00000000000E+00 -0.00000000000E+00 -0.10705698974E+04  0.10705698974E+04  0.00000000000E+00 0. -1.
         23    2    1    2    0    0 -0.39235957853E+02  0.10942347191E+03  0.36799574988E+02  0.15304806546E+03  0.92501594738E+02 0.  0.
        -24    2    1    2    0    0  0.66246923820E+01 -0.10998831460E+03 -0.78762683598E+03  0.79934903986E+03  0.80383697813E+02 0.  0.
         13    1    4    4    0    0  0.56536069433E+00 -0.94485203713E+02 -0.38667752874E+03  0.39805437390E+03  0.00000000000E+00 0. -1.
        -14    1    4    4    0    0  0.60593316877E+01 -0.15503110883E+02 -0.40094930724E+03  0.40129466596E+03  0.00000000000E+00 0.  1.
        -11    1    3    3    0    0  0.27602346584E+02  0.45844889113E+02 -0.57703124906E+00  0.53516131771E+02  0.00000000000E+00 0. -1.
         11    1    3    3    0    0 -0.66838304437E+02  0.63578582795E+02  0.37376606237E+02  0.99531933689E+02  0.00000000000E+00 0.  1.
         21    1    1    2  502  501  0.32611265471E+02  0.56484268827E+00 -0.21774308056E+03  0.22017234798E+03  0.00000000000E+00 0.  1.
<scales pt_clust_5="13000.00000" pt_clust_6="13000.00000" pt_clust_7="13000.00000" pt_clust_8="13000.00000" pt_clust_9="32.61616"></scales>
<clustering>
<clus scale="   32.616">  2  9  1 -1</clus>
<clus scale="   80.384">  5  6 -1 -1</clus>
<clus scale="   92.502">  7  8 -1 -1</clus>
<clus scale="  140.759">  2  5  1 -1</clus>
<clus scale="   32.616">  2  5  1 -1</clus>
</clustering>
</event>
<event>
 9    1  0.2374319E-005  0.2426149E+03  0.7546771E-02  0.1118763E+00
          1   -1    0    0  502    0  0.00000000000E+00  0.00000000000E+00  0.16767239620E+03  0.16767239620E+03  0.00000000000E+00 0. -1.
         -2   -1    0    0    0  501 -0.00000000000E+00 -0.00000000000E+00 -0.13248271951E+04  0.13248271951E+04  0.00000000000E+00 0.  1.
        -24    2    1    2    0    0  0.40664402129E+02 -0.22282417679E+03 -0.12102016494E+04  0.12338472247E+04  0.80540263810E+02 0.  0.
         23    2    1    2    0    0 -0.33402131329E+02  0.19522248857E+03  0.64609049209E+02  0.22785824043E+03  0.92290444102E+02 0.  0.
         11    1    3    3    0    0  0.46976563719E+02 -0.13701139096E+03 -0.58063861380E+03  0.59843138172E+03  0.00000000000E+00 0. -1.
        -12    1    3    3    0    0 -0.63121615897E+01 -0.85812785829E+02 -0.62956303564E+03  0.63541584293E+03  0.00000000000E+00 0.  1.
        -13    1    4    4    0    0 -0.60202773399E+02  0.17187081868E+03  0.61333951220E+02  0.19216088522E+03  0.00000000000E+00 0. -1.
         13    1    4    4    0    0  0.26800642070E+02  0.23351669896E+02  0.32750979892E+01  0.35697355212E+02  0.00000000000E+00 0.  1.
         21    1    1    2  502  501 -0.72622708000E+01  0.27601688221E+02 -0.11562198620E+02  0.30794126173E+02  0.00000000000E+00 0.  1.
<scales pt_clust_5="13000.00000" pt_clust_6="13000.00000" pt_clust_7="13000.00000" pt_clust_8="13000.00000" pt_clust_9="28.54109"></scales>
<clustering>
<clus scale="   28.541">  1  9  2 -1</clus>
<clus scale="   80.540">  5  6 -1 -1</clus>
<clus scale="   92.290">  7  8 -1 -1</clus>
<clus scale="  238.393">  2  5  1 -1</clus>
<clus scale="   28.541">  1  5  2 -1</clus>
</clustering>
</event>
<event>
 9    1  0.2374319E-005  0.1091326E+03  0.7546771E-02  0.1270028E+00
          3   -1    0    0  502    0  0.00000000000E+00  0.00000000000E+00  0.67640309699E+02  0.67640309699E+02  0.00000000000E+00 0. -1.
         -4   -1    0    0    0  501 -0.00000000000E+00 -0.00000000000E+00 -0.63977689875E+03  0.63977689875E+03  0.00000000000E+00 0.  1.
        -24    2    1    2    0    0 -0.17311037688E+02 -0.39999047452E+02 -0.47519131467E+03  0.48386804466E+03  0.80136778553E+02 0.  0.
         23    2    1    2    0    0  0.14454053067E+02  0.79452921670E+02 -0.12262201089E+03  0.17638916645E+03  0.97751184516E+02 0.  0.
         11    1    3    3    0    0 -0.45229711865E+02 -0.54719450439E+01 -0.20049357528E+03  0.20560482180E+03  0.00000000000E+00 0. -1.
        -12    1    3    3    0    0  0.27918674177E+02 -0.34527102408E+02 -0.27469773939E+03  0.27826322286E+03  0.00000000000E+00 0.  1.
        -11    1    4    4    0    0 -0.26339900033E+02 -0.53949132741E+01 -0.79826593023E+01  0.28046715896E+02  0.00000000000E+00 0.  1.
         11    1    4    4    0    0  0.40793953100E+02  0.84847834944E+02 -0.11463935158E+03  0.14834245055E+03  0.00000000000E+00 0. -1.
         21    1    1    2  502  501  0.28569846208E+01 -0.39453874218E+02  0.25676736507E+02  0.47159997345E+02  0.00000000000E+00 0.  1.
<scales pt_clust_5="13000.00000" pt_clust_6="13000.00000" pt_clust_7="13000.00000" pt_clust_8="13000.00000" pt_clust_9="39.55718"></scales>
<clustering>
<clus scale="   39.557">  1  9  2 -1</clus>
<clus scale="   80.137">  5  6 -1 -1</clus>
<clus scale="   93.683">  2  5  1 -1</clus>
<clus scale="   97.751">  7  8 -1 -1</clus>
<clus scale="   39.557">  1  5  2 -1</clus>
</clustering>
</event>
<event>
 9    1  0.2374319E-005  0.1074403E+03  0.7546771E-02  0.1270126E+00
         -2   -1    0    0    0  501 -0.00000000000E+00  0.00000000000E+00  0.63691703017E+02  0.63691703017E+02  0.00000000000E+00 0.  1.
          1   -1    0    0  502    0  0.00000000000E+00 -0.00000000000E+00 -0.73964465970E+03  0.73964465970E+03  0.00000000000E+00 0. -1.
         23    2    1    2    0    0  0.52122617331E+02  0.48420832286E+01 -0.10525611762E+02  0.10622125435E+03  0.91825668336E+02 0.  0.
        -24    2    1    2    0    0 -0.77349195920E+02 -0.68884746306E+02 -0.51875383769E+03  0.53509362620E+03  0.80570703703E+02 0.  0.
         13    1    4    4    0    0 -0.86082058813E+02 -0.40176938243E+02 -0.45246063716E+03  0.46232557294E+03  0.00000000000E+00 0. -1.
        -14    1    4    4    0    0  0.87328628934E+01 -0.28707808063E+02 -0.66293200531E+02  0.72768053257E+02  0.00000000000E+00 0.  1.
        -11    1    3    3    0    0  0.72976552714E+02 -0.69711299326E+01  0.10849016669E+02  0.74107186299E+02  0.00000000000E+00 0.  1.
         11    1    3    3    0    0 -0.20853935383E+02  0.11813213161E+02 -0.21374628432E+02  0.32114068050E+02  0.00000000000E+00 0. -1.
         21    1    1    2  502  501  0.25226578589E+02  0.64042663078E+02 -0.14667350723E+03  0.16202148217E+03  0.00000000000E+00 0. -1.
<scales pt_clust_5="13000.00000" pt_clust_6="13000.00000" pt_clust_7="13000.00000" pt_clust_8="13000.00000" pt_clust_9="68.83199"></scales>
<clustering>
<clus scale="   68.832">  2  9  1 -1</clus>
<clus scale="   80.571">  5  6 -1 -1</clus>
<clus scale="   91.826">  7  8 -1 -1</clus>
<clus scale="   97.995">  2  5  1 -1</clus>
<clus scale="   68.832">  2  5  1 -1</clus>
</clustering>
</event>
<event>
 9    1  0.2374319E-005  0.1398291E+03  0.7546771E-02  0.1216468E+00
          1   -1    0    0  502    0  0.00000000000E+00  0.00000000000E+00  0.35677280482E+03  0.35677280482E+03  0.00000000000E+00 0. -1.
         -2   -1    0    0    0  501 -0.00000000000E+00 -0.00000000000E+00 -0.11526325752E+03  0.11526325752E+03  0.00000000000E+00 0.  1.
         23    2    1    2    0    0 -0.24686628098E+02 -0.10639574795E+03 -0.37284298672E+02  0.14884671924E+03  0.93998628243E+02 0.  0.
        -24    2    1    2    0    0  0.49182505724E+02  0.72918811727E+02  0.18085429864E+03  0.21682718719E+03  0.81053561259E+02 0.  0.
         11    1    4    4    0    0  0.71818389393E+02  0.54186555735E+02  0.14226958620E+03  0.16832913900E+03  0.00000000000E+00 0. -1.
        -12    1    4    4    0    0 -0.22635883670E+02  0.18732255992E+02  0.38584712439E+02  0.48498048188E+02  0.00000000000E+00 0.  1.
        -11    1    3    3    0    0  0.29969480642E+02 -0.69934538128E+02 -0.33213810417E+02  0.83019073685E+02  0.00000000000E+00 0. -1.
         11    1    3    3    0    0 -0.54656108740E+02 -0.36461209824E+02 -0.40704882553E+01  0.65827645553E+02  0.00000000000E+00 0.  1.
         21    1    1    2  502  501 -0.24495877626E+02  0.33476936225E+02  0.97939547328E+02  0.10636215591E+03  0.00000000000E+00 0. -1.
<scales pt_clust_5="13000.00000" pt_clust_6="13000.00000" pt_clust_7="13000.00000" pt_clust_8="13000.00000" pt_clust_9="41.48196"></scales>
<clustering>
<clus scale="   41.482">  1  9  2 -1</clus>
<clus scale="   81.054">  5  6 -1 -1</clus>
<clus scale="   93.999">  7  8 -1 -1</clus>
<clus scale="  131.477">  1  5  2 -1</clus>
<clus scale="   41.482">  1  5  2 -1</clus>
</clustering>
</event>
<event>
 9    1  0.2374319E-005  0.9423843E+02  0.7546771E-02  0.1299140E+00
          3   -1    0    0  502    0  0.00000000000E+00  0.00000000000E+00  0.31659685179E+02  0.31659685179E+02  0.00000000000E+00 0. -1.
         -4   -1    0    0    0  501 -0.00000000000E+00 -0.00000000000E+00 -0.43176655970E+03  0.43176655970E+03  0.00000000000E+00 0.  1.
         23    2    1    2    0    0  0.21722033621E+02  0.17915388031E+02 -0.28914260597E+03  0.30479742583E+03  0.92223729780E+02 0.  0.
        -24    2    1    2    0    0 -0.32985296872E+01  0.66314236423E+01 -0.72818182242E+02  0.10966867851E+03  0.81669304537E+02 0.  0.
         11    1    4    4    0    0 -0.31404531522E+02  0.30717823142E+02 -0.30683824489E+02  0.53584758504E+02  0.00000000000E+00 0. -1.
        -12    1    4    4    0    0  0.28106001835E+02 -0.24086399500E+02 -0.42134357753E+02  0.56083920006E+02  0.00000000000E+00 0.  1.
        -13    1    3    3    0    0  0.52833355802E+02 -0.91913637214E+01 -0.13594545624E+03  0.14614038362E+03  0.00000000000E+00 0.  1.
         13    1    3    3    0    0 -0.31111322181E+02  0.27106751752E+02 -0.15319714973E+03  0.15865704221E+03  0.00000000000E+00 0. -1.
         21    1    1    2  502  501 -0.18423503934E+02 -0.24546811673E+02 -0.38146086312E+02  0.48960140537E+02  0.00000000000E+00 0.  1.
<scales pt_clust_5="13000.00000" pt_clust_6="13000.00000" pt_clust_7="13000.00000" pt_clust_8="13000.00000" pt_clust_9="30.69155"></scales>
<clustering>
<clus scale="   30.692">  1  9  2 -1</clus>
<clus scale="   81.669">  5  6 -1 -1</clus>
<clus scale="   83.938">  1  5  2 -1</clus>
<clus scale="   92.224">  7  8 -1 -1</clus>
<clus scale="   30.692">  1  5  2 -1</clus>
</clustering>
</event>
<event>
 9    1  0.2374319E-005  0.9398318E+02  0.7546771E-02  0.1300131E+00
          1   -1    0    0  502    0  0.00000000000E+00  0.00000000000E+00  0.19666521755E+03  0.19666521755E+03  0.00000000000E+00 0. -1.
         -2   -1    0    0    0  501 -0.00000000000E+00 -0.00000000000E+00 -0.26805571555E+03  0.26805571555E+03  0.00000000000E+00 0.  1.
        -24    2    1    2    0    0 -0.80634857414E+01 -0.21082933583E+02 -0.23796175553E+03  0.25206000868E+03  0.79993380902E+02 0.  0.
         23    2    1    2    0    0 -0.13298402810E+02  0.26887754344E+02  0.85423602017E+02  0.12854809411E+03  0.91255804559E+02 0.  0.
         13    1    3    3    0    0 -0.31630841567E+02 -0.19039721994E+02 -0.47626230068E+02  0.60260094112E+02  0.00000000000E+00 0. -1.
        -14    1    3    3    0    0  0.23567355825E+02 -0.20432115891E+01 -0.19033552547E+03  0.19179991457E+03  0.00000000000E+00 0.  1.
        -13    1    4    4    0    0 -0.82786046659E+01 -0.33335682269E+02  0.41328748360E+02  0.53738891397E+02  0.00000000000E+00 0.  1.
         13    1    4    4    0    0 -0.50197981440E+01  0.60223436613E+02  0.44094853657E+02  0.74809202709E+02  0.00000000000E+00 0. -1.
         21    1    1    2  502  501  0.21361888551E+02 -0.58048207616E+01  0.81147655525E+02  0.84112830316E+02  0.00000000000E+00 0. -1.
<scales pt_clust_5="13000.00000" pt_clust_6="13000.00000" pt_clust_7="13000.00000" pt_clust_8="13000.00000" pt_clust_9="22.13654"></scales>
<clustering>
<clus scale="   22.137">  1  9  2 -1</clus>
<clus scale="   79.993">  5  6 -1 -1</clus>
<clus scale="   83.091">  2  5  1 -1</clus>
<clus scale="   91.256">  7  8 -1 -1</clus>
<clus scale="   22.137">  1  5  2 -1</clus>
</clustering>
</event>
<event>
 9    1  0.2374319E-005  0.2543398E+03  0.7546771E-02  0.1111328E+00
         -4   -1    0    0    0  501 -0.00000000000E+00  0.00000000000E+00  0.24027708984E+03  0.24027708984E+03  0.00000000000E+00 0.  1.
          3   -1    0    0  502    0  0.00000000000E+00 -0.00000000000E+00 -0.38124181282E+03  0.38124181282E+03  0.00000000000E+00 0. -1.
        -24    2    1    2    0    0 -0.18349091956E+03  0.15996079528E+03  0.89956843051E+02  0.27159234860E+03  0.80086182452E+02 0.  0.
         23    2    1    2    0    0  0.16237747073E+03 -0.14312776913E+03 -0.20567635508E+03  0.31296104084E+03  0.93754193236E+02 0.  0.
         13    1    3    3    0    0 -0.54256320119E+02  0.93524661324E+02  0.18619008180E+02  0.10971452964E+03  0.00000000000E+00 0. -1.
        -14    1    3    3    0    0 -0.12923459944E+03  0.66436133958E+02  0.71337834872E+02  0.16187781896E+03  0.00000000000E+00 0.  1.
        -13    1    4    4    0    0  0.25297757091E+02 -0.80883804150E+02 -0.84826361102E+02  0.11990695487E+03  0.00000000000E+00 0. -1.
         13    1    4    4    0    0  0.13707971364E+03 -0.62243964980E+02 -0.12084999398E+03  0.19305408598E+03  0.00000000000E+00 0.  1.
         21    1    1    2  502  501  0.21113448833E+02 -0.16833026152E+02 -0.25245210951E+02  0.36965513212E+02  0.00000000000E+00 0.  1.
<scales pt_clust_5="13000.00000" pt_clust_6="13000.00000" pt_clust_7="13000.00000" pt_clust_8="13000.00000" pt_clust_9="27.00238"></scales>
<clustering>
<clus scale="   27.002">  2  9  1 -1</clus>
<clus scale="   80.086">  5  6 -1 -1</clus>
<clus scale="   93.754">  7  8 -1 -1</clus>
<clus scale="  249.625">  1  5  2 -1</clus>
<clus scale="   27.002">  2  5  1 -1</clus>
</clustering>
</event>
<event>
 9    1  0.2374319E-005  0.9115223E+02  0.7546771E-02  0.1301118E+00
         -4   -1    0    0    0  501 -0.00000000000E+00  0.00000000000E+00  0.16686837406E+03  0.16686837406E+03  0.00000000000E+00 0.  1.
          3   -1    0    0  502    0  0.00000000000E+00 -0.00000000000E+00 -0.15682019228E+03  0.15682019228E+03  0.00000000000E+00 0. -1.
         23    2    1    2    0    0  0.17471188023E+02 -0.32830417245E+02  0.11147168149E+03  0.14623305738E+03  0.87035007830E+02 0.  0.
        -24    2    1    2    0    0 -0.59900858673E+01 -0.12523719926E+02 -0.28737220336E+02  0.91014149218E+02  0.85235103307E+02 0.  0.
         13    1    4    4    0    0 -0.70171691923E+01  0.36553868557E+02 -0.10883125165E+02  0.38779741919E+02  0.00000000000E+00 0. -1.
        -14    1    4    4    0    0  0.10270833250E+01 -0.49077588484E+02 -0.17854095171E+02  0.52234407299E+02  0.00000000000E+00 0.  1.
        -11    1    3    3    0    0  0.43520394071E+02  0.26756825453E+01  0.27888024263E+02  0.51758341110E+02  0.00000000000E+00 0. -1.
         11    1    3    3    0    0 -0.26049206048E+02 -0.35506099790E+02  0.83583657229E+02  0.94474716267E+02  0.00000000000E+00 0.  1.
         21    1    1    2  502  501 -0.11481102156E+02  0.45354137171E+02 -0.72686279376E+02  0.86441359746E+02  0.00000000000E+00 0. -1.
<scales pt_clust_5="13000.00000" pt_clust_6="13000.00000" pt_clust_7="13000.00000" pt_clust_8="13000.00000" pt_clust_9="46.78476"></scales>
<clustering>
<clus scale="   46.785">  2  9  1 -1</clus>
<clus scale="   85.235">  5  6 -1 -1</clus>
<clus scale="   87.035">  7  8 -1 -1</clus>
<clus scale="   89.435">  2  5  1 -1</clus>
<clus scale="   46.785">  2  5  1 -1</clus>
</clustering>
</event>
<event>
 9    1  0.2374319E-005  0.1124076E+03  0.7546771E-02  0.1269919E+00
          3   -1    0    0  502    0  0.00000000000E+00  0.00000000000E+00  0.23621629513E+03  0.23621629513E+03  0.00000000000E+00 0. -1.
         -4   -1    0    0    0  501 -0.00000000000E+00 -0.00000000000E+00 -0.25661205610E+03  0.25661205610E+03  0.00000000000E+00 0.  1.
         23    2    1    2    0    0 -0.41229869064E+02  0.15144137265E+01 -0.21578073641E+03  0.24366914265E+03  0.10540934172E+03 0.  0.
        -24    2    1    2    0    0  0.88560622271E+01 -0.49123190431E+02  0.15088689894E+03  0.17639425960E+03  0.76528170457E+02 0.  0.
         13    1    4    4    0    0  0.32608460557E+01 -0.55846049249E+02  0.49699401433E+02  0.74829438301E+02  0.00000000000E+00 0. -1.
        -14    1    4    4    0    0  0.55952161714E+01  0.67228588181E+01  0.10118749750E+03  0.10156482130E+03  0.00000000000E+00 0.  1.
        -11    1    3    3    0    0  0.24871355215E+02 -0.18593905992E+02 -0.12930422270E+03  0.13298082440E+03  0.00000000000E+00 0.  1.
         11    1    3    3    0    0 -0.66101224279E+02  0.20108319719E+02 -0.86476513709E+02  0.11068831825E+03  0.00000000000E+00 0. -1.
         21    1    1    2  502  501  0.32373806837E+02  0.47608776704E+02  0.44498076495E+02  0.72764948980E+02  0.00000000000E+00 0.  1.
<scales pt_clust_5="13000.00000" pt_clust_6="13000.00000" pt_clust_7="13000.00000" pt_clust_8="13000.00000" pt_clust_9="57.57308"></scales>
<clustering>
<clus scale="   57.573">  1  9  2 -1</clus>
<clus scale="   76.528">  5  6 -1 -1</clus>
<clus scale="   85.912">  1  5  2 -1</clus>
<clus scale="  105.409">  7  8 -1 -1</clus>
<clus scale="   57.573">  1  5  2 -1</clus>
</clustering>
</event>
<event>
 9    1  0.2374319E-005  0.1815274E+03  0.7546771E-02  0.1168070E+00
         -2   -1    0    0    0  501 -0.00000000000E+00  0.00000000000E+00  0.46435671658E+03  0.46435671658E+03  0.00000000000E+00 0.  1.
          1   -1    0    0  502    0  0.00000000000E+00 -0.00000000000E+00 -0.71559882585E+03  0.71559882585E+03  0.00000000000E+00 0. -1.
        -24    2    1    2    0    0  0.15130158983E+03 -0.33382726615E+02  0.42346859507E+03  0.45770355362E+03  0.78487670755E+02 0.  0.
         23    2    1    2    0    0 -0.16760718073E+03  0.65305546935E+02 -0.43487505585E+03  0.47975234543E+03  0.93214898245E+02 0.  0.
         11    1    3    3    0    0  0.15855549783E+02 -0.32845811515E+02  0.11905892599E+03  0.12452017367E+03  0.00000000000E+00 0. -1.
        -12    1    3    3    0    0  0.13544604005E+03 -0.53691509959E+00  0.30440966908E+03  0.33318337995E+03  0.00000000000E+00 0.  1.
        -11    1    4    4    0    0 -0.31737113120E+02  0.78251439665E+01 -0.17513019822E+02  0.37083461146E+02  0.00000000000E+00 0.  1.
         11    1    4    4    0    0 -0.13587006761E+03  0.57480402968E+02 -0.41736203603E+03  0.44266888429E+03  0.00000000000E+00 0. -1.
         21    1    1    2  502  501  0.16305590894E+02 -0.31922820320E+02 -0.23983564849E+03  0.24249964337E+03  0.00000000000E+00 0. -1.
<scales pt_clust_5="13000.00000" pt_clust_6="13000.00000" pt_clust_7="13000.00000" pt_clust_8="13000.00000" pt_clust_9="35.84604"></scales>
<clustering>
<clus scale="   35.846">  2  9  1 -1</clus>
<clus scale="   78.488">  5  6 -1 -1</clus>
<clus scale="   93.215">  7  8 -1 -1</clus>
<clus scale="  174.423">  1  5  2 -1</clus>
<clus scale="   35.846">  2  5  1 -1</clus>
</clustering>
</event>
<event>
 9    1  0.2374319E-005  0.2158773E+03  0.7546771E-02  0.1172414E+00
          1   -1    0    0  502    0  0.00000000000E+00  0.00000000000E+00  0.78482533050E+03  0.78482533050E+03  0.00000000000E+00 0. -1.
         -2   -1    0    0    0  501 -0.00000000000E+00 -0.00000000000E+00 -0.19132982601E+03  0.19132982601E+03  0.00000000000E+00 0.  1.
        -24    2    1    2    0    0  0.33298748824E+02  0.34138796788E+02 -0.48582489006E+02  0.10572455811E+03  0.80889800528E+02 0.  0.
         23    2    1    2    0    0 -0.22187588436E+03 -0.11021554206E+02  0.47551244579E+02  0.24628494382E+03  0.95103995566E+02 0.  0.
         13    1    3    3    0    0  0.22130910904E+02  0.49095922470E+01  0.20070543456E+02  0.30277186595E+02  0.00000000000E+00 0. -1.
        -14    1    3    3    0    0  0.11167837920E+02  0.29229204541E+02 -0.68653032461E+02  0.75447371512E+02  0.00000000000E+00 0.  1.
        -11    1    4    4    0    0 -0.20427504290E+03 -0.34136662781E+02  0.23250873796E+02  0.20840875229E+03  0.00000000000E+00 0. -1.
         11    1    4    4    0    0 -0.17600841456E+02  0.23115108574E+02  0.24300370784E+02  0.37876191527E+02  0.00000000000E+00 0.  1.
         21    1    1    2  502  501  0.18857713554E+03 -0.23117242581E+02  0.59452674892E+03  0.62414565458E+03  0.00000000000E+00 0. -1.
<scales pt_clust_5="13000.00000" pt_clust_6="13000.00000" pt_clust_7="13000.00000" pt_clust_8="13000.00000" pt_clust_9="193.79947"></scales>
<clustering>
<clus scale="   80.890">  5  6 -1 -1</clus>
<clus scale="   93.901">  2  5  1 -1</clus>
<clus scale="   95.104">  7  8 -1 -1</clus>
<clus scale="  193.799">  1  9  2 -1</clus>
<clus scale="  193.799">  1  5  2 -1</clus>
</clustering>
</event>
<event>
 9    1  0.2374319E-005  0.1467207E+03  0.7546771E-02  0.1206391E+00
          1   -1    0    0  502    0  0.00000000000E+00  0.00000000000E+00  0.27553525301E+03  0.27553525301E+03  0.00000000000E+00 0. -1.
         -2   -1    0    0    0  501 -0.00000000000E+00 -0.00000000000E+00 -0.13013778595E+03  0.13013778595E+03  0.00000000000E+00 0.  1.
        -24    2    1    2    0    0 -0.59396513964E+02  0.97072771642E+02  0.16806051369E+02  0.14103957571E+03  0.81600549562E+02 0.  0.
         23    2    1    2    0    0  0.12845192659E+02 -0.12230766672E+03  0.34790562698E+02  0.15691890775E+03  0.91043923708E+02 0.  0.
         11    1    3    3    0    0 -0.60553509766E+02  0.97925146314E+02  0.36892891527E+02  0.12090139483E+03  0.00000000000E+00 0. -1.
        -12    1    3    3    0    0  0.11569958015E+01 -0.85237467150E+00 -0.20086840158E+02  0.20138180886E+02  0.00000000000E+00 0.  1.
        -11    1    4    4    0    0  0.46972950247E+02 -0.42376909571E+02 -0.10505252012E+00  0.63263508880E+02  0.00000000000E+00 0.  1.
         11    1    4    4    0    0 -0.34127757588E+02 -0.79930757148E+02  0.34895615218E+02  0.93655398871E+02  0.00000000000E+00 0. -1.
         21    1    1    2  502  501  0.46551321305E+02  0.25234895077E+02  0.93800852989E+02  0.10771455550E+03  0.00000000000E+00 0.  1.
<scales pt_clust_5="13000.00000" pt_clust_6="13000.00000" pt_clust_7="13000.00000" pt_clust_8="13000.00000" pt_clust_9="52.95116"></scales>
<clustering>
<clus scale="   52.951">  1  9  2 -1</clus>
<clus scale="   81.601">  5  6 -1 -1</clus>
<clus scale="   91.044">  7  8 -1 -1</clus>
<clus scale="  141.055">  2  5  1 -1</clus>
<clus scale="   52.951">  1  5  2 -1</clus>
</clustering>
</event>
<event>
 9    1  0.2374319E-005  0.8955831E+02  0.7546771E-02  0.1307576E+00
          1   -1    0    0  502    0  0.00000000000E+00  0.00000000000E+00  0.29511757107E+03  0.29511757107E+03  0.00000000000E+00 0. -1.
         -2   -1    0    0    0  501 -0.00000000000E+00 -0.00000000000E+00 -0.54743154782E+02  0.54743154782E+02  0.00000000000E+00 0.  1.
        -24    2    1    2    0    0 -0.17950149894E+02  0.23412623074E+02  0.32626130840E+02  0.91241997104E+02  0.79939219545E+02 0.  0.
         23    2    1    2    0    0  0.24308314504E+02  0.23858481412E+02  0.18263722498E+03  0.20471558473E+03  0.85976702640E+02 0.  0.
         11    1    3    3    0    0 -0.35984491045E+02 -0.15795849277E+02  0.41063699664E+01  0.39512715984E+02  0.00000000000E+00 0. -1.
        -12    1    3    3    0    0  0.18034341151E+02  0.39208472351E+02  0.28519760873E+02  0.51729281119E+02  0.00000000000E+00 0.  1.
        -13    1    4    4    0    0 -0.17610250435E+02  0.42798532686E+02  0.84886745883E+02  0.96682960996E+02  0.00000000000E+00 0.  1.
         13    1    4    4    0    0  0.41918564938E+02 -0.18940051274E+02  0.97750479094E+02  0.10803262374E+03  0.00000000000E+00 0. -1.
         21    1    1    2  502  501 -0.63581646096E+01 -0.47271104486E+02  0.25111060472E+02  0.53903144014E+02  0.00000000000E+00 0. -1.
<scales pt_clust_5="13000.00000" pt_clust_6="13000.00000" pt_clust_7="13000.00000" pt_clust_8="13000.00000" pt_clust_9="47.69679"></scales>
<clustering>
<clus scale="   47.697">  2  9  1 -1</clus>
<clus scale="   79.939">  5  6 -1 -1</clus>
<clus scale="   83.779">  2  5  1 -1</clus>
<clus scale="   85.977">  7  8 -1 -1</clus>
<clus scale="   89.558">  1  5  2 -1</clus>
</clustering>
</event>
<event>
 9    1  0.2374319E-005  0.1914833E+03  0.7546771E-02  0.1158395E+00
         -2   -1    0    0    0  501 -0.00000000000E+00  0.00000000000E+00  0.19498655075E+03  0.19498655075E+03  0.00000000000E+00 0.  1.
          1   -1    0    0  502    0  0.00000000000E+00 -0.00000000000E+00 -0.81451315728E+03  0.81451315728E+03  0.00000000000E+00 0. -1.
        -24    2    1    2    0    0  0.15191098442E+03 -0.80824344722E+02  0.10374001513E+03  0.21664035403E+03  0.81003273795E+02 0.  0.
         23    2    1    2    0    0 -0.13556691203E+03 -0.18743440296E+02 -0.64289819888E+03  0.66386340097E+03  0.93095740179E+02 0.  0.
         11    1    3    3    0    0  0.70452424362E+02 -0.42208436418E+02  0.40402937189E+01  0.82227855236E+02  0.00000000000E+00 0. -1.
        -12    1    3    3    0    0  0.81458560058E+02 -0.38615908304E+02  0.99699721416E+02  0.13441249879E+03  0.00000000000E+00 0.  1.
        -13    1    4    4    0    0 -0.18932481727E+02 -0.96871302105E+01 -0.17281811098E+02  0.27403290877E+02  0.00000000000E+00 0.  1.
         13    1    4    4    0    0 -0.11663443030E+03 -0.90563100858E+01 -0.62561638778E+03  0.63646011009E+03  0.00000000000E+00 0. -1.
         21    1    1    2  502  501 -0.16344072394E+02  0.99567785018E+02 -0.80368422794E+02  0.12899595303E+03  0.00000000000E+00 0. -1.
<scales pt_clust_5="13000.00000" pt_clust_6="13000.00000" pt_clust_7="13000.00000" pt_clust_8="13000.00000" pt_clust_9="100.90031"></scales>
<clustering>
<clus scale="   81.003">  5  6 -1 -1</clus>
<clus scale="   93.096">  7  8 -1 -1</clus>
<clus scale="  100.900">  2  9  1 -1</clus>
<clus scale="  185.905">  1  5  2 -1</clus>
<clus scale="  100.900">  2  5  1 -1</clus>
</clustering>
</event>
<event>
 9    1  0.2374319E-005  0.1185724E+03  0.7546771E-02  0.1248591E+00
          1   -1    0    0  502    0  0.00000000000E+00  0.00000000000E+00  0.29505516845E+03  0.29505516845E+03  0.00000000000E+00 0. -1.
         -2   -1    0    0    0  501 -0.00000000000E+00 -0.00000000000E+00 -0.17163293223E+03  0.17163293223E+03  0.00000000000E+00 0.  1.
        -24    2    1    2    0    0 -0.66423593790E+02 -0.42011455872E+02 -0.12014846291E+03  0.16500967393E+03  0.81335620198E+02 0.  0.
         23    2    1    2    0    0  0.69134496163E+02  0.55051498801E+01  0.95046321189E+02  0.14870931153E+03  0.90943778954E+02 0.  0.
         13    1    3    3    0    0 -0.53774019002E+02  0.13038163494E+02 -0.47055240477E+02  0.72634939824E+02  0.00000000000E+00 0. -1.
        -14    1    3    3    0    0 -0.12649574788E+02 -0.55049619366E+02 -0.73093222438E+02  0.92374734105E+02  0.00000000000E+00 0.  1.
        -11    1    4    4    0    0  0.89031891956E+02 -0.38397033994E+01  0.88918773198E+02  0.12588871806E+03  0.00000000000E+00 0. -1.
         11    1    4    4    0    0 -0.19897395793E+02  0.93448532795E+01  0.61275479905E+01  0.22820593475E+02  0.00000000000E+00 0.  1.
         21    1    1    2  502  501 -0.27109023736E+01  0.36506305991E+02  0.14852437794E+03  0.15296911522E+03  0.00000000000E+00 0. -1.
<scales pt_clust_5="13000.00000" pt_clust_6="13000.00000" pt_clust_7="13000.00000" pt_clust_8="13000.00000" pt_clust_9="36.60682"></scales>
<clustering>
<clus scale="   36.607">  1  9  2 -1</clus>
<clus scale="   81.336">  5  6 -1 -1</clus>
<clus scale="   90.944">  7  8 -1 -1</clus>
<clus scale="  111.374">  2  5  1 -1</clus>
<clus scale="   36.607">  1  5  2 -1</clus>
</clustering>
</event>
<event>
 9    1  0.2374319E-005  0.9306682E+02  0.7546771E-02  0.1302607E+00
         -2   -1    0    0    0  501 -0.00000000000E+00  0.00000000000E+00  0.52351330798E+02  0.52351330798E+02  0.00000000000E+00 0.  1.
          1   -1    0    0  502    0  0.00000000000E+00 -0.00000000000E+00 -0.31099916925E+03  0.31099916925E+03  0.00000000000E+00 0. -1.
        -24    2    1    2    0    0 -0.81605496201E+01 -0.28775930623E+01 -0.14818675517E+02  0.81966278332E+02  0.80149875406E+02 0.  0.
         23    2    1    2    0    0  0.45882540993E+02  0.10598176540E+01 -0.17183402722E+03  0.20008506731E+03  0.91655717052E+02 0.  0.
         13    1    3    3    0    0 -0.41835489595E+02 -0.15410279340E+02 -0.61675951176E+01  0.45008045153E+02  0.00000000000E+00 0. -1.
        -14    1    3    3    0    0  0.33674939975E+02  0.12532686278E+02 -0.86510803995E+01  0.36958233179E+02  0.00000000000E+00 0.  1.
        -11    1    4    4    0    0 -0.13305917588E+01 -0.33609724293E+02 -0.24732419783E+02  0.41750169218E+02  0.00000000000E+00 0. -1.
         11    1    4    4    0    0  0.47213132752E+02  0.34669541947E+02 -0.14710160743E+03  0.15833489809E+03  0.00000000000E+00 0.  1.
         21    1    1    2  502  501 -0.37721991373E+02  0.18177754083E+01 -0.71995135718E+02  0.81299154409E+02  0.00000000000E+00 0. -1.
<scales pt_clust_5="13000.00000" pt_clust_6="13000.00000" pt_clust_7="13000.00000" pt_clust_8="13000.00000" pt_clust_9="37.76576"></scales>
<clustering>
<clus scale="   37.766">  2  9  1 -1</clus>
<clus scale="   80.150">  5  6 -1 -1</clus>
<clus scale="   81.760">  1  5  2 -1</clus>
<clus scale="   91.656">  7  8 -1 -1</clus>
<clus scale="   37.766">  2  5  1 -1</clus>
</clustering>
</event>
<event>
 9    1  0.2374319E-005  0.1293980E+03  0.7546771E-02  0.1232363E+00
         -2   -1    0    0    0  501 -0.00000000000E+00  0.00000000000E+00  0.33616789031E+03  0.33616789031E+03  0.00000000000E+00 0.  1.
          1   -1    0    0  502    0  0.00000000000E+00 -0.00000000000E+00 -0.21412296204E+03  0.21412296204E+03  0.00000000000E+00 0. -1.
         23    2    1    2    0    0  0.47286207275E+02  0.76781757606E+02  0.29474833713E+03  0.32189516229E+03  0.92781946310E+02 0.  0.
        -24    2    1    2    0    0 -0.24047358419E+02 -0.91050303326E+02 -0.13929256399E+03  0.18526889969E+03  0.77805614361E+02 0.  0.
         11    1    4    4    0    0  0.12909455345E+02 -0.45906331248E+02 -0.11020064620E+03  0.12007592477E+03  0.00000000000E+00 0. -1.
        -12    1    4    4    0    0 -0.36956813764E+02 -0.45143972078E+02 -0.29091917797E+02  0.65192974926E+02  0.00000000000E+00 0.  1.
        -11    1    3    3    0    0 -0.16715375010E+02  0.58332357183E+02  0.11191508749E+03  0.12730693015E+03  0.00000000000E+00 0. -1.
         11    1    3    3    0    0  0.64001582285E+02  0.18449400423E+02  0.18283324965E+03  0.19458823214E+03  0.00000000000E+00 0.  1.
         21    1    1    2  502  501 -0.23238848856E+02  0.14268545720E+02 -0.33410844865E+02  0.43126790372E+02  0.00000000000E+00 0.  1.
<scales pt_clust_5="13000.00000" pt_clust_6="13000.00000" pt_clust_7="13000.00000" pt_clust_8="13000.00000" pt_clust_9="27.26968"></scales>
<clustering>
<clus scale="   27.270">  2  9  1 -1</clus>
<clus scale="   77.806">  5  6 -1 -1</clus>
<clus scale="   92.782">  7  8 -1 -1</clus>
<clus scale="  119.118">  2  5  1 -1</clus>
<clus scale="   27.270">  2  5  1 -1</clus>
</clustering>
</event>
<event>
 9    1  0.2374319E-005  0.1509063E+03  0.7546771E-02  0.1223063E+00
          1   -1    0    0  502    0  0.00000000000E+00  0.00000000000E+00  0.40565701354E+03  0.40565701354E+03  0.00000000000E+00 0. -1.
         -2   -1    0    0    0  501 -0.00000000000E+00 -0.00000000000E+00 -0.12850466154E+03  0.12850466154E+03  0.00000000000E+00 0.  1.
         23    2    1    2    0    0 -0.11763279478E+03  0.58709454189E+02 -0.38341032565E+02  0.16216929662E+03  0.86859493266E+02 0.  0.
        -24    2    1    2    0    0  0.40050990967E+02 -0.63784179945E+01  0.90838593563E+02  0.12862588784E+03  0.81536512368E+02 0.  0.
         11    1    4    4    0    0  0.38418526092E+02 -0.32656086879E+02  0.88928236754E+02  0.10222834465E+03  0.00000000000E+00 0. -1.
        -12    1    4    4    0    0  0.16324648753E+01  0.26277668885E+02  0.19103568096E+01  0.26397543195E+02  0.00000000000E+00 0.  1.
        -11    1    3    3    0    0 -0.82811411769E+02  0.79324119784E+02 -0.15540341131E+02  0.11572185663E+03  0.00000000000E+00 0. -1.
         11    1    3    3    0    0 -0.34821383012E+02 -0.20614665595E+02 -0.22800691434E+02  0.46447439997E+02  0.00000000000E+00 0.  1.
         21    1    1    2  502  501  0.77581803813E+02 -0.52331036195E+02  0.22465479100E+03  0.24336649061E+03  0.00000000000E+00 0. -1.
<scales pt_clust_5="13000.00000" pt_clust_6="13000.00000" pt_clust_7="13000.00000" pt_clust_8="13000.00000" pt_clust_9="123.40240"></scales>
<clustering>
<clus scale="   81.537">  5  6 -1 -1</clus>
<clus scale="   86.859">  7  8 -1 -1</clus>
<clus scale="   91.066">  1  5  2 -1</clus>
<clus scale="  123.402">  1  9  2 -1</clus>
<clus scale="   91.066">  1  5  2 -1</clus>
</clustering>
</event>
<event>
 9    1  0.2374319E-005  0.1743638E+03  0.7546771E-02  0.1173679E+00
         -2   -1    0    0    0  501 -0.00000000000E+00  0.00000000000E+00  0.37990594888E+02  0.37990594888E+02  0.00000000000E+00 0.  1.
          1   -1    0    0  502    0  0.00000000000E+00 -0.00000000000E+00 -0.11137384440E+04  0.11137384440E+04  0.00000000000E+00 0. -1.
        -24    2    1    2    0    0 -0.45169929051E+02  0.14354155623E+03 -0.29058753047E+03  0.33719807538E+03  0.81344503957E+02 0.  0.
         23    2    1    2    0    0  0.17657812829E+02 -0.15836026997E+03 -0.58951188552E+03  0.61640267123E+03  0.83894078880E+02 0.  0.
         11    1    3    3    0    0  0.14840035739E+02  0.84010338756E+02 -0.16605056705E+03  0.18668356783E+03  0.00000000000E+00 0. -1.
        -12    1    3    3    0    0 -0.60009964790E+02  0.59531217471E+02 -0.12453696342E+03  0.15051450755E+03  0.00000000000E+00 0.  1.
        -13    1    4    4    0    0  0.40660258625E+02 -0.47355532980E+02 -0.14915357634E+03  0.16168671086E+03  0.00000000000E+00 0.  1.
         13    1    4    4    0    0 -0.23002445795E+02 -0.11100473699E+03 -0.44035830919E+03  0.45471596037E+03  0.00000000000E+00 0. -1.
         21    1    1    2  502  501  0.27512116222E+02  0.14818713741E+02 -0.19564843309E+03  0.19812829224E+03  0.00000000000E+00 0. -1.
<scales pt_clust_5="13000.00000" pt_clust_6="13000.00000" pt_clust_7="13000.00000" pt_clust_8="13000.00000" pt_clust_9="31.24917"></scales>
<clustering>
<clus scale="   31.249">  2  9  1 -1</clus>
<clus scale="   81.345">  5  6 -1 -1</clus>
<clus scale="   83.894">  7  8 -1 -1</clus>
<clus scale="  173.151">  1  5  2 -1</clus>
<clus scale="   31.249">  2  5  1 -1</clus>
</clustering>
</event>
<event>
 9    1  0.2374319E-005  0.1027361E+03  0.7546771E-02  0.1279957E+00
          1   -1    0    0  502    0  0.00000000000E+00  0.00000000000E+00  0.70547169588E+03  0.70547169588E+03  0.00000000000E+00 0. -1.
         -2   -1    0    0    0  501 -0.00000000000E+00 -0.00000000000E+00 -0.37143402767E+02  0.37143402767E+02  0.00000000000E+00 0.  1.
        -24    2    1    2    0    0 -0.18865300108E+02  0.42384022273E+02  0.74610807765E+02  0.11834114013E+03  0.79281447508E+02 0.  0.
         23    2    1    2    0    0 -0.44950296864E+02 -0.68136398757E+02  0.33383954353E+03  0.35543913943E+03  0.90692022754E+02 0.  0.
         13    1    3    3    0    0  0.24444696390E+02  0.20807869633E+02  0.59572574826E+02  0.67671281144E+02  0.00000000000E+00 0. -1.
        -14    1    3    3    0    0 -0.43309996498E+02  0.21576152640E+02  0.15038232940E+02  0.50669858983E+02  0.00000000000E+00 0.  1.
        -13    1    4    4    0    0 -0.71144544104E+02 -0.37214766305E+02  0.19725860880E+03  0.21297287089E+03  0.00000000000E+00 0.  1.
         13    1    4    4    0    0  0.26194247239E+02 -0.30921632452E+02  0.13658093473E+03  0.14246626854E+03  0.00000000000E+00 0. -1.
         21    1    1    2  502  501  0.63815596972E+02  0.25752376484E+02  0.25987794181E+03  0.26883481909E+03  0.00000000000E+00 0. -1.
<scales pt_clust_5="13000.00000" pt_clust_6="13000.00000" pt_clust_7="13000.00000" pt_clust_8="13000.00000" pt_clust_9="68.81581"></scales>
<clustering>
<clus scale="   68.816">  1  9  2 -1</clus>
<clus scale="   79.281">  5  6 -1 -1</clus>
<clus scale="   90.692">  7  8 -1 -1</clus>
<clus scale="   92.818">  2  5  1 -1</clus>
<clus scale="   68.816">  1  5  2 -1</clus>
</clustering>
</event>
<event>
 9    1  0.2374319E-005  0.9851481E+02  0.7546771E-02  0.1287597E+00
          3   -1    0    0  502    0  0.00000000000E+00  0.00000000000E+00  0.82419827221E+02  0.82419827221E+02  0.00000000000E+00 0. -1.
         -4   -1    0    0    0  501 -0.00000000000E+00 -0.00000000000E+00 -0.16352195823E+03  0.16352195823E+03  0.00000000000E+00 0.  1.
        -24    2    1    2    0    0  0.43551610483E+02  0.72273932881E+01 -0.84445622852E+02  0.12607484499E+03  0.82551955338E+02 0.  0.
         23    2    1    2    0    0 -0.26595263563E+02  0.10765087205E+02  0.27028571293E+01  0.95135230701E+02  0.90665382243E+02 0.  0.
         13    1    3    3    0    0  0.42002277979E+02  0.29724426450E+02 -0.15810790684E+02  0.53830418773E+02  0.00000000000E+00 0. -1.
        -14    1    3    3    0    0  0.15493325034E+01 -0.22497033161E+02 -0.68634832168E+02  0.72244426214E+02  0.00000000000E+00 0.  1.
        -13    1    4    4    0    0  0.26121050967E+02 -0.20421629325E+02  0.64190338428E+01  0.33772122281E+02  0.00000000000E+00 0.  1.
         13    1    4    4    0    0 -0.52716314530E+02  0.31186716530E+02 -0.37161767135E+01  0.61363108420E+02  0.00000000000E+00 0. -1.
         21    1    1    2  502  501 -0.16956346919E+02 -0.17992480493E+02  0.64063471106E+00  0.24731709767E+02  0.00000000000E+00 0. -1.
<scales pt_clust_5="13000.00000" pt_clust_6="13000.00000" pt_clust_7="13000.00000" pt_clust_8="13000.00000" pt_clust_9="24.72341"></scales>
<clustering>
<clus scale="   24.723">  1  9  2 -1</clus>
<clus scale="   82.552">  5  6 -1 -1</clus>
<clus scale="   90.665">  7  8 -1 -1</clus>
<clus scale="   91.103">  2  5  1 -1</clus>
<clus scale="   24.723">  1  5  2 -1</clus>
</clustering>
</event>
<event>
 9    1  0.2374319E-005  0.1196468E+03  0.7546771E-02  0.1247233E+00
          1   -1    0    0  502    0  0.00000000000E+00  0.00000000000E+00  0.47463194877E+03  0.47463194877E+03  0.00000000000E+00 0. -1.
         -2   -1    0    0    0  501 -0.00000000000E+00 -0.00000000000E+00 -0.37715348297E+02  0.37715348297E+02  0.00000000000E+00 0.  1.
         23    2    1    2    0    0 -0.53493065789E+02 -0.38373945697E+02  0.16903848733E+03  0.20327918431E+03  0.91729759492E+02 0.  0.
        -24    2    1    2    0    0  0.65356417983E+02  0.58890327132E+02  0.16591574900E+03  0.20438771950E+03  0.80664565423E+02 0.  0.
         13    1    4    4    0    0  0.75588482918E+01  0.37943974478E+02  0.12421959142E+03  0.13010529689E+03  0.00000000000E+00 0. -1.
        -14    1    4    4    0    0  0.57797569691E+02  0.20946352654E+02  0.41696157582E+02  0.74282422610E+02  0.00000000000E+00 0.  1.
        -11    1    3    3    0    0 -0.17955242532E+02 -0.56314353739E+02  0.14546123204E+03  0.15701167854E+03  0.00000000000E+00 0. -1.
         11    1    3    3    0    0 -0.35537823257E+02  0.17940408042E+02  0.23577255290E+02  0.46267505763E+02  0.00000000000E+00 0.  1.
         21    1    1    2  502  501 -0.11863352194E+02 -0.20516381435E+02  0.10196236413E+03  0.10468039325E+03  0.00000000000E+00 0.  1.
<scales pt_clust_5="13000.00000" pt_clust_6="13000.00000" pt_clust_7="13000.00000" pt_clust_8="13000.00000" pt_clust_9="23.69939"></scales>
<clustering>
<clus scale="   23.699">  1  9  2 -1</clus>
<clus scale="   80.665">  5  6 -1 -1</clus>
<clus scale="   91.730">  7  8 -1 -1</clus>
<clus scale="  111.390">  1  5  2 -1</clus>
<clus scale="   23.699">  1  5  2 -1</clus>
</clustering>
</event>
<event>
 9    1  0.2374319E-005  0.1077339E+03  0.7546771E-02  0.1268343E+00
          1   -1    0    0  502    0  0.00000000000E+00  0.00000000000E+00  0.22653991099E+03  0.22653991099E+03  0.00000000000E+00 0. -1.
         -2   -1    0    0    0  501 -0.00000000000E+00 -0.00000000000E+00 -0.86184158608E+02  0.86184158608E+02  0.00000000000E+00 0.  1.
        -24    2    1    2    0    0 -0.35905164473E+02  0.41835825984E+01 -0.13951419210E+02  0.10804977098E+03  0.10086341117E+03 0.  0.
         23    2    1    2    0    0  0.43213879976E+02  0.23850235324E+02  0.11968893836E+03  0.15953302768E+03  0.93215190863E+02 0.  0.
         11    1    3    3    0    0 -0.26150514719E+02  0.51712993603E+02 -0.13622341733E+02  0.59528575673E+02  0.00000000000E+00 0. -1.
        -12    1    3    3    0    0 -0.97546497546E+01 -0.47529411004E+02 -0.32907747697E+00  0.48521195309E+02  0.00000000000E+00 0.  1.
        -13    1    4    4    0    0  0.36281904469E+02  0.50103836725E+01  0.13132018118E+03  0.13633220648E+03  0.00000000000E+00 0. -1.
         13    1    4    4    0    0  0.69319755067E+01  0.18839851651E+02 -0.11631242828E+02  0.23200821201E+02  0.00000000000E+00 0.  1.
         21    1    1    2  502  501 -0.73087155029E+01 -0.28033817922E+02  0.34618233240E+02  0.45141270942E+02  0.00000000000E+00 0.  1.
<scales pt_clust_5="13000.00000" pt_clust_6="13000.00000" pt_clust_7="13000.00000" pt_clust_8="13000.00000" pt_clust_9="28.97089"></scales>
<clustering>
<clus scale="   28.971">  1  9  2 -1</clus>
<clus scale="   93.215">  7  8 -1 -1</clus>
<clus scale="  100.609">  1  7  2 -1</clus>
<clus scale="  100.863">  5  6 -1 -1</clus>
<clus scale="   28.971">  1  5  2 -1</clus>
</clustering>
</event>
<event>
 9    1  0.2374319E-005  0.9118582E+02  0.7546771E-02  0.1305544E+00
         -2   -1    0    0    0  501 -0.00000000000E+00  0.00000000000E+00  0.18471386835E+03  0.18471386835E+03  0.00000000000E+00 0.  1.
          1   -1    0    0  502    0  0.00000000000E+00 -0.00000000000E+00 -0.10989792580E+03  0.10989792580E+03  0.00000000000E+00 0. -1.
         23    2    1    2    0    0  0.50756942285E+01 -0.14980770150E+02  0.13530900362E+03  0.16305158251E+03  0.89594117847E+02 0.  0.
        -24    2    1    2    0    0 -0.27427641208E+02  0.14251634052E+02 -0.65834611786E+02  0.10856731410E+03  0.80605713242E+02 0.  0.
         11    1    4    4    0    0 -0.41192283723E+02  0.33111220035E+02 -0.18868251184E+02  0.56117448563E+02  0.00000000000E+00 0. -1.
        -12    1    4    4    0    0  0.13764642515E+02 -0.18859585983E+02 -0.46966360602E+02  0.52449865541E+02  0.00000000000E+00 0.  1.
        -13    1    3    3    0    0  0.31397022207E+02 -0.80373970345E+01  0.87106384017E+01  0.33559618233E+02  0.00000000000E+00 0.  1.
         13    1    3    3    0    0 -0.26321327979E+02 -0.69433731150E+01  0.12659836522E+03  0.12949196428E+03  0.00000000000E+00 0. -1.
         21    1    1    2  502  501  0.22351946980E+02  0.72913609737E+00  0.53415507128E+01  0.22992897539E+02  0.00000000000E+00 0.  1.
<scales pt_clust_5="13000.00000" pt_clust_6="13000.00000" pt_clust_7="13000.00000" pt_clust_8="13000.00000" pt_clust_9="22.36384"></scales>
<clustering>
<clus scale="   22.364">  2  9  1 -1</clus>
<clus scale="   80.606">  5  6 -1 -1</clus>
<clus scale="   82.371">  2  5  1 -1</clus>
<clus scale="   89.594">  7  8 -1 -1</clus>
<clus scale="   22.364">  2  5  1 -1</clus>
</clustering>
</event>
<event>
 9    1  0.2374319E-005  0.1301894E+03  0.7546771E-02  0.1229585E+00
          1   -1    0    0  502    0  0.00000000000E+00  0.00000000000E+00  0.29545415916E+03  0.29545415916E+03  0.00000000000E+00 0. -1.
         -2   -1    0    0    0  501 -0.00000000000E+00 -0.00000000000E+00 -0.87988059479E+02  0.87988059479E+02  0.00000000000E+00 0.  1.
         23    2    1    2    0    0 -0.44909508970E+01 -0.82878509084E+02  0.30676849161E+02  0.12606164245E+03  0.89785593019E+02 0.  0.
        -24    2    1    2    0    0 -0.67941485400E+01  0.11303498681E+03  0.91651437061E+02  0.16635742585E+03  0.80322714862E+02 0.  0.
         13    1    4    4    0    0 -0.42024185327E+02  0.63803579156E+02  0.37381044025E+02  0.85054519679E+02  0.00000000000E+00 0. -1.
        -14    1    4    4    0    0  0.35230036787E+02  0.49231407652E+02  0.54270393036E+02  0.81302906170E+02  0.00000000000E+00 0.  1.
        -11    1    3    3    0    0 -0.25012362711E+02 -0.91965136374E+02  0.37780542200E+02  0.10252109035E+03  0.00000000000E+00 0. -1.
         11    1    3    3    0    0  0.20521411814E+02  0.90866272909E+01 -0.71036930394E+01  0.23540552100E+02  0.00000000000E+00 0.  1.
         21    1    1    2  502  501  0.11285099437E+02 -0.30156477724E+02  0.85137813460E+02  0.91023150345E+02  0.00000000000E+00 0.  1.
<scales pt_clust_5="13000.00000" pt_clust_6="13000.00000" pt_clust_7="13000.00000" pt_clust_8="13000.00000" pt_clust_9="32.19886"></scales>
<clustering>
<clus scale="   32.199">  1  9  2 -1</clus>
<clus scale="   80.323">  5  6 -1 -1</clus>
<clus scale="   89.786">  7  8 -1 -1</clus>
<clus scale="  123.853">  1  5  2 -1</clus>
<clus scale="   32.199">  1  5  2 -1</clus>
</clustering>
</event>
<event>
 9    1  0.2374319E-005  0.1620958E+03  0.7546771E-02  0.1188481E+00
          1   -1    0    0  502    0  0.00000000000E+00  0.00000000000E+00  0.30604435519E+03  0.30604435519E+03  0.00000000000E+00 0. -1.
         -2   -1    0    0    0  501 -0.00000000000E+00 -0.00000000000E+00 -0.13303793082E+03  0.13303793082E+03  0.00000000000E+00 0.  1.
        -24    2    1    2    0    0  0.71424597733E+02  0.11155847058E+03 -0.37548827316E+02  0.15874412401E+03  0.79012764506E+02 0.  0.
         23    2    1    2    0    0 -0.55387055480E+02 -0.12372067071E+03  0.17947855135E+03  0.24331272240E+03  0.92811638348E+02 0.  0.
         11    1    3    3    0    0  0.19867800502E+02 -0.93643611919E+01 -0.11275422422E+02  0.24689186056E+02  0.00000000000E+00 0. -1.
        -12    1    3    3    0    0  0.51556797231E+02  0.12092283177E+03 -0.26273404894E+02  0.13405493795E+03  0.00000000000E+00 0.  1.
        -13    1    4    4    0    0 -0.58894214730E+02 -0.72156351491E+02  0.54129764012E+02  0.10772696478E+03  0.00000000000E+00 0.  1.
         13    1    4    4    0    0  0.35071592501E+01 -0.51564319219E+02  0.12534878734E+03  0.13558575762E+03  0.00000000000E+00 0. -1.
         21    1    1    2  502  501 -0.16037542253E+02  0.12162200128E+02  0.31076700334E+02  0.37025439594E+02  0.00000000000E+00 0. -1.
<scales pt_clust_5="13000.00000" pt_clust_6="13000.00000" pt_clust_7="13000.00000" pt_clust_8="13000.00000" pt_clust_9="20.12764"></scales>
<clustering>
<clus scale="   20.128">  1  9  2 -1</clus>
<clus scale="   79.013">  5  6 -1 -1</clus>
<clus scale="   92.812">  7  8 -1 -1</clus>
<clus scale="  154.609">  2  5  1 -1</clus>
<clus scale="   20.128">  1  5  2 -1</clus>
</clustering>
</event>
<event>
 9    1  0.2374319E-005  0.1166263E+03  0.7546771E-02  0.1253037E+00
          1   -1    0    0  502    0  0.00000000000E+00  0.00000000000E+00  0.57651002765E+03  0.57651002765E+03  0.00000000000E+00 0. -1.
         -2   -1    0    0    0  501 -0.00000000000E+00 -0.00000000000E+00 -0.46652092354E+02  0.46652092354E+02  0.00000000000E+00 0.  1.
        -24    2    1    2    0    0 -0.57407415999E+02 -0.56409805792E+02  0.61600061574E+02  0.12869868548E+03  0.79316495494E+02 0.  0.
         23    2    1    2    0    0  0.53881809813E+02  0.41959346162E+01  0.31199863883E+03  0.32967366927E+03  0.91764493594E+02 0.  0.
         11    1    3    3    0    0 -0.22320396765E+02  0.10825861408E+02  0.44510807750E+02  0.50956956282E+02  0.00000000000E+00 0. -1.
        -12    1    3    3    0    0 -0.35087019234E+02 -0.67235667200E+02  0.17089253824E+02  0.77741729199E+02  0.00000000000E+00 0.  1.
        -11    1    4    4    0    0  0.17817558760E+02 -0.43309357609E+02  0.14054536074E+03  0.14814237841E+03  0.00000000000E+00 0. -1.
         11    1    4    4    0    0  0.36064251053E+02  0.47505292225E+02  0.17145327809E+03  0.18153129086E+03  0.00000000000E+00 0.  1.
         21    1    1    2  502  501  0.35256061857E+01  0.52213871176E+02  0.15625923489E+03  0.16478976525E+03  0.00000000000E+00 0.  1.
<scales pt_clust_5="13000.00000" pt_clust_6="13000.00000" pt_clust_7="13000.00000" pt_clust_8="13000.00000" pt_clust_9="52.33276"></scales>
<clustering>
<clus scale="   52.333">  1  9  2 -1</clus>
<clus scale="   79.316">  5  6 -1 -1</clus>
<clus scale="   91.764">  7  8 -1 -1</clus>
<clus scale="  107.108">  2  5  1 -1</clus>
<clus scale="   52.333">  1  5  2 -1</clus>
</clustering>
</event>
<event>
 9    1  0.2374319E-005  0.9198901E+02  0.7546771E-02  0.1303167E+00
         -2   -1    0    0    0  501 -0.00000000000E+00  0.00000000000E+00  0.76914635199E+02  0.76914635199E+02  0.00000000000E+00 0.  1.
          1   -1    0    0  502    0  0.00000000000E+00 -0.00000000000E+00 -0.25696641086E+03  0.25696641086E+03  0.00000000000E+00 0. -1.
        -24    2    1    2    0    0 -0.14813840764E+02  0.14021000214E+02  0.34354058348E+02  0.90470356063E+02  0.81170472932E+02 0.  0.
         23    2    1    2    0    0  0.22869480462E+01 -0.30308119446E+02 -0.17936982285E+03  0.20279400165E+03  0.89599450452E+02 0.  0.
         13    1    3    3    0    0  0.26926912325E+02 -0.16819472032E+02  0.14522726254E+02  0.34912215980E+02  0.00000000000E+00 0. -1.
        -14    1    3    3    0    0 -0.41740753090E+02  0.30840472246E+02  0.19831332094E+02  0.55558140083E+02  0.00000000000E+00 0.  1.
        -13    1    4    4    0    0 -0.18153655635E+02 -0.29695606527E+02 -0.17898807801E+03  0.18234066011E+03  0.00000000000E+00 0. -1.
         13    1    4    4    0    0  0.20440603681E+02 -0.61251291902E+00 -0.38174483521E+00  0.20453341537E+02  0.00000000000E+00 0.  1.
         21    1    1    2  502  501  0.12526892718E+02  0.16287119233E+02 -0.35036011158E+02  0.40616688343E+02  0.00000000000E+00 0.  1.
<scales pt_clust_5="13000.00000" pt_clust_6="13000.00000" pt_clust_7="13000.00000" pt_clust_8="13000.00000" pt_clust_9="20.54734"></scales>
<clustering>
<clus scale="   20.547">  2  9  1 -1</clus>
<clus scale="   81.170">  5  6 -1 -1</clus>
<clus scale="   83.801">  1  5  2 -1</clus>
<clus scale="   89.599">  7  8 -1 -1</clus>
<clus scale="   20.547">  2  5  1 -1</clus>
</clustering>
</event>
<event>
 9    1  0.2374319E-005  0.1016741E+03  0.7546771E-02  0.1282222E+00
         -2   -1    0    0    0  501 -0.00000000000E+00  0.00000000000E+00  0.17166521012E+03  0.17166521012E+03  0.00000000000E+00 0.  1.
          1   -1    0    0  502    0  0.00000000000E+00 -0.00000000000E+00 -0.28431061574E+03  0.28431061574E+03  0.00000000000E+00 0. -1.
        -24    2    1    2    0    0 -0.14264643757E+01  0.41764406526E+02  0.12674028104E+03  0.15567803059E+03  0.80163894085E+02 0.  0.
         23    2    1    2    0    0  0.43680965417E+02 -0.75364058532E+02 -0.15212459050E+03  0.19768747232E+03  0.91382042110E+02 0.  0.
         13    1    3    3    0    0 -0.35030990575E+02  0.19181238902E+01  0.71986558477E+02  0.80080672457E+02  0.00000000000E+00 0. -1.
        -14    1    3    3    0    0  0.33604526200E+02  0.39846282636E+02  0.54753722566E+02  0.75597358128E+02  0.00000000000E+00 0.  1.
        -13    1    4    4    0    0  0.59651626184E+02 -0.50453518825E+02 -0.14860187761E+03  0.16788803441E+03  0.00000000000E+00 0. -1.
         13    1    4    4    0    0 -0.15970660768E+02 -0.24910539707E+02 -0.35227128897E+01  0.29799437913E+02  0.00000000000E+00 0.  1.
         21    1    1    2  502  501 -0.42254501041E+02  0.33599652006E+02 -0.87261096162E+02  0.10261032295E+03  0.00000000000E+00 0. -1.
<scales pt_clust_5="13000.00000" pt_clust_6="13000.00000" pt_clust_7="13000.00000" pt_clust_8="13000.00000" pt_clust_9="53.98499"></scales>
<clustering>
<clus scale="   53.985">  2  9  1 -1</clus>
<clus scale="   80.164">  5  6 -1 -1</clus>
<clus scale="   91.382">  7  8 -1 -1</clus>
<clus scale="   91.724">  1  5  2 -1</clus>
<clus scale="   53.985">  2  5  1 -1</clus>
</clustering>
</event>
<event>
 9    1  0.2374319E-005  0.1138821E+03  0.7546771E-02  0.1255716E+00
         -2   -1    0    0    0  501 -0.00000000000E+00  0.00000000000E+00  0.78269787591E+02  0.78269787591E+02  0.00000000000E+00 0.  1.
          1   -1    0    0  502    0  0.00000000000E+00 -0.00000000000E+00 -0.22344164103E+03  0.22344164103E+03  0.00000000000E+00 0. -1.
        -24    2    1    2    0    0 -0.74166583171E+02 -0.16423128144E+02 -0.66465391198E+01  0.11214170651E+03  0.82226423126E+02 0.  0.
         23    2    1    2    0    0  0.57131125731E+02  0.27204508399E+02 -0.11069303299E+03  0.15520286519E+03  0.88492547745E+02 0.  0.
         13    1    3    3    0    0 -0.29234534618E+02 -0.20307109287E+02 -0.41841871372E+02  0.54934314430E+02  0.00000000000E+00 0. -1.
        -14    1    3    3    0    0 -0.44932048553E+02  0.38839811429E+01  0.35195332252E+02  0.57207392084E+02  0.00000000000E+00 0.  1.
        -13    1    4    4    0    0 -0.33149378393E+01  0.41992708487E+02 -0.23977495430E+02  0.48469543695E+02  0.00000000000E+00 0.  1.
         13    1    4    4    0    0  0.60446063570E+02 -0.14788200088E+02 -0.86715537560E+02  0.10673332150E+03  0.00000000000E+00 0. -1.
         21    1    1    2  502  501  0.17035457440E+02 -0.10781380255E+02 -0.27832281324E+02  0.34366856914E+02  0.00000000000E+00 0.  1.
<scales pt_clust_5="13000.00000" pt_clust_6="13000.00000" pt_clust_7="13000.00000" pt_clust_8="13000.00000" pt_clust_9="20.16048"></scales>
<clustering>
<clus scale="   20.160">  2  9  1 -1</clus>
<clus scale="   82.226">  5  6 -1 -1</clus>
<clus scale="   88.493">  7  8 -1 -1</clus>
<clus scale="  109.084">  1  5  2 -1</clus>
<clus scale="   20.160">  2  5  1 -1</clus>
</clustering>
</event>
<event>
 9    1  0.2374319E-005  0.1021649E+03  0.7546771E-02  0.1284115E+00
         -2   -1    0    0    0  501 -0.00000000000E+00  0.00000000000E+00  0.57587132796E+02  0.57587132796E+02  0.00000000000E+00 0.  1.
          1   -1    0    0  502    0  0.00000000000E+00 -0.00000000000E+00 -0.43692396137E+03  0.43692396137E+03  0.00000000000E+00 0. -1.
         23    2    1    2    0    0  0.15963797285E+01  0.40938953097E+02 -0.33845315515E+01  0.10238365589E+03  0.93767860326E+02 0.  0.
        -24    2    1    2    0    0  0.18544174373E+02 -0.38411983170E+02 -0.26398585158E+03  0.27833590783E+03  0.77220339935E+02 0.  0.
         11    1    4    4    0    0  0.15898665543E+01 -0.45791381628E+02 -0.25237844498E+03  0.25650391380E+03  0.00000000000E+00 0. -1.
        -12    1    4    4    0    0  0.16954307819E+02  0.73793984588E+01 -0.11607406603E+02  0.21831994029E+02  0.00000000000E+00 0.  1.
        -13    1    3    3    0    0 -0.40756226091E+02 -0.15101963499E+00  0.98020921290E+01  0.41918656732E+02  0.00000000000E+00 0.  1.
         13    1    3    3    0    0  0.42352605819E+02  0.41089972732E+02 -0.13186623680E+02  0.60464999155E+02  0.00000000000E+00 0. -1.
         21    1    1    2  502  501 -0.20140554101E+02 -0.25269699272E+01 -0.11196644544E+03  0.11379153044E+03  0.00000000000E+00 0. -1.
<scales pt_clust_5="13000.00000" pt_clust_6="13000.00000" pt_clust_7="13000.00000" pt_clust_8="13000.00000" pt_clust_9="20.29846"></scales>
<clustering>
<clus scale="   20.298">  2  9  1 -1</clus>
<clus scale="   77.220">  5  6 -1 -1</clus>
<clus scale="   87.225">  2  5  1 -1</clus>
<clus scale="   93.768">  7  8 -1 -1</clus>
<clus scale="   20.298">  2  5  1 -1</clus>
</clustering>
</event>
<event>
 9    1  0.2374319E-005  0.9620207E+02  0.7546771E-02  0.1293636E+00
         -2   -1    0    0    0  501 -0.00000000000E+00  0.00000000000E+00  0.41560226701E+03  0.41560226701E+03  0.00000000000E+00 0.  1.
          1   -1    0    0  502    0  0.00000000000E+00 -0.00000000000E+00 -0.10581961330E+03  0.10581961330E+03  0.00000000000E+00 0. -1.
         23    2    1    2    0    0 -0.24268542320E+02 -0.10715382550E+02  0.30420392092E+03  0.31870720234E+03  0.91271428983E+02 0.  0.
        -24    2    1    2    0    0  0.15184717790E+02  0.56744926132E+02  0.70213918166E+02  0.12284639929E+03  0.81918747653E+02 0.  0.
         11    1    4    4    0    0  0.25012502857E+02 -0.97500560094E+01  0.42221279543E+02  0.50033242326E+02  0.00000000000E+00 0. -1.
        -12    1    4    4    0    0 -0.98277850671E+01  0.66494982142E+02  0.27992638623E+02  0.72813156959E+02  0.00000000000E+00 0.  1.
        -11    1    3    3    0    0  0.15779559160E+02  0.32486489085E+02  0.11217210184E+03  0.11784289071E+03  0.00000000000E+00 0. -1.
         11    1    3    3    0    0 -0.40048101480E+02 -0.43201871635E+02  0.19203181908E+03  0.20086431163E+03  0.00000000000E+00 0.  1.
         21    1    1    2  502  501  0.90838245295E+01 -0.46029543582E+02 -0.64635185380E+02  0.79868278682E+02  0.00000000000E+00 0. -1.
<scales pt_clust_5="13000.00000" pt_clust_6="13000.00000" pt_clust_7="13000.00000" pt_clust_8="13000.00000" pt_clust_9="46.91732"></scales>
<clustering>
<clus scale="   46.917">  2  9  1 -1</clus>
<clus scale="   81.919">  5  6 -1 -1</clus>
<clus scale="   87.379">  2  5  1 -1</clus>
<clus scale="   91.271">  7  8 -1 -1</clus>
<clus scale="   46.917">  2  5  1 -1</clus>
</clustering>
</event>
<event>
 9    1  0.2374319E-005  0.1066119E+03  0.7546771E-02  0.1269867E+00
          1   -1    0    0  502    0  0.00000000000E+00  0.00000000000E+00  0.38789151634E+02  0.38789151634E+02  0.00000000000E+00 0. -1.
         -2   -1    0    0    0  501 -0.00000000000E+00 -0.00000000000E+00 -0.58396540183E+03  0.58396540183E+03  0.00000000000E+00 0.  1.
        -24    2    1    2    0    0  0.22073402525E+02  0.30211770101E+02 -0.43762698448E+03  0.44736074016E+03  0.84936847957E+02 0.  0.
         23    2    1    2    0    0 -0.40562756877E+02 -0.41335538527E+02 -0.61948920993E+02  0.12494596015E+03  0.91759795966E+02 0.  0.
         11    1    3    3    0    0  0.47743214739E+01  0.21723780727E+02 -0.21990309876E+02  0.31277636149E+02  0.00000000000E+00 0. -1.
        -12    1    3    3    0    0  0.17299081051E+02  0.84879893737E+01 -0.41563667460E+03  0.41608310401E+03  0.00000000000E+00 0.  1.
        -11    1    4    4    0    0  0.27899503041E+02 -0.25647147899E+02 -0.16828934305E+02  0.41465304716E+02  0.00000000000E+00 0.  1.
         11    1    4    4    0    0 -0.68462259919E+02 -0.15688390627E+02 -0.45119986688E+02  0.83480655438E+02  0.00000000000E+00 0. -1.
         21    1    1    2  502  501  0.18489354352E+02  0.11123768426E+02 -0.45600344722E+02  0.50447853146E+02  0.00000000000E+00 0.  1.
<scales pt_clust_5="13000.00000" pt_clust_6="13000.00000" pt_clust_7="13000.00000" pt_clust_8="13000.00000" pt_clust_9="21.57764"></scales>
<clustering>
<clus scale="   21.578">  2  9  1 -1</clus>
<clus scale="   84.937">  5  6 -1 -1</clus>
<clus scale="   91.760">  7  8 -1 -1</clus>
<clus scale="  100.799">  2  5  1 -1</clus>
<clus scale="  106.612">  1  5  2 -1</clus>
</clustering>
</event>
<event>
 9    1  0.2374319E-005  0.1650859E+03  0.7546771E-02  0.1184481E+00
          1   -1    0    0  502    0  0.00000000000E+00  0.00000000000E+00  0.65460866665E+03  0.65460866665E+03  0.00000000000E+00 0. -1.
         -2   -1    0    0    0  501 -0.00000000000E+00 -0.00000000000E+00 -0.60369811286E+02  0.60369811286E+02  0.00000000000E+00 0.  1.
        -24    2    1    2    0    0  0.15251147840E+03  0.60376329608E+00  0.13892547843E+03  0.22113413459E+03  0.79623497462E+02 0.  0.
         23    2    1    2    0    0 -0.11200133435E+03  0.20747233831E+02  0.32832714687E+03  0.35885382711E+03  0.89457292886E+02 0.  0.
         13    1    3    3    0    0  0.36758618515E+02 -0.35184534990E+02  0.40420167364E+02  0.64984132427E+02  0.00000000000E+00 0. -1.
        -14    1    3    3    0    0  0.11575285989E+03  0.35788298286E+02  0.98505311069E+02  0.15615000216E+03  0.00000000000E+00 0.  1.
        -13    1    4    4    0    0 -0.85139804782E+02 -0.71778098937E+01  0.29694253666E+03  0.30899057816E+03  0.00000000000E+00 0. -1.
         13    1    4    4    0    0 -0.26861529569E+02  0.27925043724E+02  0.31384610213E+02  0.49863248952E+02  0.00000000000E+00 0.  1.
         21    1    1    2  502  501 -0.40510144051E+02 -0.21350997127E+02  0.12698623006E+03  0.13499051624E+03  0.00000000000E+00 0. -1.
<scales pt_clust_5="13000.00000" pt_clust_6="13000.00000" pt_clust_7="13000.00000" pt_clust_8="13000.00000" pt_clust_9="45.79232"></scales>
<clustering>
<clus scale="   45.792">  1  9  2 -1</clus>
<clus scale="   79.623">  5  6 -1 -1</clus>
<clus scale="   89.457">  7  8 -1 -1</clus>
<clus scale="  159.971">  2  5  1 -1</clus>
<clus scale="   45.792">  1  5  2 -1</clus>
</clustering>
</event>
<event>
 9    1  0.2374319E-005  0.1147631E+03  0.7546771E-02  0.1256014E+00
         -2   -1    0    0    0  501 -0.00000000000E+00  0.00000000000E+00  0.42874544128E+02  0.42874544128E+02  0.00000000000E+00 0.  1.
          1   -1    0    0  502    0  0.00000000000E+00 -0.00000000000E+00 -0.53274229443E+03  0.53274229443E+03  0.00000000000E+00 0. -1.
         23    2    1    2    0    0 -0.63370687276E+02 -0.43296872484E+02 -0.71724936743E+02  0.13919916817E+03  0.91331696012E+02 0.  0.
        -24    2    1    2    0    0  0.44186727384E+02  0.23602978324E+02 -0.27751004673E+03  0.29312269877E+03  0.79997018913E+02 0.  0.
         11    1    4    4    0    0  0.24302244425E+01  0.42987967126E+02 -0.18299237138E+03  0.18798957229E+03  0.00000000000E+00 0. -1.
        -12    1    4    4    0    0  0.41756502942E+02 -0.19384988801E+02 -0.94517675356E+02  0.10513312648E+03  0.00000000000E+00 0.  1.
        -13    1    3    3    0    0  0.10887114511E+02 -0.43252655235E+02 -0.21208158402E+02  0.49387320539E+02  0.00000000000E+00 0. -1.
         13    1    3    3    0    0 -0.74257801787E+02 -0.44217249844E-01 -0.50516778341E+02  0.89811847634E+02  0.00000000000E+00 0.  1.
         21    1    1    2  502  501  0.19183959892E+02  0.19693894160E+02 -0.14063276683E+03  0.14329497161E+03  0.00000000000E+00 0. -1.
<scales pt_clust_5="13000.00000" pt_clust_6="13000.00000" pt_clust_7="13000.00000" pt_clust_8="13000.00000" pt_clust_9="27.49316"></scales>
<clustering>
<clus scale="   27.493">  2  9  1 -1</clus>
<clus scale="   79.997">  5  6 -1 -1</clus>
<clus scale="   91.332">  7  8 -1 -1</clus>
<clus scale="  105.965">  2  5  1 -1</clus>
<clus scale="   27.493">  2  5  1 -1</clus>
</clustering>
</event>
<event>
 9    1  0.2374319E-005  0.1348963E+03  0.7546771E-02  0.1224130E+00
          1   -1    0    0  502    0  0.00000000000E+00  0.00000000000E+00  0.44571369086E+03  0.44571369086E+03  0.00000000000E+00 0. -1.
         -2   -1    0    0    0  501 -0.00000000000E+00 -0.00000000000E+00 -0.73322313246E+02  0.73322313246E+02  0.00000000000E+00 0.  1.
         23    2    1    2    0    0  0.10204096846E+03 -0.20271008834E+02  0.67896468261E+02  0.15579775651E+03  0.94019878156E+02 0.  0.
        -24    2    1    2    0    0 -0.89901218969E+02 -0.36445957522E+01  0.96748622668E+02  0.15376784564E+03  0.78668558620E+02 0.  0.
         11    1    4    4    0    0 -0.53198155161E+02  0.34951232279E+02  0.68387190691E+02  0.93426121621E+02  0.00000000000E+00 0. -1.
        -12    1    4    4    0    0 -0.36703063808E+02 -0.38595828032E+02  0.28361431977E+02  0.60341724023E+02  0.00000000000E+00 0.  1.
        -11    1    3    3    0    0  0.58676026389E+02 -0.65765879111E+01 -0.15291226169E+02  0.60991386106E+02  0.00000000000E+00 0.  1.
         11    1    3    3    0    0  0.43364942075E+02 -0.13694420922E+02  0.83187694430E+02  0.94806370409E+02  0.00000000000E+00 0. -1.
         21    1    1    2  502  501 -0.12139749495E+02  0.23915604586E+02  0.20774628668E+03  0.20947040195E+03  0.00000000000E+00 0. -1.
<scales pt_clust_5="13000.00000" pt_clust_6="13000.00000" pt_clust_7="13000.00000" pt_clust_8="13000.00000" pt_clust_9="26.82032"></scales>
<clustering>
<clus scale="   26.820">  1  9  2 -1</clus>
<clus scale="   78.669">  5  6 -1 -1</clus>
<clus scale="   94.020">  7  8 -1 -1</clus>
<clus scale="  124.684">  1  5  2 -1</clus>
<clus scale="   26.820">  1  5  2 -1</clus>
</clustering>
</event>
<event>
 9    1  0.2374319E-005  0.1343324E+03  0.7546771E-02  0.1223624E+00
         -2   -1    0    0    0  501 -0.00000000000E+00  0.00000000000E+00  0.99150459109E+03  0.99150459109E+03  0.00000000000E+00 0.  1.
          1   -1    0    0  502    0  0.00000000000E+00 -0.00000000000E+00 -0.36756299109E+02  0.36756299109E+02  0.00000000000E+00 0. -1.
        -24    2    1    2    0    0 -0.79568872463E+02 -0.58845626828E+02  0.75629232166E+03  0.76698990708E+03  0.80631436101E+02 0.  0.
         23    2    1    2    0    0  0.59464660420E+02  0.83822300644E+02  0.16943072016E+03  0.21802195165E+03  0.90909727436E+02 0.  0.
         13    1    3    3    0    0 -0.26412637019E+02  0.18832759476E+02  0.15320437423E+03  0.15660102333E+03  0.00000000000E+00 0. -1.
        -14    1    3    3    0    0 -0.53156235444E+02 -0.77678386304E+02  0.60308794743E+03  0.61038888375E+03  0.00000000000E+00 0.  1.
        -11    1    4    4    0    0  0.17804199084E+02  0.15978795264E+02  0.12414653182E+03  0.12643050568E+03  0.00000000000E+00 0.  1.
         11    1    4    4    0    0  0.41660461335E+02  0.67843505380E+02  0.45284188337E+02  0.91591445966E+02  0.00000000000E+00 0. -1.
         21    1    1    2  502  501  0.20104212044E+02 -0.24976673816E+02  0.29025250160E+02  0.43249031476E+02  0.00000000000E+00 0. -1.
<scales pt_clust_5="13000.00000" pt_clust_6="13000.00000" pt_clust_7="13000.00000" pt_clust_8="13000.00000" pt_clust_9="32.06265"></scales>
<clustering>
<clus scale="   32.063">  2  9  1 -1</clus>
<clus scale="   80.631">  5  6 -1 -1</clus>
<clus scale="   90.910">  7  8 -1 -1</clus>
<clus scale="  127.601">  1  5  2 -1</clus>
<clus scale="   32.063">  2  5  1 -1</clus>
</clustering>
</event>
<event>
 9    1  0.2374319E-005  0.9500714E+02  0.7546771E-02  0.1298233E+00
         -2   -1    0    0    0  501 -0.00000000000E+00  0.00000000000E+00  0.36207907018E+03  0.36207907018E+03  0.00000000000E+00 0.  1.
          1   -1    0    0  502    0  0.00000000000E+00 -0.00000000000E+00 -0.48806518692E+02  0.48806518692E+02  0.00000000000E+00 0. -1.
        -24    2    1    2    0    0  0.11607179079E+02 -0.28792392955E+02  0.23607424555E+03  0.25111642613E+03  0.79778954394E+02 0.  0.
         23    2    1    2    0    0  0.25132331738E+02  0.65405625043E+01  0.63396576293E+02  0.11465349634E+03  0.91934135557E+02 0.  0.
         11    1    3    3    0    0  0.37478928741E+02 -0.18753844815E+02  0.20589756339E+03  0.21011945033E+03  0.00000000000E+00 0. -1.
        -12    1    3    3    0    0 -0.25871749662E+02 -0.10038548140E+02  0.30176682161E+02  0.40996975810E+02  0.00000000000E+00 0.  1.
        -11    1    4    4    0    0 -0.66378359454E+01 -0.37233216337E+02  0.11094635631E+02  0.39414010258E+02  0.00000000000E+00 0.  1.
         11    1    4    4    0    0  0.31770167683E+02  0.43773778841E+02  0.52301940662E+02  0.75239486081E+02  0.00000000000E+00 0. -1.
         21    1    1    2  502  501 -0.36739510817E+02  0.22251830451E+02  0.13801729648E+02  0.45115666400E+02  0.00000000000E+00 0.  1.
<scales pt_clust_5="13000.00000" pt_clust_6="13000.00000" pt_clust_7="13000.00000" pt_clust_8="13000.00000" pt_clust_9="42.95271"></scales>
<clustering>
<clus scale="   42.953">  2  9  1 -1</clus>
<clus scale="   79.779">  5  6 -1 -1</clus>
<clus scale="   83.302">  1  5  2 -1</clus>
<clus scale="   91.934">  7  8 -1 -1</clus>
<clus scale="   42.953">  2  5  1 -1</clus>
</clustering>
</event>
<event>
 9    1  0.2374319E-005  0.1317505E+03  0.7546771E-02  0.1226798E+00
          1   -1    0    0  502    0  0.00000000000E+00  0.00000000000E+00  0.73222506428E+03  0.73222506428E+03  0.00000000000E+00 0. -1.
         -2   -1    0    0    0  501 -0.00000000000E+00 -0.00000000000E+00 -0.10801362990E+03  0.10801362990E+03  0.00000000000E+00 0.  1.
         23    2    1    2    0    0  0.92867988235E+02 -0.32961853615E+02 -0.55762347215E+02  0.14427907746E+03  0.89420723514E+02 0.  0.
        -24    2    1    2    0    0 -0.80230504076E+02  0.37141632074E+01  0.48074223290E+03  0.49419652941E+03  0.81647941785E+02 0.  0.
         11    1    4    4    0    0 -0.86658463638E+02  0.14776434860E+02  0.46783485523E+03  0.47602256682E+03  0.00000000000E+00 0. -1.
        -12    1    4    4    0    0  0.64279595619E+01 -0.11062271652E+02  0.12907377667E+02  0.18173962597E+02  0.00000000000E+00 0.  1.
        -13    1    3    3    0    0  0.63986642026E+02  0.14678081306E+02 -0.59286485350E+02  0.88456903483E+02  0.00000000000E+00 0. -1.
         13    1    3    3    0    0  0.28881346209E+02 -0.47639934922E+02  0.35241381347E+01  0.55822173979E+02  0.00000000000E+00 0.  1.
         21    1    1    2  502  501 -0.12637484159E+02  0.29247690408E+02  0.19923154870E+03  0.20176308730E+03  0.00000000000E+00 0. -1.
<scales pt_clust_5="13000.00000" pt_clust_6="13000.00000" pt_clust_7="13000.00000" pt_clust_8="13000.00000" pt_clust_9="31.86116"></scales>
<clustering>
<clus scale="   31.861">  1  9  2 -1</clus>
<clus scale="   81.648">  5  6 -1 -1</clus>
<clus scale="   89.421">  7  8 -1 -1</clus>
<clus scale="  126.604">  1  5  2 -1</clus>
<clus scale="   31.861">  1  5  2 -1</clus>
</clustering>
</event>
<event>
 9    1  0.2374319E-005  0.1674161E+03  0.7546771E-02  0.1198433E+00
         -2   -1    0    0    0  501 -0.00000000000E+00  0.00000000000E+00  0.11965719215E+03  0.11965719215E+03  0.00000000000E+00 0.  1.
          1   -1    0    0  502    0  0.00000000000E+00 -0.00000000000E+00 -0.53152067920E+03  0.53152067920E+03  0.00000000000E+00 0. -1.
         23    2    1    2    0    0  0.12828083284E+03 -0.70182350728E+02 -0.82550452394E+01  0.17254786328E+03  0.91230942789E+02 0.  0.
        -24    2    1    2    0    0  0.13106011285E+02  0.76835559172E+02 -0.21537998802E+03  0.24312107897E+03  0.81509809917E+02 0.  0.
         13    1    4    4    0    0 -0.17215917295E+02  0.77856954057E+02 -0.12994601827E+03  0.15246003006E+03  0.00000000000E+00 0. -1.
        -14    1    4    4    0    0  0.30321928580E+02 -0.10213948842E+01 -0.85433969754E+02  0.90661048904E+02  0.00000000000E+00 0.  1.
        -13    1    3    3    0    0  0.12409660336E+03 -0.26899755558E+02  0.50335968666E+01  0.12707832590E+03  0.00000000000E+00 0.  1.
         13    1    3    3    0    0  0.41842294810E+01 -0.43282595170E+02 -0.13288642106E+02  0.45469537385E+02  0.00000000000E+00 0. -1.
         21    1    1    2  502  501 -0.14138684413E+03 -0.66532084445E+01 -0.18822845378E+03  0.23550892911E+03  0.00000000000E+00 0.  1.
<scales pt_clust_5="13000.00000" pt_clust_6="13000.00000" pt_clust_7="13000.00000" pt_clust_8="13000.00000" pt_clust_9="140.37477"></scales>
<clustering>
<clus scale="   81.510">  5  6 -1 -1</clus>
<clus scale="   91.231">  7  8 -1 -1</clus>
<clus scale="  112.780">  2  5  1 -1</clus>
<clus scale="  140.375">  2  9  1 -1</clus>
<clus scale="  112.780">  2  5  1 -1</clus>
</clustering>
</event>
<event>
 9    1  0.2374319E-005  0.4556615E+03  0.7546771E-02  0.1026047E+00
         -2   -1    0    0    0  501 -0.00000000000E+00  0.00000000000E+00  0.49807844951E+03  0.49807844951E+03  0.00000000000E+00 0.  1.
          1   -1    0    0  502    0  0.00000000000E+00 -0.00000000000E+00 -0.43238848947E+03  0.43238848947E+03  0.00000000000E+00 0. -1.
        -24    2    1    2    0    0  0.27010055523E+02  0.11857110814E+03  0.76680775404E+02  0.16503353150E+03  0.81039955679E+02 0.  0.
         23    2    1    2    0    0  0.23745506636E+03  0.17624551225E+03  0.14259388412E+03  0.34064298825E+03  0.90869359678E+02 0.  0.
         11    1    3    3    0    0  0.49357040776E+01  0.34071820358E+02  0.69308248929E+02  0.77387876873E+02  0.00000000000E+00 0. -1.
        -12    1    3    3    0    0  0.22074351446E+02  0.84499287786E+02  0.73725264744E+01  0.87645654625E+02  0.00000000000E+00 0.  1.
        -13    1    4    4    0    0  0.21873169339E+03  0.15604335042E+03  0.15526605322E+03  0.31032342513E+03  0.00000000000E+00 0.  1.
         13    1    4    4    0    0  0.18723372977E+02  0.20202161832E+02 -0.12672169101E+02  0.30319563124E+02  0.00000000000E+00 0. -1.
         21    1    1    2  502  501 -0.26446512189E+03 -0.29481662039E+03 -0.15358469948E+03  0.42479041923E+03  0.00000000000E+00 0. -1.
<scales pt_clust_5="13000.00000" pt_clust_6="13000.00000" pt_clust_7="13000.00000" pt_clust_8="13000.00000" pt_clust_9="396.05384"></scales>
<clustering>
<clus scale="   81.040">  5  6 -1 -1</clus>
<clus scale="   90.869">  7  8 -1 -1</clus>
<clus scale="  124.861">  5  7 -1 -1</clus>
<clus scale="  396.054">  2  9  1 -1</clus>
<clus scale="  396.054">  2  5  1 -1</clus>
</clustering>
</event>
<event>
 9    1  0.2374319E-005  0.9373406E+02  0.7546771E-02  0.1298452E+00
         -2   -1    0    0    0  501 -0.00000000000E+00  0.00000000000E+00  0.44507334246E+03  0.44507334246E+03  0.00000000000E+00 0.  1.
          1   -1    0    0  502    0  0.00000000000E+00 -0.00000000000E+00 -0.64837040682E+02  0.64837040682E+02  0.00000000000E+00 0. -1.
        -24    2    1    2    0    0 -0.32504292483E+02  0.18637526060E+02  0.33397823228E+03  0.34565931900E+03  0.80839462936E+02 0.  0.
         23    2    1    2    0    0  0.12676964841E+02  0.17707300584E+02  0.71334969793E+02  0.11584734245E+03  0.88643527148E+02 0.  0.
         13    1    3    3    0    0 -0.31065426033E+02 -0.26246696474E+02  0.11128566447E+03  0.11848396046E+03  0.00000000000E+00 0. -1.
        -14    1    3    3    0    0 -0.14388664501E+01  0.44884222533E+02  0.22269256782E+03  0.22717535854E+03  0.00000000000E+00 0.  1.
        -11    1    4    4    0    0  0.39528656909E+02  0.39747398400E+02  0.38162162729E+02  0.67813870711E+02  0.00000000000E+00 0. -1.
         11    1    4    4    0    0 -0.26851692068E+02 -0.22040097815E+02  0.33172807064E+02  0.48033471737E+02  0.00000000000E+00 0.  1.
         21    1    1    2  502  501  0.19827327641E+02 -0.36344826644E+02 -0.25076900297E+02  0.48403721693E+02  0.00000000000E+00 0. -1.
<scales pt_clust_5="13000.00000" pt_clust_6="13000.00000" pt_clust_7="13000.00000" pt_clust_8="13000.00000" pt_clust_9="41.40132"></scales>
<clustering>
<clus scale="   41.401">  2  9  1 -1</clus>
<clus scale="   80.839">  5  6 -1 -1</clus>
<clus scale="   86.391">  1  5  2 -1</clus>
<clus scale="   88.644">  7  8 -1 -1</clus>
<clus scale="   41.401">  2  5  1 -1</clus>
</clustering>
</event>
<event>
 9    1  0.2374319E-005  0.1398196E+03  0.7546771E-02  0.1216884E+00
         -2   -1    0    0    0  501 -0.00000000000E+00  0.00000000000E+00  0.75229015143E+03  0.75229015143E+03  0.00000000000E+00 0.  1.
          1   -1    0    0  502    0  0.00000000000E+00 -0.00000000000E+00 -0.71823605434E+02  0.71823605434E+02  0.00000000000E+00 0. -1.
        -24    2    1    2    0    0 -0.34201217454E+02 -0.10018465007E+03  0.65644887510E+03  0.66973287767E+03  0.80064439245E+02 0.  0.
         23    2    1    2    0    0  0.32239100734E+02  0.71390048679E+02  0.13393395358E+02  0.12362613644E+03  0.94700263486E+02 0.  0.
         11    1    3    3    0    0 -0.32422662232E+02 -0.13806873563E+01  0.12305384699E+03  0.12726108825E+03  0.00000000000E+00 0. -1.
        -12    1    3    3    0    0 -0.17785552218E+01 -0.98803962712E+02  0.53339502811E+03  0.54247178942E+03  0.00000000000E+00 0.  1.
        -13    1    4    4    0    0  0.51176606110E+02  0.63967184222E+02  0.39160171288E+02  0.90798483939E+02  0.00000000000E+00 0.  1.
         13    1    4    4    0    0 -0.18937505376E+02  0.74228644562E+01 -0.25766775931E+02  0.32827652497E+02  0.00000000000E+00 0. -1.
         21    1    1    2  502  501  0.19621167203E+01  0.28794601390E+02  0.10624275539E+02  0.30754742756E+02  0.00000000000E+00 0. -1.
<scales pt_clust_5="13000.00000" pt_clust_6="13000.00000" pt_clust_7="13000.00000" pt_clust_8="13000.00000" pt_clust_9="28.86138"></scales>
<clustering>
<clus scale="   28.861">  2  9  1 -1</clus>
<clus scale="   80.064">  5  6 -1 -1</clus>
<clus scale="   94.700">  7  8 -1 -1</clus>
<clus scale="  130.352">  1  5  2 -1</clus>
<clus scale="   28.861">  2  5  1 -1</clus>
</clustering>
</event>
<event>
 9    1  0.2374319E-005  0.2035903E+03  0.7546771E-02  0.1147787E+00
          1   -1    0    0  502    0  0.00000000000E+00  0.00000000000E+00  0.76946167238E+03  0.76946167238E+03  0.00000000000E+00 0. -1.
         -2   -1    0    0    0  501 -0.00000000000E+00 -0.00000000000E+00 -0.16652406289E+03  0.16652406289E+03  0.00000000000E+00 0.  1.
         23    2    1    2    0    0 -0.16590977301E+03 -0.12491096276E+03 -0.45124285202E+02  0.23138410368E+03  0.91507381789E+02 0.  0.
        -24    2    1    2    0    0  0.15562853958E+03  0.88961724301E+02  0.63558621555E+03  0.66518470531E+03  0.79789874392E+02 0.  0.
         11    1    4    4    0    0  0.14909767630E+03  0.50825822902E+02  0.51162266803E+03  0.53532339365E+03  0.00000000000E+00 0. -1.
        -12    1    4    4    0    0  0.65308632832E+01  0.38135901399E+02  0.12396354752E+03  0.12986131166E+03  0.00000000000E+00 0.  1.
        -13    1    3    3    0    0 -0.10865195480E+03 -0.12903707672E+03 -0.42285458416E+02  0.17390766068E+03  0.00000000000E+00 0.  1.
         13    1    3    3    0    0 -0.57257818207E+02  0.41261139535E+01 -0.28388267860E+01  0.57476442998E+02  0.00000000000E+00 0. -1.
         21    1    1    2  502  501  0.10281233432E+02  0.35949238463E+02  0.12475679138E+02  0.39416926275E+02  0.00000000000E+00 0. -1.
<scales pt_clust_5="13000.00000" pt_clust_6="13000.00000" pt_clust_7="13000.00000" pt_clust_8="13000.00000" pt_clust_9="37.39053"></scales>
<clustering>
<clus scale="   37.391">  2  9  1 -1</clus>
<clus scale="   79.790">  5  6 -1 -1</clus>
<clus scale="   91.507">  7  8 -1 -1</clus>
<clus scale="  198.600">  1  5  2 -1</clus>
<clus scale="  198.600">  1  5  2 -1</clus>
</clustering>
</event>
<event>
 9    1  0.2374319E-005  0.3349898E+03  0.7546771E-02  0.1069081E+00
          1   -1    0    0  502    0  0.00000000000E+00  0.00000000000E+00  0.66969170501E+03  0.66969170501E+03  0.00000000000E+00 0. -1.
         -2   -1    0    0    0  501 -0.00000000000E+00 -0.00000000000E+00 -0.60268052264E+03  0.60268052264E+03  0.00000000000E+00 0.  1.
         23    2    1    2    0    0 -0.33220010799E+03 -0.17473973285E+02 -0.48014410656E+03  0.59057679783E+03  0.87065145615E+02 0.  0.
        -24    2    1    2    0    0  0.26855736765E+03  0.42095765417E+02  0.25474422056E+03  0.38152744293E+03  0.82301024404E+02 0.  0.
         11    1    4    4    0    0  0.20336698590E+03  0.59213293872E+02  0.16093566296E+03  0.26601622645E+03  0.00000000000E+00 0. -1.
        -12    1    4    4    0    0  0.65190381750E+02 -0.17117528454E+02  0.93808557609E+02  0.11551121649E+03  0.00000000000E+00 0.  1.
        -13    1    3    3    0    0 -0.25773147762E+03 -0.15072668094E+02 -0.42728107638E+03  0.49922121160E+03  0.00000000000E+00 0.  1.
         13    1    3    3    0    0 -0.74468630369E+02 -0.24013051916E+01 -0.52863030183E+02  0.91355586232E+02  0.00000000000E+00 0. -1.
         21    1    1    2  502  501  0.63642740342E+02 -0.24621792132E+02  0.29241106837E+03  0.30026798689E+03  0.00000000000E+00 0.  1.
<scales pt_clust_5="13000.00000" pt_clust_6="13000.00000" pt_clust_7="13000.00000" pt_clust_8="13000.00000" pt_clust_9="68.23951"></scales>
<clustering>
<clus scale="   68.240">  1  9  2 -1</clus>
<clus scale="   82.301">  5  6 -1 -1</clus>
<clus scale="   87.065">  7  8 -1 -1</clus>
<clus scale="  333.783">  1  5  2 -1</clus>
<clus scale="   68.240">  1  5  2 -1</clus>
</clustering>
</event>
<event>
 9    1  0.2374319E-005  0.1426148E+03  0.7546771E-02  0.1211896E+00
         -2   -1    0    0    0  501 -0.00000000000E+00  0.00000000000E+00  0.12739638161E+03  0.12739638161E+03  0.00000000000E+00 0.  1.
          1   -1    0    0  502    0  0.00000000000E+00 -0.00000000000E+00 -0.27104592067E+03  0.27104592067E+03  0.00000000000E+00 0. -1.
        -24    2    1    2    0    0  0.43701293348E+02  0.10567881247E+03  0.52815381775E+02  0.14891419402E+03  0.79423914429E+02 0.  0.
         23    2    1    2    0    0 -0.48004610089E+02 -0.85458523376E+02 -0.17610762237E+03  0.22051434901E+03  0.89471121894E+02 0.  0.
         11    1    3    3    0    0 -0.20046205955E+02  0.61835732551E+01  0.60705901509E+01  0.21838933494E+02  0.00000000000E+00 0. -1.
        -12    1    3    3    0    0  0.63747499303E+02  0.99495239211E+02  0.46744791624E+02  0.12707526052E+03  0.00000000000E+00 0.  1.
        -11    1    4    4    0    0 -0.18307592340E+02 -0.59590900591E+02 -0.16947436627E+03  0.18057631127E+03  0.00000000000E+00 0. -1.
         11    1    4    4    0    0 -0.29697017750E+02 -0.25867622786E+02 -0.66332561070E+01  0.39938037738E+02  0.00000000000E+00 0.  1.
         21    1    1    2  502  501  0.43033167410E+01 -0.20220289090E+02 -0.20357298459E+02  0.29013759260E+02  0.00000000000E+00 0. -1.
<scales pt_clust_5="13000.00000" pt_clust_6="13000.00000" pt_clust_7="13000.00000" pt_clust_8="13000.00000" pt_clust_9="20.67314"></scales>
<clustering>
<clus scale="   20.673">  2  9  1 -1</clus>
<clus scale="   79.424">  5  6 -1 -1</clus>
<clus scale="   89.471">  7  8 -1 -1</clus>
<clus scale="  136.536">  1  5  2 -1</clus>
<clus scale="   20.673">  2  5  1 -1</clus>
</clustering>
</event>
<event>
 9    1  0.2374319E-005  0.4479329E+03  0.7546771E-02  0.1028340E+00
         -2   -1    0    0    0  501 -0.00000000000E+00  0.00000000000E+00  0.47273818708E+03  0.47273818708E+03  0.00000000000E+00 0.  1.
          1   -1    0    0  502    0  0.00000000000E+00 -0.00000000000E+00 -0.39154559555E+03  0.39154559555E+03  0.00000000000E+00 0. -1.
        -24    2    1    2    0    0  0.75048304098E+02 -0.15740842170E+03  0.48540030749E+02  0.19816070560E+03  0.80634183135E+02 0.  0.
         23    2    1    2    0    0  0.12478193242E+03 -0.15737792974E+03 -0.13377335583E+03  0.25780928078E+03  0.90730210519E+02 0.  0.
         13    1    3    3    0    0  0.74265304379E+02 -0.16440235027E+03  0.55012069206E+02  0.18859956513E+03  0.00000000000E+00 0. -1.
        -14    1    3    3    0    0  0.78299971939E+00  0.69939285683E+01 -0.64720384575E+01  0.95611404746E+01  0.00000000000E+00 0.  1.
        -11    1    4    4    0    0  0.46475330980E+02 -0.93667868000E+01 -0.55429305011E+02  0.72939022057E+02  0.00000000000E+00 0.  1.
         11    1    4    4    0    0  0.78306601444E+02 -0.14801114294E+03 -0.78344050816E+02  0.18487025872E+03  0.00000000000E+00 0. -1.
         21    1    1    2  502  501 -0.19983023652E+03  0.31478635143E+03  0.16642591661E+03  0.40831379624E+03  0.00000000000E+00 0.  1.
<scales pt_clust_5="13000.00000" pt_clust_6="13000.00000" pt_clust_7="13000.00000" pt_clust_8="13000.00000" pt_clust_9="372.85731"></scales>
<clustering>
<clus scale="   80.634">  5  6 -1 -1</clus>
<clus scale="   90.730">  7  8 -1 -1</clus>
<clus scale="  189.451">  5  7 -1 -1</clus>
<clus scale="  372.857">  1  9  2 -1</clus>
<clus scale="  447.933">  2  5  1 -1</clus>
</clustering>
</event>
<event>
 9    1  0.2374319E-005  0.1032682E+03  0.7546771E-02  0.1287969E+00
          1   -1    0    0  502    0  0.00000000000E+00  0.00000000000E+00  0.56262608784E+03  0.56262608784E+03  0.00000000000E+00 0. -1.
         -2   -1    0    0    0  501 -0.00000000000E+00 -0.00000000000E+00 -0.45620626203E+02  0.45620626203E+02  0.00000000000E+00 0.  1.
        -24    2    1    2    0    0  0.63371253495E+02 -0.44916626824E+02  0.15034363132E+03  0.18198514189E+03  0.66947481323E+02 0.  0.
         23    2    1    2    0    0 -0.30260301724E+02 -0.20095366499E+02  0.32872249786E+03  0.34402844409E+03  0.94750093054E+02 0.  0.
         11    1    3    3    0    0  0.20244505816E+02 -0.53477881421E+02  0.99558051868E+02  0.11481084230E+03  0.00000000000E+00 0. -1.
        -12    1    3    3    0    0  0.43126747679E+02  0.85612545968E+01  0.50785579453E+02  0.67174299595E+02  0.00000000000E+00 0.  1.
        -13    1    4    4    0    0  0.34356666564E+02 -0.11799073564E+02  0.11697834414E+03  0.12248890429E+03  0.00000000000E+00 0.  1.
         13    1    4    4    0    0 -0.64616968289E+02 -0.82962929347E+01  0.21174415371E+03  0.22153953981E+03  0.00000000000E+00 0. -1.
         21    1    1    2  502  501 -0.33110951771E+02  0.65011993323E+02  0.37939332463E+02  0.82233128061E+02  0.00000000000E+00 0.  1.
<scales pt_clust_5="13000.00000" pt_clust_6="13000.00000" pt_clust_7="13000.00000" pt_clust_8="13000.00000" pt_clust_9="72.95817"></scales>
<clustering>
<clus scale="   66.947">  5  6 -1 -1</clus>
<clus scale="   72.958">  2  9  1 -1</clus>
<clus scale="   78.541">  2  5  1 -1</clus>
<clus scale="   94.750">  7  8 -1 -1</clus>
<clus scale="  103.268">  1  5  2 -1</clus>
</clustering>
</event>
<event>
 9    1  0.2374319E-005  0.1314847E+03  0.7546771E-02  0.1227834E+00
         -2   -1    0    0    0  501 -0.00000000000E+00  0.00000000000E+00  0.82585861610E+03  0.82585861610E+03  0.00000000000E+00 0.  1.
          1   -1    0    0  502    0  0.00000000000E+00 -0.00000000000E+00 -0.39304192071E+02  0.39304192071E+02  0.00000000000E+00 0. -1.
         23    2    1    2    0    0  0.79240893288E+00  0.62071974202E+02  0.39090791897E+03  0.40617005724E+03  0.91167737651E+02 0.  0.
        -24    2    1    2    0    0 -0.60309819590E+02 -0.95216589654E+02  0.15130339376E+03  0.20533068490E+03  0.81021601532E+02 0.  0.
         11    1    4    4    0    0 -0.39710445649E+02 -0.65885779436E+02  0.15102409303E+03  0.16948785237E+03  0.00000000000E+00 0. -1.
        -12    1    4    4    0    0 -0.20599373941E+02 -0.29330810218E+02  0.27930072703E+00  0.35842832529E+02  0.00000000000E+00 0.  1.
        -13    1    3    3    0    0 -0.39344852098E+02  0.45436214200E+02  0.15404403893E+03  0.16535426477E+03  0.00000000000E+00 0.  1.
         13    1    3    3    0    0  0.40137261030E+02  0.16635760002E+02  0.23686388004E+03  0.24081579247E+03  0.00000000000E+00 0. -1.
         21    1    1    2  502  501  0.59517410657E+02  0.33144615453E+02  0.24434311129E+03  0.25366206603E+03  0.00000000000E+00 0.  1.
<scales pt_clust_5="13000.00000" pt_clust_6="13000.00000" pt_clust_7="13000.00000" pt_clust_8="13000.00000" pt_clust_9="68.12406"></scales>
<clustering>
<clus scale="   68.124">  1  9  2 -1</clus>
<clus scale="   81.022">  5  6 -1 -1</clus>
<clus scale="   91.168">  7  8 -1 -1</clus>
<clus scale="  124.664">  2  5  1 -1</clus>
<clus scale="  124.664">  2  5  1 -1</clus>
</clustering>
</event>
<event>
 9    1  0.2374319E-005  0.2778398E+03  0.7546771E-02  0.1097381E+00
         -2   -1    0    0    0  501 -0.00000000000E+00  0.00000000000E+00  0.99945003051E+03  0.99945003051E+03  0.00000000000E+00 0.  1.
          1   -1    0    0  502    0  0.00000000000E+00 -0.00000000000E+00 -0.17682112054E+03  0.17682112054E+03  0.00000000000E+00 0. -1.
        -24    2    1    2    0    0  0.25157509851E+03 -0.73004401614E+02  0.76699455733E+03  0.81443710493E+03  0.80046699302E+02 0.  0.
         23    2    1    2    0    0 -0.27051694883E+03  0.10323789931E+02  0.18235536790E+02  0.28642632635E+03  0.91768760380E+02 0.  0.
         13    1    3    3    0    0  0.89166144945E+02 -0.39831352519E+02  0.18368521051E+03  0.20803219608E+03  0.00000000000E+00 0. -1.
        -14    1    3    3    0    0  0.16240895356E+03 -0.33173049095E+02  0.58330934683E+03  0.60640490885E+03  0.00000000000E+00 0.  1.
        -11    1    4    4    0    0 -0.22068152136E+03  0.29626528272E+02  0.44206144009E+02  0.22700715454E+03  0.00000000000E+00 0.  1.
         11    1    4    4    0    0 -0.49835427474E+02 -0.19302738341E+02 -0.25970607219E+02  0.59419171807E+02  0.00000000000E+00 0. -1.
         21    1    1    2  502  501  0.18941850324E+02  0.62680611683E+02  0.37398815837E+02  0.75407719768E+02  0.00000000000E+00 0. -1.
<scales pt_clust_5="13000.00000" pt_clust_6="13000.00000" pt_clust_7="13000.00000" pt_clust_8="13000.00000" pt_clust_9="65.48017"></scales>
<clustering>
<clus scale="   65.480">  2  9  1 -1</clus>
<clus scale="   80.047">  5  6 -1 -1</clus>
<clus scale="   91.769">  7  8 -1 -1</clus>
<clus scale="  274.191">  1  5  2 -1</clus>
<clus scale="   65.480">  2  5  1 -1</clus>
</clustering>
</event>
<event>
 9    1  0.2374319E-005  0.1094686E+03  0.7546771E-02  0.1265156E+00
          1   -1    0    0  502    0  0.00000000000E+00  0.00000000000E+00  0.29111848958E+03  0.29111848958E+03  0.00000000000E+00 0. -1.
         -2   -1    0    0    0  501 -0.00000000000E+00 -0.00000000000E+00 -0.15038447680E+03  0.15038447680E+03  0.00000000000E+00 0.  1.
         23    2    1    2    0    0  0.52890241859E+02 -0.31260930283E+02 -0.10812256650E+03  0.15325056984E+03  0.89557938374E+02 0.  0.
        -24    2    1    2    0    0 -0.64107037457E+02  0.48519174809E+02  0.24058581830E+03  0.26606976831E+03  0.80297964289E+02 0.  0.
         11    1    4    4    0    0 -0.71491329383E+02  0.63606749228E+02  0.21650404333E+03  0.23670832157E+03  0.00000000000E+00 0. -1.
        -12    1    4    4    0    0  0.73842919259E+01 -0.15087574418E+02  0.24081774971E+02  0.29361446743E+02  0.00000000000E+00 0.  1.
        -11    1    3    3    0    0  0.71610790355E+02 -0.60665684720E+00 -0.61501245469E+02  0.94397439170E+02  0.00000000000E+00 0.  1.
         11    1    3    3    0    0 -0.18720548495E+02 -0.30654273435E+02 -0.46621321027E+02  0.58853130674E+02  0.00000000000E+00 0. -1.
         21    1    1    2  502  501  0.11216795597E+02 -0.17258244526E+02  0.82707609827E+01  0.22182628222E+02  0.00000000000E+00 0.  1.
<scales pt_clust_5="13000.00000" pt_clust_6="13000.00000" pt_clust_7="13000.00000" pt_clust_8="13000.00000" pt_clust_9="20.58309"></scales>
<clustering>
<clus scale="   20.583">  1  9  2 -1</clus>
<clus scale="   80.298">  5  6 -1 -1</clus>
<clus scale="   89.558">  7  8 -1 -1</clus>
<clus scale="  102.032">  1  5  2 -1</clus>
<clus scale="   20.583">  1  5  2 -1</clus>
</clustering>
</event>
<event>
 9    1  0.2374319E-005  0.1633405E+03  0.7546771E-02  0.1188317E+00
         -2   -1    0    0    0  501 -0.00000000000E+00  0.00000000000E+00  0.17164806351E+03  0.17164806351E+03  0.00000000000E+00 0.  1.
          1   -1    0    0  502    0  0.00000000000E+00 -0.00000000000E+00 -0.18388577397E+03  0.18388577397E+03  0.00000000000E+00 0. -1.
         23    2    1    2    0    0  0.95321151701E+02  0.11155916963E+03  0.46529117759E+02  0.16408107920E+03  0.56798516361E+02 0.  0.
        -24    2    1    2    0    0 -0.68490634963E+02 -0.11151489759E+03 -0.45807837517E+02  0.16165655000E+03  0.83114034412E+02 0.  0.
         13    1    4    4    0    0 -0.72958636696E+02 -0.11164037501E+03 -0.60392132642E+02  0.14640268333E+03  0.00000000000E+00 0. -1.
        -14    1    4    4    0    0  0.44680017331E+01  0.12547741524E+00  0.14584295125E+02  0.15253866669E+02  0.00000000000E+00 0.  1.
        -11    1    3    3    0    0  0.67722722497E+02  0.10223020322E+03  0.19171070232E+02  0.12411652399E+03  0.00000000000E+00 0. -1.
         11    1    3    3    0    0  0.27598429204E+02  0.93289664139E+01  0.27358047527E+02  0.39964555212E+02  0.00000000000E+00 0.  1.
         21    1    1    2  502  501 -0.26830516738E+02 -0.44272040365E-01 -0.12958990706E+02  0.29796208291E+02  0.00000000000E+00 0.  1.
<scales pt_clust_5="13000.00000" pt_clust_6="13000.00000" pt_clust_7="13000.00000" pt_clust_8="13000.00000" pt_clust_9="26.83055"></scales>
<clustering>
<clus scale="   26.831">  2  9  1 -1</clus>
<clus scale="   56.799">  7  8 -1 -1</clus>
<clus scale="   83.114">  5  6 -1 -1</clus>
<clus scale="  151.652">  1  7  2 -1</clus>
<clus scale="   26.831">  2  5  1 -1</clus>
</clustering>
</event>
<event>
 9    1  0.2374319E-005  0.1118796E+03  0.7546771E-02  0.1260442E+00
          1   -1    0    0  502    0  0.00000000000E+00  0.00000000000E+00  0.19296892065E+03  0.19296892065E+03  0.00000000000E+00 0. -1.
         -2   -1    0    0    0  501 -0.00000000000E+00 -0.00000000000E+00 -0.13417123301E+03  0.13417123301E+03  0.00000000000E+00 0.  1.
        -24    2    1    2    0    0  0.59371086954E+02  0.33129675287E+02 -0.50489256064E+02  0.11771216563E+03  0.81758715803E+02 0.  0.
         23    2    1    2    0    0 -0.26783903839E+02 -0.65840664822E+02  0.32257712249E+02  0.11962021644E+03  0.90642515035E+02 0.  0.
         13    1    3    3    0    0  0.48084938921E+02 -0.56253686477E+01  0.54623426380E+01  0.48720050396E+02  0.00000000000E+00 0. -1.
        -14    1    3    3    0    0  0.11286148032E+02  0.38755043934E+02 -0.55951598702E+02  0.68992115238E+02  0.00000000000E+00 0.  1.
        -11    1    4    4    0    0 -0.50778037339E+01 -0.54395218238E+02  0.60960039650E+02  0.81858110729E+02  0.00000000000E+00 0.  1.
         11    1    4    4    0    0 -0.21706100105E+02 -0.11445446584E+02 -0.28702327401E+02  0.37762105708E+02  0.00000000000E+00 0. -1.
         21    1    1    2  502  501 -0.32587183114E+02  0.32710989535E+02  0.77029231458E+02  0.89807771594E+02  0.00000000000E+00 0. -1.
<scales pt_clust_5="13000.00000" pt_clust_6="13000.00000" pt_clust_7="13000.00000" pt_clust_8="13000.00000" pt_clust_9="46.17286"></scales>
<clustering>
<clus scale="   46.173">  1  9  2 -1</clus>
<clus scale="   81.759">  5  6 -1 -1</clus>
<clus scale="   90.643">  7  8 -1 -1</clus>
<clus scale="  104.812">  2  5  1 -1</clus>
<clus scale="   46.173">  1  5  2 -1</clus>
</clustering>
</event>
<event>
 9    1  0.2374319E-005  0.1050019E+03  0.7546771E-02  0.1273976E+00
          3   -1    0    0  502    0  0.00000000000E+00  0.00000000000E+00  0.62504305524E+02  0.62504305524E+02  0.00000000000E+00 0. -1.
         -4   -1    0    0    0  501 -0.00000000000E+00 -0.00000000000E+00 -0.26641265297E+03  0.26641265297E+03  0.00000000000E+00 0.  1.
        -24    2    1    2    0    0  0.57238386198E+02  0.24695501563E+02 -0.16077050881E+03  0.19091943823E+03  0.81957151848E+02 0.  0.
         23    2    1    2    0    0 -0.22573841748E+02 -0.22726906643E+02 -0.29383306746E+02  0.10065192942E+03  0.90781834988E+02 0.  0.
         11    1    3    3    0    0  0.77289132336E+02  0.99533726888E+01 -0.11721436042E+03  0.14075470114E+03  0.00000000000E+00 0. -1.
        -12    1    3    3    0    0 -0.20050746138E+02  0.14742128874E+02 -0.43556148392E+02  0.50164737089E+02  0.00000000000E+00 0.  1.
        -11    1    4    4    0    0 -0.54313385221E+02 -0.94946628605E+01  0.43213770954E+00  0.55138726681E+02  0.00000000000E+00 0.  1.
         11    1    4    4    0    0  0.31739543473E+02 -0.13232243782E+02 -0.29815444455E+02  0.45513202738E+02  0.00000000000E+00 0. -1.
         21    1    1    2  502  501 -0.34664544450E+02 -0.19685949201E+01 -0.13754531885E+02  0.37345590840E+02  0.00000000000E+00 0.  1.
<scales pt_clust_5="13000.00000" pt_clust_6="13000.00000" pt_clust_7="13000.00000" pt_clust_8="13000.00000" pt_clust_9="34.72040"></scales>
<clustering>
<clus scale="   34.720">  1  9  2 -1</clus>
<clus scale="   81.957">  5  6 -1 -1</clus>
<clus scale="   90.782">  7  8 -1 -1</clus>
<clus scale="   97.473">  2  5  1 -1</clus>
<clus scale="   34.720">  1  5  2 -1</clus>
</clustering>
</event>
<event>
 9    1  0.2374319E-005  0.1848248E+03  0.7546771E-02  0.1163325E+00
         -2   -1    0    0    0  501 -0.00000000000E+00  0.00000000000E+00  0.17781436263E+03  0.17781436263E+03  0.00000000000E+00 0.  1.
          1   -1    0    0  502    0  0.00000000000E+00 -0.00000000000E+00 -0.55876696837E+03  0.55876696837E+03  0.00000000000E+00 0. -1.
         23    2    1    2    0    0  0.16031280243E+03  0.29851346797E+02  0.10448069611E+03  0.21427143303E+03  0.91677334305E+02 0.  0.
        -24    2    1    2    0    0 -0.13318980283E+03 -0.20723745192E+02 -0.42685406769E+03  0.45711406304E+03  0.92627611046E+02 0.  0.
         11    1    4    4    0    0 -0.69550420401E+02  0.31285578930E+02 -0.26252621280E+03  0.27337896926E+03  0.00000000000E+00 0. -1.
        -12    1    4    4    0    0 -0.63639382431E+02 -0.52009324122E+02 -0.16432785490E+03  0.18373509378E+03  0.00000000000E+00 0.  1.
        -13    1    3    3    0    0  0.12959511188E+03 -0.15114629034E+02  0.87997096588E+02  0.15737482023E+03  0.00000000000E+00 0.  1.
         13    1    3    3    0    0  0.30717690548E+02  0.44965975831E+02  0.16483599521E+02  0.56896612801E+02  0.00000000000E+00 0. -1.
         21    1    1    2  502  501 -0.27122999601E+02 -0.91276016050E+01 -0.58579234152E+02  0.65195834930E+02  0.00000000000E+00 0. -1.
<scales pt_clust_5="13000.00000" pt_clust_6="13000.00000" pt_clust_7="13000.00000" pt_clust_8="13000.00000" pt_clust_9="28.61766"></scales>
<clustering>
<clus scale="   28.618">  2  9  1 -1</clus>
<clus scale="   91.677">  7  8 -1 -1</clus>
<clus scale="   92.628">  5  6 -1 -1</clus>
<clus scale="  184.350">  1  7  2 -1</clus>
<clus scale="   28.618">  2  5  1 -1</clus>
</clustering>
</event>
<event>
 9    1  0.2374319E-005  0.9085095E+02  0.7546771E-02  0.1307693E+00
         -2   -1    0    0    0  501 -0.00000000000E+00  0.00000000000E+00  0.34059663747E+03  0.34059663747E+03  0.00000000000E+00 0.  1.
          1   -1    0    0  502    0  0.00000000000E+00 -0.00000000000E+00 -0.15148496432E+03  0.15148496432E+03  0.00000000000E+00 0. -1.
        -24    2    1    2    0    0  0.62986358517E+01  0.58444158799E+01  0.30955912105E+03  0.31976909207E+03  0.79696880814E+02 0.  0.
         23    2    1    2    0    0 -0.74422620984E+01  0.17792117234E+02 -0.68209251322E+02  0.11496425115E+03  0.90511493058E+02 0.  0.
         11    1    3    3    0    0 -0.23798072976E+02  0.19142213976E+02  0.53493338332E+02  0.61597969765E+02  0.00000000000E+00 0. -1.
        -12    1    3    3    0    0  0.30096708828E+02 -0.13297798096E+02  0.25606578271E+03  0.25817112231E+03  0.00000000000E+00 0.  1.
        -11    1    4    4    0    0  0.22176291116E+02  0.14727984338E+02  0.12151920727E+02  0.29263810205E+02  0.00000000000E+00 0.  1.
         11    1    4    4    0    0 -0.29618553215E+02  0.30641328960E+01 -0.80361172049E+02  0.85700440944E+02  0.00000000000E+00 0. -1.
         21    1    1    2  502  501  0.11436262467E+01 -0.23636533113E+02 -0.52238196578E+02  0.57348258564E+02  0.00000000000E+00 0. -1.
<scales pt_clust_5="13000.00000" pt_clust_6="13000.00000" pt_clust_7="13000.00000" pt_clust_8="13000.00000" pt_clust_9="23.66418"></scales>
<clustering>
<clus scale="   23.664">  2  9  1 -1</clus>
<clus scale="   79.697">  5  6 -1 -1</clus>
<clus scale="   80.082">  1  5  2 -1</clus>
<clus scale="   90.511">  7  8 -1 -1</clus>
<clus scale="   23.664">  2  5  1 -1</clus>
</clustering>
</event>
<event>
 9    1  0.2374319E-005  0.9109750E+02  0.7546771E-02  0.1308142E+00
          1   -1    0    0  502    0  0.00000000000E+00  0.00000000000E+00  0.31694296063E+03  0.31694296063E+03  0.00000000000E+00 0. -1.
         -2   -1    0    0    0  501 -0.00000000000E+00 -0.00000000000E+00 -0.42815340570E+02  0.42815340570E+02  0.00000000000E+00 0.  1.
        -24    2    1    2    0    0 -0.18492149826E+02  0.10201429819E+02  0.31171117491E+02  0.86288805748E+02  0.77640779596E+02 0.  0.
         23    2    1    2    0    0 -0.36218785079E+01  0.91059512740E+01  0.14312737401E+03  0.16941345227E+03  0.90107914561E+02 0.  0.
         11    1    3    3    0    0  0.77420182139E+01 -0.30622772903E+02  0.16241746670E+02  0.35517423910E+02  0.00000000000E+00 0. -1.
        -12    1    3    3    0    0 -0.26234168040E+02  0.40824202722E+02  0.14929370820E+02  0.50771381838E+02  0.00000000000E+00 0.  1.
        -11    1    4    4    0    0  0.24682165244E+02 -0.27649639734E+02  0.31906204012E+02  0.48905191064E+02  0.00000000000E+00 0. -1.
         11    1    4    4    0    0 -0.28304043752E+02  0.36755591008E+02  0.11122117000E+03  0.12050826121E+03  0.00000000000E+00 0.  1.
         21    1    1    2  502  501  0.22114028334E+02 -0.19307381093E+02  0.99829128559E+02  0.10405604318E+03  0.00000000000E+00 0.  1.
<scales pt_clust_5="13000.00000" pt_clust_6="13000.00000" pt_clust_7="13000.00000" pt_clust_8="13000.00000" pt_clust_9="29.35652"></scales>
<clustering>
<clus scale="   29.357">  1  9  2 -1</clus>
<clus scale="   77.641">  5  6 -1 -1</clus>
<clus scale="   78.787">  2  5  1 -1</clus>
<clus scale="   90.108">  7  8 -1 -1</clus>
<clus scale="   29.357">  1  5  2 -1</clus>
</clustering>
</event>
<event>
 9    1  0.2374319E-005  0.9055870E+02  0.7546771E-02  0.1306429E+00
         -4   -1    0    0    0  501 -0.00000000000E+00  0.00000000000E+00  0.38038051280E+03  0.38038051280E+03  0.00000000000E+00 0.  1.
          3   -1    0    0  502    0  0.00000000000E+00 -0.00000000000E+00 -0.36768186959E+02  0.36768186959E+02  0.00000000000E+00 0. -1.
         23    2    1    2    0    0  0.21594597894E+02  0.19301218811E+01  0.27366550906E+03  0.28868538718E+03  0.89310637091E+02 0.  0.
        -24    2    1    2    0    0  0.33695553373E+01 -0.22387237427E+01  0.61584348685E+02  0.10213395530E+03  0.81377804319E+02 0.  0.
         13    1    4    4    0    0 -0.38805445066E+02  0.26806193475E+01  0.26686131121E+02  0.47172003149E+02  0.00000000000E+00 0. -1.
        -14    1    4    4    0    0  0.42175000403E+02 -0.49193430902E+01  0.34898217564E+02  0.54961952154E+02  0.00000000000E+00 0.  1.
        -13    1    3    3    0    0  0.55789062873E+02  0.54263475442E+01  0.14352389390E+03  0.15408105952E+03  0.00000000000E+00 0.  1.
         13    1    3    3    0    0 -0.34194464979E+02 -0.34962256631E+01  0.13014161516E+03  0.13460432766E+03  0.00000000000E+00 0. -1.
         21    1    1    2  502  501 -0.24964153232E+02  0.30860186163E+00  0.83624680999E+01  0.26329357273E+02  0.00000000000E+00 0.  1.
<scales pt_clust_5="13000.00000" pt_clust_6="13000.00000" pt_clust_7="13000.00000" pt_clust_8="13000.00000" pt_clust_9="24.96606"></scales>
<clustering>
<clus scale="   24.966">  2  9  1 -1</clus>
<clus scale="   81.378">  5  6 -1 -1</clus>
<clus scale="   82.746">  2  5  1 -1</clus>
<clus scale="   89.311">  7  8 -1 -1</clus>
<clus scale="   24.966">  2  5  1 -1</clus>
</clustering>
</event>
<event>
 9    1  0.2374319E-005  0.1011470E+03  0.7546771E-02  0.1283867E+00
          1   -1    0    0  502    0  0.00000000000E+00  0.00000000000E+00  0.14165065275E+03  0.14165065275E+03  0.00000000000E+00 0. -1.
         -2   -1    0    0    0  501 -0.00000000000E+00 -0.00000000000E+00 -0.23533450374E+03  0.23533450374E+03  0.00000000000E+00 0.  1.
        -24    2    1    2    0    0 -0.42477571456E+01 -0.47674023279E+02 -0.17165170641E+03  0.19490704699E+03  0.78953104544E+02 0.  0.
         23    2    1    2    0    0  0.43515139308E+02  0.15665865199E+02  0.18359787523E+02  0.10385042103E+03  0.91152846739E+02 0.  0.
         11    1    3    3    0    0  0.25604854542E+02 -0.39156543459E+02 -0.46500898257E+02  0.65963452081E+02  0.00000000000E+00 0. -1.
        -12    1    3    3    0    0 -0.29852611688E+02 -0.85174798206E+01 -0.12515080815E+03  0.12894359491E+03  0.00000000000E+00 0.  1.
        -13    1    4    4    0    0  0.71737305769E+02  0.12036629957E+02  0.19712218066E+02  0.75363738236E+02  0.00000000000E+00 0. -1.
         13    1    4    4    0    0 -0.28222166461E+02  0.36292352416E+01 -0.13524305433E+01  0.28486682794E+02  0.00000000000E+00 0.  1.
         21    1    1    2  502  501 -0.39267382162E+02  0.32008158080E+02  0.59608067888E+02  0.78227688467E+02  0.00000000000E+00 0.  1.
<scales pt_clust_5="13000.00000" pt_clust_6="13000.00000" pt_clust_7="13000.00000" pt_clust_8="13000.00000" pt_clust_9="50.66014"></scales>
<clustering>
<clus scale="   50.660">  1  9  2 -1</clus>
<clus scale="   78.953">  5  6 -1 -1</clus>
<clus scale="   90.308">  2  5  1 -1</clus>
<clus scale="   91.153">  7  8 -1 -1</clus>
<clus scale="   50.660">  1  5  2 -1</clus>
</clustering>
</event>
<event>
 9    1  0.2374319E-005  0.1048197E+03  0.7546771E-02  0.1272835E+00
          1   -1    0    0  502    0  0.00000000000E+00  0.00000000000E+00  0.57237132200E+02  0.57237132200E+02  0.00000000000E+00 0. -1.
         -2   -1    0    0    0  501 -0.00000000000E+00 -0.00000000000E+00 -0.44974223507E+03  0.44974223507E+03  0.00000000000E+00 0.  1.
         23    2    1    2    0    0 -0.46001822924E+02  0.21929388855E+02 -0.35389000907E+03  0.36885033007E+03  0.90638632277E+02 0.  0.
        -24    2    1    2    0    0  0.63975295879E+02 -0.56928842217E+01 -0.39797871935E+02  0.11387890778E+03  0.85201453113E+02 0.  0.
         13    1    4    4    0    0  0.72873329909E+02  0.17321482763E+01 -0.48718337023E+00  0.72895540998E+02  0.00000000000E+00 0. -1.
        -14    1    4    4    0    0 -0.88980340300E+01 -0.74250324979E+01 -0.39310688565E+02  0.40983366780E+02  0.00000000000E+00 0.  1.
        -13    1    3    3    0    0 -0.73515361093E+02  0.20909097441E+02 -0.26328020491E+03  0.27414989508E+03  0.00000000000E+00 0.  1.
         13    1    3    3    0    0  0.27513538169E+02  0.10202914145E+01 -0.90609804162E+02  0.94700434991E+02  0.00000000000E+00 0. -1.
         21    1    1    2  502  501 -0.17973472955E+02 -0.16236504633E+02  0.11827781427E+01  0.24250129421E+02  0.00000000000E+00 0.  1.
<scales pt_clust_5="13000.00000" pt_clust_6="13000.00000" pt_clust_7="13000.00000" pt_clust_8="13000.00000" pt_clust_9="24.22127"></scales>
<clustering>
<clus scale="   24.221">  1  9  2 -1</clus>
<clus scale="   85.201">  5  6 -1 -1</clus>
<clus scale="   90.639">  7  8 -1 -1</clus>
<clus scale="  100.155">  1  5  2 -1</clus>
<clus scale="   24.221">  1  5  2 -1</clus>
</clustering>
</event>
<event>
 9    1  0.2374319E-005  0.1380796E+03  0.7546771E-02  0.1217778E+00
         -2   -1    0    0    0  501 -0.00000000000E+00  0.00000000000E+00  0.10922711747E+03  0.10922711747E+03  0.00000000000E+00 0.  1.
          1   -1    0    0  502    0  0.00000000000E+00 -0.00000000000E+00 -0.27712626379E+03  0.27712626379E+03  0.00000000000E+00 0. -1.
        -24    2    1    2    0    0  0.93388705345E+02  0.52696571026E+02  0.20942916963E+02  0.13711005372E+03  0.82838289310E+02 0.  0.
         23    2    1    2    0    0 -0.91549490562E+02 -0.29294042170E+02 -0.12850877880E+03  0.18450411002E+03  0.91037411300E+02 0.  0.
         11    1    3    3    0    0  0.74730081842E+02  0.66777235695E+02  0.39033663217E+02  0.10755190004E+03  0.00000000000E+00 0. -1.
        -12    1    3    3    0    0  0.18658623503E+02 -0.14080664669E+02 -0.18090746254E+02  0.29558153674E+02  0.00000000000E+00 0.  1.
        -11    1    4    4    0    0 -0.62047788446E+02  0.68301575605E+01 -0.18640980897E+02  0.65146490866E+02  0.00000000000E+00 0.  1.
         11    1    4    4    0    0 -0.29501702116E+02 -0.36124199730E+02 -0.10986779790E+03  0.11935761915E+03  0.00000000000E+00 0. -1.
         21    1    1    2  502  501 -0.18392147831E+01 -0.23402528856E+02 -0.60333284486E+02  0.64739217517E+02  0.00000000000E+00 0. -1.
<scales pt_clust_5="13000.00000" pt_clust_6="13000.00000" pt_clust_7="13000.00000" pt_clust_8="13000.00000" pt_clust_9="23.47469"></scales>
<clustering>
<clus scale="   23.475">  2  9  1 -1</clus>
<clus scale="   82.838">  5  6 -1 -1</clus>
<clus scale="   91.037">  7  8 -1 -1</clus>
<clus scale="  132.817">  1  5  2 -1</clus>
<clus scale="   23.475">  2  5  1 -1</clus>
</clustering>
</event>
<event>
 9    1  0.2374319E-005  0.1039312E+03  0.7546771E-02  0.1276696E+00
         -2   -1    0    0    0  501 -0.00000000000E+00  0.00000000000E+00  0.54674826945E+03  0.54674826945E+03  0.00000000000E+00 0.  1.
          1   -1    0    0  502    0  0.00000000000E+00 -0.00000000000E+00 -0.48443991589E+02  0.48443991589E+02  0.00000000000E+00 0. -1.
        -24    2    1    2    0    0 -0.18136273060E+01  0.12737379481E+01  0.31813005181E+03  0.32851650840E+03  0.81923468992E+02 0.  0.
         23    2    1    2    0    0  0.54675869772E+01 -0.60684902681E+02  0.44940467890E+02  0.11892187871E+03  0.91707227962E+02 0.  0.
         13    1    3    3    0    0 -0.30286750657E+02 -0.15867530974E+02  0.67231844208E+02  0.75426697397E+02  0.00000000000E+00 0. -1.
        -14    1    3    3    0    0  0.28473123351E+02  0.17141268922E+02  0.25089820761E+03  0.25308981100E+03  0.00000000000E+00 0.  1.
        -11    1    4    4    0    0  0.43555832179E+02 -0.43268380962E+02  0.46492444980E+02  0.77011757207E+02  0.00000000000E+00 0.  1.
         11    1    4    4    0    0 -0.38088245202E+02 -0.17416521720E+02 -0.15519770896E+01  0.41910121502E+02  0.00000000000E+00 0. -1.
         21    1    1    2  502  501 -0.36539596712E+01  0.59411164733E+02  0.13523375816E+03  0.14775387393E+03  0.00000000000E+00 0.  1.
<scales pt_clust_5="13000.00000" pt_clust_6="13000.00000" pt_clust_7="13000.00000" pt_clust_8="13000.00000" pt_clust_9="59.52342"></scales>
<clustering>
<clus scale="   59.523">  1  9  2 -1</clus>
<clus scale="   81.923">  5  6 -1 -1</clus>
<clus scale="   91.707">  7  8 -1 -1</clus>
<clus scale="   95.409">  1  5  2 -1</clus>
<clus scale="  103.931">  2  5  1 -1</clus>
</clustering>
</event>
<event>
 9    1  0.2374319E-005  0.1086884E+03  0.7546771E-02  0.1268408E+00
          1   -1    0    0  502    0  0.00000000000E+00  0.00000000000E+00  0.23114925964E+03  0.23114925964E+03  0.00000000000E+00 0. -1.
         -2   -1    0    0    0  501 -0.00000000000E+00 -0.00000000000E+00 -0.14175162486E+03  0.14175162486E+03  0.00000000000E+00 0.  1.
         23    2    1    2    0    0 -0.20995973634E+02  0.47579014242E+02 -0.98206246459E+02  0.14566284032E+03  0.94173258955E+02 0.  0.
        -24    2    1    2    0    0  0.34506561187E+02 -0.62339145267E+02  0.15931757459E+03  0.19258963026E+03  0.81435890807E+02 0.  0.
         13    1    4    4    0    0  0.40792543479E+02 -0.43633594055E+02  0.16201244082E+03  0.17267296579E+03  0.00000000000E+00 0. -1.
        -14    1    4    4    0    0 -0.62859822915E+01 -0.18705551212E+02 -0.26948662307E+01  0.19916664467E+02  0.00000000000E+00 0.  1.
        -13    1    3    3    0    0 -0.75383664122E+01 -0.19393055225E+02  0.54621772687E+01  0.21511693091E+02  0.00000000000E+00 0. -1.
         13    1    3    3    0    0 -0.13457607222E+02  0.66972069467E+02 -0.10366842373E+03  0.12415114723E+03  0.00000000000E+00 0.  1.
         21    1    1    2  502  501 -0.13510587553E+02  0.14760131025E+02  0.28286306645E+02  0.34648413925E+02  0.00000000000E+00 0.  1.
<scales pt_clust_5="13000.00000" pt_clust_6="13000.00000" pt_clust_7="13000.00000" pt_clust_8="13000.00000" pt_clust_9="20.00993"></scales>
<clustering>
<clus scale="   20.010">  1  9  2 -1</clus>
<clus scale="   81.436">  5  6 -1 -1</clus>
<clus scale="   94.173">  7  8 -1 -1</clus>
<clus scale="   97.859">  1  5  2 -1</clus>
<clus scale="   20.010">  1  5  2 -1</clus>
</clustering>
</event>
<event>
 9    1  0.3467036E-005  0.1178127E+03  0.7546771E-02  0.1246985E+00
          1   -1    0    0  502    0  0.00000000000E+00  0.00000000000E+00  0.23557779843E+03  0.23557779843E+03  0.00000000000E+00 0. -1.
         -2   -1    0    0    0  501 -0.00000000000E+00 -0.00000000000E+00 -0.30651260205E+03  0.30651260205E+03  0.00000000000E+00 0.  1.
        -24    2    1    2    0    0 -0.43340936962E+02 -0.62684173072E+02 -0.26945504007E+03  0.29437141872E+03  0.90778693372E+02 0.  0.
         23    2    1    2    0    0  0.42070050157E+02  0.39222579339E+02  0.19707278902E+03  0.22417844995E+03  0.90055501764E+02 0.  0.
         11    1    3    3    0    0 -0.18266984754E+02 -0.36300210907E+02 -0.26072207520E+02  0.48281964012E+02  0.00000000000E+00 0. -1.
        -12    1    3    3    0    0 -0.25073952208E+02 -0.26383962165E+02 -0.24338283255E+03  0.24608945471E+03  0.00000000000E+00 0.  1.
        -11    1    4    4    0    0 -0.16236466857E+02  0.41635638006E+02  0.56960334825E+02  0.72399094964E+02  0.00000000000E+00 0.  1.
         11    1    4    4    0    0  0.58306517014E+02 -0.24130586676E+01  0.14011245420E+03  0.15177935499E+03  0.00000000000E+00 0. -1.
         21    1    1    2  502  501  0.12708868055E+01  0.23461593733E+02  0.14474474224E+01  0.23540531808E+02  0.00000000000E+00 0. -1.
<scales pt_clust_5="13000.00000" pt_clust_6="13000.00000" pt_clust_7="13000.00000" pt_clust_8="13000.00000" pt_clust_9="23.49599"></scales>
<clustering>
<clus scale="   23.496">  1  9  2 -1</clus>
<clus scale="   90.056">  7  8 -1 -1</clus>
<clus scale="   90.779">  5  6 -1 -1</clus>
<clus scale="  117.256">  1  7  2 -1</clus>
<clus scale="   23.496">  1  5  2 -1</clus>
</clustering>
</event>
<event>
 9    1  0.2374319E-005  0.9229909E+02  0.7546771E-02  0.1304463E+00
          1   -1    0    0  502    0  0.00000000000E+00  0.00000000000E+00  0.28966301657E+02  0.28966301657E+02  0.00000000000E+00 0. -1.
         -2   -1    0    0    0  501 -0.00000000000E+00 -0.00000000000E+00 -0.46721353051E+03  0.46721353051E+03  0.00000000000E+00 0.  1.
         23    2    1    2    0    0  0.12201980398E+02 -0.72682518101E+00 -0.31672189697E+03  0.33004166056E+03  0.92007179495E+02 0.  0.
        -24    2    1    2    0    0  0.98942741576E+01 -0.15732490486E+02 -0.73208103541E+02  0.11051705969E+03  0.80679527389E+02 0.  0.
         13    1    4    4    0    0  0.22005374858E+02 -0.44908637191E+02 -0.35520761234E+02  0.61341231612E+02  0.00000000000E+00 0. -1.
        -14    1    4    4    0    0 -0.12111100700E+02  0.29176146705E+02 -0.37687342307E+02  0.49175828075E+02  0.00000000000E+00 0.  1.
        -11    1    3    3    0    0 -0.32063404299E+02 -0.50026024102E+01 -0.49797664231E+02  0.59438163573E+02  0.00000000000E+00 0.  1.
         11    1    3    3    0    0  0.44265384697E+02  0.42757772292E+01 -0.26692423274E+03  0.27060349698E+03  0.00000000000E+00 0. -1.
         21    1    1    2  502  501 -0.22096254556E+02  0.16459315667E+02 -0.48317228337E+02  0.55621111925E+02  0.00000000000E+00 0. -1.
<scales pt_clust_5="13000.00000" pt_clust_6="13000.00000" pt_clust_7="13000.00000" pt_clust_8="13000.00000" pt_clust_9="27.55274"></scales>
<clustering>
<clus scale="   27.553">  1  9  2 -1</clus>
<clus scale="   80.680">  5  6 -1 -1</clus>
<clus scale="   81.012">  1  5  2 -1</clus>
<clus scale="   92.007">  7  8 -1 -1</clus>
<clus scale="   27.553">  1  5  2 -1</clus>
</clustering>
</event>
<event>
 9    1  0.2374319E-005  0.1040912E+03  0.7546771E-02  0.1275956E+00
          1   -1    0    0  502    0  0.00000000000E+00  0.00000000000E+00  0.54975847942E+03  0.54975847942E+03  0.00000000000E+00 0. -1.
         -2   -1    0    0    0  501 -0.00000000000E+00 -0.00000000000E+00 -0.52153764886E+02  0.52153764886E+02  0.00000000000E+00 0.  1.
        -24    2    1    2    0    0  0.54623476641E+02 -0.14244341178E+02  0.10989161730E+02  0.98446753655E+02  0.79902291418E+02 0.  0.
         23    2    1    2    0    0 -0.33550115015E+02  0.23440667812E+02  0.30440378473E+03  0.31980877986E+03  0.89111819602E+02 0.  0.
         11    1    3    3    0    0  0.47543808404E+01  0.22134998121E+02 -0.19242856398E+02  0.29712788515E+02  0.00000000000E+00 0. -1.
        -12    1    3    3    0    0  0.49869095800E+02 -0.36379339299E+02  0.30232018127E+02  0.68733965140E+02  0.00000000000E+00 0.  1.
        -13    1    4    4    0    0 -0.20100095639E+02 -0.33758922780E+02  0.11955089288E+03  0.12584154600E+03  0.00000000000E+00 0.  1.
         13    1    4    4    0    0 -0.13450019377E+02  0.57199590591E+02  0.18485289186E+03  0.19396723386E+03  0.00000000000E+00 0. -1.
         21    1    1    2  502  501 -0.21073361625E+02 -0.91963266341E+01  0.18221176807E+03  0.18365671079E+03  0.00000000000E+00 0.  1.
<scales pt_clust_5="13000.00000" pt_clust_6="13000.00000" pt_clust_7="13000.00000" pt_clust_8="13000.00000" pt_clust_9="22.99259"></scales>
<clustering>
<clus scale="   22.993">  1  9  2 -1</clus>
<clus scale="   79.902">  5  6 -1 -1</clus>
<clus scale="   89.112">  7  8 -1 -1</clus>
<clus scale="   96.325">  2  5  1 -1</clus>
<clus scale="   22.993">  1  5  2 -1</clus>
</clustering>
</event>
<event>
 9    1  0.2374319E-005  0.9265591E+02  0.7546771E-02  0.1302600E+00
          1   -1    0    0  502    0  0.00000000000E+00  0.00000000000E+00  0.33598310033E+03  0.33598310033E+03  0.00000000000E+00 0. -1.
         -2   -1    0    0    0  501 -0.00000000000E+00 -0.00000000000E+00 -0.64266013637E+02  0.64266013637E+02  0.00000000000E+00 0.  1.
        -24    2    1    2    0    0 -0.16654942135E+02  0.13305492405E+02 -0.82008706470E+01  0.83944450315E+02  0.80777430225E+02 0.  0.
         23    2    1    2    0    0 -0.27860591375E+02 -0.27846833388E+02  0.20997115793E+03  0.23212843144E+03  0.90796821750E+02 0.  0.
         13    1    3    3    0    0  0.68557371560E+01  0.43785210001E+02  0.11410951477E+01  0.44333371684E+02  0.00000000000E+00 0. -1.
        -14    1    3    3    0    0 -0.23510679291E+02 -0.30479717595E+02 -0.93419657948E+01  0.39611078631E+02  0.00000000000E+00 0.  1.
        -13    1    4    4    0    0  0.24019811147E+02 -0.28880789389E+02  0.14039094980E+03  0.14532952249E+03  0.00000000000E+00 0. -1.
         13    1    4    4    0    0 -0.51880402522E+02  0.10339560003E+01  0.69580208132E+02  0.86798908948E+02  0.00000000000E+00 0.  1.
         21    1    1    2  502  501  0.44515533509E+02  0.14541340983E+02  0.69946799415E+02  0.84176232213E+02  0.00000000000E+00 0. -1.
<scales pt_clust_5="13000.00000" pt_clust_6="13000.00000" pt_clust_7="13000.00000" pt_clust_8="13000.00000" pt_clust_9="46.83037"></scales>
<clustering>
<clus scale="   46.830">  1  9  2 -1</clus>
<clus scale="   80.777">  5  6 -1 -1</clus>
<clus scale="   82.862">  2  5  1 -1</clus>
<clus scale="   90.797">  7  8 -1 -1</clus>
<clus scale="   46.830">  1  5  2 -1</clus>
</clustering>
</event>
<event>
 9    1  0.2374319E-005  0.1115161E+03  0.7546771E-02  0.1261648E+00
          1   -1    0    0  502    0  0.00000000000E+00  0.00000000000E+00  0.67886569975E+03  0.67886569975E+03  0.00000000000E+00 0. -1.
         -2   -1    0    0    0  501 -0.00000000000E+00 -0.00000000000E+00 -0.44885098997E+02  0.44885098997E+02  0.00000000000E+00 0.  1.
        -24    2    1    2    0    0 -0.26453981322E+02 -0.77724500517E+01  0.35323532739E+02  0.92729117914E+02  0.81183207847E+02 0.  0.
         23    2    1    2    0    0  0.32880492202E+02  0.66623003233E+02  0.51654794856E+03  0.52979621393E+03  0.91337253115E+02 0.  0.
         11    1    3    3    0    0  0.87427295491E+01  0.31666388068E+02  0.12430558950E+02  0.35124268662E+02  0.00000000000E+00 0. -1.
        -12    1    3    3    0    0 -0.35196710871E+02 -0.39438838120E+02  0.22892973789E+02  0.57604849252E+02  0.00000000000E+00 0.  1.
        -13    1    4    4    0    0 -0.37085434276E+01  0.78547560669E+02  0.32037052243E+03  0.32987989363E+03  0.00000000000E+00 0. -1.
         13    1    4    4    0    0  0.36589035630E+02 -0.11924557436E+02  0.19617742613E+03  0.19991632030E+03  0.00000000000E+00 0.  1.
         21    1    1    2  502  501 -0.64265108804E+01 -0.58850553181E+02  0.82109119449E+02  0.10122546690E+03  0.00000000000E+00 0.  1.
<scales pt_clust_5="13000.00000" pt_clust_6="13000.00000" pt_clust_7="13000.00000" pt_clust_8="13000.00000" pt_clust_9="59.20040"></scales>
<clustering>
<clus scale="   59.200">  2  9  1 -1</clus>
<clus scale="   81.183">  5  6 -1 -1</clus>
<clus scale="   91.337">  7  8 -1 -1</clus>
<clus scale="  103.364">  2  5  1 -1</clus>
<clus scale="  111.516">  1  5  2 -1</clus>
</clustering>
</event>
<event>
 9    1  0.2374319E-005  0.1426433E+03  0.7546771E-02  0.1212744E+00
          1   -1    0    0  502    0  0.00000000000E+00  0.00000000000E+00  0.13285090486E+03  0.13285090486E+03  0.00000000000E+00 0. -1.
         -2   -1    0    0    0  501 -0.00000000000E+00 -0.00000000000E+00 -0.51559972182E+03  0.51559972182E+03  0.00000000000E+00 0.  1.
        -24    2    1    2    0    0  0.66640387070E+02  0.86627454716E+02 -0.45697892232E+03  0.47669509616E+03  0.80394167475E+02 0.  0.
         23    2    1    2    0    0 -0.43934633374E+02 -0.72960102964E+02  0.69974940478E+02  0.14491425292E+03  0.94075606677E+02 0.  0.
         11    1    3    3    0    0  0.25998115013E+02 -0.12152888478E+02 -0.10670373285E+03  0.11049561659E+03  0.00000000000E+00 0. -1.
        -12    1    3    3    0    0  0.40642272057E+02  0.98780343193E+02 -0.35027518947E+03  0.36619947957E+03  0.00000000000E+00 0.  1.
        -13    1    4    4    0    0 -0.59946337781E+02 -0.50255596276E+02  0.83152944994E+02  0.11416479594E+03  0.00000000000E+00 0. -1.
         13    1    4    4    0    0  0.16011704407E+02 -0.22704506688E+02 -0.13178004516E+02  0.30749456987E+02  0.00000000000E+00 0.  1.
         21    1    1    2  502  501 -0.22705753696E+02 -0.13667351752E+02  0.42551648762E+01  0.26841277595E+02  0.00000000000E+00 0.  1.
<scales pt_clust_5="13000.00000" pt_clust_6="13000.00000" pt_clust_7="13000.00000" pt_clust_8="13000.00000" pt_clust_9="26.50184"></scales>
<clustering>
<clus scale="   26.502">  1  9  2 -1</clus>
<clus scale="   80.394">  5  6 -1 -1</clus>
<clus scale="   94.076">  7  8 -1 -1</clus>
<clus scale="  134.015">  2  5  1 -1</clus>
<clus scale="   26.502">  1  5  2 -1</clus>
</clustering>
</event>
<event>
 9    1  0.2374319E-005  0.9906796E+02  0.7546771E-02  0.1288073E+00
          1   -1    0    0  502    0  0.00000000000E+00  0.00000000000E+00  0.57907350719E+03  0.57907350719E+03  0.00000000000E+00 0. -1.
         -2   -1    0    0    0  501 -0.00000000000E+00 -0.00000000000E+00 -0.49881881918E+02  0.49881881918E+02  0.00000000000E+00 0.  1.
         23    2    1    2    0    0  0.17220133970E+02 -0.40559939814E+02  0.15441958355E+02  0.10133235255E+03  0.89934141812E+02 0.  0.
        -24    2    1    2    0    0  0.15194139121E+02  0.31847817453E+02  0.39209144779E+03  0.40141959581E+03  0.78465553784E+02 0.  0.
         11    1    4    4    0    0  0.45314840078E+02  0.77307492166E+01  0.24950160193E+03  0.25370110087E+03  0.00000000000E+00 0. -1.
        -12    1    4    4    0    0 -0.30120700957E+02  0.24117068236E+02  0.14258984585E+03  0.14771849494E+03  0.00000000000E+00 0.  1.
        -11    1    3    3    0    0 -0.24006921330E+02  0.15432068837E+02  0.13992351566E+02  0.31784696360E+02  0.00000000000E+00 0.  1.
         11    1    3    3    0    0  0.41227055300E+02 -0.55992008651E+02  0.14496067897E+01  0.69547656189E+02  0.00000000000E+00 0. -1.
         21    1    1    2  502  501 -0.32414273091E+02  0.87121223611E+01  0.12165821913E+03  0.12620344075E+03  0.00000000000E+00 0.  1.
<scales pt_clust_5="13000.00000" pt_clust_6="13000.00000" pt_clust_7="13000.00000" pt_clust_8="13000.00000" pt_clust_9="33.56466"></scales>
<clustering>
<clus scale="   33.565">  1  9  2 -1</clus>
<clus scale="   78.466">  5  6 -1 -1</clus>
<clus scale="   88.787">  1  5  2 -1</clus>
<clus scale="   89.934">  7  8 -1 -1</clus>
<clus scale="   33.565">  1  5  2 -1</clus>
</clustering>
</event>
<event>
 9    1  0.2374319E-005  0.9563339E+02  0.7546771E-02  0.1295215E+00
          1   -1    0    0  502    0  0.00000000000E+00  0.00000000000E+00  0.59707039024E+03  0.59707039024E+03  0.00000000000E+00 0. -1.
         -2   -1    0    0    0  501 -0.00000000000E+00 -0.00000000000E+00 -0.24262696673E+02  0.24262696673E+02  0.00000000000E+00 0.  1.
         23    2    1    2    0    0  0.17878020450E+02 -0.20588521659E+02  0.12613522391E+03  0.15814226278E+03  0.91407711530E+02 0.  0.
        -24    2    1    2    0    0 -0.39595469137E+02 -0.23931350718E+00  0.36609153155E+03  0.37717493094E+03  0.81670439028E+02 0.  0.
         11    1    4    4    0    0 -0.51793802658E+02 -0.28875717452E+02  0.25509701774E+03  0.26189863214E+03  0.00000000000E+00 0. -1.
        -12    1    4    4    0    0  0.12198333521E+02  0.28636403945E+02  0.11099451380E+03  0.11527629880E+03  0.00000000000E+00 0.  1.
        -11    1    3    3    0    0  0.38890639042E+02  0.22089657557E+02  0.41290077236E+02  0.60871218603E+02  0.00000000000E+00 0.  1.
         11    1    3    3    0    0 -0.21012618592E+02 -0.42678179216E+02  0.84845146675E+02  0.97271044178E+02  0.00000000000E+00 0. -1.
         21    1    1    2  502  501  0.21717448687E+02  0.20827835166E+02  0.80580938108E+02  0.86015893192E+02  0.00000000000E+00 0.  1.
<scales pt_clust_5="13000.00000" pt_clust_6="13000.00000" pt_clust_7="13000.00000" pt_clust_8="13000.00000" pt_clust_9="30.09063"></scales>
<clustering>
<clus scale="   30.091">  1  9  2 -1</clus>
<clus scale="   81.670">  5  6 -1 -1</clus>
<clus scale="   86.374">  1  5  2 -1</clus>
<clus scale="   91.408">  7  8 -1 -1</clus>
<clus scale="   30.091">  1  5  2 -1</clus>
</clustering>
</event>
<event>
 9    1  0.2374319E-005  0.2006245E+03  0.7546771E-02  0.1150349E+00
          3   -1    0    0  502    0  0.00000000000E+00  0.00000000000E+00  0.16309222106E+04  0.16309222106E+04  0.00000000000E+00 0. -1.
         -4   -1    0    0    0  501 -0.00000000000E+00 -0.00000000000E+00 -0.33194311043E+02  0.33194311043E+02  0.00000000000E+00 0.  1.
        -24    2    1    2    0    0 -0.16947727461E+03 -0.84140504135E+01  0.43648899969E+03  0.47524973772E+03  0.80909353576E+02 0.  0.
         23    2    1    2    0    0  0.19481266222E+03 -0.16599423228E+02  0.92794710382E+03  0.95287394965E+03  0.93034521608E+02 0.  0.
         13    1    3    3    0    0 -0.39296031266E+02  0.24703392861E+02  0.17786594174E+03  0.18382254738E+03  0.00000000000E+00 0. -1.
        -14    1    3    3    0    0 -0.13018124334E+03 -0.33117443275E+02  0.25862305795E+03  0.29142719034E+03  0.00000000000E+00 0.  1.
        -11    1    4    4    0    0  0.12167722419E+03  0.31489503745E+02  0.62617299674E+03  0.63866231890E+03  0.00000000000E+00 0.  1.
         11    1    4    4    0    0  0.73135438027E+02 -0.48088926973E+02  0.30177410708E+03  0.31421163075E+03  0.00000000000E+00 0. -1.
         21    1    1    2  502  501 -0.25335387612E+02  0.25013473642E+02  0.23329179601E+03  0.23599283424E+03  0.00000000000E+00 0.  1.
<scales pt_clust_5="13000.00000" pt_clust_6="13000.00000" pt_clust_7="13000.00000" pt_clust_8="13000.00000" pt_clust_9="35.60275"></scales>
<clustering>
<clus scale="   35.603">  1  9  2 -1</clus>
<clus scale="   80.909">  5  6 -1 -1</clus>
<clus scale="   93.035">  7  8 -1 -1</clus>
<clus scale="  195.297">  2  5  1 -1</clus>
<clus scale="   35.603">  1  5  2 -1</clus>
</clustering>
</event>
<event>
 9    1  0.2374319E-005  0.1346601E+03  0.7546771E-02  0.1223864E+00
         -4   -1    0    0    0  501 -0.00000000000E+00  0.00000000000E+00  0.94170938228E+03  0.94170938228E+03  0.00000000000E+00 0.  1.
          3   -1    0    0  502    0  0.00000000000E+00 -0.00000000000E+00 -0.31231175227E+02  0.31231175227E+02  0.00000000000E+00 0. -1.
        -24    2    1    2    0    0  0.72642033824E+02 -0.66407851301E+02  0.70249154635E+03  0.71401346987E+03  0.81449338071E+02 0.  0.
         23    2    1    2    0    0 -0.78279794322E+02  0.43419749282E+02  0.16733173623E+03  0.21188391532E+03  0.94243741403E+02 0.  0.
         11    1    3    3    0    0  0.86816922184E+02 -0.38582650673E+02  0.47691041523E+03  0.48628113583E+03  0.00000000000E+00 0. -1.
        -12    1    3    3    0    0 -0.14174888360E+02 -0.27825200628E+02  0.22558113113E+03  0.22773233405E+03  0.00000000000E+00 0.  1.
        -11    1    4    4    0    0  0.85733032163E+01  0.32481618005E+02  0.16353381166E+02  0.37362951059E+02  0.00000000000E+00 0. -1.
         11    1    4    4    0    0 -0.86853097538E+02  0.10938131277E+02  0.15097835507E+03  0.17452096426E+03  0.00000000000E+00 0.  1.
         21    1    1    2  502  501  0.56377604975E+01  0.22988102019E+02  0.40654924470E+02  0.47043172315E+02  0.00000000000E+00 0. -1.
<scales pt_clust_5="13000.00000" pt_clust_6="13000.00000" pt_clust_7="13000.00000" pt_clust_8="13000.00000" pt_clust_9="23.66933"></scales>
<clustering>
<clus scale="   23.669">  2  9  1 -1</clus>
<clus scale="   81.449">  5  6 -1 -1</clus>
<clus scale="   94.244">  7  8 -1 -1</clus>
<clus scale="  126.038">  1  5  2 -1</clus>
<clus scale="   23.669">  2  5  1 -1</clus>
</clustering>
</event>
<event>
 9    1  0.2374319E-005  0.1786720E+03  0.7546771E-02  0.1169129E+00
         -2   -1    0    0    0  501 -0.00000000000E+00  0.00000000000E+00  0.34864811989E+03  0.34864811989E+03  0.00000000000E+00 0.  1.
          1   -1    0    0  502    0  0.00000000000E+00 -0.00000000000E+00 -0.71979174714E+03  0.71979174714E+03  0.00000000000E+00 0. -1.
        -24    2    1    2    0    0 -0.12720482937E+03  0.39218768109E+02  0.14732855910E+03  0.21881479662E+03  0.91951239821E+02 0.  0.
         23    2    1    2    0    0  0.15796421800E+03 -0.13503403776E+03  0.81308168676E+02  0.24146129299E+03  0.92226092814E+02 0.  0.
         13    1    3    3    0    0 -0.58023007033E+02  0.60668879821E+02  0.50761273940E+02  0.98102442660E+02  0.00000000000E+00 0. -1.
        -14    1    3    3    0    0 -0.69181822334E+02 -0.21450111712E+02  0.96567285164E+02  0.12071235396E+03  0.00000000000E+00 0.  1.
        -13    1    4    4    0    0  0.71618924321E+02 -0.55376996415E+02 -0.12151687733E+02  0.91343010502E+02  0.00000000000E+00 0. -1.
         13    1    4    4    0    0  0.86345293676E+02 -0.79657041349E+02  0.93459856409E+02  0.15011828249E+03  0.00000000000E+00 0.  1.
         21    1    1    2  502  501 -0.30759388629E+02  0.95815269654E+02 -0.59978035503E+03  0.60816377742E+03  0.00000000000E+00 0. -1.
<scales pt_clust_5="13000.00000" pt_clust_6="13000.00000" pt_clust_7="13000.00000" pt_clust_8="13000.00000" pt_clust_9="100.63154"></scales>
<clustering>
<clus scale="   91.951">  5  6 -1 -1</clus>
<clus scale="   92.226">  7  8 -1 -1</clus>
<clus scale="  100.632">  2  9  1 -1</clus>
<clus scale="  178.530">  1  5  2 -1</clus>
<clus scale="  100.632">  2  5  1 -1</clus>
</clustering>
</event>
<event>
 9    1  0.2374319E-005  0.1065903E+03  0.7546771E-02  0.1270610E+00
          1   -1    0    0  502    0  0.00000000000E+00  0.00000000000E+00  0.37568792858E+03  0.37568792858E+03  0.00000000000E+00 0. -1.
         -2   -1    0    0    0  501 -0.00000000000E+00 -0.00000000000E+00 -0.10085628685E+03  0.10085628685E+03  0.00000000000E+00 0.  1.
        -24    2    1    2    0    0 -0.54253034384E+02 -0.20677212029E+02 -0.42674380722E+02  0.10903190541E+03  0.81828569522E+02 0.  0.
         23    2    1    2    0    0  0.17762611126E+02  0.66277040304E+02  0.26766996220E+03  0.29073647900E+03  0.90400968633E+02 0.  0.
         13    1    3    3    0    0  0.84922541066E+01 -0.23788532115E+02  0.98833082202E+01  0.27123650591E+02  0.00000000000E+00 0. -1.
        -14    1    3    3    0    0 -0.62745288491E+02  0.31113200863E+01 -0.52557688942E+02  0.81908254819E+02  0.00000000000E+00 0.  1.
        -11    1    4    4    0    0  0.38967099668E+02  0.78827752748E+02  0.22318967758E+03  0.23988722692E+03  0.00000000000E+00 0. -1.
         11    1    4    4    0    0 -0.21204488542E+02 -0.12550712444E+02  0.44480284624E+02  0.50849252083E+02  0.00000000000E+00 0.  1.
         21    1    1    2  502  501  0.36490423258E+02 -0.45599828275E+02  0.49836060251E+02  0.76775831025E+02  0.00000000000E+00 0.  1.
<scales pt_clust_5="13000.00000" pt_clust_6="13000.00000" pt_clust_7="13000.00000" pt_clust_8="13000.00000" pt_clust_9="58.40287"></scales>
<clustering>
<clus scale="   58.403">  1  9  2 -1</clus>
<clus scale="   81.829">  5  6 -1 -1</clus>
<clus scale="   90.401">  7  8 -1 -1</clus>
<clus scale="   99.424">  2  5  1 -1</clus>
<clus scale="   58.403">  1  5  2 -1</clus>
</clustering>
</event>
<event>
 9    1  0.2374319E-005  0.1607809E+03  0.7546771E-02  0.1204089E+00
         -2   -1    0    0    0  501 -0.00000000000E+00  0.00000000000E+00  0.30002820591E+03  0.30002820591E+03  0.00000000000E+00 0.  1.
          1   -1    0    0  502    0  0.00000000000E+00 -0.00000000000E+00 -0.26269750622E+03  0.26269750622E+03  0.00000000000E+00 0. -1.
        -24    2    1    2    0    0 -0.72101686266E+02  0.12225686728E+03  0.18486937224E+03  0.24627003733E+03  0.79541509510E+02 0.  0.
         23    2    1    2    0    0  0.62835922989E+02  0.17355750265E+02  0.66050190766E+00  0.11264072771E+03  0.91858162358E+02 0.  0.
         11    1    3    3    0    0 -0.22905750554E+02  0.10364619777E+03  0.96627891790E+02  0.14354148248E+03  0.00000000000E+00 0. -1.
        -12    1    3    3    0    0 -0.49195935712E+02  0.18610669514E+02  0.88241480452E+02  0.10272855486E+03  0.00000000000E+00 0.  1.
        -13    1    4    4    0    0 -0.23950453453E+02  0.22055369216E+01 -0.41654039770E+01  0.24409817779E+02  0.00000000000E+00 0. -1.
         13    1    4    4    0    0  0.86786376441E+02  0.15150213343E+02  0.48259058846E+01  0.88230909934E+02  0.00000000000E+00 0.  1.
         21    1    1    2  502  501  0.92657632774E+01 -0.13961261755E+03 -0.14819917446E+03  0.20381494709E+03  0.00000000000E+00 0. -1.
<scales pt_clust_5="13000.00000" pt_clust_6="13000.00000" pt_clust_7="13000.00000" pt_clust_8="13000.00000" pt_clust_9="139.72704"></scales>
<clustering>
<clus scale="   79.542">  5  6 -1 -1</clus>
<clus scale="   91.858">  7  8 -1 -1</clus>
<clus scale="  112.639">  2  7  1 -1</clus>
<clus scale="  139.727">  2  9  1 -1</clus>
<clus scale="  112.639">  2  5  1 -1</clus>
</clustering>
</event>
<event>
 9    1  0.2374319E-005  0.9330706E+02  0.7546771E-02  0.1303573E+00
          1   -1    0    0  502    0  0.00000000000E+00  0.00000000000E+00  0.45717912424E+02  0.45717912424E+02  0.00000000000E+00 0. -1.
         -2   -1    0    0    0  501 -0.00000000000E+00 -0.00000000000E+00 -0.73462495168E+03  0.73462495168E+03  0.00000000000E+00 0.  1.
        -24    2    1    2    0    0 -0.88025641219E+01  0.22848978055E+01 -0.56355943984E+03  0.56917777655E+03  0.79255240820E+02 0.  0.
         23    2    1    2    0    0  0.25718369382E+01  0.32925110274E+02 -0.14105442811E+03  0.17211036827E+03  0.92924431360E+02 0.  0.
         13    1    3    3    0    0  0.18199326297E+02 -0.15345718861E+02 -0.59467166230E+02  0.64055057759E+02  0.00000000000E+00 0. -1.
        -14    1    3    3    0    0 -0.27001890419E+02  0.17630616667E+02 -0.50409227361E+03  0.50512271880E+03  0.00000000000E+00 0.  1.
        -11    1    4    4    0    0 -0.27694064508E+02 -0.21420880585E+02 -0.65252152811E+02  0.74051730435E+02  0.00000000000E+00 0. -1.
         11    1    4    4    0    0  0.30265901446E+02  0.54345990859E+02 -0.75802275301E+02  0.98058637832E+02  0.00000000000E+00 0.  1.
         21    1    1    2  502  501  0.62307271836E+01 -0.35210008079E+02  0.15706828699E+02  0.39054719279E+02  0.00000000000E+00 0. -1.
<scales pt_clust_5="13000.00000" pt_clust_6="13000.00000" pt_clust_7="13000.00000" pt_clust_8="13000.00000" pt_clust_9="35.75705"></scales>
<clustering>
<clus scale="   35.757">  1  9  2 -1</clus>
<clus scale="   79.255">  5  6 -1 -1</clus>
<clus scale="   79.704">  2  5  1 -1</clus>
<clus scale="   92.924">  7  8 -1 -1</clus>
<clus scale="   35.757">  1  5  2 -1</clus>
</clustering>
</event>
<event>
 9    1  0.2374319E-005  0.1018956E+03  0.7546771E-02  0.1277776E+00
         -4   -1    0    0    0  501 -0.00000000000E+00  0.00000000000E+00  0.14371308402E+03  0.14371308402E+03  0.00000000000E+00 0.  1.
          3   -1    0    0  502    0  0.00000000000E+00 -0.00000000000E+00 -0.27821721460E+03  0.27821721460E+03  0.00000000000E+00 0. -1.
        -24    2    1    2    0    0 -0.48860108623E+02  0.43969689721E+02  0.88276590624E+02  0.13591482181E+03  0.79746087713E+02 0.  0.
         23    2    1    2    0    0  0.63823877908E+02 -0.81889141561E+01 -0.55221338164E+02  0.11402615989E+03  0.76236626664E+02 0.  0.
         11    1    3    3    0    0  0.17521192618E+02  0.16338939692E+02  0.26504267715E+01  0.24103483214E+02  0.00000000000E+00 0. -1.
        -12    1    3    3    0    0 -0.66381301240E+02  0.27630750029E+02  0.85626163853E+02  0.11181133859E+03  0.00000000000E+00 0.  1.
        -13    1    4    4    0    0  0.22073201148E+02 -0.26308599446E+02  0.88227618533E+01  0.35457153586E+02  0.00000000000E+00 0.  1.
         13    1    4    4    0    0  0.41750676761E+02  0.18119685290E+02 -0.64044100018E+02  0.78569006307E+02  0.00000000000E+00 0. -1.
         21    1    1    2  502  501 -0.14963769286E+02 -0.35780775565E+02 -0.16755938304E+03  0.17198931692E+03  0.00000000000E+00 0. -1.
<scales pt_clust_5="13000.00000" pt_clust_6="13000.00000" pt_clust_7="13000.00000" pt_clust_8="13000.00000" pt_clust_9="38.78374"></scales>
<clustering>
<clus scale="   38.784">  2  9  1 -1</clus>
<clus scale="   76.237">  7  8 -1 -1</clus>
<clus scale="   79.746">  5  6 -1 -1</clus>
<clus scale="   99.173">  2  7  1 -1</clus>
<clus scale="   38.784">  2  5  1 -1</clus>
</clustering>
</event>
<event>
 9    1  0.2374319E-005  0.1148097E+03  0.7546771E-02  0.1256190E+00
          1   -1    0    0  502    0  0.00000000000E+00  0.00000000000E+00  0.43249396371E+03  0.43249396371E+03  0.00000000000E+00 0. -1.
         -2   -1    0    0    0  501 -0.00000000000E+00 -0.00000000000E+00 -0.98033763753E+02  0.98033763753E+02  0.00000000000E+00 0.  1.
         23    2    1    2    0    0  0.63895349033E+02  0.25318841770E+02 -0.30289417420E+02  0.11794916717E+03  0.90944476752E+02 0.  0.
        -24    2    1    2    0    0 -0.43509210310E+02 -0.83843093827E+02  0.18263170507E+03  0.22020492199E+03  0.78823551097E+02 0.  0.
         13    1    4    4    0    0 -0.25034840633E+02 -0.55136468128E+02  0.17506090959E+03  0.18523794274E+03  0.00000000000E+00 0. -1.
        -14    1    4    4    0    0 -0.18474369677E+02 -0.28706625699E+02  0.75707954837E+01  0.34966979256E+02  0.00000000000E+00 0.  1.
        -11    1    3    3    0    0 -0.18679755967E+02  0.74674288333E+01  0.12050893499E+02  0.23450369091E+02  0.00000000000E+00 0. -1.
         11    1    3    3    0    0  0.82575105001E+02  0.17851412936E+02 -0.42340310918E+02  0.94498798079E+02  0.00000000000E+00 0.  1.
         21    1    1    2  502  501 -0.20386138723E+02  0.58524252058E+02  0.18211791230E+03  0.19237363830E+03  0.00000000000E+00 0.  1.
<scales pt_clust_5="13000.00000" pt_clust_6="13000.00000" pt_clust_7="13000.00000" pt_clust_8="13000.00000" pt_clust_9="61.97324"></scales>
<clustering>
<clus scale="   61.973">  1  9  2 -1</clus>
<clus scale="   78.824">  5  6 -1 -1</clus>
<clus scale="   90.944">  7  8 -1 -1</clus>
<clus scale="  105.468">  1  5  2 -1</clus>
<clus scale="   61.973">  1  5  2 -1</clus>
</clustering>
</event>
<event>
 9    1  0.2374319E-005  0.1049022E+03  0.7546771E-02  0.1275274E+00
          3   -1    0    0  502    0  0.00000000000E+00  0.00000000000E+00  0.10181946913E+03  0.10181946913E+03  0.00000000000E+00 0. -1.
         -4   -1    0    0    0  501 -0.00000000000E+00 -0.00000000000E+00 -0.23671661362E+03  0.23671661362E+03  0.00000000000E+00 0.  1.
        -24    2    1    2    0    0 -0.56582843884E+02 -0.66206881064E+01 -0.15555608463E+03  0.18421339518E+03  0.80569397194E+02 0.  0.
         23    2    1    2    0    0  0.33546288285E+02  0.13438176632E+02 -0.25934801304E+02  0.10190000368E+03  0.91679107670E+02 0.  0.
         11    1    3    3    0    0 -0.29701023178E+02 -0.42197781699E+02 -0.10364280780E+03  0.11577838817E+03  0.00000000000E+00 0. -1.
        -12    1    3    3    0    0 -0.26881820707E+02  0.35577093593E+02 -0.51913276826E+02  0.68435007005E+02  0.00000000000E+00 0.  1.
        -13    1    4    4    0    0  0.35319104552E+02  0.39962110834E+02  0.12869212339E+02  0.54863704531E+02  0.00000000000E+00 0. -1.
         13    1    4    4    0    0 -0.17728162665E+01 -0.26523934203E+02 -0.38804013644E+02  0.47036299152E+02  0.00000000000E+00 0.  1.
         21    1    1    2  502  501  0.23036555599E+02 -0.68174885252E+01  0.46593741448E+02  0.52422683886E+02  0.00000000000E+00 0. -1.
<scales pt_clust_5="13000.00000" pt_clust_6="13000.00000" pt_clust_7="13000.00000" pt_clust_8="13000.00000" pt_clust_9="24.02418"></scales>
<clustering>
<clus scale="   24.024">  1  9  2 -1</clus>
<clus scale="   80.569">  5  6 -1 -1</clus>
<clus scale="   91.679">  7  8 -1 -1</clus>
<clus scale="   95.346">  2  5  1 -1</clus>
<clus scale="   24.024">  1  5  2 -1</clus>
</clustering>
</event>
<event>
 9    1  0.2374319E-005  0.1019907E+03  0.7546771E-02  0.1280600E+00
         -2   -1    0    0    0  501 -0.00000000000E+00  0.00000000000E+00  0.23553759932E+03  0.23553759932E+03  0.00000000000E+00 0.  1.
          1   -1    0    0  502    0  0.00000000000E+00 -0.00000000000E+00 -0.16309670130E+03  0.16309670130E+03  0.00000000000E+00 0. -1.
        -24    2    1    2    0    0  0.37548565629E+02 -0.28675696693E+02  0.19923381610E+03  0.22042086937E+03  0.81603038034E+02 0.  0.
         23    2    1    2    0    0 -0.39086349807E+02  0.34966302126E+01 -0.91813067855E+02  0.13508640851E+03  0.90987522062E+02 0.  0.
         11    1    3    3    0    0 -0.22681286579E+02 -0.25050454240E+02  0.77808384844E+02  0.84829893142E+02  0.00000000000E+00 0. -1.
        -12    1    3    3    0    0  0.60229852208E+02 -0.36252424524E+01  0.12142543126E+03  0.13559097623E+03  0.00000000000E+00 0.  1.
        -13    1    4    4    0    0 -0.79737420725E+01 -0.27595942549E+02 -0.86058508220E+02  0.90725869766E+02  0.00000000000E+00 0. -1.
         13    1    4    4    0    0 -0.31112607734E+02  0.31092572762E+02 -0.57545596348E+01  0.44360538743E+02  0.00000000000E+00 0.  1.
         21    1    1    2  502  501  0.15377841771E+01  0.25179066480E+02 -0.34979850225E+02  0.43127022744E+02  0.00000000000E+00 0. -1.
<scales pt_clust_5="13000.00000" pt_clust_6="13000.00000" pt_clust_7="13000.00000" pt_clust_8="13000.00000" pt_clust_9="25.22598"></scales>
<clustering>
<clus scale="   25.226">  2  9  1 -1</clus>
<clus scale="   81.603">  5  6 -1 -1</clus>
<clus scale="   90.988">  7  8 -1 -1</clus>
<clus scale="   93.715">  1  5  2 -1</clus>
<clus scale="   25.226">  2  5  1 -1</clus>
</clustering>
</event>
<event>
 9    1  0.2374319E-005  0.1874674E+03  0.7546771E-02  0.1161458E+00
          1   -1    0    0  502    0  0.00000000000E+00  0.00000000000E+00  0.12987626603E+03  0.12987626603E+03  0.00000000000E+00 0. -1.
         -2   -1    0    0    0  501 -0.00000000000E+00 -0.00000000000E+00 -0.40880050452E+03  0.40880050452E+03  0.00000000000E+00 0.  1.
         23    2    1    2    0    0 -0.16243120945E+03 -0.14147934323E+02 -0.24119050142E+03  0.30400036559E+03  0.87517440843E+02 0.  0.
        -24    2    1    2    0    0  0.17272245744E+03 -0.83439921441E+01 -0.61297539676E+02  0.20051430119E+03  0.80906903938E+02 0.  0.
         13    1    4    4    0    0  0.61124793690E+02 -0.28719925520E+02  0.73240839773E+01  0.67931706380E+02  0.00000000000E+00 0. -1.
        -14    1    4    4    0    0  0.11159766375E+03  0.20375933376E+02 -0.68621623654E+02  0.13258259481E+03  0.00000000000E+00 0.  1.
        -13    1    3    3    0    0 -0.60363723431E+02 -0.25681326442E+02 -0.36715189674E+02  0.75175227217E+02  0.00000000000E+00 0. -1.
         13    1    3    3    0    0 -0.10206748602E+03  0.11533392119E+02 -0.20447531175E+03  0.22882513837E+03  0.00000000000E+00 0.  1.
         21    1    1    2  502  501 -0.10291247983E+02  0.22491926467E+02  0.23563802602E+02  0.34162103775E+02  0.00000000000E+00 0.  1.
<scales pt_clust_5="13000.00000" pt_clust_6="13000.00000" pt_clust_7="13000.00000" pt_clust_8="13000.00000" pt_clust_9="24.73452"></scales>
<clustering>
<clus scale="   24.735">  1  9  2 -1</clus>
<clus scale="   80.907">  5  6 -1 -1</clus>
<clus scale="   87.517">  7  8 -1 -1</clus>
<clus scale="  184.474">  1  5  2 -1</clus>
<clus scale="   24.735">  1  5  2 -1</clus>
</clustering>
</event>
<event>
 9    1  0.2374319E-005  0.1193599E+03  0.7546771E-02  0.1245575E+00
         -2   -1    0    0    0  501 -0.00000000000E+00  0.00000000000E+00  0.10707745712E+03  0.10707745712E+03  0.00000000000E+00 0.  1.
          1   -1    0    0  502    0  0.00000000000E+00 -0.00000000000E+00 -0.20475037340E+03  0.20475037340E+03  0.00000000000E+00 0. -1.
         23    2    1    2    0    0 -0.44045744692E+02 -0.58505045551E+02  0.51139156295E+01  0.11363911738E+03  0.86745771565E+02 0.  0.
        -24    2    1    2    0    0  0.41219718566E+02  0.89544346375E+02 -0.51582268305E+02  0.13824430596E+03  0.82057921985E+02 0.  0.
         11    1    4    4    0    0  0.51857087499E+01  0.78682845247E+02 -0.60711299796E+02  0.99517554403E+02  0.00000000000E+00 0. -1.
        -12    1    4    4    0    0  0.36034009816E+02  0.10861501128E+02  0.91290314914E+01  0.38726751557E+02  0.00000000000E+00 0.  1.
        -13    1    3    3    0    0  0.10136581129E+02 -0.34406564070E+02 -0.28196028325E+02  0.45624313051E+02  0.00000000000E+00 0. -1.
         13    1    3    3    0    0 -0.54182325821E+02 -0.24098481481E+02  0.33309943954E+02  0.68014804325E+02  0.00000000000E+00 0.  1.
         21    1    1    2  502  501  0.28260261264E+01 -0.31039300823E+02 -0.51204563605E+02  0.59944407189E+02  0.00000000000E+00 0. -1.
<scales pt_clust_5="13000.00000" pt_clust_6="13000.00000" pt_clust_7="13000.00000" pt_clust_8="13000.00000" pt_clust_9="31.16769"></scales>
<clustering>
<clus scale="   31.168">  2  9  1 -1</clus>
<clus scale="   82.058">  5  6 -1 -1</clus>
<clus scale="   86.746">  7  8 -1 -1</clus>
<clus scale="  115.998">  2  5  1 -1</clus>
<clus scale="   31.168">  2  5  1 -1</clus>
</clustering>
</event>
<event>
 9    1  0.2374319E-005  0.1090453E+03  0.7546771E-02  0.1269288E+00
          1   -1    0    0  502    0  0.00000000000E+00  0.00000000000E+00  0.23613239457E+03  0.23613239457E+03  0.00000000000E+00 0. -1.
         -2   -1    0    0    0  501 -0.00000000000E+00 -0.00000000000E+00 -0.17128352492E+03  0.17128352492E+03  0.00000000000E+00 0.  1.
         23    2    1    2    0    0  0.21812483841E+02 -0.48580675537E+02 -0.76104949472E+02  0.13021974007E+03  0.91265277536E+02 0.  0.
        -24    2    1    2    0    0 -0.94647437231E+02  0.23266675942E+02  0.71151359395E+01  0.12273413836E+03  0.74253403804E+02 0.  0.
         11    1    4    4    0    0 -0.53185965358E+02  0.48992839763E+02  0.13378915778E+02  0.73539381603E+02  0.00000000000E+00 0. -1.
        -12    1    4    4    0    0 -0.41461471873E+02 -0.25726163821E+02 -0.62637798385E+01  0.49194756760E+02  0.00000000000E+00 0.  1.
        -11    1    3    3    0    0 -0.34387338004E+02 -0.58160380760E+01 -0.21731332312E+02  0.41092166138E+02  0.00000000000E+00 0. -1.
         11    1    3    3    0    0  0.56199821845E+02 -0.42764637461E+02 -0.54373617160E+02  0.89127573935E+02  0.00000000000E+00 0.  1.
         21    1    1    2  502  501  0.72834953390E+02  0.25313999595E+02  0.13383868318E+03  0.15446204105E+03  0.00000000000E+00 0.  1.
<scales pt_clust_5="13000.00000" pt_clust_6="13000.00000" pt_clust_7="13000.00000" pt_clust_8="13000.00000" pt_clust_9="77.10855"></scales>
<clustering>
<clus scale="   74.253">  5  6 -1 -1</clus>
<clus scale="   77.109">  1  9  2 -1</clus>
<clus scale="   91.265">  7  8 -1 -1</clus>
<clus scale="   95.263">  1  5  2 -1</clus>
<clus scale="   77.109">  1  5  2 -1</clus>
</clustering>
</event>
<event>
 9    1  0.2374319E-005  0.1269643E+03  0.7546771E-02  0.1234468E+00
          3   -1    0    0  502    0  0.00000000000E+00  0.00000000000E+00  0.28531173393E+03  0.28531173393E+03  0.00000000000E+00 0. -1.
         -4   -1    0    0    0  501 -0.00000000000E+00 -0.00000000000E+00 -0.10098758637E+03  0.10098758637E+03  0.00000000000E+00 0.  1.
         23    2    1    2    0    0  0.83516795198E+02  0.22536110182E+01 -0.11991853671E+02  0.12331122852E+03  0.89898390869E+02 0.  0.
        -24    2    1    2    0    0 -0.10960486963E+03  0.23532969701E+02  0.15791940596E+03  0.20988598354E+03  0.80910810126E+02 0.  0.
         13    1    4    4    0    0 -0.79713677946E+02  0.52440702824E+02  0.12240882044E+03  0.15520379212E+03  0.00000000000E+00 0. -1.
        -14    1    4    4    0    0 -0.29891191686E+02 -0.28907733123E+02  0.35510585518E+02  0.54682191420E+02  0.00000000000E+00 0.  1.
        -11    1    3    3    0    0  0.28062059503E+02  0.51554329763E+01 -0.48913310647E+02  0.56626580606E+02  0.00000000000E+00 0.  1.
         11    1    3    3    0    0  0.55454735695E+02 -0.29018219580E+01  0.36921456975E+02  0.66684647910E+02  0.00000000000E+00 0. -1.
         21    1    1    2  502  501  0.26088074434E+02 -0.25786580719E+02  0.38396595264E+02  0.53102108251E+02  0.00000000000E+00 0.  1.
<scales pt_clust_5="13000.00000" pt_clust_6="13000.00000" pt_clust_7="13000.00000" pt_clust_8="13000.00000" pt_clust_9="36.68154"></scales>
<clustering>
<clus scale="   36.682">  1  9  2 -1</clus>
<clus scale="   80.911">  5  6 -1 -1</clus>
<clus scale="   89.898">  7  8 -1 -1</clus>
<clus scale="  120.767">  1  5  2 -1</clus>
<clus scale="   36.682">  1  5  2 -1</clus>
</clustering>
</event>
<event>
 9    1  0.2374319E-005  0.1261987E+03  0.7546771E-02  0.1235346E+00
          3   -1    0    0  502    0  0.00000000000E+00  0.00000000000E+00  0.10049302627E+03  0.10049302627E+03  0.00000000000E+00 0. -1.
         -4   -1    0    0    0  501 -0.00000000000E+00 -0.00000000000E+00 -0.37943215612E+03  0.37943215612E+03  0.00000000000E+00 0.  1.
         23    2    1    2    0    0  0.90578573217E+02 -0.34517086400E+02 -0.26219935601E+03  0.29370263823E+03  0.90093452776E+02 0.  0.
        -24    2    1    2    0    0 -0.62668847157E+02 -0.24412651839E+02  0.24457885378E+02  0.10909334097E+03  0.82339582912E+02 0.  0.
         11    1    4    4    0    0 -0.28976056055E+02 -0.45279620143E+02 -0.12181630761E+02  0.55120304361E+02  0.00000000000E+00 0. -1.
        -12    1    4    4    0    0 -0.33692791102E+02  0.20866968304E+02  0.36639516139E+02  0.53973036614E+02  0.00000000000E+00 0.  1.
        -13    1    3    3    0    0  0.87079749040E+02 -0.62482129662E+01 -0.24577884923E+03  0.26082401267E+03  0.00000000000E+00 0.  1.
         13    1    3    3    0    0  0.34988241764E+01 -0.28268873433E+02 -0.16420506783E+02  0.32878625562E+02  0.00000000000E+00 0. -1.
         21    1    1    2  502  501 -0.27909726060E+02  0.58929738238E+02 -0.41197659216E+02  0.77129203175E+02  0.00000000000E+00 0. -1.
<scales pt_clust_5="13000.00000" pt_clust_6="13000.00000" pt_clust_7="13000.00000" pt_clust_8="13000.00000" pt_clust_9="65.20481"></scales>
<clustering>
<clus scale="   65.205">  1  9  2 -1</clus>
<clus scale="   82.340">  5  6 -1 -1</clus>
<clus scale="   90.093">  7  8 -1 -1</clus>
<clus scale="  120.785">  1  5  2 -1</clus>
<clus scale="   65.205">  1  5  2 -1</clus>
</clustering>
</event>
<event>
 9    1  0.2374319E-005  0.1290183E+03  0.7546771E-02  0.1231804E+00
         -2   -1    0    0    0  501 -0.00000000000E+00  0.00000000000E+00  0.61011194062E+03  0.61011194062E+03  0.00000000000E+00 0.  1.
          1   -1    0    0  502    0  0.00000000000E+00 -0.00000000000E+00 -0.55911628620E+02  0.55911628620E+02  0.00000000000E+00 0. -1.
        -24    2    1    2    0    0 -0.92992152405E+02  0.21414149524E+02  0.49436530872E+03  0.50982980554E+03  0.80145280255E+02 0.  0.
         23    2    1    2    0    0  0.67718595624E+02 -0.14236154632E+02  0.33922763064E+02  0.11929226676E+03  0.91057205991E+02 0.  0.
         13    1    3    3    0    0 -0.23348269370E+02  0.23548644411E+02  0.49757204112E+02  0.59795147773E+02  0.00000000000E+00 0. -1.
        -14    1    3    3    0    0 -0.69643883035E+02 -0.21344948873E+01  0.44460810460E+03  0.45003465777E+03  0.00000000000E+00 0.  1.
        -13    1    4    4    0    0  0.36512711334E+02  0.35972419536E+02  0.24599757188E+00  0.51256741713E+02  0.00000000000E+00 0. -1.
         13    1    4    4    0    0  0.31205884291E+02 -0.50208574169E+02  0.33676765492E+02  0.68035525047E+02  0.00000000000E+00 0.  1.
         21    1    1    2  502  501  0.25273556781E+02 -0.71779948911E+01  0.25912240216E+02  0.36901496935E+02  0.00000000000E+00 0.  1.
<scales pt_clust_5="13000.00000" pt_clust_6="13000.00000" pt_clust_7="13000.00000" pt_clust_8="13000.00000" pt_clust_9="26.27311"></scales>
<clustering>
<clus scale="   26.273">  2  9  1 -1</clus>
<clus scale="   80.145">  5  6 -1 -1</clus>
<clus scale="   91.057">  7  8 -1 -1</clus>
<clus scale="  121.563">  1  5  2 -1</clus>
<clus scale="   26.273">  2  5  1 -1</clus>
</clustering>
</event>
<event>
 9    1  0.2374319E-005  0.1254381E+03  0.7546771E-02  0.1236825E+00
          3   -1    0    0  502    0  0.00000000000E+00  0.00000000000E+00  0.12702999483E+03  0.12702999483E+03  0.00000000000E+00 0. -1.
         -4   -1    0    0    0  501 -0.00000000000E+00 -0.00000000000E+00 -0.24790451593E+03  0.24790451593E+03  0.00000000000E+00 0.  1.
        -24    2    1    2    0    0 -0.81248409287E+02 -0.35957614341E+02 -0.14258417418E+03  0.18743558411E+03  0.83111957175E+02 0.  0.
         23    2    1    2    0    0  0.60699954901E+02  0.54642739149E+02 -0.32142462270E+02  0.12690665656E+03  0.91661595736E+02 0.  0.
         13    1    3    3    0    0 -0.47394001287E+02 -0.41669251010E+02 -0.30270586137E+02  0.69991615375E+02  0.00000000000E+00 0. -1.
        -14    1    3    3    0    0 -0.33854408000E+02  0.57116366689E+01 -0.11231358804E+03  0.11744396874E+03  0.00000000000E+00 0.  1.
        -11    1    4    4    0    0  0.66186244118E+02  0.14372134629E+02  0.98799423616E+01  0.68445528892E+02  0.00000000000E+00 0. -1.
         11    1    4    4    0    0 -0.54862892167E+01  0.40270604519E+02 -0.42022404632E+02  0.58461127673E+02  0.00000000000E+00 0.  1.
         21    1    1    2  502  501  0.20548454386E+02 -0.18685124807E+02  0.53852115342E+02  0.60592270080E+02  0.00000000000E+00 0. -1.
<scales pt_clust_5="13000.00000" pt_clust_6="13000.00000" pt_clust_7="13000.00000" pt_clust_8="13000.00000" pt_clust_9="27.77360"></scales>
<clustering>
<clus scale="   27.774">  1  9  2 -1</clus>
<clus scale="   83.112">  5  6 -1 -1</clus>
<clus scale="   91.662">  7  8 -1 -1</clus>
<clus scale="  119.333">  2  5  1 -1</clus>
<clus scale="   27.774">  1  5  2 -1</clus>
</clustering>
</event>
<event>
 9    1  0.2374319E-005  0.1628740E+03  0.7546771E-02  0.1209619E+00
         -2   -1    0    0    0  501 -0.00000000000E+00  0.00000000000E+00  0.24840946662E+03  0.24840946662E+03  0.00000000000E+00 0.  1.
          1   -1    0    0  502    0  0.00000000000E+00 -0.00000000000E+00 -0.27513113022E+03  0.27513113022E+03  0.00000000000E+00 0. -1.
         23    2    1    2    0    0  0.29501671925E+02  0.23897322213E+02  0.39416971706E+02  0.10398289942E+03  0.88415581537E+02 0.  0.
        -24    2    1    2    0    0  0.92592246559E+02 -0.96746382452E+02  0.11092134515E+03  0.19248029391E+03  0.82534429745E+02 0.  0.
         13    1    4    4    0    0  0.79855431278E+02 -0.90450904590E+02  0.51164185972E+02  0.13105735375E+03  0.00000000000E+00 0. -1.
        -14    1    4    4    0    0  0.12736815282E+02 -0.62954778620E+01  0.59757159175E+02  0.61422940159E+02  0.00000000000E+00 0.  1.
        -13    1    3    3    0    0 -0.20523736723E+02  0.10024866825E+02 -0.16123239290E+02  0.27958550913E+02  0.00000000000E+00 0. -1.
         13    1    3    3    0    0  0.50025408648E+02  0.13872455388E+02  0.55540210997E+02  0.76024348511E+02  0.00000000000E+00 0.  1.
         21    1    1    2  502  501 -0.12209391848E+03  0.72849060239E+02 -0.17705998045E+03  0.22707740351E+03  0.00000000000E+00 0.  1.
<scales pt_clust_5="13000.00000" pt_clust_6="13000.00000" pt_clust_7="13000.00000" pt_clust_8="13000.00000" pt_clust_9="140.41369"></scales>
<clustering>
<clus scale="   82.534">  5  6 -1 -1</clus>
<clus scale="   88.416">  7  8 -1 -1</clus>
<clus scale="   96.222">  1  7  2 -1</clus>
<clus scale="  140.414">  2  9  1 -1</clus>
<clus scale="  140.414">  2  5  1 -1</clus>
</clustering>
</event>
<event>
 9    1  0.2374319E-005  0.9906689E+02  0.7546771E-02  0.1287441E+00
          1   -1    0    0  502    0  0.00000000000E+00  0.00000000000E+00  0.46378322588E+03  0.46378322588E+03  0.00000000000E+00 0. -1.
         -2   -1    0    0    0  501 -0.00000000000E+00 -0.00000000000E+00 -0.29386931666E+02  0.29386931666E+02  0.00000000000E+00 0.  1.
        -24    2    1    2    0    0 -0.53458288939E+02  0.13656867415E+02  0.11133959998E+03  0.14766050354E+03  0.79767280875E+02 0.  0.
         23    2    1    2    0    0  0.31734382712E+02 -0.16476000071E+02  0.29088169805E+03  0.30658529158E+03  0.90021381516E+02 0.  0.
         13    1    3    3    0    0 -0.11167409978E+02  0.18755120927E+02  0.10166062410E+03  0.10397763269E+03  0.00000000000E+00 0. -1.
        -14    1    3    3    0    0 -0.42290878961E+02 -0.50982535121E+01  0.96789758839E+01  0.43682870857E+02  0.00000000000E+00 0.  1.
        -11    1    4    4    0    0 -0.30221366537E+02 -0.16823807273E+02  0.92588428359E+02  0.98838193794E+02  0.00000000000E+00 0.  1.
         11    1    4    4    0    0  0.61955749249E+02  0.34780720201E+00  0.19829326969E+03  0.20774709779E+03  0.00000000000E+00 0. -1.
         21    1    1    2  502  501  0.21723906226E+02  0.28191326561E+01  0.32174996183E+02  0.38924362423E+02  0.00000000000E+00 0.  1.
<scales pt_clust_5="13000.00000" pt_clust_6="13000.00000" pt_clust_7="13000.00000" pt_clust_8="13000.00000" pt_clust_9="21.90606"></scales>
<clustering>
<clus scale="   21.906">  2  9  1 -1</clus>
<clus scale="   79.767">  5  6 -1 -1</clus>
<clus scale="   89.851">  2  5  1 -1</clus>
<clus scale="   90.021">  7  8 -1 -1</clus>
<clus scale="   99.067">  1  5  2 -1</clus>
</clustering>
</event>
<event>
 9    1  0.2374319E-005  0.1012443E+03  0.7546771E-02  0.1283934E+00
          1   -1    0    0  502    0  0.00000000000E+00  0.00000000000E+00  0.13154747012E+03  0.13154747012E+03  0.00000000000E+00 0. -1.
         -2   -1    0    0    0  501 -0.00000000000E+00 -0.00000000000E+00 -0.17280261320E+03  0.17280261320E+03  0.00000000000E+00 0.  1.
         23    2    1    2    0    0  0.42209286593E+02 -0.16397999962E+02 -0.10890740458E+03  0.14904527043E+03  0.91121630732E+02 0.  0.
        -24    2    1    2    0    0 -0.45496238551E+02 -0.86464201928E+01  0.90281311339E+01  0.91470529826E+02  0.78362506152E+02 0.  0.
         13    1    4    4    0    0 -0.27754925320E+02  0.95315582788E+01  0.41135671459E+02  0.50530485344E+02  0.00000000000E+00 0. -1.
        -14    1    4    4    0    0 -0.17741313231E+02 -0.18177978472E+02 -0.32107540325E+02  0.40940044482E+02  0.00000000000E+00 0.  1.
        -11    1    3    3    0    0  0.10345064443E+02 -0.32876379483E+02 -0.10777793501E+03  0.11315458436E+03  0.00000000000E+00 0.  1.
         11    1    3    3    0    0  0.31864222150E+02  0.16478379521E+02 -0.11294695673E+01  0.35890686068E+02  0.00000000000E+00 0. -1.
         21    1    1    2  502  501  0.32869519579E+01  0.25044420155E+02  0.58624130362E+02  0.63834283067E+02  0.00000000000E+00 0.  1.
<scales pt_clust_5="13000.00000" pt_clust_6="13000.00000" pt_clust_7="13000.00000" pt_clust_8="13000.00000" pt_clust_9="25.25920"></scales>
<clustering>
<clus scale="   25.259">  1  9  2 -1</clus>
<clus scale="   78.363">  5  6 -1 -1</clus>
<clus scale="   89.933">  1  5  2 -1</clus>
<clus scale="   91.122">  7  8 -1 -1</clus>
<clus scale="   25.259">  1  5  2 -1</clus>
</clustering>
</event>
<event>
 9    1  0.2374319E-005  0.1562246E+03  0.7546771E-02  0.1195929E+00
          1   -1    0    0  502    0  0.00000000000E+00  0.00000000000E+00  0.46494962189E+02  0.46494962189E+02  0.00000000000E+00 0. -1.
         -2   -1    0    0    0  501 -0.00000000000E+00 -0.00000000000E+00 -0.99664081298E+03  0.99664081298E+03  0.00000000000E+00 0.  1.
        -24    2    1    2    0    0  0.87600782337E+02  0.65952800503E+02 -0.54862722755E+03  0.56493284679E+03  0.78317415742E+02 0.  0.
         23    2    1    2    0    0 -0.14344836828E+03 -0.90455067134E+02 -0.33937037451E+03  0.39112986283E+03  0.95135508445E+02 0.  0.
         13    1    3    3    0    0  0.78087802707E+02  0.25325321395E+02 -0.24349614362E+03  0.25696195982E+03  0.00000000000E+00 0. -1.
        -14    1    3    3    0    0  0.95129796296E+01  0.40627479107E+02 -0.30513108393E+03  0.30797088697E+03  0.00000000000E+00 0.  1.
        -11    1    4    4    0    0 -0.10821447403E+03 -0.61444243948E+02 -0.31648857773E+03  0.34007467906E+03  0.00000000000E+00 0.  1.
         11    1    4    4    0    0 -0.35233894247E+02 -0.29010823186E+02 -0.22881796786E+02  0.51055183772E+02  0.00000000000E+00 0. -1.
         21    1    1    2  502  501  0.55847585940E+02  0.24502266631E+02 -0.62148248732E+02  0.87073065559E+02  0.00000000000E+00 0. -1.
<scales pt_clust_5="13000.00000" pt_clust_6="13000.00000" pt_clust_7="13000.00000" pt_clust_8="13000.00000" pt_clust_9="60.98618"></scales>
<clustering>
<clus scale="   60.986">  1  9  2 -1</clus>
<clus scale="   78.317">  5  6 -1 -1</clus>
<clus scale="   95.136">  7  8 -1 -1</clus>
<clus scale="  146.591">  2  5  1 -1</clus>
<clus scale="   60.986">  1  5  2 -1</clus>
</clustering>
</event>
<event>
 9    1  0.2374319E-005  0.9891043E+02  0.7546771E-02  0.1286527E+00
         -2   -1    0    0    0  501 -0.00000000000E+00  0.00000000000E+00  0.79068733516E+02  0.79068733516E+02  0.00000000000E+00 0.  1.
          1   -1    0    0  502    0  0.00000000000E+00 -0.00000000000E+00 -0.51522695064E+03  0.51522695064E+03  0.00000000000E+00 0. -1.
        -24    2    1    2    0    0  0.34552811028E+02 -0.29186072504E+02  0.33487622167E+02  0.97943707033E+02  0.80161245817E+02 0.  0.
         23    2    1    2    0    0 -0.63862402761E+01  0.54495552603E+02 -0.21343635934E+03  0.23735926853E+03  0.88169119015E+02 0.  0.
         13    1    3    3    0    0 -0.22764456467E+02 -0.18926830342E+01 -0.54312139954E+01  0.23479795841E+02  0.00000000000E+00 0. -1.
        -14    1    3    3    0    0  0.57317267494E+02 -0.27293389469E+02  0.38918836163E+02  0.74463911192E+02  0.00000000000E+00 0.  1.
        -13    1    4    4    0    0 -0.23272279030E+02  0.65969532234E+02 -0.20240799174E+03  0.21415548855E+03  0.00000000000E+00 0. -1.
         13    1    4    4    0    0  0.16886038754E+02 -0.11473979631E+02 -0.11028367602E+02  0.23203779980E+02  0.00000000000E+00 0.  1.
         21    1    1    2  502  501 -0.28166570752E+02 -0.25309480099E+02 -0.25620947994E+03  0.25899270859E+03  0.00000000000E+00 0. -1.
<scales pt_clust_5="13000.00000" pt_clust_6="13000.00000" pt_clust_7="13000.00000" pt_clust_8="13000.00000" pt_clust_9="37.86721"></scales>
<clustering>
<clus scale="   37.867">  2  9  1 -1</clus>
<clus scale="   80.161">  5  6 -1 -1</clus>
<clus scale="   88.169">  7  8 -1 -1</clus>
<clus scale="   91.844">  1  5  2 -1</clus>
<clus scale="   37.867">  2  5  1 -1</clus>
</clustering>
</event>
<event>
 9    1  0.2374319E-005  0.1092376E+03  0.7546771E-02  0.1266341E+00
         -2   -1    0    0    0  501 -0.00000000000E+00  0.00000000000E+00  0.21540219985E+03  0.21540219985E+03  0.00000000000E+00 0.  1.
          1   -1    0    0  502    0  0.00000000000E+00 -0.00000000000E+00 -0.34486621773E+03  0.34486621773E+03  0.00000000000E+00 0. -1.
         23    2    1    2    0    0  0.55222825673E+02 -0.16952965201E+02  0.15762344136E+03  0.19040309643E+03  0.89840004241E+02 0.  0.
        -24    2    1    2    0    0 -0.12631903796E+03 -0.23670298721E+02 -0.17344938218E+03  0.22979914561E+03  0.78779291377E+02 0.  0.
         11    1    4    4    0    0 -0.10523421827E+02  0.18328703801E+02 -0.54957912538E+02  0.58881711427E+02  0.00000000000E+00 0. -1.
        -12    1    4    4    0    0 -0.11579561614E+03 -0.41999002522E+02 -0.11849146965E+03  0.17091743419E+03  0.00000000000E+00 0.  1.
        -11    1    3    3    0    0 -0.33429417482E+01 -0.24020916059E+02  0.11524225342E+03  0.11776653447E+03  0.00000000000E+00 0.  1.
         11    1    3    3    0    0  0.58565767421E+02  0.70679508583E+01  0.42381187938E+02  0.72636561965E+02  0.00000000000E+00 0. -1.
         21    1    1    2  502  501  0.71096212291E+02  0.40623263921E+02 -0.11363807705E+03  0.14006617553E+03  0.00000000000E+00 0. -1.
<scales pt_clust_5="13000.00000" pt_clust_6="13000.00000" pt_clust_7="13000.00000" pt_clust_8="13000.00000" pt_clust_9="81.88358"></scales>
<clustering>
<clus scale="   78.779">  5  6 -1 -1</clus>
<clus scale="   81.884">  2  9  1 -1</clus>
<clus scale="   89.840">  7  8 -1 -1</clus>
<clus scale="  100.338">  2  5  1 -1</clus>
<clus scale="   81.884">  2  5  1 -1</clus>
</clustering>
</event>
<event>
 9    1  0.2374319E-005  0.1020031E+03  0.7546771E-02  0.1281204E+00
         -2   -1    0    0    0  501 -0.00000000000E+00  0.00000000000E+00  0.48888029486E+03  0.48888029486E+03  0.00000000000E+00 0.  1.
          1   -1    0    0  502    0  0.00000000000E+00 -0.00000000000E+00 -0.41534868427E+02  0.41534868427E+02  0.00000000000E+00 0. -1.
        -24    2    1    2    0    0  0.55913701681E+01 -0.41749877686E+02  0.32462055228E+03  0.33694059290E+03  0.79850763745E+02 0.  0.
         23    2    1    2    0    0 -0.30885440793E+02  0.64381488779E+02  0.89637632020E+02  0.14607472417E+03  0.90576119468E+02 0.  0.
         13    1    3    3    0    0 -0.30337729526E+02 -0.28443820420E+02  0.89139711878E+02  0.98363189184E+02  0.00000000000E+00 0. -1.
        -14    1    3    3    0    0  0.35929099694E+02 -0.13306057265E+02  0.23548084040E+03  0.23857740371E+03  0.00000000000E+00 0.  1.
        -13    1    4    4    0    0  0.24847913235E+01  0.78703008141E+02  0.56515457867E+02  0.96924375966E+02  0.00000000000E+00 0. -1.
         13    1    4    4    0    0 -0.33370232117E+02 -0.14321519362E+02  0.33122174153E+02  0.49150348208E+02  0.00000000000E+00 0.  1.
         21    1    1    2  502  501  0.25294070625E+02 -0.22631611094E+02  0.33087242127E+02  0.47399846213E+02  0.00000000000E+00 0.  1.
<scales pt_clust_5="13000.00000" pt_clust_6="13000.00000" pt_clust_7="13000.00000" pt_clust_8="13000.00000" pt_clust_9="33.94083"></scales>
<clustering>
<clus scale="   33.941">  2  9  1 -1</clus>
<clus scale="   79.851">  5  6 -1 -1</clus>
<clus scale="   90.576">  7  8 -1 -1</clus>
<clus scale="   92.611">  1  5  2 -1</clus>
<clus scale="   33.941">  2  5  1 -1</clus>
</clustering>
</event>
<event>
 9    1  0.2374319E-005  0.9968571E+02  0.7546771E-02  0.1284124E+00
         -2   -1    0    0    0  501 -0.00000000000E+00  0.00000000000E+00  0.40665146327E+03  0.40665146327E+03  0.00000000000E+00 0.  1.
          1   -1    0    0  502    0  0.00000000000E+00 -0.00000000000E+00 -0.78202821643E+02  0.78202821643E+02  0.00000000000E+00 0. -1.
         23    2    1    2    0    0 -0.36264300378E+02  0.45654942156E+02  0.96148778752E+02  0.14461177925E+03  0.90931324730E+02 0.  0.
        -24    2    1    2    0    0 -0.24207396202E+02 -0.38052729685E+02 -0.43166969081E+01  0.95902545596E+02  0.84526067649E+02 0.  0.
         13    1    4    4    0    0  0.12673056157E+02 -0.54097072943E+02 -0.35723907887E+01  0.55676401009E+02  0.00000000000E+00 0. -1.
        -14    1    4    4    0    0 -0.36880452359E+02  0.16044343258E+02 -0.74430611941E+00  0.40226144587E+02  0.00000000000E+00 0.  1.
        -11    1    3    3    0    0  0.25938067537E+02  0.76315272178E+01  0.43489490620E+01  0.27384976048E+02  0.00000000000E+00 0.  1.
         11    1    3    3    0    0 -0.62202367914E+02  0.38023414938E+02  0.91799829690E+02  0.11722680320E+03  0.00000000000E+00 0. -1.
         21    1    1    2  502  501  0.60471696579E+02 -0.76022124709E+01  0.23661655978E+03  0.24433996007E+03  0.00000000000E+00 0.  1.
<scales pt_clust_5="13000.00000" pt_clust_6="13000.00000" pt_clust_7="13000.00000" pt_clust_8="13000.00000" pt_clust_9="60.94768"></scales>
<clustering>
<clus scale="   60.948">  1  9  2 -1</clus>
<clus scale="   84.526">  5  6 -1 -1</clus>
<clus scale="   90.931">  7  8 -1 -1</clus>
<clus scale="   93.880">  2  5  1 -1</clus>
<clus scale="   93.880">  2  5  1 -1</clus>
</clustering>
</event>
<event>
 9    1  0.2374319E-005  0.1504697E+03  0.7546771E-02  0.1201929E+00
          1   -1    0    0  502    0  0.00000000000E+00  0.00000000000E+00  0.43909705967E+03  0.43909705967E+03  0.00000000000E+00 0. -1.
         -2   -1    0    0    0  501 -0.00000000000E+00 -0.00000000000E+00 -0.73482175451E+02  0.73482175451E+02  0.00000000000E+00 0.  1.
        -24    2    1    2    0    0  0.58735420482E+01 -0.12737564674E+03  0.53887499530E+02  0.15984298961E+03  0.79917863104E+02 0.  0.
         23    2    1    2    0    0 -0.12091361560E+02  0.10049355708E+03  0.24086687845E+03  0.27669336702E+03  0.91089023393E+02 0.  0.
         11    1    3    3    0    0  0.11611197985E+02 -0.53084278479E+02  0.64764020934E+02  0.84540753178E+02  0.00000000000E+00 0. -1.
        -12    1    3    3    0    0 -0.57376559369E+01 -0.74291368261E+02 -0.10876521405E+02  0.75302236431E+02  0.00000000000E+00 0.  1.
        -11    1    4    4    0    0 -0.19413683539E+02 -0.11277331924E+02  0.58674423820E+02  0.62823222892E+02  0.00000000000E+00 0.  1.
         11    1    4    4    0    0  0.73223219795E+01  0.11177088900E+03  0.18219245463E+03  0.21387014413E+03  0.00000000000E+00 0. -1.
         21    1    1    2  502  501  0.62178195114E+01  0.26882089660E+02  0.70860506241E+02  0.76042878488E+02  0.00000000000E+00 0.  1.
<scales pt_clust_5="13000.00000" pt_clust_6="13000.00000" pt_clust_7="13000.00000" pt_clust_8="13000.00000" pt_clust_9="27.59181"></scales>
<clustering>
<clus scale="   27.592">  1  9  2 -1</clus>
<clus scale="   79.918">  5  6 -1 -1</clus>
<clus scale="   91.089">  7  8 -1 -1</clus>
<clus scale="  143.982">  2  5  1 -1</clus>
<clus scale="   27.592">  1  5  2 -1</clus>
</clustering>
</event>
<event>
 9    1  0.2374319E-005  0.4411925E+03  0.7546771E-02  0.1030818E+00
         -2   -1    0    0    0  501 -0.00000000000E+00  0.00000000000E+00  0.95997192940E+02  0.95997192940E+02  0.00000000000E+00 0.  1.
          1   -1    0    0  502    0  0.00000000000E+00 -0.00000000000E+00 -0.26390617129E+04  0.26390617129E+04  0.00000000000E+00 0. -1.
        -24    2    1    2    0    0  0.47496565086E+01 -0.48050503338E+03 -0.10126590186E+04  0.11236897851E+04  0.79327163109E+02 0.  0.
         23    2    1    2    0    0 -0.14982632545E+02  0.37415946856E+03 -0.10659544129E+04  0.11347886904E+04  0.10614506328E+03 0.  0.
         13    1    3    3    0    0  0.78917730473E+01 -0.21578990252E+03 -0.54633650022E+03  0.58746160180E+03  0.00000000000E+00 0. -1.
        -14    1    3    3    0    0 -0.31421165386E+01 -0.26471513086E+03 -0.46632251837E+03  0.53622818328E+03  0.00000000000E+00 0.  1.
        -11    1    4    4    0    0  0.17016854616E+02  0.69717652131E+02 -0.11289518186E+03  0.13377386309E+03  0.00000000000E+00 0.  1.
         11    1    4    4    0    0 -0.31999487162E+02  0.30444181643E+03 -0.95305923100E+03  0.10010148273E+04  0.00000000000E+00 0. -1.
         21    1    1    2  502  501  0.10232976036E+02  0.10634556482E+03 -0.46445108852E+03  0.47658043034E+03  0.00000000000E+00 0.  1.
<scales pt_clust_5="13000.00000" pt_clust_6="13000.00000" pt_clust_7="13000.00000" pt_clust_8="13000.00000" pt_clust_9="106.83676"></scales>
<clustering>
<clus scale="   79.327">  5  6 -1 -1</clus>
<clus scale="  106.145">  7  8 -1 -1</clus>
<clus scale="  106.837">  2  9  1 -1</clus>
<clus scale="  435.519">  1  5  2 -1</clus>
<clus scale="  106.837">  2  5  1 -1</clus>
</clustering>
</event>
<event>
 9    1  0.2374319E-005  0.1222276E+03  0.7546771E-02  0.1242344E+00
         -2   -1    0    0    0  501 -0.00000000000E+00  0.00000000000E+00  0.26373994707E+03  0.26373994707E+03  0.00000000000E+00 0.  1.
          1   -1    0    0  502    0  0.00000000000E+00 -0.00000000000E+00 -0.99232933830E+02  0.99232933830E+02  0.00000000000E+00 0. -1.
         23    2    1    2    0    0 -0.74401326875E+02 -0.26004548189E+02  0.12453324313E+03  0.17327210956E+03  0.91120257570E+02 0.  0.
        -24    2    1    2    0    0  0.90884933532E+02 -0.15730645388E+02  0.64019223689E+02  0.13879183786E+03  0.81591598269E+02 0.  0.
         11    1    4    4    0    0  0.10036452005E+03  0.48363536797E+01  0.53147970520E+02  0.11367116596E+03  0.00000000000E+00 0. -1.
        -12    1    4    4    0    0 -0.94795865158E+01 -0.20566999067E+02  0.10871253169E+02  0.25120671898E+02  0.00000000000E+00 0.  1.
        -11    1    3    3    0    0 -0.61615236592E+02 -0.50511670820E+02  0.50707367491E+02  0.94441004798E+02  0.00000000000E+00 0. -1.
         11    1    3    3    0    0 -0.12786090283E+02  0.24507122631E+02  0.73825875634E+02  0.78831104759E+02  0.00000000000E+00 0.  1.
         21    1    1    2  502  501 -0.16483606657E+02  0.41735193576E+02 -0.24045453569E+02  0.50908933485E+02  0.00000000000E+00 0. -1.
<scales pt_clust_5="13000.00000" pt_clust_6="13000.00000" pt_clust_7="13000.00000" pt_clust_8="13000.00000" pt_clust_9="44.87244"></scales>
<clustering>
<clus scale="   44.872">  2  9  1 -1</clus>
<clus scale="   81.592">  5  6 -1 -1</clus>
<clus scale="   91.120">  7  8 -1 -1</clus>
<clus scale="  115.299">  2  5  1 -1</clus>
<clus scale="   44.872">  2  5  1 -1</clus>
</clustering>
</event>
<event>
 9    1  0.2374319E-005  0.1310901E+03  0.7546771E-02  0.1231234E+00
         -2   -1    0    0    0  501 -0.00000000000E+00  0.00000000000E+00  0.12927118398E+03  0.12927118398E+03  0.00000000000E+00 0.  1.
          1   -1    0    0  502    0  0.00000000000E+00 -0.00000000000E+00 -0.17053059225E+03  0.17053059225E+03  0.00000000000E+00 0. -1.
        -24    2    1    2    0    0 -0.73774944010E+01  0.94944268387E+02  0.10724141713E+01  0.12357891311E+03  0.78751229639E+02 0.  0.
         23    2    1    2    0    0  0.38957988784E+02 -0.71324993814E+02 -0.15180510163E+02  0.12834393753E+03  0.98166892485E+02 0.  0.
         11    1    3    3    0    0 -0.12797358598E+02  0.10261999961E+03 -0.15458736313E+02  0.10456390025E+03  0.00000000000E+00 0. -1.
        -12    1    3    3    0    0  0.54198641973E+01 -0.76757312222E+01  0.16531150484E+02  0.19015012859E+02  0.00000000000E+00 0.  1.
        -11    1    4    4    0    0  0.62357678826E+02 -0.21449187632E+02  0.11814540244E+02  0.66993515506E+02  0.00000000000E+00 0.  1.
         11    1    4    4    0    0 -0.23399690043E+02 -0.49875806182E+02 -0.26995050408E+02  0.61350422027E+02  0.00000000000E+00 0. -1.
         21    1    1    2  502  501 -0.31580494383E+02 -0.23619274573E+02 -0.27151312283E+02  0.47878925588E+02  0.00000000000E+00 0.  1.
<scales pt_clust_5="13000.00000" pt_clust_6="13000.00000" pt_clust_7="13000.00000" pt_clust_8="13000.00000" pt_clust_9="39.43600"></scales>
<clustering>
<clus scale="   39.436">  2  9  1 -1</clus>
<clus scale="   78.751">  5  6 -1 -1</clus>
<clus scale="   98.167">  7  8 -1 -1</clus>
<clus scale="  117.259">  1  5  2 -1</clus>
<clus scale="   39.436">  2  5  1 -1</clus>
</clustering>
</event>
<event>
 9    1  0.2374319E-005  0.1237986E+03  0.7546771E-02  0.1237406E+00
          1   -1    0    0  502    0  0.00000000000E+00  0.00000000000E+00  0.11170352626E+04  0.11170352626E+04  0.00000000000E+00 0. -1.
         -2   -1    0    0    0  501 -0.00000000000E+00 -0.00000000000E+00 -0.76329155851E+02  0.76329155851E+02  0.00000000000E+00 0.  1.
        -24    2    1    2    0    0 -0.10090097570E+03  0.18529647246E+02  0.14612072026E+02  0.13297543826E+03  0.83334265509E+02 0.  0.
         23    2    1    2    0    0  0.21408950208E+02 -0.84593377595E+02  0.25726191699E+03  0.28464016527E+03  0.84982039707E+02 0.  0.
         11    1    3    3    0    0  0.87367695795E+00  0.24335104219E+02  0.19082946806E+02  0.30937347456E+02  0.00000000000E+00 0. -1.
        -12    1    3    3    0    0 -0.10177465266E+03 -0.58054569731E+01 -0.44708747795E+01  0.10203809081E+03  0.00000000000E+00 0.  1.
        -11    1    4    4    0    0 -0.21505645269E+02 -0.11615798881E+02  0.16665020979E+02  0.29582807276E+02  0.00000000000E+00 0.  1.
         11    1    4    4    0    0  0.42914595477E+02 -0.72977578714E+02  0.24059689601E+03  0.25505735800E+03  0.00000000000E+00 0. -1.
         21    1    1    2  502  501  0.79492025490E+02  0.66063730349E+02  0.76883211777E+03  0.77574881495E+03  0.00000000000E+00 0. -1.
<scales pt_clust_5="13000.00000" pt_clust_6="13000.00000" pt_clust_7="13000.00000" pt_clust_8="13000.00000" pt_clust_9="103.36053"></scales>
<clustering>
<clus scale="   83.334">  5  6 -1 -1</clus>
<clus scale="   84.982">  7  8 -1 -1</clus>
<clus scale="  103.361">  1  9  2 -1</clus>
<clus scale="  122.673">  2  5  1 -1</clus>
<clus scale="  103.361">  1  5  2 -1</clus>
</clustering>
</event>
<event>
 9    1  0.2374319E-005  0.1789641E+03  0.7546771E-02  0.1189498E+00
          1   -1    0    0  502    0  0.00000000000E+00  0.00000000000E+00  0.42910776206E+03  0.42910776206E+03  0.00000000000E+00 0. -1.
         -2   -1    0    0    0  501 -0.00000000000E+00 -0.00000000000E+00 -0.14203881206E+03  0.14203881206E+03  0.00000000000E+00 0.  1.
        -24    2    1    2    0    0  0.89853114374E+02  0.10845553320E+03  0.33681163791E+02  0.16618161530E+03  0.81521307802E+02 0.  0.
         23    2    1    2    0    0 -0.18080642957E+01  0.61357117402E+02  0.15041471297E+03  0.18772840351E+03  0.94071263702E+02 0.  0.
         11    1    3    3    0    0  0.35678172623E+02  0.90758181761E+01  0.38005304699E+02  0.52912244921E+02  0.00000000000E+00 0. -1.
        -12    1    3    3    0    0  0.54174941751E+02  0.99379715023E+02 -0.43241409086E+01  0.11326937038E+03  0.00000000000E+00 0.  1.
        -13    1    4    4    0    0  0.13806766062E+02  0.77483743568E+02  0.14445355659E+03  0.16450284896E+03  0.00000000000E+00 0. -1.
         13    1    4    4    0    0 -0.15614830357E+02 -0.16126626166E+02  0.59611563814E+01  0.23225554546E+02  0.00000000000E+00 0.  1.
         21    1    1    2  502  501 -0.88045050079E+02 -0.16981265060E+03  0.10297307324E+03  0.21723655531E+03  0.00000000000E+00 0. -1.
<scales pt_clust_5="13000.00000" pt_clust_6="13000.00000" pt_clust_7="13000.00000" pt_clust_8="13000.00000" pt_clust_9="159.31863"></scales>
<clustering>
<clus scale="   81.521">  5  6 -1 -1</clus>
<clus scale="   94.071">  7  8 -1 -1</clus>
<clus scale="  112.327">  1  7  2 -1</clus>
<clus scale="  159.319">  1  9  2 -1</clus>
<clus scale="  112.327">  1  5  2 -1</clus>
</clustering>
</event>
<event>
 9    1  0.2374319E-005  0.9891760E+02  0.7546771E-02  0.1286900E+00
         -2   -1    0    0    0  501 -0.00000000000E+00  0.00000000000E+00  0.57597197415E+02  0.57597197415E+02  0.00000000000E+00 0.  1.
          1   -1    0    0  502    0  0.00000000000E+00 -0.00000000000E+00 -0.42016577834E+03  0.42016577834E+03  0.00000000000E+00 0. -1.
        -24    2    1    2    0    0  0.25230333526E+02 -0.47065240468E+02 -0.39938356430E+01  0.94679818194E+02  0.78080795718E+02 0.  0.
         23    2    1    2    0    0 -0.25437385199E+02  0.29272415764E+01 -0.23971785568E+03  0.25629527950E+03  0.86988451270E+02 0.  0.
         13    1    3    3    0    0 -0.26442400007E+02 -0.14674132614E+02  0.10470070158E+02  0.32002391398E+02  0.00000000000E+00 0. -1.
        -14    1    3    3    0    0  0.51672733533E+02 -0.32391107854E+02 -0.14463905801E+02  0.62677426796E+02  0.00000000000E+00 0.  1.
        -11    1    4    4    0    0 -0.41609398908E+02 -0.19944514832E+02 -0.21172280971E+03  0.21669257925E+03  0.00000000000E+00 0.  1.
         11    1    4    4    0    0  0.16172013709E+02  0.22871756408E+02 -0.27995045968E+02  0.39602700253E+02  0.00000000000E+00 0. -1.
         21    1    1    2  502  501  0.20705167324E+00  0.44137998892E+02 -0.11885688960E+03  0.12678787805E+03  0.00000000000E+00 0. -1.
<scales pt_clust_5="13000.00000" pt_clust_6="13000.00000" pt_clust_7="13000.00000" pt_clust_8="13000.00000" pt_clust_9="44.13848"></scales>
<clustering>
<clus scale="   44.138">  2  9  1 -1</clus>
<clus scale="   78.081">  5  6 -1 -1</clus>
<clus scale="   86.988">  7  8 -1 -1</clus>
<clus scale="   91.183">  1  5  2 -1</clus>
<clus scale="   44.138">  2  5  1 -1</clus>
</clustering>
</event>
<event>
 9    1  0.2374319E-005  0.9146111E+02  0.7546771E-02  0.1306502E+00
          1   -1    0    0  502    0  0.00000000000E+00  0.00000000000E+00  0.13249218326E+03  0.13249218326E+03  0.00000000000E+00 0. -1.
         -2   -1    0    0    0  501 -0.00000000000E+00 -0.00000000000E+00 -0.22061645894E+03  0.22061645894E+03  0.00000000000E+00 0.  1.
         23    2    1    2    0    0 -0.65707571366E+01  0.15758210997E+01 -0.18391147915E+03  0.20537817638E+03  0.91165262631E+02 0.  0.
        -24    2    1    2    0    0  0.18769729168E+00 -0.26274558014E+02  0.58042584477E+02  0.10217360771E+03  0.79875633770E+02 0.  0.
         11    1    4    4    0    0  0.23509029393E+02 -0.47213354173E+02  0.36731084443E+02  0.64272450083E+02  0.00000000000E+00 0. -1.
        -12    1    4    4    0    0 -0.23321332102E+02  0.20938796159E+02  0.21311500035E+02  0.37901157625E+02  0.00000000000E+00 0.  1.
        -13    1    3    3    0    0 -0.37439542642E+02 -0.10972667464E+01 -0.16473545424E+03  0.16893991012E+03  0.00000000000E+00 0.  1.
         13    1    3    3    0    0  0.30868785505E+02  0.26730878461E+01 -0.19176024914E+02  0.36438266269E+02  0.00000000000E+00 0. -1.
         21    1    1    2  502  501  0.63830598449E+01  0.24698736914E+02  0.37744618989E+02  0.45556858109E+02  0.00000000000E+00 0. -1.
<scales pt_clust_5="13000.00000" pt_clust_6="13000.00000" pt_clust_7="13000.00000" pt_clust_8="13000.00000" pt_clust_9="25.51021"></scales>
<clustering>
<clus scale="   25.510">  1  9  2 -1</clus>
<clus scale="   79.876">  5  6 -1 -1</clus>
<clus scale="   80.213">  1  5  2 -1</clus>
<clus scale="   91.165">  7  8 -1 -1</clus>
<clus scale="   25.510">  1  5  2 -1</clus>
</clustering>
</event>
<event>
 9    1  0.2374319E-005  0.1084531E+03  0.7546771E-02  0.1273240E+00
         -2   -1    0    0    0  501 -0.00000000000E+00  0.00000000000E+00  0.56354704113E+03  0.56354704113E+03  0.00000000000E+00 0.  1.
          1   -1    0    0  502    0  0.00000000000E+00 -0.00000000000E+00 -0.32402256054E+03  0.32402256054E+03  0.00000000000E+00 0. -1.
        -24    2    1    2    0    0 -0.11693105118E+02  0.38413367194E+02  0.53460977869E+03  0.54204385965E+03  0.79947575538E+02 0.  0.
         23    2    1    2    0    0  0.44269196110E+02 -0.70671831884E+02 -0.24491462656E+03  0.27756320431E+03  0.10051810054E+03 0.  0.
         11    1    3    3    0    0 -0.25458608912E+02  0.29680593731E+02  0.10372862960E+03  0.11085444065E+03  0.00000000000E+00 0. -1.
        -12    1    3    3    0    0  0.13765503793E+02  0.87327734622E+01  0.43088114909E+03  0.43118941901E+03  0.00000000000E+00 0.  1.
        -13    1    4    4    0    0 -0.27436376988E+02 -0.25772099961E+02 -0.35654994102E+02  0.51848187269E+02  0.00000000000E+00 0.  1.
         13    1    4    4    0    0  0.71705573098E+02 -0.44899731923E+02 -0.20925963246E+03  0.22571501704E+03  0.00000000000E+00 0. -1.
         21    1    1    2  502  501 -0.32576090991E+02  0.32258464691E+02 -0.50170671539E+02  0.67962537704E+02  0.00000000000E+00 0.  1.
<scales pt_clust_5="13000.00000" pt_clust_6="13000.00000" pt_clust_7="13000.00000" pt_clust_8="13000.00000" pt_clust_9="45.84550"></scales>
<clustering>
<clus scale="   45.846">  2  9  1 -1</clus>
<clus scale="   79.948">  5  6 -1 -1</clus>
<clus scale="   89.721">  1  5  2 -1</clus>
<clus scale="  100.518">  7  8 -1 -1</clus>
<clus scale="   45.846">  2  5  1 -1</clus>
</clustering>
</event>
<event>
 9    1  0.2374319E-005  0.9624247E+02  0.7546771E-02  0.1294262E+00
         -2   -1    0    0    0  501 -0.00000000000E+00  0.00000000000E+00  0.20429279181E+03  0.20429279181E+03  0.00000000000E+00 0.  1.
          1   -1    0    0  502    0  0.00000000000E+00 -0.00000000000E+00 -0.14104922754E+03  0.14104922754E+03  0.00000000000E+00 0. -1.
        -24    2    1    2    0    0 -0.32770607012E+02 -0.72642425758E+01  0.13974947140E+03  0.16515620554E+03  0.81363232284E+02 0.  0.
         23    2    1    2    0    0 -0.57625293045E+01 -0.32007846185E+02 -0.78473220548E+02  0.12513156899E+03  0.91881196407E+02 0.  0.
         11    1    3    3    0    0 -0.12322176790E+02  0.34904254432E+02  0.37566847399E+02  0.52739084575E+02  0.00000000000E+00 0. -1.
        -12    1    3    3    0    0 -0.20448430222E+02 -0.42168497007E+02  0.10218262400E+03  0.11241712096E+03  0.00000000000E+00 0.  1.
        -13    1    4    4    0    0 -0.28073390993E+02  0.21873878846E+02 -0.14127938206E+02  0.38290736420E+02  0.00000000000E+00 0.  1.
         13    1    4    4    0    0  0.22310861689E+02 -0.53881725031E+02 -0.64345282342E+02  0.86840832569E+02  0.00000000000E+00 0. -1.
         21    1    1    2  502  501  0.38533136316E+02  0.39272088761E+02  0.19673134174E+01  0.55054244814E+02  0.00000000000E+00 0.  1.
<scales pt_clust_5="13000.00000" pt_clust_6="13000.00000" pt_clust_7="13000.00000" pt_clust_8="13000.00000" pt_clust_9="55.01908"></scales>
<clustering>
<clus scale="   55.019">  2  9  1 -1</clus>
<clus scale="   81.363">  5  6 -1 -1</clus>
<clus scale="   86.258">  1  5  2 -1</clus>
<clus scale="   91.881">  7  8 -1 -1</clus>
<clus scale="   55.019">  2  5  1 -1</clus>
</clustering>
</event>
<event>
 9    1  0.2374319E-005  0.1207828E+03  0.7546771E-02  0.1245099E+00
          1   -1    0    0  502    0  0.00000000000E+00  0.00000000000E+00  0.88978569990E+02  0.88978569990E+02  0.00000000000E+00 0. -1.
         -2   -1    0    0    0  501 -0.00000000000E+00 -0.00000000000E+00 -0.37296697846E+03  0.37296697846E+03  0.00000000000E+00 0.  1.
        -24    2    1    2    0    0 -0.60477884473E+02  0.51899119061E+02 -0.28581401750E+03  0.30707003045E+03  0.79064896985E+02 0.  0.
         23    2    1    2    0    0  0.48895082141E+02 -0.75462717266E+02 -0.67220452997E+01  0.12726271545E+03  0.89806804281E+02 0.  0.
         11    1    3    3    0    0 -0.11843010225E+02 -0.21299530802E+02 -0.63448098326E+02  0.67967551705E+02  0.00000000000E+00 0. -1.
        -12    1    3    3    0    0 -0.48634874248E+02  0.73198649863E+02 -0.22236591917E+03  0.23910247875E+03  0.00000000000E+00 0.  1.
        -11    1    4    4    0    0 -0.25339573336E+02 -0.15268412647E+02 -0.11079559612E+02  0.31590742992E+02  0.00000000000E+00 0.  1.
         11    1    4    4    0    0  0.74234655477E+02 -0.60194304618E+02  0.43575143126E+01  0.95671972454E+02  0.00000000000E+00 0. -1.
         21    1    1    2  502  501  0.11582802331E+02  0.23563598204E+02  0.85476543261E+01  0.27612802550E+02  0.00000000000E+00 0. -1.
<scales pt_clust_5="13000.00000" pt_clust_6="13000.00000" pt_clust_7="13000.00000" pt_clust_8="13000.00000" pt_clust_9="26.25651"></scales>
<clustering>
<clus scale="   26.257">  1  9  2 -1</clus>
<clus scale="   79.065">  5  6 -1 -1</clus>
<clus scale="   89.807">  7  8 -1 -1</clus>
<clus scale="  113.024">  2  5  1 -1</clus>
<clus scale="   26.257">  1  5  2 -1</clus>
</clustering>
</event>
<event>
 9    1  0.2374319E-005  0.1258960E+03  0.7546771E-02  0.1241407E+00
          1   -1    0    0  502    0  0.00000000000E+00  0.00000000000E+00  0.32293056190E+03  0.32293056190E+03  0.00000000000E+00 0. -1.
         -2   -1    0    0    0  501 -0.00000000000E+00 -0.00000000000E+00 -0.30360929768E+03  0.30360929768E+03  0.00000000000E+00 0.  1.
         23    2    1    2    0    0  0.64436827294E+02 -0.35578452656E+02 -0.25293248139E+03  0.28316520996E+03  0.10387379356E+03 0.  0.
        -24    2    1    2    0    0 -0.33799163160E+02  0.56481515085E+02  0.45495375994E+02  0.11360310509E+03  0.80642986507E+02 0.  0.
         13    1    4    4    0    0  0.43445099296E+01  0.64294060117E+02  0.21820817122E+02  0.68034910103E+02  0.00000000000E+00 0. -1.
        -14    1    4    4    0    0 -0.38143673089E+02 -0.78125450322E+01  0.23674558871E+02  0.45568194987E+02  0.00000000000E+00 0.  1.
        -13    1    3    3    0    0  0.77598747842E+02  0.10524915253E+02 -0.17404232121E+03  0.19084828813E+03  0.00000000000E+00 0.  1.
         13    1    3    3    0    0 -0.13161920547E+02 -0.46103367909E+02 -0.78890160176E+02  0.92316921838E+02  0.00000000000E+00 0. -1.
         21    1    1    2  502  501 -0.30637664134E+02 -0.20903062429E+02  0.22675836961E+03  0.22977154452E+03  0.00000000000E+00 0. -1.
<scales pt_clust_5="13000.00000" pt_clust_6="13000.00000" pt_clust_7="13000.00000" pt_clust_8="13000.00000" pt_clust_9="37.08914"></scales>
<clustering>
<clus scale="   37.089">  1  9  2 -1</clus>
<clus scale="   80.643">  5  6 -1 -1</clus>
<clus scale="  103.874">  7  8 -1 -1</clus>
<clus scale="  107.533">  1  5  2 -1</clus>
<clus scale="   37.089">  1  5  2 -1</clus>
</clustering>
</event>
<event>
 9    1  0.2374319E-005  0.9632951E+02  0.7546771E-02  0.1291415E+00
          1   -1    0    0  502    0  0.00000000000E+00  0.00000000000E+00  0.25048577809E+03  0.25048577809E+03  0.00000000000E+00 0. -1.
         -2   -1    0    0    0  501 -0.00000000000E+00 -0.00000000000E+00 -0.75865179065E+02  0.75865179065E+02  0.00000000000E+00 0.  1.
        -24    2    1    2    0    0  0.20192534553E+02 -0.46804405138E+02 -0.16976998984E+02  0.95978743938E+02  0.79531817542E+02 0.  0.
         23    2    1    2    0    0  0.44167179995E+01  0.16756234759E+02  0.14795648308E+03  0.17195085781E+03  0.85881882942E+02 0.  0.
         11    1    3    3    0    0  0.15937329546E+02  0.21045208393E+02 -0.65672880575E+01  0.27203465621E+02  0.00000000000E+00 0. -1.
        -12    1    3    3    0    0  0.42552050073E+01 -0.67849613531E+02 -0.10409710927E+02  0.68775278317E+02  0.00000000000E+00 0.  1.
        -13    1    4    4    0    0 -0.29115733906E+02  0.25414346404E+02  0.12388877485E+03  0.12977689894E+03  0.00000000000E+00 0.  1.
         13    1    4    4    0    0  0.33532451906E+02 -0.86581116447E+01  0.24067708225E+02  0.42173958876E+02  0.00000000000E+00 0. -1.
         21    1    1    2  502  501 -0.24609252553E+02  0.30048170378E+02  0.43641114929E+02  0.58421355398E+02  0.00000000000E+00 0. -1.
<scales pt_clust_5="13000.00000" pt_clust_6="13000.00000" pt_clust_7="13000.00000" pt_clust_8="13000.00000" pt_clust_9="38.83951"></scales>
<clustering>
<clus scale="   38.840">  1  9  2 -1</clus>
<clus scale="   79.532">  5  6 -1 -1</clus>
<clus scale="   85.882">  7  8 -1 -1</clus>
<clus scale="   90.714">  2  5  1 -1</clus>
<clus scale="   38.840">  1  5  2 -1</clus>
</clustering>
</event>
<event>
 9    1  0.2374319E-005  0.1572502E+03  0.7546771E-02  0.1193017E+00
         -2   -1    0    0    0  501 -0.00000000000E+00  0.00000000000E+00  0.75476199527E+02  0.75476199527E+02  0.00000000000E+00 0.  1.
          1   -1    0    0  502    0  0.00000000000E+00 -0.00000000000E+00 -0.69381418767E+03  0.69381418767E+03  0.00000000000E+00 0. -1.
         23    2    1    2    0    0 -0.63669432324E+02  0.99829927291E+02 -0.69277797469E+02  0.16368316807E+03  0.89291406593E+02 0.  0.
        -24    2    1    2    0    0  0.76761735809E+02 -0.13734429912E+03 -0.26579266428E+03  0.31956661359E+03  0.81983288257E+02 0.  0.
         11    1    4    4    0    0  0.28356550764E+02 -0.84489181308E+02 -0.21194885440E+03  0.22992353645E+03  0.00000000000E+00 0. -1.
        -12    1    4    4    0    0  0.48405185045E+02 -0.52855117814E+02 -0.53843809874E+02  0.89643077146E+02  0.00000000000E+00 0.  1.
        -11    1    3    3    0    0 -0.16940063473E+02  0.67247205945E+02  0.56280205207E+01  0.69576052438E+02  0.00000000000E+00 0.  1.
         11    1    3    3    0    0 -0.46729368851E+02  0.32582721346E+02 -0.74905817990E+02  0.94107115630E+02  0.00000000000E+00 0. -1.
         21    1    1    2  502  501 -0.13092303485E+02  0.37514371831E+02 -0.28326752640E+03  0.28604060554E+03  0.00000000000E+00 0. -1.
<scales pt_clust_5="13000.00000" pt_clust_6="13000.00000" pt_clust_7="13000.00000" pt_clust_8="13000.00000" pt_clust_9="39.73332"></scales>
<clustering>
<clus scale="   39.733">  2  9  1 -1</clus>
<clus scale="   81.983">  5  6 -1 -1</clus>
<clus scale="   89.291">  7  8 -1 -1</clus>
<clus scale="  153.219">  2  5  1 -1</clus>
<clus scale="   39.733">  2  5  1 -1</clus>
</clustering>
</event>
<event>
 9    1  0.2374319E-005  0.1283327E+03  0.7546771E-02  0.1230770E+00
          1   -1    0    0  502    0  0.00000000000E+00  0.00000000000E+00  0.30575095577E+03  0.30575095577E+03  0.00000000000E+00 0. -1.
         -2   -1    0    0    0  501 -0.00000000000E+00 -0.00000000000E+00 -0.83658123686E+02  0.83658123686E+02  0.00000000000E+00 0.  1.
        -24    2    1    2    0    0 -0.84919830222E+02 -0.50200757545E+01  0.33022792455E+02  0.12368372866E+03  0.83490006523E+02 0.  0.
         23    2    1    2    0    0  0.11079073327E+03  0.10767002086E+02  0.10038214253E+03  0.17316254034E+03  0.86707415639E+02 0.  0.
         13    1    3    3    0    0 -0.10354101791E+02 -0.36704455577E+02  0.12043039313E+02  0.39993240416E+02  0.00000000000E+00 0. -1.
        -14    1    3    3    0    0 -0.74565728431E+02  0.31684379823E+02  0.20979753142E+02  0.83690488248E+02  0.00000000000E+00 0.  1.
        -11    1    4    4    0    0  0.82784143874E+02  0.17311635109E+02  0.11350456695E+03  0.14154926317E+03  0.00000000000E+00 0. -1.
         11    1    4    4    0    0  0.28006589394E+02 -0.65446330233E+01 -0.13122424415E+02  0.31613277170E+02  0.00000000000E+00 0.  1.
         21    1    1    2  502  501 -0.25870903046E+02 -0.57469263315E+01  0.88687897101E+02  0.92562810453E+02  0.00000000000E+00 0.  1.
<scales pt_clust_5="13000.00000" pt_clust_6="13000.00000" pt_clust_7="13000.00000" pt_clust_8="13000.00000" pt_clust_9="26.50152"></scales>
<clustering>
<clus scale="   26.502">  1  9  2 -1</clus>
<clus scale="   83.490">  5  6 -1 -1</clus>
<clus scale="   86.707">  7  8 -1 -1</clus>
<clus scale="  126.181">  2  5  1 -1</clus>
<clus scale="   26.502">  1  5  2 -1</clus>
</clustering>
</event>
<event>
 9    1  0.2374319E-005  0.9723851E+02  0.7546771E-02  0.1291645E+00
         -2   -1    0    0    0  501 -0.00000000000E+00  0.00000000000E+00  0.97502563810E+02  0.97502563810E+02  0.00000000000E+00 0.  1.
          1   -1    0    0  502    0  0.00000000000E+00 -0.00000000000E+00 -0.19696523166E+03  0.19696523166E+03  0.00000000000E+00 0. -1.
        -24    2    1    2    0    0  0.18541746451E+02  0.22028403341E+02  0.29353575565E+02  0.90200187166E+02  0.80283214006E+02 0.  0.
         23    2    1    2    0    0 -0.26761465236E+02 -0.62533851016E+02 -0.11317469970E+03  0.16007583353E+03  0.90493653270E+02 0.  0.
         13    1    3    3    0    0 -0.23946514014E+02  0.29628109908E+02  0.16690642030E+00  0.38095777822E+02  0.00000000000E+00 0. -1.
        -14    1    3    3    0    0  0.42488260466E+02 -0.75997065671E+01  0.29186669144E+02  0.52104409344E+02  0.00000000000E+00 0.  1.
        -11    1    4    4    0    0  0.15024702929E+02 -0.67611809189E+02 -0.83942144566E+02  0.10882730390E+03  0.00000000000E+00 0.  1.
         11    1    4    4    0    0 -0.41786168165E+02  0.50779581728E+01 -0.29232555138E+02  0.51248529628E+02  0.00000000000E+00 0. -1.
         21    1    1    2  502  501  0.82197187845E+01  0.40505447675E+02 -0.15641543713E+02  0.44191774778E+02  0.00000000000E+00 0. -1.
<scales pt_clust_5="13000.00000" pt_clust_6="13000.00000" pt_clust_7="13000.00000" pt_clust_8="13000.00000" pt_clust_9="41.33104"></scales>
<clustering>
<clus scale="   41.331">  2  9  1 -1</clus>
<clus scale="   80.283">  5  6 -1 -1</clus>
<clus scale="   87.816">  1  5  2 -1</clus>
<clus scale="   90.494">  7  8 -1 -1</clus>
<clus scale="   41.331">  2  5  1 -1</clus>
</clustering>
</event>
<event>
 9    1  0.2374319E-005  0.9862338E+02  0.7546771E-02  0.1288765E+00
         -2   -1    0    0    0  501 -0.00000000000E+00  0.00000000000E+00  0.47301620709E+02  0.47301620709E+02  0.00000000000E+00 0.  1.
          1   -1    0    0  502    0  0.00000000000E+00 -0.00000000000E+00 -0.54581131964E+03  0.54581131964E+03  0.00000000000E+00 0. -1.
        -24    2    1    2    0    0  0.40796984724E+02 -0.31914195979E+02 -0.95450150897E+02  0.13545113884E+03  0.80952886549E+02 0.  0.
         23    2    1    2    0    0 -0.30235102656E+02 -0.53117595771E+02 -0.12443093090E+03  0.16615560046E+03  0.91591411095E+02 0.  0.
         11    1    3    3    0    0  0.31596429993E+02 -0.57692076190E+02 -0.81492972680E+02  0.10472733473E+03  0.00000000000E+00 0. -1.
        -12    1    3    3    0    0  0.92005547304E+01  0.25777880211E+02 -0.13957178217E+02  0.30723804115E+02  0.00000000000E+00 0.  1.
        -13    1    4    4    0    0 -0.16901584470E+02  0.24835611235E+02 -0.24823554449E+02  0.38970245040E+02  0.00000000000E+00 0.  1.
         13    1    4    4    0    0 -0.13333518186E+02 -0.77953207006E+02 -0.99607376453E+02  0.12718535542E+03  0.00000000000E+00 0. -1.
         21    1    1    2  502  501 -0.10561882068E+02  0.85031791750E+02 -0.27862861713E+03  0.29150620104E+03  0.00000000000E+00 0.  1.
<scales pt_clust_5="13000.00000" pt_clust_6="13000.00000" pt_clust_7="13000.00000" pt_clust_8="13000.00000" pt_clust_9="85.68523"></scales>
<clustering>
<clus scale="   80.953">  5  6 -1 -1</clus>
<clus scale="   85.685">  2  9  1 -1</clus>
<clus scale="   88.831">  1  5  2 -1</clus>
<clus scale="   91.591">  7  8 -1 -1</clus>
<clus scale="   85.685">  2  5  1 -1</clus>
</clustering>
</event>
<event>
 9    1  0.2374319E-005  0.9161522E+02  0.7546771E-02  0.1303757E+00
          1   -1    0    0  502    0  0.00000000000E+00  0.00000000000E+00  0.19490187432E+03  0.19490187432E+03  0.00000000000E+00 0. -1.
         -2   -1    0    0    0  501 -0.00000000000E+00 -0.00000000000E+00 -0.24118658184E+03  0.24118658184E+03  0.00000000000E+00 0.  1.
        -24    2    1    2    0    0 -0.38088758714E+00 -0.56389226181E+01 -0.20272946699E+03  0.21933568761E+03  0.83528226077E+02 0.  0.
         23    2    1    2    0    0 -0.14791363779E+02  0.33123360540E+02  0.59432780917E+02  0.11478750230E+03  0.91257732719E+02 0.  0.
         13    1    3    3    0    0  0.24370394762E-02  0.37846052844E+02 -0.68790703628E+02  0.78514232006E+02  0.00000000000E+00 0. -1.
        -14    1    3    3    0    0 -0.38332462662E+00 -0.43484975463E+02 -0.13393876336E+03  0.14082145561E+03  0.00000000000E+00 0.  1.
        -13    1    4    4    0    0 -0.45007309396E+02 -0.12402726911E+01  0.51396238811E+02  0.68328394825E+02  0.00000000000E+00 0.  1.
         13    1    4    4    0    0  0.30215945618E+02  0.34363633231E+02  0.80365421059E+01  0.46459107476E+02  0.00000000000E+00 0. -1.
         21    1    1    2  502  501  0.15172251366E+02 -0.27484437922E+02  0.97011978549E+02  0.10196526625E+03  0.00000000000E+00 0. -1.
<scales pt_clust_5="13000.00000" pt_clust_6="13000.00000" pt_clust_7="13000.00000" pt_clust_8="13000.00000" pt_clust_9="31.39413"></scales>
<clustering>
<clus scale="   31.394">  1  9  2 -1</clus>
<clus scale="   83.528">  5  6 -1 -1</clus>
<clus scale="   83.919">  2  5  1 -1</clus>
<clus scale="   91.258">  7  8 -1 -1</clus>
<clus scale="   31.394">  1  5  2 -1</clus>
</clustering>
</event>
<event>
 9    1  0.2374319E-005  0.1302162E+03  0.7546771E-02  0.1229160E+00
         -2   -1    0    0    0  501 -0.00000000000E+00  0.00000000000E+00  0.78141484623E+02  0.78141484623E+02  0.00000000000E+00 0.  1.
          1   -1    0    0  502    0  0.00000000000E+00 -0.00000000000E+00 -0.59206412044E+03  0.59206412044E+03  0.00000000000E+00 0. -1.
        -24    2    1    2    0    0  0.61367207396E+02  0.75773444802E+02 -0.10307924476E+02  0.12647756392E+03  0.79892251112E+02 0.  0.
         23    2    1    2    0    0 -0.88375432489E+02 -0.10700553087E+03 -0.44895268547E+03  0.47522384788E+03  0.70843426624E+02 0.  0.
         11    1    3    3    0    0  0.31143742502E+02  0.46273852497E+02 -0.45122453830E+02  0.71744253858E+02  0.00000000000E+00 0. -1.
        -12    1    3    3    0    0  0.30223464894E+02  0.29499592306E+02  0.34814529354E+02  0.54733310064E+02  0.00000000000E+00 0.  1.
        -13    1    4    4    0    0 -0.77385188551E+02 -0.41383156847E+02 -0.28760980875E+03  0.30069990883E+03  0.00000000000E+00 0.  1.
         13    1    4    4    0    0 -0.10990243938E+02 -0.65622374021E+02 -0.16134287672E+03  0.17452393905E+03  0.00000000000E+00 0. -1.
         21    1    1    2  502  501  0.27008225093E+02  0.31232086066E+02 -0.54662025872E+02  0.68504193267E+02  0.00000000000E+00 0.  1.
<scales pt_clust_5="13000.00000" pt_clust_6="13000.00000" pt_clust_7="13000.00000" pt_clust_8="13000.00000" pt_clust_9="41.29028"></scales>
<clustering>
<clus scale="   41.290">  2  9  1 -1</clus>
<clus scale="   70.843">  7  8 -1 -1</clus>
<clus scale="   79.892">  5  6 -1 -1</clus>
<clus scale="  124.869">  2  7  1 -1</clus>
<clus scale="   41.290">  2  5  1 -1</clus>
</clustering>
</event>
<event>
 9    1  0.2374319E-005  0.2525958E+03  0.7546771E-02  0.1112151E+00
          1   -1    0    0  502    0  0.00000000000E+00  0.00000000000E+00  0.25763128470E+03  0.25763128470E+03  0.00000000000E+00 0. -1.
         -2   -1    0    0    0  501 -0.00000000000E+00 -0.00000000000E+00 -0.42350422386E+03  0.42350422386E+03  0.00000000000E+00 0.  1.
         23    2    1    2    0    0 -0.85435720263E+02  0.21381810705E+03 -0.20044803344E+03  0.31841812484E+03  0.90516533939E+02 0.  0.
        -24    2    1    2    0    0  0.58058011429E+02 -0.24049993630E+03 -0.54147039120E+02  0.26610953773E+03  0.81678835524E+02 0.  0.
         13    1    4    4    0    0  0.61994656782E+02 -0.97559347084E+02 -0.80593864371E+01  0.11587112402E+03  0.00000000000E+00 0. -1.
        -14    1    4    4    0    0 -0.39366453530E+01 -0.14294058922E+03 -0.46087652683E+02  0.15023841370E+03  0.00000000000E+00 0.  1.
        -11    1    3    3    0    0 -0.10324154326E+02  0.19746786603E+02  0.81896640718E+01  0.23740141981E+02  0.00000000000E+00 0. -1.
         11    1    3    3    0    0 -0.75111565937E+02  0.19407132045E+03 -0.20863769751E+03  0.29467798286E+03  0.00000000000E+00 0.  1.
         21    1    1    2  502  501  0.27377708834E+02  0.26681829252E+02  0.88722133401E+02  0.96607845998E+02  0.00000000000E+00 0. -1.
<scales pt_clust_5="13000.00000" pt_clust_6="13000.00000" pt_clust_7="13000.00000" pt_clust_8="13000.00000" pt_clust_9="38.22903"></scales>
<clustering>
<clus scale="   38.229">  1  9  2 -1</clus>
<clus scale="   81.679">  5  6 -1 -1</clus>
<clus scale="   90.517">  7  8 -1 -1</clus>
<clus scale="  249.565">  1  5  2 -1</clus>
<clus scale="   38.229">  1  5  2 -1</clus>
</clustering>
</event>
<event>
 9    1  0.2374319E-005  0.9471486E+02  0.7546771E-02  0.1297219E+00
          1   -1    0    0  502    0  0.00000000000E+00  0.00000000000E+00  0.32710947870E+03  0.32710947870E+03  0.00000000000E+00 0. -1.
         -2   -1    0    0    0  501 -0.00000000000E+00 -0.00000000000E+00 -0.18953333637E+03  0.18953333637E+03  0.00000000000E+00 0.  1.
        -24    2    1    2    0    0 -0.99088727104E+01 -0.27776366135E+02 -0.16598933837E+03  0.18671826604E+03  0.80259193527E+02 0.  0.
         23    2    1    2    0    0 -0.80195254009E+01  0.44546042953E+02  0.20513631795E+03  0.22848023132E+03  0.89853460855E+02 0.  0.
         13    1    3    3    0    0  0.22399402338E+02 -0.36868562027E+02 -0.13233172524E+03  0.13918588145E+03  0.00000000000E+00 0. -1.
        -14    1    3    3    0    0 -0.32308275048E+02  0.90921958920E+01 -0.33657613131E+02  0.47532384586E+02  0.00000000000E+00 0.  1.
        -13    1    4    4    0    0 -0.40497631605E+02  0.24138808123E+02  0.50205594297E+02  0.68871924047E+02  0.00000000000E+00 0.  1.
         13    1    4    4    0    0  0.32478106204E+02  0.20407234831E+02  0.15493072366E+03  0.15960830727E+03  0.00000000000E+00 0. -1.
         21    1    1    2  502  501  0.17928398111E+02 -0.16769676818E+02  0.98429162742E+02  0.10144431772E+03  0.00000000000E+00 0.  1.
<scales pt_clust_5="13000.00000" pt_clust_6="13000.00000" pt_clust_7="13000.00000" pt_clust_8="13000.00000" pt_clust_9="24.54892"></scales>
<clustering>
<clus scale="   24.549">  1  9  2 -1</clus>
<clus scale="   80.259">  5  6 -1 -1</clus>
<clus scale="   85.667">  2  5  1 -1</clus>
<clus scale="   89.853">  7  8 -1 -1</clus>
<clus scale="   24.549">  1  5  2 -1</clus>
</clustering>
</event>
<event>
 9    1  0.2374319E-005  0.1860292E+03  0.7546771E-02  0.1163271E+00
          1   -1    0    0  502    0  0.00000000000E+00  0.00000000000E+00  0.84340318044E+03  0.84340318044E+03  0.00000000000E+00 0. -1.
         -2   -1    0    0    0  501 -0.00000000000E+00 -0.00000000000E+00 -0.29027440155E+03  0.29027440155E+03  0.00000000000E+00 0.  1.
         23    2    1    2    0    0 -0.16098217629E+03  0.70125557788E+02 -0.23042561743E+03  0.30373873882E+03  0.91260075360E+02 0.  0.
        -24    2    1    2    0    0  0.83922978334E+02 -0.41553592468E+02  0.16587923527E+03  0.20682000878E+03  0.80553261884E+02 0.  0.
         11    1    4    4    0    0  0.43429317967E+02 -0.62293004366E+02  0.12140124625E+03  0.14319492534E+03  0.00000000000E+00 0. -1.
        -12    1    4    4    0    0  0.40493660366E+02  0.20739411899E+02  0.44477989011E+02  0.63625083436E+02  0.00000000000E+00 0.  1.
        -11    1    3    3    0    0 -0.55952536934E+02  0.63207571184E+02 -0.60507614119E+02  0.10386074721E+03  0.00000000000E+00 0. -1.
         11    1    3    3    0    0 -0.10502963935E+03  0.69179866034E+01 -0.16991800331E+03  0.19987799161E+03  0.00000000000E+00 0.  1.
         21    1    1    2  502  501  0.77059197953E+02 -0.28571965320E+02  0.61767516105E+03  0.62311883439E+03  0.00000000000E+00 0. -1.
<scales pt_clust_5="13000.00000" pt_clust_6="13000.00000" pt_clust_7="13000.00000" pt_clust_8="13000.00000" pt_clust_9="82.18563"></scales>
<clustering>
<clus scale="   80.553">  5  6 -1 -1</clus>
<clus scale="   82.186">  1  9  2 -1</clus>
<clus scale="   91.260">  7  8 -1 -1</clus>
<clus scale="  181.017">  1  5  2 -1</clus>
<clus scale="   82.186">  1  5  2 -1</clus>
</clustering>
</event>
<event>
 9    1  0.2374319E-005  0.9495410E+02  0.7546771E-02  0.1297711E+00
         -2   -1    0    0    0  501 -0.00000000000E+00  0.00000000000E+00  0.10843482174E+03  0.10843482174E+03  0.00000000000E+00 0.  1.
          1   -1    0    0  502    0  0.00000000000E+00 -0.00000000000E+00 -0.16986132683E+03  0.16986132683E+03  0.00000000000E+00 0. -1.
        -24    2    1    2    0    0 -0.21390392105E+02 -0.22265762419E+01  0.62203570673E+02  0.10207553602E+03  0.78023229448E+02 0.  0.
         23    2    1    2    0    0  0.29044761868E+02 -0.19191362119E+02 -0.11918658539E+03  0.15304601295E+03  0.89474763868E+02 0.  0.
         11    1    3    3    0    0  0.24595449278E+02  0.18106475348E+02  0.26116933093E+02  0.40185504462E+02  0.00000000000E+00 0. -1.
        -12    1    3    3    0    0 -0.45985841382E+02 -0.20333051590E+02  0.36086637581E+02  0.61890031560E+02  0.00000000000E+00 0.  1.
        -13    1    4    4    0    0  0.31629437929E+02  0.30786982739E+02 -0.41178482925E+02  0.60364949316E+02  0.00000000000E+00 0. -1.
         13    1    4    4    0    0 -0.25846760608E+01 -0.49978344858E+02 -0.78008102467E+02  0.92681063630E+02  0.00000000000E+00 0.  1.
         21    1    1    2  502  501 -0.76543697638E+01  0.21417938361E+02 -0.44434903718E+01  0.23174599604E+02  0.00000000000E+00 0.  1.
<scales pt_clust_5="13000.00000" pt_clust_6="13000.00000" pt_clust_7="13000.00000" pt_clust_8="13000.00000" pt_clust_9="22.74461"></scales>
<clustering>
<clus scale="   22.745">  1  9  2 -1</clus>
<clus scale="   78.023">  5  6 -1 -1</clus>
<clus scale="   84.251">  1  5  2 -1</clus>
<clus scale="   89.475">  7  8 -1 -1</clus>
<clus scale="   94.954">  2  5  1 -1</clus>
</clustering>
</event>
<event>
 9    1  0.2374319E-005  0.1256594E+03  0.7546771E-02  0.1237064E+00
         -4   -1    0    0    0  501 -0.00000000000E+00  0.00000000000E+00  0.41392004464E+03  0.41392004464E+03  0.00000000000E+00 0.  1.
          3   -1    0    0  502    0  0.00000000000E+00 -0.00000000000E+00 -0.11122743159E+03  0.11122743159E+03  0.00000000000E+00 0. -1.
        -24    2    1    2    0    0  0.64412476759E+02  0.37804374259E+02  0.17897211309E+03  0.21021610724E+03  0.81127409695E+02 0.  0.
         23    2    1    2    0    0 -0.96697847534E+02 -0.34028058522E+02  0.19380873926E+03  0.23767227881E+03  0.91749126501E+02 0.  0.
         11    1    3    3    0    0  0.34940521430E+02  0.44995932919E+02  0.44291215865E+02  0.72160833004E+02  0.00000000000E+00 0. -1.
        -12    1    3    3    0    0  0.29471955329E+02 -0.71915586597E+01  0.13468089723E+03  0.13805527424E+03  0.00000000000E+00 0.  1.
        -11    1    4    4    0    0 -0.30563778640E+02 -0.45792855323E+02  0.14364975046E+03  0.15383881490E+03  0.00000000000E+00 0.  1.
         11    1    4    4    0    0 -0.66134068894E+02  0.11764796801E+02  0.50158988802E+02  0.83833463902E+02  0.00000000000E+00 0. -1.
         21    1    1    2  502  501  0.32285370775E+02 -0.37763157371E+01 -0.70088239306E+02  0.77259090182E+02  0.00000000000E+00 0. -1.
<scales pt_clust_5="13000.00000" pt_clust_6="13000.00000" pt_clust_7="13000.00000" pt_clust_8="13000.00000" pt_clust_9="32.50547"></scales>
<clustering>
<clus scale="   32.505">  2  9  1 -1</clus>
<clus scale="   81.127">  5  6 -1 -1</clus>
<clus scale="   91.749">  7  8 -1 -1</clus>
<clus scale="  118.127">  1  5  2 -1</clus>
<clus scale="   32.505">  2  5  1 -1</clus>
</clustering>
</event>
<event>
 9    1  0.2374319E-005  0.1535174E+03  0.7546771E-02  0.1197987E+00
         -2   -1    0    0    0  501 -0.00000000000E+00  0.00000000000E+00  0.91311376668E+02  0.91311376668E+02  0.00000000000E+00 0.  1.
          1   -1    0    0  502    0  0.00000000000E+00 -0.00000000000E+00 -0.80428068510E+03  0.80428068510E+03  0.00000000000E+00 0. -1.
         23    2    1    2    0    0 -0.52732867506E+02 -0.12264083720E+03 -0.12342252465E+02  0.16175344941E+03  0.90500369800E+02 0.  0.
        -24    2    1    2    0    0 -0.13411177257E+01  0.65298202811E+02 -0.58389558303E+03  0.59298972038E+03  0.80231556792E+02 0.  0.
         11    1    4    4    0    0 -0.34432173796E+02  0.53605056400E+02 -0.28463490714E+03  0.29167808802E+03  0.00000000000E+00 0. -1.
        -12    1    4    4    0    0  0.33091056071E+02  0.11693146410E+02 -0.29926067589E+03  0.30131163236E+03  0.00000000000E+00 0.  1.
        -11    1    3    3    0    0 -0.33164776248E+02  0.41335699590E+00 -0.16581001653E+02  0.37081031045E+02  0.00000000000E+00 0. -1.
         11    1    3    3    0    0 -0.19568091258E+02 -0.12305419420E+03  0.42387491879E+01  0.12467241836E+03  0.00000000000E+00 0.  1.
         21    1    1    2  502  501  0.54073985232E+02  0.57342634394E+02 -0.11673147294E+03  0.14084889198E+03  0.00000000000E+00 0. -1.
<scales pt_clust_5="13000.00000" pt_clust_6="13000.00000" pt_clust_7="13000.00000" pt_clust_8="13000.00000" pt_clust_9="78.81734"></scales>
<clustering>
<clus scale="   78.817">  2  9  1 -1</clus>
<clus scale="   80.232">  5  6 -1 -1</clus>
<clus scale="   90.500">  7  8 -1 -1</clus>
<clus scale="  147.697">  2  5  1 -1</clus>
<clus scale="   78.817">  2  5  1 -1</clus>
</clustering>
</event>
<event>
 9    1  0.2374319E-005  0.1932346E+03  0.7546771E-02  0.1157063E+00
          1   -1    0    0  502    0  0.00000000000E+00  0.00000000000E+00  0.20310298182E+03  0.20310298182E+03  0.00000000000E+00 0. -1.
         -2   -1    0    0    0  501 -0.00000000000E+00 -0.00000000000E+00 -0.55018560497E+03  0.55018560497E+03  0.00000000000E+00 0.  1.
        -24    2    1    2    0    0  0.17312585263E+03  0.10912080369E+02 -0.43075534007E+03  0.47071748199E+03  0.77026946641E+02 0.  0.
         23    2    1    2    0    0 -0.14451626065E+03  0.51560062332E+02  0.10886903857E+03  0.20938550517E+03  0.91904475382E+02 0.  0.
         11    1    3    3    0    0  0.76813592948E+02 -0.32092974599E+02 -0.16544061383E+03  0.18520497775E+03  0.00000000000E+00 0. -1.
        -12    1    3    3    0    0  0.96312259686E+02  0.43005054968E+02 -0.26531472624E+03  0.28551250424E+03  0.00000000000E+00 0.  1.
        -11    1    4    4    0    0 -0.19975581348E+02  0.22952038391E+02 -0.12737240501E+02  0.32985712241E+02  0.00000000000E+00 0.  1.
         11    1    4    4    0    0 -0.12454067931E+03  0.28608023941E+02  0.12160627907E+03  0.17639979293E+03  0.00000000000E+00 0. -1.
         21    1    1    2  502  501 -0.28609591979E+02 -0.62472142701E+02 -0.25196321655E+02  0.73185599621E+02  0.00000000000E+00 0. -1.
<scales pt_clust_5="13000.00000" pt_clust_6="13000.00000" pt_clust_7="13000.00000" pt_clust_8="13000.00000" pt_clust_9="68.71155"></scales>
<clustering>
<clus scale="   68.712">  1  9  2 -1</clus>
<clus scale="   77.027">  5  6 -1 -1</clus>
<clus scale="   91.904">  7  8 -1 -1</clus>
<clus scale="  186.618">  2  5  1 -1</clus>
<clus scale="   68.712">  1  5  2 -1</clus>
</clustering>
</event>
<event>
 9    1  0.2374319E-005  0.1461586E+03  0.7546771E-02  0.1209265E+00
          1   -1    0    0  502    0  0.00000000000E+00  0.00000000000E+00  0.16981595229E+03  0.16981595229E+03  0.00000000000E+00 0. -1.
         -2   -1    0    0    0  501 -0.00000000000E+00 -0.00000000000E+00 -0.21315663305E+03  0.21315663305E+03  0.00000000000E+00 0.  1.
        -24    2    1    2    0    0  0.98675518556E+02 -0.32475865223E+02 -0.13017656421E+03  0.18508846444E+03  0.80748139397E+02 0.  0.
         23    2    1    2    0    0 -0.11861884732E+03  0.30473043597E+02  0.78218442995E+02  0.17606651479E+03  0.99409534151E+02 0.  0.
         11    1    3    3    0    0  0.37153571243E+01 -0.28423399368E+02 -0.61419839794E+02  0.67779718430E+02  0.00000000000E+00 0. -1.
        -12    1    3    3    0    0  0.94960161431E+02 -0.40524658550E+01 -0.68756724416E+02  0.11730874601E+03  0.00000000000E+00 0.  1.
        -11    1    4    4    0    0 -0.65656818751E+02 -0.34143641563E+02  0.32481794950E+02  0.80818767071E+02  0.00000000000E+00 0.  1.
         11    1    4    4    0    0 -0.52962028566E+02  0.64616685159E+02  0.45736648044E+02  0.95247747717E+02  0.00000000000E+00 0. -1.
         21    1    1    2  502  501  0.19943328761E+02  0.20028216265E+01  0.86174404581E+01  0.21817606115E+02  0.00000000000E+00 0. -1.
<scales pt_clust_5="13000.00000" pt_clust_6="13000.00000" pt_clust_7="13000.00000" pt_clust_8="13000.00000" pt_clust_9="20.04364"></scales>
<clustering>
<clus scale="   20.044">  1  9  2 -1</clus>
<clus scale="   80.748">  5  6 -1 -1</clus>
<clus scale="   99.410">  7  8 -1 -1</clus>
<clus scale="  134.165">  2  5  1 -1</clus>
<clus scale="   20.044">  1  5  2 -1</clus>
</clustering>
</event>
<event>
 9    1  0.2374319E-005  0.9070368E+02  0.7546771E-02  0.1303099E+00
          1   -1    0    0  502    0  0.00000000000E+00  0.00000000000E+00  0.16202962960E+03  0.16202962960E+03  0.00000000000E+00 0. -1.
         -2   -1    0    0    0  501 -0.00000000000E+00 -0.00000000000E+00 -0.48540690082E+03  0.48540690082E+03  0.00000000000E+00 0.  1.
        -24    2    1    2    0    0 -0.49386001585E+02  0.10894771095E+01 -0.38456078745E+03  0.39687955273E+03  0.84771551933E+02 0.  0.
         23    2    1    2    0    0 -0.36942454132E+02  0.46865144476E+01 -0.55502615111E+02  0.10529301934E+03  0.81359518827E+02 0.  0.
         11    1    3    3    0    0  0.98349182485E+01  0.28915238727E+02 -0.86871993153E+02  0.92084525530E+02  0.00000000000E+00 0. -1.
        -12    1    3    3    0    0 -0.59220919833E+02 -0.27825761618E+02 -0.29768879430E+03  0.30479502720E+03  0.00000000000E+00 0.  1.
        -13    1    4    4    0    0  0.22126587711E+02  0.13843857473E+02 -0.40284956091E+01  0.26409601480E+02  0.00000000000E+00 0. -1.
         13    1    4    4    0    0 -0.59069041843E+02 -0.91573430257E+01 -0.51474119502E+02  0.78883417865E+02  0.00000000000E+00 0.  1.
         21    1    1    2  502  501  0.86328455716E+02 -0.57759915570E+01  0.11668613134E+03  0.14526395834E+03  0.00000000000E+00 0. -1.
<scales pt_clust_5="13000.00000" pt_clust_6="13000.00000" pt_clust_7="13000.00000" pt_clust_8="13000.00000" pt_clust_9="86.52147"></scales>
<clustering>
<clus scale="   81.360">  7  8 -1 -1</clus>
<clus scale="   84.772">  5  6 -1 -1</clus>
<clus scale="   86.521">  1  9  2 -1</clus>
<clus scale="   87.523">  1  7  2 -1</clus>
<clus scale="   86.521">  1  5  2 -1</clus>
</clustering>
</event>
<event>
 9    1  0.2374319E-005  0.1386564E+03  0.7546771E-02  0.1216438E+00
          1   -1    0    0  502    0  0.00000000000E+00  0.00000000000E+00  0.18549574728E+03  0.18549574728E+03  0.00000000000E+00 0. -1.
         -2   -1    0    0    0  501 -0.00000000000E+00 -0.00000000000E+00 -0.35392222950E+03  0.35392222950E+03  0.00000000000E+00 0.  1.
        -24    2    1    2    0    0  0.10142396120E+03 -0.57883116726E+02 -0.27512702494E+03  0.30958039730E+03  0.80671354455E+02 0.  0.
         23    2    1    2    0    0 -0.10291809627E+03  0.31237301722E+02  0.13341113962E+03  0.19207929716E+03  0.86764166928E+02 0.  0.
         11    1    3    3    0    0  0.56401191585E+02 -0.65661492983E+02 -0.12065484181E+03  0.14849281776E+03  0.00000000000E+00 0. -1.
        -12    1    3    3    0    0  0.45022769620E+02  0.77783762569E+01 -0.15447218313E+03  0.16108757954E+03  0.00000000000E+00 0.  1.
        -11    1    4    4    0    0 -0.38766818395E+02  0.85573785971E+01  0.11489798627E+03  0.12156332582E+03  0.00000000000E+00 0. -1.
         11    1    4    4    0    0 -0.64151277879E+02  0.22679923124E+02  0.18513153356E+02  0.70515971337E+02  0.00000000000E+00 0.  1.
         21    1    1    2  502  501  0.14941350690E+01  0.26645815005E+02 -0.26710596909E+02  0.37758282324E+02  0.00000000000E+00 0.  1.
<scales pt_clust_5="13000.00000" pt_clust_6="13000.00000" pt_clust_7="13000.00000" pt_clust_8="13000.00000" pt_clust_9="26.68767"></scales>
<clustering>
<clus scale="   26.688">  2  9  1 -1</clus>
<clus scale="   80.671">  5  6 -1 -1</clus>
<clus scale="   86.764">  7  8 -1 -1</clus>
<clus scale="  134.928">  2  5  1 -1</clus>
<clus scale="  138.656">  1  5  2 -1</clus>
</clustering>
</event>
<event>
 9    1  0.2374319E-005  0.9094562E+02  0.7546771E-02  0.1305282E+00
          1   -1    0    0  502    0  0.00000000000E+00  0.00000000000E+00  0.51189420844E+03  0.51189420844E+03  0.00000000000E+00 0. -1.
         -2   -1    0    0    0  501 -0.00000000000E+00 -0.00000000000E+00 -0.60281838499E+02  0.60281838499E+02  0.00000000000E+00 0.  1.
        -24    2    1    2    0    0 -0.15394775882E+02 -0.31658861463E+01 -0.16167003918E+02  0.85127122688E+02  0.82086740963E+02 0.  0.
         23    2    1    2    0    0 -0.10324619807E+01  0.29989645285E+02  0.25551320283E+03  0.27246491841E+03  0.89720065443E+02 0.  0.
         13    1    3    3    0    0  0.29376290596E+02  0.94924881632E+01  0.90968720841E+01  0.32184264205E+02  0.00000000000E+00 0. -1.
        -14    1    3    3    0    0 -0.44771066478E+02 -0.12658374309E+02 -0.25263876002E+02  0.52942858483E+02  0.00000000000E+00 0.  1.
        -13    1    4    4    0    0  0.58602670227E+01 -0.30888823376E+02  0.62518633156E+02  0.69978865601E+02  0.00000000000E+00 0.  1.
         13    1    4    4    0    0 -0.68927290034E+01  0.60878468661E+02  0.19299456967E+03  0.20248605281E+03  0.00000000000E+00 0. -1.
         21    1    1    2  502  501  0.16427237862E+02 -0.26823759138E+02  0.21226617103E+03  0.21458400583E+03  0.00000000000E+00 0.  1.
<scales pt_clust_5="13000.00000" pt_clust_6="13000.00000" pt_clust_7="13000.00000" pt_clust_8="13000.00000" pt_clust_9="31.45422"></scales>
<clustering>
<clus scale="   31.454">  1  9  2 -1</clus>
<clus scale="   82.087">  5  6 -1 -1</clus>
<clus scale="   83.425">  2  5  1 -1</clus>
<clus scale="   89.720">  7  8 -1 -1</clus>
<clus scale="   31.454">  1  5  2 -1</clus>
</clustering>
</event>
<event>
 9    1  0.2374319E-005  0.1092094E+03  0.7546771E-02  0.1271233E+00
          1   -1    0    0  502    0  0.00000000000E+00  0.00000000000E+00  0.17150751564E+03  0.17150751564E+03  0.00000000000E+00 0. -1.
         -2   -1    0    0    0  501 -0.00000000000E+00 -0.00000000000E+00 -0.91351635356E+02  0.91351635356E+02  0.00000000000E+00 0.  1.
         23    2    1    2    0    0 -0.65881765440E+00  0.80615135045E+02  0.86972518369E+01  0.12115224349E+03  0.90016608881E+02 0.  0.
        -24    2    1    2    0    0 -0.13719094713E+02 -0.40517354393E+02  0.49242274713E+02  0.93663981382E+02  0.67218079582E+02 0.  0.
         11    1    4    4    0    0 -0.68529103577E+01 -0.44926823475E+02  0.62992209664E+02  0.77674965892E+02  0.00000000000E+00 0. -1.
        -12    1    4    4    0    0 -0.68661843551E+01  0.44094690821E+01 -0.13749934951E+02  0.15989015490E+02  0.00000000000E+00 0.  1.
        -11    1    3    3    0    0  0.31618498358E+02  0.86794931486E+01 -0.18623110161E+02  0.37707867505E+02  0.00000000000E+00 0.  1.
         11    1    3    3    0    0 -0.32277316012E+02  0.71935641896E+02  0.27320361998E+02  0.83444375986E+02  0.00000000000E+00 0. -1.
         21    1    1    2  502  501  0.14377912367E+02 -0.40097780652E+02  0.22216353736E+02  0.48042926124E+02  0.00000000000E+00 0.  1.
<scales pt_clust_5="13000.00000" pt_clust_6="13000.00000" pt_clust_7="13000.00000" pt_clust_8="13000.00000" pt_clust_9="42.59761"></scales>
<clustering>
<clus scale="   42.598">  1  9  2 -1</clus>
<clus scale="   67.218">  5  6 -1 -1</clus>
<clus scale="   90.017">  7  8 -1 -1</clus>
<clus scale="   91.334">  1  5  2 -1</clus>
<clus scale="   42.598">  1  5  2 -1</clus>
</clustering>
</event>
<event>
 9    1  0.2374319E-005  0.1390994E+03  0.7546771E-02  0.1216417E+00
         -2   -1    0    0    0  501 -0.00000000000E+00  0.00000000000E+00  0.35631087081E+03  0.35631087081E+03  0.00000000000E+00 0.  1.
          1   -1    0    0  502    0  0.00000000000E+00 -0.00000000000E+00 -0.12926553417E+03  0.12926553417E+03  0.00000000000E+00 0. -1.
        -24    2    1    2    0    0 -0.41005385373E+02  0.10131537527E+03  0.28233009218E+03  0.31361150212E+03  0.81826929629E+02 0.  0.
         23    2    1    2    0    0  0.18588110446E+02 -0.87826454377E+02 -0.21426611556E+02  0.12917636331E+03  0.90379362783E+02 0.  0.
         13    1    3    3    0    0 -0.27365827069E+02  0.51878166487E+02  0.54448384183E+02  0.80030364171E+02  0.00000000000E+00 0. -1.
        -14    1    3    3    0    0 -0.13639558303E+02  0.49437208783E+02  0.22788170800E+03  0.23358113795E+03  0.00000000000E+00 0.  1.
        -11    1    4    4    0    0  0.51872155976E+02 -0.31440896405E+02 -0.12791493147E+01  0.60670311977E+02  0.00000000000E+00 0. -1.
         11    1    4    4    0    0 -0.33284045530E+02 -0.56385557971E+02 -0.20147462241E+02  0.68506051334E+02  0.00000000000E+00 0.  1.
         21    1    1    2  502  501  0.22417274926E+02 -0.13488920894E+02 -0.33858143996E+02  0.42788539551E+02  0.00000000000E+00 0. -1.
<scales pt_clust_5="13000.00000" pt_clust_6="13000.00000" pt_clust_7="13000.00000" pt_clust_8="13000.00000" pt_clust_9="26.16267"></scales>
<clustering>
<clus scale="   26.163">  2  9  1 -1</clus>
<clus scale="   81.827">  5  6 -1 -1</clus>
<clus scale="   90.379">  7  8 -1 -1</clus>
<clus scale="  133.701">  1  5  2 -1</clus>
<clus scale="   26.163">  2  5  1 -1</clus>
</clustering>
</event>
<event>
 9    1  0.2374319E-005  0.1658295E+03  0.7546771E-02  0.1182668E+00
          1   -1    0    0  502    0  0.00000000000E+00  0.00000000000E+00  0.66490873414E+02  0.66490873414E+02  0.00000000000E+00 0. -1.
         -2   -1    0    0    0  501 -0.00000000000E+00 -0.00000000000E+00 -0.64903529018E+03  0.64903529018E+03  0.00000000000E+00 0.  1.
         23    2    1    2    0    0 -0.12537006619E+03  0.69042913664E+02 -0.43420946949E+03  0.46332746256E+03  0.75165795047E+02 0.  0.
        -24    2    1    2    0    0  0.11181678160E+03 -0.96881592579E+02 -0.10063344728E+03  0.19532940643E+03  0.78341883278E+02 0.  0.
         13    1    4    4    0    0  0.70717604216E+02 -0.91629359779E+02 -0.41159016779E+02  0.12284536532E+03  0.00000000000E+00 0. -1.
        -14    1    4    4    0    0  0.41099177384E+02 -0.52522328003E+01 -0.59474430501E+02  0.72484041102E+02  0.00000000000E+00 0.  1.
        -13    1    3    3    0    0 -0.11001119295E+03  0.25619748665E+02 -0.34348148864E+03  0.36157760873E+03  0.00000000000E+00 0.  1.
         13    1    3    3    0    0 -0.15358873237E+02  0.43423164998E+02 -0.90727980852E+02  0.10174985383E+03  0.00000000000E+00 0. -1.
         21    1    1    2  502  501  0.13553284592E+02  0.27838678916E+02 -0.47701499996E+02  0.56869294605E+02  0.00000000000E+00 0. -1.
<scales pt_clust_5="13000.00000" pt_clust_6="13000.00000" pt_clust_7="13000.00000" pt_clust_8="13000.00000" pt_clust_9="30.96262"></scales>
<clustering>
<clus scale="   30.963">  2  9  1 -1</clus>
<clus scale="   75.166">  7  8 -1 -1</clus>
<clus scale="   78.342">  5  6 -1 -1</clus>
<clus scale="  164.353">  2  7  1 -1</clus>
<clus scale="  165.830">  1  5  2 -1</clus>
</clustering>
</event>
<event>
 9    1  0.2374319E-005  0.1803923E+03  0.7546771E-02  0.1168346E+00
          1   -1    0    0  502    0  0.00000000000E+00  0.00000000000E+00  0.15486429785E+03  0.15486429785E+03  0.00000000000E+00 0. -1.
         -2   -1    0    0    0  501 -0.00000000000E+00 -0.00000000000E+00 -0.25515057469E+03  0.25515057469E+03  0.00000000000E+00 0.  1.
         23    2    1    2    0    0  0.56159488564E+02  0.13713395321E+03 -0.81415698854E+02  0.19273078451E+03  0.92504216122E+02 0.  0.
        -24    2    1    2    0    0 -0.46643024715E+02 -0.15771895499E+03 -0.36380642392E+02  0.18863260050E+03  0.84899153778E+02 0.  0.
         11    1    4    4    0    0 -0.26751065704E+02 -0.33373579975E+02  0.23927689547E+02  0.49009689692E+02  0.00000000000E+00 0. -1.
        -12    1    4    4    0    0 -0.19891959012E+02 -0.12434537502E+03 -0.60308331938E+02  0.13962291081E+03  0.00000000000E+00 0.  1.
        -11    1    3    3    0    0  0.20330780216E+02  0.69753177048E+02  0.10339015110E+02  0.73387611802E+02  0.00000000000E+00 0. -1.
         11    1    3    3    0    0  0.35828708348E+02  0.67380776157E+02 -0.91754713964E+02  0.11934317271E+03  0.00000000000E+00 0.  1.
         21    1    1    2  502  501 -0.95164638488E+01  0.20585001786E+02  0.17510064403E+02  0.28651487537E+02  0.00000000000E+00 0.  1.
<scales pt_clust_5="13000.00000" pt_clust_6="13000.00000" pt_clust_7="13000.00000" pt_clust_8="13000.00000" pt_clust_9="22.67830"></scales>
<clustering>
<clus scale="   22.678">  1  9  2 -1</clus>
<clus scale="   84.899">  5  6 -1 -1</clus>
<clus scale="   92.504">  7  8 -1 -1</clus>
<clus scale="  176.613">  1  5  2 -1</clus>
<clus scale="   22.678">  1  5  2 -1</clus>
</clustering>
</event>
<event>
 9    1  0.2374319E-005  0.9229598E+02  0.7546771E-02  0.1302580E+00
          1   -1    0    0  502    0  0.00000000000E+00  0.00000000000E+00  0.33726379411E+03  0.33726379411E+03  0.00000000000E+00 0. -1.
         -2   -1    0    0    0  501 -0.00000000000E+00 -0.00000000000E+00 -0.71829478216E+02  0.71829478216E+02  0.00000000000E+00 0.  1.
         23    2    1    2    0    0  0.13526180463E+02 -0.11642942300E+02 -0.22584308586E+02  0.95838785153E+02  0.91413927177E+02 0.  0.
        -24    2    1    2    0    0  0.46449101470E+01 -0.21158540061E+02  0.19910985192E+03  0.21676150496E+03  0.82894860467E+02 0.  0.
         13    1    4    4    0    0 -0.22647184288E+02 -0.32406924441E+02  0.45220865964E+02  0.60066882942E+02  0.00000000000E+00 0. -1.
        -14    1    4    4    0    0  0.27292094435E+02  0.11248384380E+02  0.15388898595E+03  0.15669462201E+03  0.00000000000E+00 0.  1.
        -13    1    3    3    0    0  0.74047546083E+01 -0.47316809965E+02  0.78711141884E+01  0.48535196864E+02  0.00000000000E+00 0. -1.
         13    1    3    3    0    0  0.61214258546E+01  0.35673867665E+02 -0.30455422774E+02  0.47303588289E+02  0.00000000000E+00 0.  1.
         21    1    1    2  502  501 -0.18171090610E+02  0.32801482361E+02  0.88908772561E+02  0.96492982218E+02  0.00000000000E+00 0.  1.
<scales pt_clust_5="13000.00000" pt_clust_6="13000.00000" pt_clust_7="13000.00000" pt_clust_8="13000.00000" pt_clust_9="37.49834"></scales>
<clustering>
<clus scale="   37.498">  1  9  2 -1</clus>
<clus scale="   82.895">  5  6 -1 -1</clus>
<clus scale="   83.867">  1  5  2 -1</clus>
<clus scale="   91.414">  7  8 -1 -1</clus>
<clus scale="   37.498">  1  5  2 -1</clus>
</clustering>
</event>
<event>
 9    1  0.2374319E-005  0.9258674E+02  0.7546771E-02  0.1304223E+00
         -2   -1    0    0    0  501 -0.00000000000E+00  0.00000000000E+00  0.19989968402E+03  0.19989968402E+03  0.00000000000E+00 0.  1.
          1   -1    0    0  502    0  0.00000000000E+00 -0.00000000000E+00 -0.14757658752E+03  0.14757658752E+03  0.00000000000E+00 0. -1.
         23    2    1    2    0    0 -0.18521764190E+01  0.76003955861E+01  0.15939956646E+03  0.18423629313E+03  0.92052122989E+02 0.  0.
        -24    2    1    2    0    0  0.82821787243E+01 -0.30073536517E+02 -0.11015036466E+03  0.13966380778E+03  0.79999151785E+02 0.  0.
         13    1    4    4    0    0  0.44152346227E+02 -0.12775799207E+02 -0.61992730317E+02  0.77173501508E+02  0.00000000000E+00 0. -1.
        -14    1    4    4    0    0 -0.35870167503E+02 -0.17297737310E+02 -0.48157634342E+02  0.62490306274E+02  0.00000000000E+00 0.  1.
        -11    1    3    3    0    0  0.42561426430E+02 -0.58224259586E+00  0.48705162006E+02  0.64683899327E+02  0.00000000000E+00 0.  1.
         11    1    3    3    0    0 -0.44413602849E+02  0.81826381820E+01  0.11069440445E+03  0.11955239380E+03  0.00000000000E+00 0. -1.
         21    1    1    2  502  501 -0.64300023053E+01  0.22473140931E+02  0.30738946966E+01  0.23576170629E+02  0.00000000000E+00 0.  1.
<scales pt_clust_5="13000.00000" pt_clust_6="13000.00000" pt_clust_7="13000.00000" pt_clust_8="13000.00000" pt_clust_9="23.37492"></scales>
<clustering>
<clus scale="   23.375">  2  9  1 -1</clus>
<clus scale="   79.999">  5  6 -1 -1</clus>
<clus scale="   80.614">  2  5  1 -1</clus>
<clus scale="   92.052">  7  8 -1 -1</clus>
<clus scale="   23.375">  2  5  1 -1</clus>
</clustering>
</event>
<event>
 9    1  0.2374319E-005  0.9391007E+02  0.7546771E-02  0.1305128E+00
         -2   -1    0    0    0  501 -0.00000000000E+00  0.00000000000E+00  0.31739942313E+02  0.31739942313E+02  0.00000000000E+00 0.  1.
          1   -1    0    0  502    0  0.00000000000E+00 -0.00000000000E+00 -0.65137652870E+03  0.65137652870E+03  0.00000000000E+00 0. -1.
         23    2    1    2    0    0 -0.15184709291E+02 -0.67327386596E+01 -0.78975854160E+02  0.12018260913E+03  0.89054864162E+02 0.  0.
        -24    2    1    2    0    0  0.67825316928E+02  0.22451543456E+02 -0.30519552364E+03  0.32114474126E+03  0.69894862249E+02 0.  0.
         13    1    4    4    0    0  0.41898752127E+02 -0.22854041926E+02 -0.14915721385E+03  0.15660679138E+03  0.00000000000E+00 0. -1.
        -14    1    4    4    0    0  0.25926564801E+02  0.45305585382E+02 -0.15603830979E+03  0.16453794988E+03  0.00000000000E+00 0.  1.
        -13    1    3    3    0    0 -0.46601811069E+02  0.11367227502E+02 -0.22293298237E+02  0.52895498885E+02  0.00000000000E+00 0.  1.
         13    1    3    3    0    0  0.31417101778E+02 -0.18099966162E+02 -0.56682555923E+02  0.67287110245E+02  0.00000000000E+00 0. -1.
         21    1    1    2  502  501 -0.52640607637E+02 -0.15718804797E+02 -0.23546520859E+03  0.24178912062E+03  0.00000000000E+00 0. -1.
<scales pt_clust_5="13000.00000" pt_clust_6="13000.00000" pt_clust_7="13000.00000" pt_clust_8="13000.00000" pt_clust_9="54.93737"></scales>
<clustering>
<clus scale="   54.937">  2  9  1 -1</clus>
<clus scale="   69.895">  5  6 -1 -1</clus>
<clus scale="   75.984">  2  5  1 -1</clus>
<clus scale="   89.055">  7  8 -1 -1</clus>
<clus scale="   54.937">  2  5  1 -1</clus>
</clustering>
</event>
<event>
 9    1  0.2374319E-005  0.2417973E+03  0.7546771E-02  0.1119211E+00
          1   -1    0    0  502    0  0.00000000000E+00  0.00000000000E+00  0.67147546283E+03  0.67147546283E+03  0.00000000000E+00 0. -1.
         -2   -1    0    0    0  501 -0.00000000000E+00 -0.00000000000E+00 -0.46626361214E+03  0.46626361214E+03  0.00000000000E+00 0.  1.
         23    2    1    2    0    0 -0.21656595625E+03  0.44661561994E+02 -0.36705913008E+03  0.43806117834E+03  0.90938014416E+02 0.  0.
        -24    2    1    2    0    0  0.24997753850E+03 -0.12421208989E+03  0.52807065607E+03  0.60273312360E+03  0.80691929248E+02 0.  0.
         11    1    4    4    0    0  0.24694185341E+03 -0.13312962961E+03  0.51687488030E+03  0.58810153811E+03  0.00000000000E+00 0. -1.
        -12    1    4    4    0    0  0.30356850903E+01  0.89175397194E+01  0.11195775773E+02  0.14631585484E+02  0.00000000000E+00 0.  1.
        -11    1    3    3    0    0 -0.18780325542E+03  0.95512585457E+01 -0.32845900485E+03  0.37847933517E+03  0.00000000000E+00 0.  1.
         11    1    3    3    0    0 -0.28762700833E+02  0.35110303448E+02 -0.38600125232E+02  0.59581843168E+02  0.00000000000E+00 0. -1.
         21    1    1    2  502  501 -0.33411582251E+02  0.79550527893E+02  0.44200324692E+02  0.96944773038E+02  0.00000000000E+00 0.  1.
<scales pt_clust_5="13000.00000" pt_clust_6="13000.00000" pt_clust_7="13000.00000" pt_clust_8="13000.00000" pt_clust_9="86.28221"></scales>
<clustering>
<clus scale="   80.692">  5  6 -1 -1</clus>
<clus scale="   86.282">  1  9  2 -1</clus>
<clus scale="   90.938">  7  8 -1 -1</clus>
<clus scale="  238.133">  1  5  2 -1</clus>
<clus scale="   86.282">  1  5  2 -1</clus>
</clustering>
</event>
<event>
 9    1  0.2374319E-005  0.1024408E+03  0.7546771E-02  0.1278752E+00
         -2   -1    0    0    0  501 -0.00000000000E+00  0.00000000000E+00  0.30741238893E+03  0.30741238893E+03  0.00000000000E+00 0.  1.
          1   -1    0    0  502    0  0.00000000000E+00 -0.00000000000E+00 -0.12016570905E+03  0.12016570905E+03  0.00000000000E+00 0. -1.
         23    2    1    2    0    0  0.23200351417E+02  0.44531385055E+02  0.23786542805E+03  0.25897676367E+03  0.89261983490E+02 0.  0.
        -24    2    1    2    0    0 -0.67056097771E+02 -0.18934709185E+02 -0.48658524259E+02  0.11778441999E+03  0.81550439291E+02 0.  0.
         13    1    4    4    0    0 -0.33618194374E+02 -0.39449481764E+02 -0.57664219718E+02  0.77534552556E+02  0.00000000000E+00 0. -1.
        -14    1    4    4    0    0 -0.33437903397E+02  0.20514772579E+02  0.90056954592E+01  0.40249867432E+02  0.00000000000E+00 0.  1.
        -11    1    3    3    0    0  0.20217380464E+02 -0.17571792646E+02  0.23030566615E+02  0.35325873920E+02  0.00000000000E+00 0. -1.
         11    1    3    3    0    0  0.29829709534E+01  0.62103177701E+02  0.21483486144E+03  0.22365088975E+03  0.00000000000E+00 0.  1.
         21    1    1    2  502  501  0.43855746354E+02 -0.25596675870E+02 -0.19602239189E+01  0.50816914327E+02  0.00000000000E+00 0. -1.
<scales pt_clust_5="13000.00000" pt_clust_6="13000.00000" pt_clust_7="13000.00000" pt_clust_8="13000.00000" pt_clust_9="50.77909"></scales>
<clustering>
<clus scale="   50.779">  2  9  1 -1</clus>
<clus scale="   81.550">  5  6 -1 -1</clus>
<clus scale="   89.262">  7  8 -1 -1</clus>
<clus scale="   95.796">  2  5  1 -1</clus>
<clus scale="   50.779">  2  5  1 -1</clus>
</clustering>
</event>
<event>
 9    1  0.2374319E-005  0.2293839E+03  0.7546771E-02  0.1127659E+00
         -2   -1    0    0    0  501 -0.00000000000E+00  0.00000000000E+00  0.27622367329E+03  0.27622367329E+03  0.00000000000E+00 0.  1.
          1   -1    0    0  502    0  0.00000000000E+00 -0.00000000000E+00 -0.97278279577E+03  0.97278279577E+03  0.00000000000E+00 0. -1.
         23    2    1    2    0    0  0.77613901317E+02 -0.19796480247E+03  0.20850229883E+03  0.31061203389E+03  0.88275966612E+02 0.  0.
        -24    2    1    2    0    0 -0.98824154675E+02  0.17352879546E+03 -0.76193783637E+03  0.79165877538E+03  0.79346668090E+02 0.  0.
         11    1    4    4    0    0 -0.98390630076E+02  0.17976018391E+03 -0.69922833587E+03  0.72863894042E+03  0.00000000000E+00 0. -1.
        -12    1    4    4    0    0 -0.43352459826E+00 -0.62313884481E+01 -0.62709500503E+02  0.63019834964E+02  0.00000000000E+00 0.  1.
        -13    1    3    3    0    0  0.35674444776E+02 -0.44665607514E+02  0.12936866544E+02  0.58609257125E+02  0.00000000000E+00 0. -1.
         13    1    3    3    0    0  0.41939456540E+02 -0.15329919496E+03  0.19556543229E+03  0.25200277676E+03  0.00000000000E+00 0.  1.
         21    1    1    2  502  501  0.21210253358E+02  0.24436007015E+02 -0.14312358494E+03  0.14673565978E+03  0.00000000000E+00 0. -1.
<scales pt_clust_5="13000.00000" pt_clust_6="13000.00000" pt_clust_7="13000.00000" pt_clust_8="13000.00000" pt_clust_9="32.35728"></scales>
<clustering>
<clus scale="   32.357">  2  9  1 -1</clus>
<clus scale="   79.347">  5  6 -1 -1</clus>
<clus scale="   88.276">  7  8 -1 -1</clus>
<clus scale="  226.098">  2  5  1 -1</clus>
<clus scale="   32.357">  2  5  1 -1</clus>
</clustering>
</event>
<event>
 9    1  0.2374319E-005  0.1281385E+03  0.7546771E-02  0.1232573E+00
         -4   -1    0    0    0  501 -0.00000000000E+00  0.00000000000E+00  0.11869858237E+03  0.11869858237E+03  0.00000000000E+00 0.  1.
          3   -1    0    0  502    0  0.00000000000E+00 -0.00000000000E+00 -0.29451843182E+03  0.29451843182E+03  0.00000000000E+00 0. -1.
         23    2    1    2    0    0  0.75478238340E+02 -0.53335572087E+02  0.30098050274E+02  0.13166018489E+03  0.88808017325E+02 0.  0.
        -24    2    1    2    0    0 -0.38648278700E+02  0.97271392358E+02 -0.11931284560E+03  0.17769520199E+03  0.79903795081E+02 0.  0.
         11    1    4    4    0    0 -0.90980454496E+00  0.93573655985E+02 -0.89094865603E+02  0.12920817279E+03  0.00000000000E+00 0. -1.
        -12    1    4    4    0    0 -0.37738474155E+02  0.36977363725E+01 -0.30217979995E+02  0.48487029202E+02  0.00000000000E+00 0.  1.
        -11    1    3    3    0    0  0.40172227722E+02  0.55508177182E+01  0.45855681520E+02  0.61215708647E+02  0.00000000000E+00 0. -1.
         11    1    3    3    0    0  0.35306010617E+02 -0.58886389805E+02 -0.15757631247E+02  0.70444476239E+02  0.00000000000E+00 0.  1.
         21    1    1    2  502  501 -0.36829959640E+02 -0.43935820270E+02 -0.86605054122E+02  0.10386162732E+03  0.00000000000E+00 0.  1.
<scales pt_clust_5="13000.00000" pt_clust_6="13000.00000" pt_clust_7="13000.00000" pt_clust_8="13000.00000" pt_clust_9="57.33064"></scales>
<clustering>
<clus scale="   57.331">  2  9  1 -1</clus>
<clus scale="   79.904">  5  6 -1 -1</clus>
<clus scale="   88.808">  7  8 -1 -1</clus>
<clus scale="  122.136">  2  5  1 -1</clus>
<clus scale="   57.331">  2  5  1 -1</clus>
</clustering>
</event>
<event>
 9    1  0.2374319E-005  0.1949106E+03  0.7546771E-02  0.1170757E+00
         -2   -1    0    0    0  501 -0.00000000000E+00  0.00000000000E+00  0.16687275819E+03  0.16687275819E+03  0.00000000000E+00 0.  1.
          1   -1    0    0  502    0  0.00000000000E+00 -0.00000000000E+00 -0.45224905194E+03  0.45224905194E+03  0.00000000000E+00 0. -1.
        -24    2    1    2    0    0 -0.20665953606E+03 -0.99061102906E+02 -0.54812521464E+02  0.24876718956E+03  0.79746072865E+02 0.  0.
         23    2    1    2    0    0  0.96354887092E+02  0.77256816039E+01 -0.16829304644E+03  0.21419150692E+03  0.90617336816E+02 0.  0.
         11    1    3    3    0    0 -0.16466401909E+03 -0.83863826707E+02 -0.93327836057E+01  0.18502562380E+03  0.00000000000E+00 0. -1.
        -12    1    3    3    0    0 -0.41995516968E+02 -0.15197276199E+02 -0.45479737858E+02  0.63741565755E+02  0.00000000000E+00 0.  1.
        -13    1    4    4    0    0 -0.35673187118E+01  0.23817859648E+02 -0.66150703340E+02  0.70398378912E+02  0.00000000000E+00 0. -1.
         13    1    4    4    0    0  0.99922205804E+02 -0.16092178044E+02 -0.10214234310E+03  0.14379312800E+03  0.00000000000E+00 0.  1.
         21    1    1    2  502  501  0.11030464897E+03  0.91335421302E+02 -0.62270725846E+02  0.15616311365E+03  0.00000000000E+00 0.  1.
<scales pt_clust_5="13000.00000" pt_clust_6="13000.00000" pt_clust_7="13000.00000" pt_clust_8="13000.00000" pt_clust_9="177.85018"></scales>
<clustering>
<clus scale="   79.746">  5  6 -1 -1</clus>
<clus scale="   90.617">  7  8 -1 -1</clus>
<clus scale="  132.497">  2  7  1 -1</clus>
<clus scale="  177.850">  1  9  2 -1</clus>
<clus scale="  132.497">  2  5  1 -1</clus>
</clustering>
</event>
<event>
 9    1  0.2374319E-005  0.1527598E+03  0.7546771E-02  0.1199503E+00
         -2   -1    0    0    0  501 -0.00000000000E+00  0.00000000000E+00  0.25213317858E+03  0.25213317858E+03  0.00000000000E+00 0.  1.
          1   -1    0    0  502    0  0.00000000000E+00 -0.00000000000E+00 -0.59725760056E+03  0.59725760056E+03  0.00000000000E+00 0. -1.
         23    2    1    2    0    0  0.58714956422E+02  0.10531291445E+03  0.17673889590E+03  0.23273264083E+03  0.91594698133E+02 0.  0.
        -24    2    1    2    0    0  0.26481843751E+02 -0.18128500095E+03 -0.41494212795E+03  0.46025355543E+03  0.78043744921E+02 0.  0.
         13    1    4    4    0    0  0.33760067727E+02 -0.45950653433E+02 -0.18233766804E+03  0.19104509915E+03  0.00000000000E+00 0. -1.
        -14    1    4    4    0    0 -0.72782239757E+01 -0.13533434752E+03 -0.23260445991E+03  0.26920845628E+03  0.00000000000E+00 0.  1.
        -13    1    3    3    0    0  0.15041143782E+02  0.37205543814E+02  0.13668303115E+03  0.14245258685E+03  0.00000000000E+00 0.  1.
         13    1    3    3    0    0  0.43673812640E+02  0.68107370633E+02  0.40055864751E+02  0.90280053976E+02  0.00000000000E+00 0. -1.
         21    1    1    2  502  501 -0.85196800173E+02  0.75972086502E+02 -0.10692118993E+03  0.15640458287E+03  0.00000000000E+00 0.  1.
<scales pt_clust_5="13000.00000" pt_clust_6="13000.00000" pt_clust_7="13000.00000" pt_clust_8="13000.00000" pt_clust_9="114.15013"></scales>
<clustering>
<clus scale="   78.044">  5  6 -1 -1</clus>
<clus scale="   91.595">  7  8 -1 -1</clus>
<clus scale="  114.150">  2  9  1 -1</clus>
<clus scale="  145.041">  2  5  1 -1</clus>
<clus scale="  114.150">  2  5  1 -1</clus>
</clustering>
</event>
<event>
 9    1  0.2374319E-005  0.2376332E+03  0.7546771E-02  0.1121794E+00
          1   -1    0    0  502    0  0.00000000000E+00  0.00000000000E+00  0.13293894124E+03  0.13293894124E+03  0.00000000000E+00 0. -1.
         -2   -1    0    0    0  501 -0.00000000000E+00 -0.00000000000E+00 -0.77995247474E+03  0.77995247474E+03  0.00000000000E+00 0.  1.
        -24    2    1    2    0    0 -0.14401665637E+03  0.18710339724E+03 -0.50795277111E+03  0.56618609022E+03  0.82475405438E+02 0.  0.
         23    2    1    2    0    0  0.96027673407E+02 -0.19464785935E+03 -0.42314985029E+02  0.23844819282E+03  0.89206947569E+02 0.  0.
         13    1    3    3    0    0 -0.21420296956E+02  0.29970698682E+02 -0.27298752953E+02  0.45850777681E+02  0.00000000000E+00 0. -1.
        -14    1    3    3    0    0 -0.12259635941E+03  0.15713269856E+03 -0.48065401816E+03  0.52033531254E+03  0.00000000000E+00 0.  1.
        -13    1    4    4    0    0  0.47021377226E+02 -0.20214562716E+02 -0.23396994586E+02  0.56276618748E+02  0.00000000000E+00 0.  1.
         13    1    4    4    0    0  0.49006296181E+02 -0.17443329663E+03 -0.18917990444E+02  0.18217157407E+03  0.00000000000E+00 0. -1.
         21    1    1    2  502  501  0.47988982962E+02  0.75444621048E+01 -0.96745777360E+02  0.10825713293E+03  0.00000000000E+00 0. -1.
<scales pt_clust_5="13000.00000" pt_clust_6="13000.00000" pt_clust_7="13000.00000" pt_clust_8="13000.00000" pt_clust_9="48.57840"></scales>
<clustering>
<clus scale="   48.578">  2  9  1 -1</clus>
<clus scale="   82.475">  5  6 -1 -1</clus>
<clus scale="   89.207">  7  8 -1 -1</clus>
<clus scale="  235.189">  2  5  1 -1</clus>
<clus scale="  237.633">  1  5  2 -1</clus>
</clustering>
</event>
<event>
 9    1  0.2374319E-005  0.1298660E+03  0.7546771E-02  0.1247585E+00
         -2   -1    0    0    0  501 -0.00000000000E+00  0.00000000000E+00  0.30396281052E+03  0.30396281052E+03  0.00000000000E+00 0.  1.
          1   -1    0    0  502    0  0.00000000000E+00 -0.00000000000E+00 -0.13373795867E+03  0.13373795867E+03  0.00000000000E+00 0. -1.
        -24    2    1    2    0    0  0.28068314558E+02  0.16824405817E+02  0.18603966304E+03  0.20516471820E+03  0.80068186289E+02 0.  0.
         23    2    1    2    0    0  0.29293657223E+02 -0.88226800639E+02 -0.40970427908E+02  0.13755445886E+03  0.92739239180E+02 0.  0.
         11    1    3    3    0    0 -0.23951858175E+02  0.33755250053E+01  0.10626209302E+03  0.10898035645E+03  0.00000000000E+00 0. -1.
        -12    1    3    3    0    0  0.52020172733E+02  0.13448880812E+02  0.79777570016E+02  0.96184361743E+02  0.00000000000E+00 0.  1.
        -11    1    4    4    0    0  0.23702392254E+02  0.10028080245E+02 -0.28423573518E+02  0.38344038957E+02  0.00000000000E+00 0.  1.
         11    1    4    4    0    0  0.55912649687E+01 -0.98254880884E+02 -0.12546854390E+02  0.99210419899E+02  0.00000000000E+00 0. -1.
         21    1    1    2  502  501 -0.57361971781E+02  0.71402394822E+02  0.25155616716E+02  0.94981592139E+02  0.00000000000E+00 0.  1.
<scales pt_clust_5="13000.00000" pt_clust_6="13000.00000" pt_clust_7="13000.00000" pt_clust_8="13000.00000" pt_clust_9="90.90985"></scales>
<clustering>
<clus scale="   80.068">  5  6 -1 -1</clus>
<clus scale="   86.497">  1  5  2 -1</clus>
<clus scale="   90.910">  1  9  2 -1</clus>
<clus scale="   92.739">  7  8 -1 -1</clus>
<clus scale="  129.866">  2  5  1 -1</clus>
</clustering>
</event>
<event>
 9    1  0.2374319E-005  0.9427769E+02  0.7546771E-02  0.1299491E+00
         -4   -1    0    0    0  501 -0.00000000000E+00  0.00000000000E+00  0.67209572945E+03  0.67209572945E+03  0.00000000000E+00 0.  1.
          3   -1    0    0  502    0  0.00000000000E+00 -0.00000000000E+00 -0.39723450606E+02  0.39723450606E+02  0.00000000000E+00 0. -1.
        -24    2    1    2    0    0  0.22848488974E+02 -0.19980590174E+01  0.51504096018E+03  0.52168739091E+03  0.79777800708E+02 0.  0.
         23    2    1    2    0    0 -0.27429750850E+02  0.38934728357E+02  0.52798279231E+02  0.11563468396E+03  0.91188911284E+02 0.  0.
         13    1    3    3    0    0 -0.16242411989E+02 -0.17483787662E+02  0.58016681024E+02  0.62733037988E+02  0.00000000000E+00 0. -1.
        -14    1    3    3    0    0  0.39090900963E+02  0.15485728645E+02  0.45702427915E+03  0.45895435292E+03  0.00000000000E+00 0.  1.
        -13    1    4    4    0    0  0.25108194765E+02  0.16018923250E+02  0.50061771314E+02  0.58251251433E+02  0.00000000000E+00 0.  1.
         13    1    4    4    0    0 -0.52537945615E+02  0.22915805107E+02  0.27365079169E+01  0.57383432528E+02  0.00000000000E+00 0. -1.
         21    1    1    2  502  501  0.45812618752E+01 -0.36936669340E+02  0.64533039438E+02  0.74497105188E+02  0.00000000000E+00 0. -1.
<scales pt_clust_5="13000.00000" pt_clust_6="13000.00000" pt_clust_7="13000.00000" pt_clust_8="13000.00000" pt_clust_9="37.21969"></scales>
<clustering>
<clus scale="   37.220">  2  9  1 -1</clus>
<clus scale="   79.778">  5  6 -1 -1</clus>
<clus scale="   83.291">  1  5  2 -1</clus>
<clus scale="   91.189">  7  8 -1 -1</clus>
<clus scale="   37.220">  2  5  1 -1</clus>
</clustering>
</event>
<event>
 9    1  0.2374319E-005  0.1118662E+03  0.7546771E-02  0.1261524E+00
          1   -1    0    0  502    0  0.00000000000E+00  0.00000000000E+00  0.18111202182E+03  0.18111202182E+03  0.00000000000E+00 0. -1.
         -2   -1    0    0    0  501 -0.00000000000E+00 -0.00000000000E+00 -0.13969286589E+03  0.13969286589E+03  0.00000000000E+00 0.  1.
         23    2    1    2    0    0 -0.40348573848E+02  0.47445478927E+02 -0.78094595711E+02  0.13453257303E+03  0.90117514632E+02 0.  0.
        -24    2    1    2    0    0  0.42572345617E+02 -0.69831832246E+02  0.73450852487E+02  0.13500941723E+03  0.78381283509E+02 0.  0.
         11    1    4    4    0    0  0.34080185639E+02 -0.61457935883E+02  0.90264747535E+02  0.11439519913E+03  0.00000000000E+00 0. -1.
        -12    1    4    4    0    0  0.84921599780E+01 -0.83738963634E+01 -0.16813895048E+02  0.20614218105E+02  0.00000000000E+00 0.  1.
        -13    1    3    3    0    0  0.57394770531E+00  0.56650505604E+02 -0.72812091619E+02  0.92256218690E+02  0.00000000000E+00 0.  1.
         13    1    3    3    0    0 -0.40922521553E+02 -0.92050266769E+01 -0.52825040922E+01  0.42276354335E+02  0.00000000000E+00 0. -1.
         21    1    1    2  502  501 -0.22237717690E+01  0.22386353319E+02  0.46062899153E+02  0.51262897443E+02  0.00000000000E+00 0.  1.
<scales pt_clust_5="13000.00000" pt_clust_6="13000.00000" pt_clust_7="13000.00000" pt_clust_8="13000.00000" pt_clust_9="22.49653"></scales>
<clustering>
<clus scale="   22.497">  1  9  2 -1</clus>
<clus scale="   78.381">  5  6 -1 -1</clus>
<clus scale="   90.118">  7  8 -1 -1</clus>
<clus scale="  102.647">  1  5  2 -1</clus>
<clus scale="   22.497">  1  5  2 -1</clus>
</clustering>
</event>
<event>
 9    1  0.2374319E-005  0.9274147E+02  0.7546771E-02  0.1299096E+00
         -2   -1    0    0    0  501 -0.00000000000E+00  0.00000000000E+00  0.23557255011E+03  0.23557255011E+03  0.00000000000E+00 0.  1.
          1   -1    0    0  502    0  0.00000000000E+00 -0.00000000000E+00 -0.17382808431E+03  0.17382808431E+03  0.00000000000E+00 0. -1.
        -24    2    1    2    0    0 -0.99108656114E+01  0.20216145775E+02  0.20343533629E+03  0.22165918440E+03  0.85087837969E+02 0.  0.
         23    2    1    2    0    0 -0.95559086115E+01 -0.36785356658E+02 -0.11005006873E+03  0.14706425268E+03  0.89846529890E+02 0.  0.
         11    1    3    3    0    0  0.15770424663E+02 -0.15397486922E+02  0.11685867515E+02  0.24946911576E+02  0.00000000000E+00 0. -1.
        -12    1    3    3    0    0 -0.25681290275E+02  0.35613632698E+02  0.19174946878E+03  0.19671227282E+03  0.00000000000E+00 0.  1.
        -13    1    4    4    0    0 -0.41510582044E+02  0.19520047205E+01 -0.25590342295E+02  0.48803733084E+02  0.00000000000E+00 0.  1.
         13    1    4    4    0    0  0.31954673433E+02 -0.38737361379E+02 -0.84459726438E+02  0.98260519593E+02  0.00000000000E+00 0. -1.
         21    1    1    2  502  501  0.19466774223E+02  0.16569210883E+02 -0.31640801761E+02  0.40677197347E+02  0.00000000000E+00 0.  1.
<scales pt_clust_5="13000.00000" pt_clust_6="13000.00000" pt_clust_7="13000.00000" pt_clust_8="13000.00000" pt_clust_9="25.56353"></scales>
<clustering>
<clus scale="   25.564">  2  9  1 -1</clus>
<clus scale="   85.088">  5  6 -1 -1</clus>
<clus scale="   88.139">  1  5  2 -1</clus>
<clus scale="   89.847">  7  8 -1 -1</clus>
<clus scale="   25.564">  2  5  1 -1</clus>
</clustering>
</event>
<event>
 9    1  0.2374319E-005  0.1355281E+03  0.7546771E-02  0.1223552E+00
          3   -1    0    0  502    0  0.00000000000E+00  0.00000000000E+00  0.10654486659E+03  0.10654486659E+03  0.00000000000E+00 0. -1.
         -4   -1    0    0    0  501 -0.00000000000E+00 -0.00000000000E+00 -0.79451926424E+03  0.79451926424E+03  0.00000000000E+00 0.  1.
        -24    2    1    2    0    0  0.98253731023E+02 -0.36409506139E+02 -0.54698067270E+03  0.56253250792E+03  0.79218169398E+02 0.  0.
         23    2    1    2    0    0 -0.75391648185E+02  0.20089072099E+02 -0.22132169128E+03  0.25343395212E+03  0.95697469248E+02 0.  0.
         11    1    3    3    0    0  0.77225405248E+02  0.11581923381E+02 -0.29488293833E+03  0.30504729385E+03  0.00000000000E+00 0. -1.
        -12    1    3    3    0    0  0.21028325775E+02 -0.47991429520E+02 -0.25209773437E+03  0.25748521408E+03  0.00000000000E+00 0.  1.
        -11    1    4    4    0    0 -0.60949080604E+02  0.52469678396E+02 -0.18923311689E+03  0.20561378870E+03  0.00000000000E+00 0. -1.
         11    1    4    4    0    0 -0.14442567581E+02 -0.32380606297E+02 -0.32088574395E+02  0.47820163417E+02  0.00000000000E+00 0.  1.
         21    1    1    2  502  501 -0.22862082839E+02  0.16320434040E+02  0.80327966334E+02  0.85097670793E+02  0.00000000000E+00 0. -1.
<scales pt_clust_5="13000.00000" pt_clust_6="13000.00000" pt_clust_7="13000.00000" pt_clust_8="13000.00000" pt_clust_9="28.08970"></scales>
<clustering>
<clus scale="   28.090">  1  9  2 -1</clus>
<clus scale="   79.218">  5  6 -1 -1</clus>
<clus scale="   95.697">  7  8 -1 -1</clus>
<clus scale="  124.440">  2  5  1 -1</clus>
<clus scale="   28.090">  1  5  2 -1</clus>
</clustering>
</event>
<event>
 9    1  0.2374319E-005  0.3558498E+03  0.7546771E-02  0.1060575E+00
          3   -1    0    0  502    0  0.00000000000E+00  0.00000000000E+00  0.34732165050E+03  0.34732165050E+03  0.00000000000E+00 0. -1.
         -4   -1    0    0    0  501 -0.00000000000E+00 -0.00000000000E+00 -0.46551623396E+03  0.46551623396E+03  0.00000000000E+00 0.  1.
         23    2    1    2    0    0  0.80169791383E+02 -0.31591552843E+03 -0.58768836154E+02  0.34361441503E+03  0.91582059165E+02 0.  0.
        -24    2    1    2    0    0 -0.16153044319E+03  0.32684956564E+03 -0.89895879781E+01  0.37287558413E+03  0.77670238278E+02 0.  0.
         11    1    4    4    0    0 -0.69927248408E+02  0.66368925138E+02 -0.81912504726E+01  0.96756141295E+02  0.00000000000E+00 0. -1.
        -12    1    4    4    0    0 -0.91603194781E+02  0.26048064050E+03 -0.79833750555E+00  0.27611944284E+03  0.00000000000E+00 0.  1.
        -11    1    3    3    0    0  0.94938938584E+02 -0.22252556450E+03 -0.25024192248E+02  0.24322261226E+03  0.00000000000E+00 0.  1.
         11    1    3    3    0    0 -0.14769147202E+02 -0.93389963934E+02 -0.33744643906E+02  0.10039180278E+03  0.00000000000E+00 0. -1.
         21    1    1    2  502  501  0.81360651806E+02 -0.10934037207E+02 -0.50436159327E+02  0.96347885289E+02  0.00000000000E+00 0. -1.
<scales pt_clust_5="13000.00000" pt_clust_6="13000.00000" pt_clust_7="13000.00000" pt_clust_8="13000.00000" pt_clust_9="82.09208"></scales>
<clustering>
<clus scale="   77.670">  5  6 -1 -1</clus>
<clus scale="   82.092">  2  9  1 -1</clus>
<clus scale="   91.582">  7  8 -1 -1</clus>
<clus scale="  352.526">  1  5  2 -1</clus>
<clus scale="  352.526">  1  5  2 -1</clus>
</clustering>
</event>
<event>
 9    1  0.2374319E-005  0.1142026E+03  0.7546771E-02  0.1255860E+00
         -4   -1    0    0    0  501 -0.00000000000E+00  0.00000000000E+00  0.41259097554E+03  0.41259097554E+03  0.00000000000E+00 0.  1.
          3   -1    0    0  502    0  0.00000000000E+00 -0.00000000000E+00 -0.57607977232E+02  0.57607977232E+02  0.00000000000E+00 0. -1.
         23    2    1    2    0    0  0.49942192630E+02  0.41987501331E+01  0.17244746059E+03  0.20207941521E+03  0.92661271737E+02 0.  0.
        -24    2    1    2    0    0 -0.81815011405E+02 -0.52680328162E+02  0.16079555081E+03  0.20616013944E+03  0.84722375249E+02 0.  0.
         11    1    4    4    0    0 -0.38221169105E+02 -0.24760249508E+02  0.14507904770E+03  0.15205873143E+03  0.00000000000E+00 0. -1.
        -12    1    4    4    0    0 -0.43593842300E+02 -0.27920078654E+02  0.15716503109E+02  0.54101408008E+02  0.00000000000E+00 0.  1.
        -13    1    3    3    0    0  0.61463598837E+02  0.27614010480E+02  0.15907254896E+03  0.17275527022E+03  0.00000000000E+00 0.  1.
         13    1    3    3    0    0 -0.11521406207E+02 -0.23415260347E+02  0.13374911629E+02  0.29324144987E+02  0.00000000000E+00 0. -1.
         21    1    1    2  502  501  0.31872818774E+02  0.48481578029E+02  0.21739986908E+02  0.61959398121E+02  0.00000000000E+00 0. -1.
<scales pt_clust_5="13000.00000" pt_clust_6="13000.00000" pt_clust_7="13000.00000" pt_clust_8="13000.00000" pt_clust_9="58.02017"></scales>
<clustering>
<clus scale="   58.020">  2  9  1 -1</clus>
<clus scale="   84.722">  5  6 -1 -1</clus>
<clus scale="   92.661">  7  8 -1 -1</clus>
<clus scale="  107.861">  2  5  1 -1</clus>
<clus scale="   58.020">  2  5  1 -1</clus>
</clustering>
</event>
<event>
 9    1  0.2374319E-005  0.1627269E+03  0.7546771E-02  0.1186759E+00
          3   -1    0    0  502    0  0.00000000000E+00  0.00000000000E+00  0.53287902099E+03  0.53287902099E+03  0.00000000000E+00 0. -1.
         -4   -1    0    0    0  501 -0.00000000000E+00 -0.00000000000E+00 -0.10437321060E+03  0.10437321060E+03  0.00000000000E+00 0.  1.
         23    2    1    2    0    0  0.66455664138E+02  0.14005878831E+03  0.74315905007E+02  0.19388598470E+03  0.89644307393E+02 0.  0.
        -24    2    1    2    0    0 -0.10780205579E+03 -0.65724822396E+02  0.11515183187E+03  0.18964540979E+03  0.82245982047E+02 0.  0.
         11    1    4    4    0    0 -0.69400858845E+02  0.25545026473E+01  0.72720354040E+02  0.10055473427E+03  0.00000000000E+00 0. -1.
        -12    1    4    4    0    0 -0.38401196941E+02 -0.68279325043E+02  0.42431477827E+02  0.89090675524E+02  0.00000000000E+00 0.  1.
        -13    1    3    3    0    0  0.53200136174E+02  0.12485673232E+03  0.21578276632E+02  0.13742299705E+03  0.00000000000E+00 0.  1.
         13    1    3    3    0    0  0.13255527964E+02  0.15202055981E+02  0.52737628375E+02  0.56462987650E+02  0.00000000000E+00 0. -1.
         21    1    1    2  502  501  0.41346391648E+02 -0.74333965909E+02  0.23903807352E+03  0.25372083711E+03  0.00000000000E+00 0.  1.
<scales pt_clust_5="13000.00000" pt_clust_6="13000.00000" pt_clust_7="13000.00000" pt_clust_8="13000.00000" pt_clust_9="85.05917"></scales>
<clustering>
<clus scale="   82.246">  5  6 -1 -1</clus>
<clus scale="   85.059">  1  9  2 -1</clus>
<clus scale="   89.644">  7  8 -1 -1</clus>
<clus scale="  158.771">  1  5  2 -1</clus>
<clus scale="   85.059">  1  5  2 -1</clus>
</clustering>
</event>
<event>
 9    1  0.2374319E-005  0.1140836E+03  0.7546771E-02  0.1256380E+00
          1   -1    0    0  502    0  0.00000000000E+00  0.00000000000E+00  0.12439789971E+03  0.12439789971E+03  0.00000000000E+00 0. -1.
         -2   -1    0    0    0  501 -0.00000000000E+00 -0.00000000000E+00 -0.50164308028E+03  0.50164308028E+03  0.00000000000E+00 0.  1.
         23    2    1    2    0    0 -0.65869385661E+02  0.16801566428E+02 -0.35168493891E+03  0.36967785931E+03  0.91424038480E+02 0.  0.
        -24    2    1    2    0    0  0.54883135932E+02 -0.52121434936E+02 -0.11442668302E+03  0.16010599005E+03  0.82532779388E+02 0.  0.
         11    1    4    4    0    0  0.38310050767E+02 -0.74517044350E+02 -0.80339446008E+02  0.11608133559E+03  0.00000000000E+00 0. -1.
        -12    1    4    4    0    0  0.16573085165E+02  0.22395609413E+02 -0.34087237017E+02  0.44024654460E+02  0.00000000000E+00 0.  1.
        -13    1    3    3    0    0 -0.24780329109E+02  0.39264055451E+02 -0.69168406014E+02  0.83306657308E+02  0.00000000000E+00 0. -1.
         13    1    3    3    0    0 -0.41089056551E+02 -0.22462489023E+02 -0.28251653289E+03  0.28637120201E+03  0.00000000000E+00 0.  1.
         21    1    1    2  502  501  0.10986249729E+02  0.35319868509E+02  0.88866441368E+02  0.96257130624E+02  0.00000000000E+00 0. -1.
<scales pt_clust_5="13000.00000" pt_clust_6="13000.00000" pt_clust_7="13000.00000" pt_clust_8="13000.00000" pt_clust_9="36.98906"></scales>
<clustering>
<clus scale="   36.989">  1  9  2 -1</clus>
<clus scale="   82.533">  5  6 -1 -1</clus>
<clus scale="   91.424">  7  8 -1 -1</clus>
<clus scale="  107.091">  1  5  2 -1</clus>
<clus scale="   36.989">  1  5  2 -1</clus>
</clustering>
</event>
<event>
 9    1  0.2374319E-005  0.1021684E+03  0.7546771E-02  0.1279651E+00
          1   -1    0    0  502    0  0.00000000000E+00  0.00000000000E+00  0.25718418553E+03  0.25718418553E+03  0.00000000000E+00 0. -1.
         -2   -1    0    0    0  501 -0.00000000000E+00 -0.00000000000E+00 -0.10399005792E+03  0.10399005792E+03  0.00000000000E+00 0.  1.
         23    2    1    2    0    0  0.24903916989E+02  0.42799944350E+02 -0.54805805827E+02  0.11839441958E+03  0.92528492458E+02 0.  0.
        -24    2    1    2    0    0  0.48572764706E+01 -0.19381848977E+02  0.13401808393E+03  0.15966875431E+03  0.84463098930E+02 0.  0.
         11    1    4    4    0    0 -0.14858908355E+01 -0.41038466729E+02  0.13052628423E+03  0.13683374766E+03  0.00000000000E+00 0. -1.
        -12    1    4    4    0    0  0.63431673062E+01  0.21656617751E+02  0.34917996942E+01  0.22835006656E+02  0.00000000000E+00 0.  1.
        -13    1    3    3    0    0  0.49573802927E+02  0.36099297841E+02 -0.66346010384E+02  0.90346634332E+02  0.00000000000E+00 0.  1.
         13    1    3    3    0    0 -0.24669885938E+02  0.67006465090E+01  0.11540204557E+02  0.28047785244E+02  0.00000000000E+00 0. -1.
         21    1    1    2  502  501 -0.29761193459E+02 -0.23418095373E+02  0.73981849514E+02  0.83111069566E+02  0.00000000000E+00 0. -1.
<scales pt_clust_5="13000.00000" pt_clust_6="13000.00000" pt_clust_7="13000.00000" pt_clust_8="13000.00000" pt_clust_9="37.86999"></scales>
<clustering>
<clus scale="   37.870">  1  9  2 -1</clus>
<clus scale="   84.463">  5  6 -1 -1</clus>
<clus scale="   92.528">  7  8 -1 -1</clus>
<clus scale="   94.926">  1  5  2 -1</clus>
<clus scale="   37.870">  1  5  2 -1</clus>
</clustering>
</event>
<event>
 9    1  0.2374319E-005  0.1057587E+03  0.7546771E-02  0.1269351E+00
          1   -1    0    0  502    0  0.00000000000E+00  0.00000000000E+00  0.21416769496E+03  0.21416769496E+03  0.00000000000E+00 0. -1.
         -2   -1    0    0    0  501 -0.00000000000E+00 -0.00000000000E+00 -0.13020208877E+03  0.13020208877E+03  0.00000000000E+00 0.  1.
        -24    2    1    2    0    0  0.27633529353E+02  0.54616990885E+02 -0.59901025667E+02  0.12418145609E+03  0.89923709452E+02 0.  0.
         23    2    1    2    0    0 -0.16713082707E+02 -0.31543166623E+02  0.28991538168E+02  0.10251103726E+03  0.91617165316E+02 0.  0.
         11    1    3    3    0    0 -0.28383786123E+02  0.42691340616E+02 -0.32421201352E+02  0.60657432977E+02  0.00000000000E+00 0. -1.
        -12    1    3    3    0    0  0.56017315476E+02  0.11925650268E+02 -0.27479824314E+02  0.63524023108E+02  0.00000000000E+00 0.  1.
        -13    1    4    4    0    0 -0.14739865222E+02  0.14701696439E+02 -0.24251183130E+02  0.31961279514E+02  0.00000000000E+00 0.  1.
         13    1    4    4    0    0 -0.19732174850E+01 -0.46244863062E+02  0.53242721298E+02  0.70549757746E+02  0.00000000000E+00 0. -1.
         21    1    1    2  502  501 -0.10920446646E+02 -0.23073824262E+02  0.11487509369E+03  0.11767729038E+03  0.00000000000E+00 0. -1.
<scales pt_clust_5="13000.00000" pt_clust_6="13000.00000" pt_clust_7="13000.00000" pt_clust_8="13000.00000" pt_clust_9="25.52758"></scales>
<clustering>
<clus scale="   25.528">  1  9  2 -1</clus>
<clus scale="   89.924">  5  6 -1 -1</clus>
<clus scale="   91.617">  7  8 -1 -1</clus>
<clus scale="  104.295">  2  5  1 -1</clus>
<clus scale="   25.528">  1  5  2 -1</clus>
</clustering>
</event>
<event>
 9    1  0.2374319E-005  0.1524754E+03  0.7546771E-02  0.1226571E+00
          1   -1    0    0  502    0  0.00000000000E+00  0.00000000000E+00  0.26083596028E+03  0.26083596028E+03  0.00000000000E+00 0. -1.
         -2   -1    0    0    0  501 -0.00000000000E+00 -0.00000000000E+00 -0.16689642347E+03  0.16689642347E+03  0.00000000000E+00 0.  1.
        -24    2    1    2    0    0  0.52074980743E+00  0.14605601288E+02 -0.67171919118E+02  0.10604859993E+03  0.80750505008E+02 0.  0.
         23    2    1    2    0    0 -0.86735327299E+02  0.78092996181E+02  0.11009127488E+03  0.18519553444E+03  0.92497373578E+02 0.  0.
         11    1    3    3    0    0 -0.30614126975E+02 -0.19166730682E+02 -0.30354174522E+02  0.47180125544E+02  0.00000000000E+00 0. -1.
        -12    1    3    3    0    0  0.31134876782E+02  0.33772331970E+02 -0.36817744595E+02  0.58868474382E+02  0.00000000000E+00 0.  1.
        -13    1    4    4    0    0 -0.10451391173E+03  0.52312580369E+02  0.94006927437E+02  0.14999022040E+03  0.00000000000E+00 0. -1.
         13    1    4    4    0    0  0.17778584434E+02  0.25780415812E+02  0.16084347440E+02  0.35205314038E+02  0.00000000000E+00 0.  1.
         21    1    1    2  502  501  0.86214577491E+02 -0.92698597470E+02  0.51020181051E+02  0.13648824938E+03  0.00000000000E+00 0.  1.
<scales pt_clust_5="13000.00000" pt_clust_6="13000.00000" pt_clust_7="13000.00000" pt_clust_8="13000.00000" pt_clust_9="121.21463"></scales>
<clustering>
<clus scale="   80.751">  5  6 -1 -1</clus>
<clus scale="   82.062">  2  5  1 -1</clus>
<clus scale="   92.497">  7  8 -1 -1</clus>
<clus scale="  121.215">  2  9  1 -1</clus>
<clus scale="  152.475">  1  5  2 -1</clus>
</clustering>
</event>
<event>
 9    1  0.2374319E-005  0.1114709E+03  0.7546771E-02  0.1262100E+00
          3   -1    0    0  502    0  0.00000000000E+00  0.00000000000E+00  0.15105379559E+03  0.15105379559E+03  0.00000000000E+00 0. -1.
         -4   -1    0    0    0  501 -0.00000000000E+00 -0.00000000000E+00 -0.15028248466E+03  0.15028248466E+03  0.00000000000E+00 0.  1.
        -24    2    1    2    0    0  0.48689542953E+02 -0.48116709617E+02 -0.94327414786E+02  0.14058432667E+03  0.78615535287E+02 0.  0.
         23    2    1    2    0    0 -0.49686993026E+02  0.25456629863E+02  0.85776973760E+02  0.13622912379E+03  0.89910220008E+02 0.  0.
         13    1    3    3    0    0  0.42781205524E+01 -0.42038857678E+02 -0.75667009618E+01  0.42928112395E+02  0.00000000000E+00 0. -1.
        -14    1    3    3    0    0  0.44411422401E+02 -0.60778519395E+01 -0.86760713824E+02  0.97656214278E+02  0.00000000000E+00 0.  1.
        -13    1    4    4    0    0 -0.40890515274E+02  0.53328421196E+02  0.83111812863E+02  0.10688090655E+03  0.00000000000E+00 0. -1.
         13    1    4    4    0    0 -0.87964777529E+01 -0.27871791333E+02  0.26651608976E+01  0.29348217247E+02  0.00000000000E+00 0.  1.
         21    1    1    2  502  501  0.99745007330E+00  0.22660079754E+02  0.93217519543E+01  0.24522829784E+02  0.00000000000E+00 0. -1.
<scales pt_clust_5="13000.00000" pt_clust_6="13000.00000" pt_clust_7="13000.00000" pt_clust_8="13000.00000" pt_clust_9="22.68202"></scales>
<clustering>
<clus scale="   22.682">  1  9  2 -1</clus>
<clus scale="   78.616">  5  6 -1 -1</clus>
<clus scale="   89.910">  7  8 -1 -1</clus>
<clus scale="  102.578">  2  5  1 -1</clus>
<clus scale="   22.682">  1  5  2 -1</clus>
</clustering>
</event>
<event>
 9    1  0.2374319E-005  0.1234845E+03  0.7546771E-02  0.1248946E+00
          1   -1    0    0  502    0  0.00000000000E+00  0.00000000000E+00  0.11391966673E+04  0.11391966673E+04  0.00000000000E+00 0. -1.
         -2   -1    0    0    0  501 -0.00000000000E+00 -0.00000000000E+00 -0.29788252307E+02  0.29788252307E+02  0.00000000000E+00 0.  1.
         23    2    1    2    0    0 -0.21134318426E+02 -0.35393451811E+02  0.11780939304E+03  0.15318107582E+03  0.88803339212E+02 0.  0.
        -24    2    1    2    0    0  0.31720748820E+02 -0.69638322393E+02  0.42536865513E+03  0.43981723421E+03  0.81516899391E+02 0.  0.
         11    1    4    4    0    0  0.40118564406E+02 -0.68762240382E+02  0.42382109645E+03  0.43123319296E+03  0.00000000000E+00 0. -1.
        -12    1    4    4    0    0 -0.83978155868E+01 -0.87608201124E+00  0.15475586821E+01  0.85840412507E+01  0.00000000000E+00 0.  1.
        -13    1    3    3    0    0 -0.53758375624E+02 -0.68922242986E+01  0.72178660047E+02  0.90261977996E+02  0.00000000000E+00 0.  1.
         13    1    3    3    0    0  0.32624057198E+02 -0.28501227512E+02  0.45630732992E+02  0.62919097825E+02  0.00000000000E+00 0. -1.
         21    1    1    2  502  501 -0.10586430394E+02  0.10503177420E+03  0.56623036686E+03  0.57598660961E+03  0.00000000000E+00 0.  1.
<scales pt_clust_5="13000.00000" pt_clust_6="13000.00000" pt_clust_7="13000.00000" pt_clust_8="13000.00000" pt_clust_9="92.75462"></scales>
<clustering>
<clus scale="   81.517">  5  6 -1 -1</clus>
<clus scale="   88.803">  7  8 -1 -1</clus>
<clus scale="   97.905">  2  7  1 -1</clus>
<clus scale="   92.755">  1  9  2 -1</clus>
<clus scale="   92.755">  1  5  2 -1</clus>
</clustering>
</event>
<event>
 9    1  0.2374319E-005  0.9920762E+02  0.7546771E-02  0.1287325E+00
         -2   -1    0    0    0  501 -0.00000000000E+00  0.00000000000E+00  0.19307253687E+03  0.19307253687E+03  0.00000000000E+00 0.  1.
          1   -1    0    0  502    0  0.00000000000E+00 -0.00000000000E+00 -0.29866254748E+03  0.29866254748E+03  0.00000000000E+00 0. -1.
        -24    2    1    2    0    0 -0.26882429253E+02 -0.26905205361E+02  0.16198093356E+03  0.18508806637E+03  0.81075362446E+02 0.  0.
         23    2    1    2    0    0  0.53993497110E+02  0.74972311319E+01 -0.24270974405E+03  0.26505664967E+03  0.91517765896E+02 0.  0.
         11    1    3    3    0    0 -0.27291298585E+02  0.19358723776E+02  0.28964215851E+02  0.44254954125E+02  0.00000000000E+00 0. -1.
        -12    1    3    3    0    0  0.40886933223E+00 -0.46263929138E+02  0.13301671771E+03  0.14083311224E+03  0.00000000000E+00 0.  1.
        -13    1    4    4    0    0  0.18161974134E+02 -0.24151206347E+02 -0.17691854804E+02  0.35016279055E+02  0.00000000000E+00 0.  1.
         13    1    4    4    0    0  0.35831522976E+02  0.31648437479E+02 -0.22501788925E+03  0.23004037062E+03  0.00000000000E+00 0. -1.
         21    1    1    2  502  501 -0.27111067857E+02  0.19407974230E+02 -0.24861200126E+02  0.41590368305E+02  0.00000000000E+00 0. -1.
<scales pt_clust_5="13000.00000" pt_clust_6="13000.00000" pt_clust_7="13000.00000" pt_clust_8="13000.00000" pt_clust_9="33.34186"></scales>
<clustering>
<clus scale="   33.342">  2  9  1 -1</clus>
<clus scale="   81.075">  5  6 -1 -1</clus>
<clus scale="   89.665">  1  5  2 -1</clus>
<clus scale="   91.518">  7  8 -1 -1</clus>
<clus scale="   33.342">  2  5  1 -1</clus>
</clustering>
</event>
<event>
 9    1  0.2374319E-005  0.1508409E+03  0.7546771E-02  0.1201170E+00
          1   -1    0    0  502    0  0.00000000000E+00  0.00000000000E+00  0.17274839517E+03  0.17274839517E+03  0.00000000000E+00 0. -1.
         -2   -1    0    0    0  501 -0.00000000000E+00 -0.00000000000E+00 -0.44473521275E+03  0.44473521275E+03  0.00000000000E+00 0.  1.
         23    2    1    2    0    0 -0.12594361938E+03 -0.29374044574E+02 -0.24534125400E+03  0.29226107796E+03  0.92193150609E+02 0.  0.
        -24    2    1    2    0    0  0.99133679460E+02  0.45950995763E+02 -0.14688230793E+03  0.20092271949E+03  0.82804265634E+02 0.  0.
         11    1    4    4    0    0 -0.65360273214E+01  0.21203512233E+02 -0.58135647520E+01  0.22937003276E+02  0.00000000000E+00 0. -1.
        -12    1    4    4    0    0  0.10566970678E+03  0.24747483531E+02 -0.14106874318E+03  0.17798571621E+03  0.00000000000E+00 0.  1.
        -11    1    3    3    0    0 -0.89335831371E+02  0.19222466869E+02 -0.10437122540E+03  0.13872183206E+03  0.00000000000E+00 0. -1.
         11    1    3    3    0    0 -0.36607788006E+02 -0.48596511443E+02 -0.14097002860E+03  0.15353924590E+03  0.00000000000E+00 0.  1.
         21    1    1    2  502  501  0.26809939917E+02 -0.16576951189E+02  0.12023674436E+03  0.12429981047E+03  0.00000000000E+00 0. -1.
<scales pt_clust_5="13000.00000" pt_clust_6="13000.00000" pt_clust_7="13000.00000" pt_clust_8="13000.00000" pt_clust_9="31.52092"></scales>
<clustering>
<clus scale="   31.521">  1  9  2 -1</clus>
<clus scale="   82.804">  5  6 -1 -1</clus>
<clus scale="   92.193">  7  8 -1 -1</clus>
<clus scale="  145.293">  1  5  2 -1</clus>
<clus scale="   31.521">  1  5  2 -1</clus>
</clustering>
</event>
<event>
 9    1  0.2374319E-005  0.9962967E+02  0.7546771E-02  0.1283992E+00
          1   -1    0    0  502    0  0.00000000000E+00  0.00000000000E+00  0.77575436594E+02  0.77575436594E+02  0.00000000000E+00 0. -1.
         -2   -1    0    0    0  501 -0.00000000000E+00 -0.00000000000E+00 -0.39309264237E+03  0.39309264237E+03  0.00000000000E+00 0.  1.
        -24    2    1    2    0    0 -0.13103510629E+02  0.40209382096E+02 -0.32698095711E+03  0.34058211888E+03  0.85388154865E+02 0.  0.
         23    2    1    2    0    0  0.22263361332E+02 -0.19184918354E+02 -0.12761659245E+02  0.96727281188E+02  0.91266580024E+02 0.  0.
         13    1    3    3    0    0 -0.42968920878E+02  0.47671486572E+02 -0.20743325876E+03  0.21713464863E+03  0.00000000000E+00 0. -1.
        -14    1    3    3    0    0  0.29865410249E+02 -0.74621044764E+01 -0.11954769834E+03  0.12344747025E+03  0.00000000000E+00 0.  1.
        -11    1    4    4    0    0 -0.23279602325E+02  0.17060514936E+02 -0.23891184625E+02  0.37467182401E+02  0.00000000000E+00 0.  1.
         11    1    4    4    0    0  0.45542963657E+02 -0.36245433290E+02  0.11129525379E+02  0.59260098787E+02  0.00000000000E+00 0. -1.
         21    1    1    2  502  501 -0.91598507031E+01 -0.21024463742E+02  0.24225410573E+02  0.33358678900E+02  0.00000000000E+00 0. -1.
<scales pt_clust_5="13000.00000" pt_clust_6="13000.00000" pt_clust_7="13000.00000" pt_clust_8="13000.00000" pt_clust_9="22.93318"></scales>
<clustering>
<clus scale="   22.933">  1  9  2 -1</clus>
<clus scale="   85.388">  5  6 -1 -1</clus>
<clus scale="   91.267">  7  8 -1 -1</clus>
<clus scale="   94.274">  2  5  1 -1</clus>
<clus scale="   22.933">  1  5  2 -1</clus>
</clustering>
</event>
<event>
 9    1  0.2374319E-005  0.1281452E+03  0.7546771E-02  0.1233428E+00
         -2   -1    0    0    0  501 -0.00000000000E+00  0.00000000000E+00  0.45650433979E+03  0.45650433979E+03  0.00000000000E+00 0.  1.
          1   -1    0    0  502    0  0.00000000000E+00 -0.00000000000E+00 -0.51457477062E+02  0.51457477062E+02  0.00000000000E+00 0. -1.
        -24    2    1    2    0    0 -0.57826493423E+02  0.43884075730E+02  0.25250342646E+03  0.27445076612E+03  0.79344358358E+02 0.  0.
         23    2    1    2    0    0  0.88284335730E+02 -0.43570569346E+02  0.83540055739E+02  0.15808396695E+03  0.91208997613E+02 0.  0.
         11    1    3    3    0    0  0.88130620556E+01  0.36116268502E+02  0.59920687452E+02  0.70516265485E+02  0.00000000000E+00 0. -1.
        -12    1    3    3    0    0 -0.66639555478E+02  0.77678072285E+01  0.19258273901E+03  0.20393450064E+03  0.00000000000E+00 0.  1.
        -11    1    4    4    0    0  0.50796352806E+02 -0.21215588581E+02 -0.89881451955E+01  0.55777750146E+02  0.00000000000E+00 0. -1.
         11    1    4    4    0    0  0.37487982924E+02 -0.22354980765E+02  0.92528200935E+02  0.10230621680E+03  0.00000000000E+00 0.  1.
         21    1    1    2  502  501 -0.30457842307E+02 -0.31350638394E+00  0.69003380527E+02  0.75427083785E+02  0.00000000000E+00 0.  1.
<scales pt_clust_5="13000.00000" pt_clust_6="13000.00000" pt_clust_7="13000.00000" pt_clust_8="13000.00000" pt_clust_9="30.45946"></scales>
<clustering>
<clus scale="   30.459">  1  9  2 -1</clus>
<clus scale="   79.344">  5  6 -1 -1</clus>
<clus scale="   91.209">  7  8 -1 -1</clus>
<clus scale="  119.990">  1  5  2 -1</clus>
<clus scale="  128.145">  2  5  1 -1</clus>
</clustering>
</event>
<event>
 9    1  0.2374319E-005  0.1097918E+03  0.7546771E-02  0.1265310E+00
         -2   -1    0    0    0  501 -0.00000000000E+00  0.00000000000E+00  0.11144640550E+03  0.11144640550E+03  0.00000000000E+00 0.  1.
          1   -1    0    0  502    0  0.00000000000E+00 -0.00000000000E+00 -0.14348686619E+03  0.14348686619E+03  0.00000000000E+00 0. -1.
        -24    2    1    2    0    0 -0.13458210331E+01 -0.55517046574E+02  0.23213525687E+02  0.10048187745E+03  0.80459842318E+02 0.  0.
         23    2    1    2    0    0 -0.18309920359E+02  0.70739018721E+02 -0.34392647457E+02  0.12199754906E+03  0.91440066839E+02 0.  0.
         13    1    3    3    0    0 -0.16719814845E+02 -0.12556744376E+02 -0.26003719775E+02  0.33367910931E+02  0.00000000000E+00 0. -1.
        -14    1    3    3    0    0  0.15373993812E+02 -0.42960302197E+02  0.49217245462E+02  0.67113966515E+02  0.00000000000E+00 0.  1.
        -13    1    4    4    0    0  0.31653167106E+02  0.22868876367E+01 -0.14792230659E+02  0.35013753452E+02  0.00000000000E+00 0.  1.
         13    1    4    4    0    0 -0.49963087465E+02  0.68452131085E+02 -0.19600416797E+02  0.86983795604E+02  0.00000000000E+00 0. -1.
         21    1    1    2  502  501  0.19655741392E+02 -0.15221972148E+02 -0.20861338927E+02  0.32453845189E+02  0.00000000000E+00 0.  1.
<scales pt_clust_5="13000.00000" pt_clust_6="13000.00000" pt_clust_7="13000.00000" pt_clust_8="13000.00000" pt_clust_9="24.86074"></scales>
<clustering>
<clus scale="   24.861">  2  9  1 -1</clus>
<clus scale="   80.460">  5  6 -1 -1</clus>
<clus scale="   91.440">  7  8 -1 -1</clus>
<clus scale="  100.830">  1  5  2 -1</clus>
<clus scale="   24.861">  2  5  1 -1</clus>
</clustering>
</event>
<event>
 9    1  0.2374319E-005  0.2903502E+03  0.7546771E-02  0.1090610E+00
          1   -1    0    0  502    0  0.00000000000E+00  0.00000000000E+00  0.63058012776E+03  0.63058012776E+03  0.00000000000E+00 0. -1.
         -2   -1    0    0    0  501 -0.00000000000E+00 -0.00000000000E+00 -0.24685253757E+03  0.24685253757E+03  0.00000000000E+00 0.  1.
        -24    2    1    2    0    0 -0.78609614700E+02  0.27195027889E+03 -0.95035705815E+02  0.30926564829E+03  0.80479998255E+02 0.  0.
         23    2    1    2    0    0  0.53140457125E+02 -0.23641215459E+03  0.43485365511E+03  0.50620176203E+03  0.91803635508E+02 0.  0.
         11    1    3    3    0    0  0.13498797270E+02  0.25965326159E+02  0.17996474867E+01  0.29319863939E+02  0.00000000000E+00 0. -1.
        -12    1    3    3    0    0 -0.92108411970E+02  0.24598495273E+03 -0.96835353302E+02  0.27994578435E+03  0.00000000000E+00 0.  1.
        -11    1    4    4    0    0  0.38840673793E+01 -0.13314581972E+03  0.15811187448E+03  0.20674201349E+03  0.00000000000E+00 0.  1.
         11    1    4    4    0    0  0.49256389746E+02 -0.10326633487E+03  0.27674178063E+03  0.29945974854E+03  0.00000000000E+00 0. -1.
         21    1    1    2  502  501  0.25469157575E+02 -0.35538124301E+02  0.43909640886E+02  0.61965255015E+02  0.00000000000E+00 0. -1.
<scales pt_clust_5="13000.00000" pt_clust_6="13000.00000" pt_clust_7="13000.00000" pt_clust_8="13000.00000" pt_clust_9="43.72226"></scales>
<clustering>
<clus scale="   43.722">  1  9  2 -1</clus>
<clus scale="   80.480">  5  6 -1 -1</clus>
<clus scale="   91.804">  7  8 -1 -1</clus>
<clus scale="  286.971">  2  5  1 -1</clus>
<clus scale="   43.722">  1  5  2 -1</clus>
</clustering>
</event>
<event>
 9    1  0.2374319E-005  0.9270978E+02  0.7546771E-02  0.1303437E+00
          1   -1    0    0  502    0  0.00000000000E+00  0.00000000000E+00  0.23878500572E+03  0.23878500572E+03  0.00000000000E+00 0. -1.
         -2   -1    0    0    0  501 -0.00000000000E+00 -0.00000000000E+00 -0.70811433384E+02  0.70811433384E+02  0.00000000000E+00 0.  1.
        -24    2    1    2    0    0 -0.81551354937E+01 -0.35353226630E+02  0.95328562414E+01  0.89023999474E+02  0.80734380942E+02 0.  0.
         23    2    1    2    0    0 -0.14859856390E+02 -0.39998202136E+01  0.14603976938E+03  0.17332695702E+03  0.92075001473E+02 0.  0.
         11    1    3    3    0    0  0.17962728466E+02 -0.47650155359E+02 -0.12821461740E+02  0.52512729893E+02  0.00000000000E+00 0. -1.
        -12    1    3    3    0    0 -0.26117863960E+02  0.12296928729E+02  0.22354317982E+02  0.36511269581E+02  0.00000000000E+00 0.  1.
        -11    1    4    4    0    0  0.35142709586E+00 -0.42811026529E+02  0.11065412615E+03  0.11864755845E+03  0.00000000000E+00 0. -1.
         11    1    4    4    0    0 -0.15211283486E+02  0.38811206315E+02  0.35385643234E+02  0.54679398570E+02  0.00000000000E+00 0.  1.
         21    1    1    2  502  501  0.23014991883E+02  0.39353046844E+02  0.12400946711E+02  0.47245482605E+02  0.00000000000E+00 0.  1.
<scales pt_clust_5="13000.00000" pt_clust_6="13000.00000" pt_clust_7="13000.00000" pt_clust_8="13000.00000" pt_clust_9="45.58895"></scales>
<clustering>
<clus scale="   45.589">  2  9  1 -1</clus>
<clus scale="   80.734">  5  6 -1 -1</clus>
<clus scale="   81.458">  2  5  1 -1</clus>
<clus scale="   92.075">  7  8 -1 -1</clus>
<clus scale="   92.710">  1  5  2 -1</clus>
</clustering>
</event>
<event>
 9    1  0.2374319E-005  0.1033281E+03  0.7546771E-02  0.1277988E+00
         -2   -1    0    0    0  501 -0.00000000000E+00  0.00000000000E+00  0.12596590188E+03  0.12596590188E+03  0.00000000000E+00 0.  1.
          1   -1    0    0  502    0  0.00000000000E+00 -0.00000000000E+00 -0.43971457960E+03  0.43971457960E+03  0.00000000000E+00 0. -1.
        -24    2    1    2    0    0 -0.41104610231E+02  0.34796245313E+02  0.92319012073E+02  0.13370732537E+03  0.80339785889E+02 0.  0.
         23    2    1    2    0    0  0.14710724898E+02  0.13287796103E+02 -0.25760777133E+03  0.27370420903E+03  0.90328618053E+02 0.  0.
         13    1    3    3    0    0  0.20622729115E+02  0.21969035219E+02  0.14169144383E+02  0.33297148784E+02  0.00000000000E+00 0. -1.
        -14    1    3    3    0    0 -0.61727339346E+02  0.12827210094E+02  0.78149867690E+02  0.10041017658E+03  0.00000000000E+00 0.  1.
        -13    1    4    4    0    0  0.52319186238E+02 -0.53009611016E+00 -0.13987950491E+03  0.14934474931E+03  0.00000000000E+00 0. -1.
         13    1    4    4    0    0 -0.37608461340E+02  0.13817892213E+02 -0.11772826641E+03  0.12435945972E+03  0.00000000000E+00 0.  1.
         21    1    1    2  502  501  0.26393885333E+02 -0.48084041416E+02 -0.14845991846E+03  0.15826894709E+03  0.00000000000E+00 0. -1.
<scales pt_clust_5="13000.00000" pt_clust_6="13000.00000" pt_clust_7="13000.00000" pt_clust_8="13000.00000" pt_clust_9="54.85173"></scales>
<clustering>
<clus scale="   54.852">  2  9  1 -1</clus>
<clus scale="   80.340">  5  6 -1 -1</clus>
<clus scale="   90.329">  7  8 -1 -1</clus>
<clus scale="   94.720">  1  5  2 -1</clus>
<clus scale="   54.852">  2  5  1 -1</clus>
</clustering>
</event>
<event>
 9    1  0.2374319E-005  0.1868402E+03  0.7546771E-02  0.1162453E+00
         -2   -1    0    0    0  501 -0.00000000000E+00  0.00000000000E+00  0.14290344307E+03  0.14290344307E+03  0.00000000000E+00 0.  1.
          1   -1    0    0  502    0  0.00000000000E+00 -0.00000000000E+00 -0.43956940417E+03  0.43956940417E+03  0.00000000000E+00 0. -1.
        -24    2    1    2    0    0 -0.10031721430E+03  0.14431108680E+03  0.24890914235E+02  0.19510059029E+03  0.80965730169E+02 0.  0.
         23    2    1    2    0    0  0.95093651272E+02 -0.86687709596E+02 -0.22378763546E+03  0.27376519960E+03  0.91153262260E+02 0.  0.
         13    1    3    3    0    0 -0.45629593468E+02  0.21600582264E+02  0.33324493315E+02  0.60491047345E+02  0.00000000000E+00 0. -1.
        -14    1    3    3    0    0 -0.54687620833E+02  0.12271050454E+03 -0.84335790803E+01  0.13460954295E+03  0.00000000000E+00 0.  1.
        -11    1    4    4    0    0  0.37867219121E+02 -0.85707750814E+02 -0.98097571125E+02  0.13565720878E+03  0.00000000000E+00 0.  1.
         11    1    4    4    0    0  0.57226432152E+02 -0.97995878192E+00 -0.12569006433E+03  0.13810799082E+03  0.00000000000E+00 0. -1.
         21    1    1    2  502  501  0.52235630284E+01 -0.57623377207E+02 -0.97769239885E+02  0.11360705735E+03  0.00000000000E+00 0. -1.
<scales pt_clust_5="13000.00000" pt_clust_6="13000.00000" pt_clust_7="13000.00000" pt_clust_8="13000.00000" pt_clust_9="57.85965"></scales>
<clustering>
<clus scale="   57.860">  2  9  1 -1</clus>
<clus scale="   80.966">  5  6 -1 -1</clus>
<clus scale="   91.153">  7  8 -1 -1</clus>
<clus scale="  182.087">  1  5  2 -1</clus>
<clus scale="   57.860">  2  5  1 -1</clus>
</clustering>
</event>
<event>
 9    1  0.2374319E-005  0.2336245E+03  0.7546771E-02  0.1130802E+00
          1   -1    0    0  502    0  0.00000000000E+00  0.00000000000E+00  0.15373485487E+04  0.15373485487E+04  0.00000000000E+00 0. -1.
         -2   -1    0    0    0  501 -0.00000000000E+00 -0.00000000000E+00 -0.69334617533E+03  0.69334617533E+03  0.00000000000E+00 0.  1.
         23    2    1    2    0    0  0.85608900733E+02  0.15956592798E+03  0.47192450275E+01  0.19814652910E+03  0.80309441935E+02 0.  0.
        -24    2    1    2    0    0  0.79752676072E+01 -0.35633006045E+03 -0.53128659084E+03  0.64476742134E+03  0.80155281440E+02 0.  0.
         13    1    4    4    0    0  0.26194399540E+02 -0.38153861102E+02 -0.58428239815E+02  0.74536721769E+02  0.00000000000E+00 0. -1.
        -14    1    4    4    0    0 -0.18219131933E+02 -0.31817619934E+03 -0.47285835103E+03  0.57023069957E+03  0.00000000000E+00 0.  1.
        -13    1    3    3    0    0  0.32965789873E+02  0.40753959546E+01  0.71084775584E+01  0.33968847601E+02  0.00000000000E+00 0.  1.
         13    1    3    3    0    0  0.52643110860E+02  0.15549053202E+03 -0.23892325308E+01  0.16417768150E+03  0.00000000000E+00 0. -1.
         21    1    1    2  502  501 -0.93584168340E+02  0.19676413247E+03  0.13705697192E+04  0.13877807736E+04  0.00000000000E+00 0. -1.
<scales pt_clust_5="13000.00000" pt_clust_6="13000.00000" pt_clust_7="13000.00000" pt_clust_8="13000.00000" pt_clust_9="219.44369"></scales>
<clustering>
<clus scale="   80.155">  5  6 -1 -1</clus>
<clus scale="   80.309">  7  8 -1 -1</clus>
<clus scale="  198.090">  2  7  1 -1</clus>
<clus scale="  219.444">  1  9  2 -1</clus>
<clus scale="  219.444">  1  5  2 -1</clus>
</clustering>
</event>
<event>
 9    1  0.2374319E-005  0.1242834E+03  0.7546771E-02  0.1239749E+00
         -2   -1    0    0    0  501 -0.00000000000E+00  0.00000000000E+00  0.12486825244E+03  0.12486825244E+03  0.00000000000E+00 0.  1.
          1   -1    0    0  502    0  0.00000000000E+00 -0.00000000000E+00 -0.15131131695E+03  0.15131131695E+03  0.00000000000E+00 0. -1.
        -24    2    1    2    0    0 -0.97058603018E+02 -0.45238431901E+01 -0.12937747766E+02  0.12610705794E+03  0.79339568741E+02 0.  0.
         23    2    1    2    0    0  0.72256927613E+02 -0.13726506417E+02 -0.18522181760E+02  0.11887367656E+03  0.91533595997E+02 0.  0.
         13    1    3    3    0    0 -0.17888489463E+02  0.26738919764E+02 -0.24185408105E+02  0.40248004306E+02  0.00000000000E+00 0. -1.
        -14    1    3    3    0    0 -0.79170113555E+02 -0.31262762954E+02  0.11247660339E+02  0.85859053634E+02  0.00000000000E+00 0.  1.
        -11    1    4    4    0    0  0.15227079155E+02  0.25826391221E+02  0.23187249863E+02  0.37901384926E+02  0.00000000000E+00 0.  1.
         11    1    4    4    0    0  0.57029848457E+02 -0.39552897638E+02 -0.41709431624E+02  0.80972291637E+02  0.00000000000E+00 0. -1.
         21    1    1    2  502  501  0.24801675405E+02  0.18250349607E+02  0.50168650139E+01  0.31198834886E+02  0.00000000000E+00 0.  1.
<scales pt_clust_5="13000.00000" pt_clust_6="13000.00000" pt_clust_7="13000.00000" pt_clust_8="13000.00000" pt_clust_9="30.79283"></scales>
<clustering>
<clus scale="   30.793">  1  9  2 -1</clus>
<clus scale="   79.340">  5  6 -1 -1</clus>
<clus scale="   91.534">  7  8 -1 -1</clus>
<clus scale="  115.597">  1  5  2 -1</clus>
<clus scale="  124.283">  2  5  1 -1</clus>
</clustering>
</event>
<event>
 9    1  0.2374319E-005  0.1111220E+03  0.7546771E-02  0.1265450E+00
          1   -1    0    0  502    0  0.00000000000E+00  0.00000000000E+00  0.28441157754E+03  0.28441157754E+03  0.00000000000E+00 0. -1.
         -2   -1    0    0    0  501 -0.00000000000E+00 -0.00000000000E+00 -0.91790020285E+02  0.91790020285E+02  0.00000000000E+00 0.  1.
         23    2    1    2    0    0  0.67736507559E+02 -0.14892908929E+02 -0.31511893027E+02  0.12036679934E+03  0.93194065194E+02 0.  0.
        -24    2    1    2    0    0 -0.26687904330E+02  0.48015914558E+01  0.15849956766E+03  0.17776669320E+03  0.75786441698E+02 0.  0.
         13    1    4    4    0    0  0.13798775881E+02  0.29225119942E+02  0.77627835909E+02  0.84086828691E+02  0.00000000000E+00 0. -1.
        -14    1    4    4    0    0 -0.40486680211E+02 -0.24423528486E+02  0.80871731748E+02  0.93679864507E+02  0.00000000000E+00 0.  1.
        -13    1    3    3    0    0  0.82664481760E+02  0.49946130786E+01 -0.42611906564E+02  0.93135048641E+02  0.00000000000E+00 0.  1.
         13    1    3    3    0    0 -0.14927974200E+02 -0.19887522007E+02  0.11100013537E+02  0.27231750694E+02  0.00000000000E+00 0. -1.
         21    1    1    2  502  501 -0.41048603229E+02  0.10091317473E+02  0.65633882626E+02  0.78068105293E+02  0.00000000000E+00 0. -1.
<scales pt_clust_5="13000.00000" pt_clust_6="13000.00000" pt_clust_7="13000.00000" pt_clust_8="13000.00000" pt_clust_9="42.27082"></scales>
<clustering>
<clus scale="   42.271">  1  9  2 -1</clus>
<clus scale="   75.786">  5  6 -1 -1</clus>
<clus scale="   93.194">  7  8 -1 -1</clus>
<clus scale="   96.987">  1  5  2 -1</clus>
<clus scale="   42.271">  1  5  2 -1</clus>
</clustering>
</event>
<event>
 9    1  0.2374319E-005  0.1772925E+03  0.7546771E-02  0.1172484E+00
         -2   -1    0    0    0  501 -0.00000000000E+00  0.00000000000E+00  0.56695370736E+02  0.56695370736E+02  0.00000000000E+00 0.  1.
          1   -1    0    0  502    0  0.00000000000E+00 -0.00000000000E+00 -0.89630544680E+03  0.89630544680E+03  0.00000000000E+00 0. -1.
         23    2    1    2    0    0  0.20174114696E+01  0.16862634866E+03 -0.18682308830E+03  0.26952077661E+03  0.96434782564E+02 0.  0.
        -24    2    1    2    0    0 -0.21971354937E+02 -0.10564371561E+03 -0.47778999422E+03  0.49642678735E+03  0.80702797601E+02 0.  0.
         11    1    4    4    0    0 -0.35732096926E+02 -0.21570843064E+02 -0.87469592292E+02  0.96917560828E+02  0.00000000000E+00 0. -1.
        -12    1    4    4    0    0  0.13760741989E+02 -0.84072872542E+02 -0.39032040193E+03  0.39950922652E+03  0.00000000000E+00 0.  1.
        -13    1    3    3    0    0 -0.19099314483E+01  0.13707240435E+03 -0.19339336686E+03  0.23705165306E+03  0.00000000000E+00 0. -1.
         13    1    3    3    0    0  0.39273429180E+01  0.31553944307E+02  0.65702785539E+01  0.32469123548E+02  0.00000000000E+00 0.  1.
         21    1    1    2  502  501  0.19953943467E+02 -0.62982633051E+02 -0.17499699355E+03  0.18705325358E+03  0.00000000000E+00 0.  1.
<scales pt_clust_5="13000.00000" pt_clust_6="13000.00000" pt_clust_7="13000.00000" pt_clust_8="13000.00000" pt_clust_9="66.06793"></scales>
<clustering>
<clus scale="   66.068">  2  9  1 -1</clus>
<clus scale="   80.703">  5  6 -1 -1</clus>
<clus scale="   96.435">  7  8 -1 -1</clus>
<clus scale="  169.251">  2  5  1 -1</clus>
<clus scale="   66.068">  2  5  1 -1</clus>
</clustering>
</event>
<event>
 9    1  0.2374319E-005  0.9244312E+02  0.7546771E-02  0.1302309E+00
         -2   -1    0    0    0  501 -0.00000000000E+00  0.00000000000E+00  0.15847112873E+03  0.15847112873E+03  0.00000000000E+00 0.  1.
          1   -1    0    0  502    0  0.00000000000E+00 -0.00000000000E+00 -0.19105229407E+03  0.19105229407E+03  0.00000000000E+00 0. -1.
        -24    2    1    2    0    0  0.14610240876E+02  0.61823585466E+00  0.12203508720E+03  0.14814254630E+03  0.82703144817E+02 0.  0.
         23    2    1    2    0    0 -0.61216074669E+01  0.20760730882E+02 -0.15139772068E+03  0.17815425247E+03  0.91373879319E+02 0.  0.
         11    1    3    3    0    0  0.30067948768E+02  0.97380031223E+01  0.78637073415E+01  0.32569128651E+02  0.00000000000E+00 0. -1.
        -12    1    3    3    0    0 -0.15457707893E+02 -0.91197672676E+01  0.11417137986E+03  0.11557341765E+03  0.00000000000E+00 0.  1.
        -13    1    4    4    0    0 -0.12141428465E+02 -0.29975293132E+02 -0.22216864022E+02  0.39236737001E+02  0.00000000000E+00 0.  1.
         13    1    4    4    0    0  0.60198209977E+01  0.50736024014E+02 -0.12918085666E+03  0.13891751547E+03  0.00000000000E+00 0. -1.
         21    1    1    2  502  501 -0.84886334088E+01 -0.21378966737E+02 -0.32185318573E+01  0.23226624016E+02  0.00000000000E+00 0.  1.
<scales pt_clust_5="13000.00000" pt_clust_6="13000.00000" pt_clust_7="13000.00000" pt_clust_8="13000.00000" pt_clust_9="23.00255"></scales>
<clustering>
<clus scale="   23.003">  2  9  1 -1</clus>
<clus scale="   82.703">  5  6 -1 -1</clus>
<clus scale="   83.883">  1  5  2 -1</clus>
<clus scale="   91.374">  7  8 -1 -1</clus>
<clus scale="   23.003">  2  5  1 -1</clus>
</clustering>
</event>
<event>
 9    1  0.2374319E-005  0.9866376E+02  0.7546771E-02  0.1291166E+00
         -2   -1    0    0    0  501 -0.00000000000E+00  0.00000000000E+00  0.13740088742E+03  0.13740088742E+03  0.00000000000E+00 0.  1.
          1   -1    0    0  502    0  0.00000000000E+00 -0.00000000000E+00 -0.27461819557E+03  0.27461819557E+03  0.00000000000E+00 0. -1.
         23    2    1    2    0    0  0.11072066643E+02  0.27509394794E+02  0.10075469187E+03  0.14034566035E+03  0.93091562358E+02 0.  0.
        -24    2    1    2    0    0 -0.29454013611E+02 -0.50896938264E+02 -0.15295466408E+03  0.18160222538E+03  0.78270056582E+02 0.  0.
         13    1    4    4    0    0 -0.30702061161E+02  0.81949368067E+01 -0.89074904658E+02  0.94573316473E+02  0.00000000000E+00 0. -1.
        -14    1    4    4    0    0  0.12480475495E+01 -0.59091875071E+02 -0.63879759420E+02  0.87028908907E+02  0.00000000000E+00 0.  1.
        -13    1    3    3    0    0 -0.28871307343E+02 -0.20067387765E+02  0.30294432344E+02  0.46411260169E+02  0.00000000000E+00 0. -1.
         13    1    3    3    0    0  0.39943373986E+02  0.47576782559E+02  0.70460259529E+02  0.93934400179E+02  0.00000000000E+00 0.  1.
         21    1    1    2  502  501  0.18381946968E+02  0.23387543470E+02 -0.85017335948E+02  0.90071197259E+02  0.00000000000E+00 0. -1.
<scales pt_clust_5="13000.00000" pt_clust_6="13000.00000" pt_clust_7="13000.00000" pt_clust_8="13000.00000" pt_clust_9="29.74682"></scales>
<clustering>
<clus scale="   29.747">  2  9  1 -1</clus>
<clus scale="   78.270">  5  6 -1 -1</clus>
<clus scale="   84.822">  2  5  1 -1</clus>
<clus scale="   93.092">  7  8 -1 -1</clus>
<clus scale="   29.747">  2  5  1 -1</clus>
</clustering>
</event>
<event>
 9    1  0.2374319E-005  0.1068779E+03  0.7546771E-02  0.1272167E+00
         -2   -1    0    0    0  501 -0.00000000000E+00  0.00000000000E+00  0.65184016466E+02  0.65184016466E+02  0.00000000000E+00 0.  1.
          1   -1    0    0  502    0  0.00000000000E+00 -0.00000000000E+00 -0.54316702873E+03  0.54316702873E+03  0.00000000000E+00 0. -1.
         23    2    1    2    0    0  0.43041337180E+02 -0.35496911521E+02  0.89314902413E+01  0.10857844434E+03  0.92719575189E+02 0.  0.
        -24    2    1    2    0    0 -0.23311389061E+02  0.27519449859E+02 -0.32792394394E+03  0.33936403357E+03  0.79580734412E+02 0.  0.
         13    1    4    4    0    0 -0.48809516847E+02 -0.13822551492E+01 -0.18408338549E+03  0.19044939585E+03  0.00000000000E+00 0. -1.
        -14    1    4    4    0    0  0.25498127785E+02  0.28901705008E+02 -0.14384055845E+03  0.14891463772E+03  0.00000000000E+00 0.  1.
        -13    1    3    3    0    0  0.27741202541E+01 -0.55246988825E+02  0.25309467185E+02  0.60831691138E+02  0.00000000000E+00 0. -1.
         13    1    3    3    0    0  0.40267216926E+02  0.19750077304E+02 -0.16377976944E+02  0.47746753201E+02  0.00000000000E+00 0.  1.
         21    1    1    2  502  501 -0.19729948119E+02  0.79774616627E+01 -0.15899055856E+03  0.16040856729E+03  0.00000000000E+00 0.  1.
<scales pt_clust_5="13000.00000" pt_clust_6="13000.00000" pt_clust_7="13000.00000" pt_clust_8="13000.00000" pt_clust_9="21.28170"></scales>
<clustering>
<clus scale="   21.282">  2  9  1 -1</clus>
<clus scale="   79.581">  5  6 -1 -1</clus>
<clus scale="   92.720">  7  8 -1 -1</clus>
<clus scale="   95.703">  2  5  1 -1</clus>
<clus scale="   21.282">  2  5  1 -1</clus>
</clustering>
</event>
<event>
 9    1  0.2374319E-005  0.1597883E+03  0.7546771E-02  0.1190534E+00
          1   -1    0    0  502    0  0.00000000000E+00  0.00000000000E+00  0.95150087026E+03  0.95150087026E+03  0.00000000000E+00 0. -1.
         -2   -1    0    0    0  501 -0.00000000000E+00 -0.00000000000E+00 -0.46312575127E+02  0.46312575127E+02  0.00000000000E+00 0.  1.
        -24    2    1    2    0    0 -0.27148337695E+02 -0.12380515401E+03  0.14041467323E+03  0.20602151560E+03  0.81632322240E+02 0.  0.
         23    2    1    2    0    0  0.11810807219E+02  0.14543792070E+03  0.57792058719E+03  0.60306653929E+03  0.91680760078E+02 0.  0.
         11    1    3    3    0    0  0.64437296924E+01 -0.10493713495E+03  0.71745370323E+02  0.12728205729E+03  0.00000000000E+00 0. -1.
        -12    1    3    3    0    0 -0.33592067387E+02 -0.18868019058E+02  0.68669302904E+02  0.78739458315E+02  0.00000000000E+00 0.  1.
        -13    1    4    4    0    0  0.30443031111E+02  0.12725448195E+03  0.54800283701E+03  0.56340712694E+03  0.00000000000E+00 0. -1.
         13    1    4    4    0    0 -0.18632223892E+02  0.18183438745E+02  0.29917750181E+02  0.39659412346E+02  0.00000000000E+00 0.  1.
         21    1    1    2  502  501  0.15337530476E+02 -0.21632766687E+02  0.18685303471E+03  0.18872539049E+03  0.00000000000E+00 0. -1.
<scales pt_clust_5="13000.00000" pt_clust_6="13000.00000" pt_clust_7="13000.00000" pt_clust_8="13000.00000" pt_clust_9="26.51823"></scales>
<clustering>
<clus scale="   26.518">  1  9  2 -1</clus>
<clus scale="   81.632">  5  6 -1 -1</clus>
<clus scale="   91.681">  7  8 -1 -1</clus>
<clus scale="  154.243">  2  5  1 -1</clus>
<clus scale="   26.518">  1  5  2 -1</clus>
</clustering>
</event>
<event>
 9    1  0.2374319E-005  0.1275996E+03  0.7546771E-02  0.1233590E+00
         -2   -1    0    0    0  501 -0.00000000000E+00  0.00000000000E+00  0.19532206588E+03  0.19532206588E+03  0.00000000000E+00 0.  1.
          1   -1    0    0  502    0  0.00000000000E+00 -0.00000000000E+00 -0.61053420063E+03  0.61053420063E+03  0.00000000000E+00 0. -1.
        -24    2    1    2    0    0 -0.72198364466E+02  0.60406748032E+02  0.15873412952E+03  0.20165418748E+03  0.81279200389E+02 0.  0.
         23    2    1    2    0    0 -0.31168217686E+01 -0.18500930938E+02 -0.39335979907E+03  0.40410223846E+03  0.90634919185E+02 0.  0.
         11    1    3    3    0    0 -0.28825137819E+02 -0.12226151766E+02  0.14646085221E+02  0.34566966450E+02  0.00000000000E+00 0. -1.
        -12    1    3    3    0    0 -0.43373226648E+02  0.72632899798E+02  0.14408804430E+03  0.16708722103E+03  0.00000000000E+00 0.  1.
        -11    1    4    4    0    0  0.42925862219E+02 -0.28967566026E+00 -0.19279447202E+03  0.19751562470E+03  0.00000000000E+00 0.  1.
         11    1    4    4    0    0 -0.46042683988E+02 -0.18211255278E+02 -0.20056532705E+03  0.20658661376E+03  0.00000000000E+00 0. -1.
         21    1    1    2  502  501  0.75315186235E+02 -0.41905817093E+02 -0.18058646519E+03  0.20009984057E+03  0.00000000000E+00 0.  1.
<scales pt_clust_5="13000.00000" pt_clust_6="13000.00000" pt_clust_7="13000.00000" pt_clust_8="13000.00000" pt_clust_9="86.18860"></scales>
<clustering>
<clus scale="   81.279">  5  6 -1 -1</clus>
<clus scale="   86.189">  2  9  1 -1</clus>
<clus scale="   90.635">  7  8 -1 -1</clus>
<clus scale="  121.133">  1  5  2 -1</clus>
<clus scale="   86.189">  2  5  1 -1</clus>
</clustering>
</event>
<event>
 9    1  0.2374319E-005  0.1331185E+03  0.7546771E-02  0.1225746E+00
          1   -1    0    0  502    0  0.00000000000E+00  0.00000000000E+00  0.25567439712E+03  0.25567439712E+03  0.00000000000E+00 0. -1.
         -2   -1    0    0    0  501 -0.00000000000E+00 -0.00000000000E+00 -0.25225299713E+03  0.25225299713E+03  0.00000000000E+00 0.  1.
         23    2    1    2    0    0  0.15034259457E+02  0.52513412713E+02 -0.19026072690E+03  0.21843274254E+03  0.92358168771E+02 0.  0.
        -24    2    1    2    0    0 -0.61890624338E+02 -0.78658712398E+02  0.19746162518E+03  0.23570450176E+03  0.80918949042E+02 0.  0.
         11    1    4    4    0    0 -0.28297934705E+02 -0.39150596560E+02  0.22631884760E+02  0.53345520218E+02  0.00000000000E+00 0. -1.
        -12    1    4    4    0    0 -0.33592689633E+02 -0.39508115838E+02  0.17482974041E+03  0.18235898154E+03  0.00000000000E+00 0.  1.
        -13    1    3    3    0    0  0.30970571089E+02  0.74188845744E+02 -0.14345187377E+03  0.16444330693E+03  0.00000000000E+00 0.  1.
         13    1    3    3    0    0 -0.15936311631E+02 -0.21675433031E+02 -0.46808853136E+02  0.53989435609E+02  0.00000000000E+00 0. -1.
         21    1    1    2  502  501  0.46856364880E+02  0.26145299685E+02 -0.37794982760E+01  0.53790149959E+02  0.00000000000E+00 0.  1.
<scales pt_clust_5="13000.00000" pt_clust_6="13000.00000" pt_clust_7="13000.00000" pt_clust_8="13000.00000" pt_clust_9="53.65720"></scales>
<clustering>
<clus scale="   53.657">  2  9  1 -1</clus>
<clus scale="   80.919">  5  6 -1 -1</clus>
<clus scale="   92.358">  7  8 -1 -1</clus>
<clus scale="  125.453">  1  5  2 -1</clus>
<clus scale="  125.453">  1  5  2 -1</clus>
</clustering>
</event>
<event>
 9    1  0.2374319E-005  0.9229606E+02  0.7546771E-02  0.1302781E+00
         -2   -1    0    0    0  501 -0.00000000000E+00  0.00000000000E+00  0.26037778815E+03  0.26037778815E+03  0.00000000000E+00 0.  1.
          1   -1    0    0  502    0  0.00000000000E+00 -0.00000000000E+00 -0.74880860515E+02  0.74880860515E+02  0.00000000000E+00 0. -1.
        -24    2    1    2    0    0  0.66165418834E+00 -0.22888719450E+02  0.18882953553E+03  0.20697432995E+03  0.81593189098E+02 0.  0.
         23    2    1    2    0    0 -0.16826357652E+02 -0.89230311788E+01 -0.73250932598E+00  0.92506593399E+02  0.90521745759E+02 0.  0.
         11    1    3    3    0    0  0.18251899706E+02 -0.45078077194E+02  0.72873963185E+02  0.87611525478E+02  0.00000000000E+00 0. -1.
        -12    1    3    3    0    0 -0.17590245518E+02  0.22189357744E+02  0.11595557234E+03  0.11936280447E+03  0.00000000000E+00 0.  1.
        -13    1    4    4    0    0 -0.39517486238E+02  0.13187982312E+02 -0.28420031044E+02  0.50430672815E+02  0.00000000000E+00 0. -1.
         13    1    4    4    0    0  0.22691128587E+02 -0.22111013491E+02  0.27687521718E+02  0.42075920584E+02  0.00000000000E+00 0.  1.
         21    1    1    2  502  501  0.16164703463E+02  0.31811750629E+02 -0.26000985659E+01  0.35777725315E+02  0.00000000000E+00 0.  1.
<scales pt_clust_5="13000.00000" pt_clust_6="13000.00000" pt_clust_7="13000.00000" pt_clust_8="13000.00000" pt_clust_9="35.68312"></scales>
<clustering>
<clus scale="   35.683">  2  9  1 -1</clus>
<clus scale="   81.593">  5  6 -1 -1</clus>
<clus scale="   83.557">  1  5  2 -1</clus>
<clus scale="   90.522">  7  8 -1 -1</clus>
<clus scale="   35.683">  2  5  1 -1</clus>
</clustering>
</event>
<event>
 9    1  0.2374319E-005  0.1664996E+03  0.7546771E-02  0.1202986E+00
         -2   -1    0    0    0  501 -0.00000000000E+00  0.00000000000E+00  0.27822213542E+03  0.27822213542E+03  0.00000000000E+00 0.  1.
          1   -1    0    0  502    0  0.00000000000E+00 -0.00000000000E+00 -0.18859536460E+03  0.18859536460E+03  0.00000000000E+00 0. -1.
        -24    2    1    2    0    0  0.42715816469E+02 -0.48950131099E+02  0.13200678514E+03  0.16797299579E+03  0.81045540774E+02 0.  0.
         23    2    1    2    0    0  0.97949778052E+02  0.19611884605E+02 -0.15307449641E+02  0.15262389712E+03  0.11437198485E+03 0.  0.
         13    1    3    3    0    0  0.26892359210E+02 -0.69297758402E+02  0.11554060258E+03  0.13738634993E+03  0.00000000000E+00 0. -1.
        -14    1    3    3    0    0  0.15823457259E+02  0.20347627303E+02  0.16466182561E+02  0.30586645854E+02  0.00000000000E+00 0.  1.
        -13    1    4    4    0    0  0.95388731430E+02  0.57741583153E+02 -0.12778056381E+00  0.11150388709E+03  0.00000000000E+00 0.  1.
         13    1    4    4    0    0  0.25610466224E+01 -0.38129698548E+02 -0.15179669077E+02  0.41120010025E+02  0.00000000000E+00 0. -1.
         21    1    1    2  502  501 -0.14066559452E+03  0.29338246495E+02 -0.27072564680E+02  0.14622060712E+03  0.00000000000E+00 0. -1.
<scales pt_clust_5="13000.00000" pt_clust_6="13000.00000" pt_clust_7="13000.00000" pt_clust_8="13000.00000" pt_clust_9="121.00069"></scales>
<clustering>
<clus scale="   81.046">  5  6 -1 -1</clus>
<clus scale="  103.871">  1  5  2 -1</clus>
<clus scale="  114.372">  7  8 -1 -1</clus>
<clus scale="  121.001">  1  9  2 -1</clus>
<clus scale="  166.500">  2  5  1 -1</clus>
</clustering>
</event>
<event>
 9    1  0.2374319E-005  0.1169746E+03  0.7546771E-02  0.1250677E+00
          1   -1    0    0  502    0  0.00000000000E+00  0.00000000000E+00  0.12493414751E+03  0.12493414751E+03  0.00000000000E+00 0. -1.
         -2   -1    0    0    0  501 -0.00000000000E+00 -0.00000000000E+00 -0.15426744937E+03  0.15426744937E+03  0.00000000000E+00 0.  1.
        -24    2    1    2    0    0 -0.59639158866E+02 -0.55811351559E+02 -0.81228981576E+02  0.14086024044E+03  0.81066168375E+02 0.  0.
         23    2    1    2    0    0  0.44058857875E+02  0.42806374883E+02  0.44418788180E+02  0.11671315484E+03  0.88743242457E+02 0.  0.
         11    1    3    3    0    0 -0.55464660332E+01  0.19607157977E+02 -0.25354491764E+02  0.32527744803E+02  0.00000000000E+00 0. -1.
        -12    1    3    3    0    0 -0.54092692833E+02 -0.75418509536E+02 -0.55874489813E+02  0.10833249563E+03  0.00000000000E+00 0.  1.
        -11    1    4    4    0    0  0.34866756063E+02 -0.30001397423E+00 -0.18825556404E+02  0.39625525367E+02  0.00000000000E+00 0.  1.
         11    1    4    4    0    0  0.91921018125E+01  0.43106388857E+02  0.63244344584E+02  0.77087629474E+02  0.00000000000E+00 0. -1.
         21    1    1    2  502  501  0.15580300991E+02  0.13004976677E+02  0.74768915343E+01  0.21628201597E+02  0.00000000000E+00 0. -1.
<scales pt_clust_5="13000.00000" pt_clust_6="13000.00000" pt_clust_7="13000.00000" pt_clust_8="13000.00000" pt_clust_9="20.29471"></scales>
<clustering>
<clus scale="   20.295">  1  9  2 -1</clus>
<clus scale="   81.066">  5  6 -1 -1</clus>
<clus scale="   88.743">  7  8 -1 -1</clus>
<clus scale="  111.263">  2  5  1 -1</clus>
<clus scale="   20.295">  1  5  2 -1</clus>
</clustering>
</event>
<event>
 9    1  0.2374319E-005  0.1123404E+03  0.7546771E-02  0.1261344E+00
         -2   -1    0    0    0  501 -0.00000000000E+00  0.00000000000E+00  0.29738965742E+03  0.29738965742E+03  0.00000000000E+00 0.  1.
          1   -1    0    0  502    0  0.00000000000E+00 -0.00000000000E+00 -0.65140245366E+02  0.65140245366E+02  0.00000000000E+00 0. -1.
        -24    2    1    2    0    0  0.45801039126E+02 -0.30600760073E+02  0.15396233399E+03  0.18194029770E+03  0.79772990030E+02 0.  0.
         23    2    1    2    0    0 -0.68038505123E+02  0.55702085417E+02  0.52567321345E+02  0.13832747885E+03  0.92947337952E+02 0.  0.
         11    1    3    3    0    0  0.33468727751E+02 -0.67968693256E+01  0.10118188765E+02  0.35619249203E+02  0.00000000000E+00 0. -1.
        -12    1    3    3    0    0  0.12332311375E+02 -0.23803890747E+02  0.14384414522E+03  0.14632104850E+03  0.00000000000E+00 0.  1.
        -11    1    4    4    0    0 -0.24527311893E+02 -0.95991708616E+01  0.53741795236E+02  0.59849090762E+02  0.00000000000E+00 0.  1.
         11    1    4    4    0    0 -0.43511193230E+02  0.65301256279E+02 -0.11744738905E+01  0.78478388087E+02  0.00000000000E+00 0. -1.
         21    1    1    2  502  501  0.22237465998E+02 -0.25101325344E+02  0.25719756718E+02  0.42262126232E+02  0.00000000000E+00 0.  1.
<scales pt_clust_5="13000.00000" pt_clust_6="13000.00000" pt_clust_7="13000.00000" pt_clust_8="13000.00000" pt_clust_9="33.53478"></scales>
<clustering>
<clus scale="   33.535">  2  9  1 -1</clus>
<clus scale="   79.773">  5  6 -1 -1</clus>
<clus scale="   92.947">  7  8 -1 -1</clus>
<clus scale="  101.710">  1  5  2 -1</clus>
<clus scale="   33.535">  2  5  1 -1</clus>
</clustering>
</event>
<event>
 9    1  0.2374319E-005  0.1754412E+03  0.7546771E-02  0.1174643E+00
         -2   -1    0    0    0  501 -0.00000000000E+00  0.00000000000E+00  0.94172924562E+02  0.94172924562E+02  0.00000000000E+00 0.  1.
          1   -1    0    0  502    0  0.00000000000E+00 -0.00000000000E+00 -0.94357954947E+03  0.94357954947E+03  0.00000000000E+00 0. -1.
         23    2    1    2    0    0 -0.58527494767E+02 -0.14597434877E+03 -0.35466078013E+02  0.18774443464E+03  0.96208897220E+02 0.  0.
        -24    2    1    2    0    0 -0.36646950201E+02  0.11618766058E+03 -0.50639352858E+03  0.52669613080E+03  0.78306046865E+02 0.  0.
         11    1    4    4    0    0 -0.57237181012E+02  0.10796087060E+03 -0.41238706530E+03  0.43011014415E+03  0.00000000000E+00 0. -1.
        -12    1    4    4    0    0  0.20590230811E+02  0.82267899782E+01 -0.94006463285E+02  0.96585986652E+02  0.00000000000E+00 0.  1.
        -11    1    3    3    0    0 -0.80162321348E+02 -0.13900539111E+03 -0.37919267427E+02  0.16488288984E+03  0.00000000000E+00 0.  1.
         11    1    3    3    0    0  0.21634826581E+02 -0.69689576680E+01  0.24531894132E+01  0.22861544796E+02  0.00000000000E+00 0. -1.
         21    1    1    2  502  501  0.95174444968E+02  0.29786688193E+02 -0.30754701831E+03  0.32331190860E+03  0.00000000000E+00 0. -1.
<scales pt_clust_5="13000.00000" pt_clust_6="13000.00000" pt_clust_7="13000.00000" pt_clust_8="13000.00000" pt_clust_9="99.72674"></scales>
<clustering>
<clus scale="   78.306">  5  6 -1 -1</clus>
<clus scale="   96.209">  7  8 -1 -1</clus>
<clus scale="   99.727">  2  9  1 -1</clus>
<clus scale="  166.299">  2  5  1 -1</clus>
<clus scale="   99.727">  2  5  1 -1</clus>
</clustering>
</event>
<event>
 9    1  0.2374319E-005  0.1588711E+03  0.7546771E-02  0.1190861E+00
         -2   -1    0    0    0  501 -0.00000000000E+00  0.00000000000E+00  0.27935875787E+03  0.27935875787E+03  0.00000000000E+00 0.  1.
          1   -1    0    0  502    0  0.00000000000E+00 -0.00000000000E+00 -0.18668168125E+03  0.18668168125E+03  0.00000000000E+00 0. -1.
        -24    2    1    2    0    0  0.51381819119E+02 -0.13399150752E+03  0.18755022453E+03  0.24977513549E+03  0.81355492526E+02 0.  0.
         23    2    1    2    0    0 -0.62810506584E+02  0.83581957439E+02 -0.42202262996E+02  0.14246855740E+03  0.87092798200E+02 0.  0.
         13    1    3    3    0    0 -0.21261731485E+02 -0.16940648805E+02  0.29625421277E+02  0.40208362234E+02  0.00000000000E+00 0. -1.
        -14    1    3    3    0    0  0.72643550604E+02 -0.11705085872E+03  0.15792480326E+03  0.20956677326E+03  0.00000000000E+00 0.  1.
        -13    1    4    4    0    0 -0.76332979437E+02  0.46929224246E+02 -0.50027857249E+02  0.10262486219E+03  0.00000000000E+00 0. -1.
         13    1    4    4    0    0  0.13522472853E+02  0.36652733193E+02  0.78255942530E+01  0.39843695210E+02  0.00000000000E+00 0.  1.
         21    1    1    2  502  501  0.11428687465E+02  0.50409550083E+02 -0.52670884920E+02  0.73796746236E+02  0.00000000000E+00 0. -1.
<scales pt_clust_5="13000.00000" pt_clust_6="13000.00000" pt_clust_7="13000.00000" pt_clust_8="13000.00000" pt_clust_9="51.68885"></scales>
<clustering>
<clus scale="   51.689">  2  9  1 -1</clus>
<clus scale="   81.355">  5  6 -1 -1</clus>
<clus scale="   87.093">  7  8 -1 -1</clus>
<clus scale="  155.800">  1  5  2 -1</clus>
<clus scale="   51.689">  2  5  1 -1</clus>
</clustering>
</event>
<event>
 9    1  0.2374319E-005  0.1148875E+03  0.7546771E-02  0.1257627E+00
         -2   -1    0    0    0  501 -0.00000000000E+00  0.00000000000E+00  0.48624708067E+03  0.48624708067E+03  0.00000000000E+00 0.  1.
          1   -1    0    0  502    0  0.00000000000E+00 -0.00000000000E+00 -0.14234977878E+03  0.14234977878E+03  0.00000000000E+00 0. -1.
        -24    2    1    2    0    0 -0.11480006893E+02 -0.67184973108E+02  0.41958788860E+03  0.43247821938E+03  0.79610318506E+02 0.  0.
         23    2    1    2    0    0 -0.22053469950E+02  0.37319897733E+02  0.39262199252E+01  0.10471156870E+03  0.95236374948E+02 0.  0.
         11    1    3    3    0    0 -0.23351645509E+02 -0.38213565812E+02  0.81920853884E+02  0.93362745574E+02  0.00000000000E+00 0. -1.
        -12    1    3    3    0    0  0.11871638616E+02 -0.28971407297E+02  0.33766703472E+03  0.33911547381E+03  0.00000000000E+00 0.  1.
        -13    1    4    4    0    0  0.26740827219E+02  0.59840305215E+00  0.28317127500E+02  0.38952402191E+02  0.00000000000E+00 0.  1.
         13    1    4    4    0    0 -0.48794297169E+02  0.36721494681E+02 -0.24390907575E+02  0.65759166510E+02  0.00000000000E+00 0. -1.
         21    1    1    2  502  501  0.33533476843E+02  0.29865075376E+02 -0.79616806631E+02  0.91407071359E+02  0.00000000000E+00 0. -1.
<scales pt_clust_5="13000.00000" pt_clust_6="13000.00000" pt_clust_7="13000.00000" pt_clust_8="13000.00000" pt_clust_9="44.90453"></scales>
<clustering>
<clus scale="   44.905">  2  9  1 -1</clus>
<clus scale="   79.610">  5  6 -1 -1</clus>
<clus scale="   95.236">  7  8 -1 -1</clus>
<clus scale="  102.308">  1  5  2 -1</clus>
<clus scale="   44.905">  2  5  1 -1</clus>
</clustering>
</event>
<event>
 9    1  0.2374319E-005  0.1487408E+03  0.7546771E-02  0.1202978E+00
          1   -1    0    0  502    0  0.00000000000E+00  0.00000000000E+00  0.21333133428E+03  0.21333133428E+03  0.00000000000E+00 0. -1.
         -2   -1    0    0    0  501 -0.00000000000E+00 -0.00000000000E+00 -0.22665790810E+03  0.22665790810E+03  0.00000000000E+00 0.  1.
         23    2    1    2    0    0  0.12259820859E+03  0.22198415624E+02 -0.16585563332E+03  0.22448239635E+03  0.85797230484E+02 0.  0.
        -24    2    1    2    0    0 -0.10255851623E+03 -0.21839926196E+02  0.13071333334E+03  0.18588179426E+03  0.80441496126E+02 0.  0.
         13    1    4    4    0    0 -0.10160347555E+03 -0.24606908990E+02  0.14080708176E+03  0.17537217706E+03  0.00000000000E+00 0. -1.
        -14    1    4    4    0    0 -0.95504067791E+00  0.27669827943E+01 -0.10093748422E+02  0.10509617200E+02  0.00000000000E+00 0.  1.
        -11    1    3    3    0    0  0.53193061018E+02 -0.28099608880E+01 -0.13113933709E+02  0.54857751303E+02  0.00000000000E+00 0. -1.
         11    1    3    3    0    0  0.69405147572E+02  0.25008376512E+02 -0.15274169961E+03  0.16962464504E+03  0.00000000000E+00 0.  1.
         21    1    1    2  502  501 -0.20039692362E+02 -0.35848942855E+00  0.21815726166E+02  0.29625051777E+02  0.00000000000E+00 0. -1.
<scales pt_clust_5="13000.00000" pt_clust_6="13000.00000" pt_clust_7="13000.00000" pt_clust_8="13000.00000" pt_clust_9="20.04290"></scales>
<clustering>
<clus scale="   20.043">  1  9  2 -1</clus>
<clus scale="   80.441">  5  6 -1 -1</clus>
<clus scale="   85.797">  7  8 -1 -1</clus>
<clus scale="  145.717">  1  5  2 -1</clus>
<clus scale="   20.043">  1  5  2 -1</clus>
</clustering>
</event>
<event>
 9    1  0.2374319E-005  0.9095374E+02  0.7546771E-02  0.1303181E+00
         -2   -1    0    0    0  501 -0.00000000000E+00  0.00000000000E+00  0.15448011760E+03  0.15448011760E+03  0.00000000000E+00 0.  1.
          1   -1    0    0  502    0  0.00000000000E+00 -0.00000000000E+00 -0.17806986033E+03  0.17806986033E+03  0.00000000000E+00 0. -1.
         23    2    1    2    0    0  0.36987937031E+02  0.95867816124E+01  0.11214429928E+03  0.14478343538E+03  0.83221904767E+02 0.  0.
        -24    2    1    2    0    0 -0.13675097234E+02 -0.19158414736E+02 -0.13484110657E+03  0.16254944530E+03  0.87670662176E+02 0.  0.
         11    1    4    4    0    0 -0.31923392020E+02  0.66931394723E+01 -0.12533400659E+03  0.12950874210E+03  0.00000000000E+00 0. -1.
        -12    1    4    4    0    0  0.18248294786E+02 -0.25851554208E+02 -0.95070999834E+01  0.33040703196E+02  0.00000000000E+00 0.  1.
        -13    1    3    3    0    0  0.42662213680E+02  0.34639646273E+02  0.39350155759E+02  0.67589972098E+02  0.00000000000E+00 0. -1.
         13    1    3    3    0    0 -0.56742766486E+01 -0.25052864661E+02  0.72794143516E+02  0.77193463282E+02  0.00000000000E+00 0.  1.
         21    1    1    2  502  501 -0.23312839797E+02  0.95716331238E+01 -0.89293544007E+00  0.25217097251E+02  0.00000000000E+00 0.  1.
<scales pt_clust_5="13000.00000" pt_clust_6="13000.00000" pt_clust_7="13000.00000" pt_clust_8="13000.00000" pt_clust_9="25.20128"></scales>
<clustering>
<clus scale="   25.201">  1  9  2 -1</clus>
<clus scale="   83.222">  7  8 -1 -1</clus>
<clus scale="   86.674">  1  7  2 -1</clus>
<clus scale="   87.671">  5  6 -1 -1</clus>
<clus scale="   90.954">  2  5  1 -1</clus>
</clustering>
</event>
<event>
 9    1  0.2374319E-005  0.1159301E+03  0.7546771E-02  0.1254807E+00
          1   -1    0    0  502    0  0.00000000000E+00  0.00000000000E+00  0.19212784968E+03  0.19212784968E+03  0.00000000000E+00 0. -1.
         -2   -1    0    0    0  501 -0.00000000000E+00 -0.00000000000E+00 -0.66764718221E+03  0.66764718221E+03  0.00000000000E+00 0.  1.
        -24    2    1    2    0    0 -0.19613648980E+02 -0.63966036215E+02 -0.50790484314E+03  0.51844611533E+03  0.79641043461E+02 0.  0.
         23    2    1    2    0    0  0.51345801186E+02  0.64968163690E+02 -0.12747872024E+03  0.17834270228E+03  0.93263292614E+02 0.  0.
         11    1    3    3    0    0 -0.47521593461E+01 -0.32723761880E+02 -0.54667436511E+02  0.63890188798E+02  0.00000000000E+00 0. -1.
        -12    1    3    3    0    0 -0.14861489634E+02 -0.31242274335E+02 -0.45323740662E+03  0.45455592653E+03  0.00000000000E+00 0.  1.
        -11    1    4    4    0    0  0.12119149914E+02  0.18901778216E+02 -0.11421492804E+03  0.11640103436E+03  0.00000000000E+00 0.  1.
         11    1    4    4    0    0  0.39226651272E+02  0.46066385474E+02 -0.13263792206E+02  0.61941667917E+02  0.00000000000E+00 0. -1.
         21    1    1    2  502  501 -0.31732152205E+02 -0.10021274750E+01  0.15986423084E+03  0.16298621428E+03  0.00000000000E+00 0. -1.
<scales pt_clust_5="13000.00000" pt_clust_6="13000.00000" pt_clust_7="13000.00000" pt_clust_8="13000.00000" pt_clust_9="31.74797"></scales>
<clustering>
<clus scale="   31.748">  1  9  2 -1</clus>
<clus scale="   79.641">  5  6 -1 -1</clus>
<clus scale="   93.263">  7  8 -1 -1</clus>
<clus scale="  105.283">  2  5  1 -1</clus>
<clus scale="   31.748">  1  5  2 -1</clus>
</clustering>
</event>
<event>
 9    1  0.2374319E-005  0.1289036E+03  0.7546771E-02  0.1234717E+00
          1   -1    0    0  502    0  0.00000000000E+00  0.00000000000E+00  0.17167186954E+03  0.17167186954E+03  0.00000000000E+00 0. -1.
         -2   -1    0    0    0  501 -0.00000000000E+00 -0.00000000000E+00 -0.13376727481E+03  0.13376727481E+03  0.00000000000E+00 0.  1.
        -24    2    1    2    0    0 -0.59512565883E+02 -0.95668360705E+01 -0.45773641280E+02  0.10986662074E+03  0.79637794202E+02 0.  0.
         23    2    1    2    0    0  0.92096565453E+02  0.15088152640E+02  0.88417174309E+02  0.16218600686E+03  0.98880101081E+02 0.  0.
         13    1    3    3    0    0 -0.51405149422E+02 -0.42040270700E+02 -0.30502616870E+02  0.73077242583E+02  0.00000000000E+00 0. -1.
        -14    1    3    3    0    0 -0.81074164608E+01  0.32473434629E+02 -0.15271024409E+02  0.36789378152E+02  0.00000000000E+00 0.  1.
        -13    1    4    4    0    0  0.11128360529E+03  0.31466903259E+01  0.83225046179E+02  0.13899766465E+03  0.00000000000E+00 0.  1.
         13    1    4    4    0    0 -0.19187039837E+02  0.11941462314E+02  0.51921281300E+01  0.23188342210E+02  0.00000000000E+00 0. -1.
         21    1    1    2  502  501 -0.32583999570E+02 -0.55213165693E+01 -0.47389383054E+01  0.33386516753E+02  0.00000000000E+00 0. -1.
<scales pt_clust_5="13000.00000" pt_clust_6="13000.00000" pt_clust_7="13000.00000" pt_clust_8="13000.00000" pt_clust_9="33.04848"></scales>
<clustering>
<clus scale="   33.048">  2  9  1 -1</clus>
<clus scale="   79.638">  5  6 -1 -1</clus>
<clus scale="   98.880">  7  8 -1 -1</clus>
<clus scale="  114.809">  2  5  1 -1</clus>
<clus scale="  128.904">  1  5  2 -1</clus>
</clustering>
</event>
<event>
 9    1  0.2374319E-005  0.2016873E+03  0.7546771E-02  0.1149473E+00
         -4   -1    0    0    0  501 -0.00000000000E+00  0.00000000000E+00  0.13373410796E+03  0.13373410796E+03  0.00000000000E+00 0.  1.
          3   -1    0    0  502    0  0.00000000000E+00 -0.00000000000E+00 -0.35056730865E+03  0.35056730865E+03  0.00000000000E+00 0. -1.
        -24    2    1    2    0    0 -0.28051025173E+01  0.18288397224E+03 -0.51005765911E+02  0.20612209313E+03  0.80189233782E+02 0.  0.
         23    2    1    2    0    0 -0.20989525886E+02 -0.17314820851E+03 -0.14367359159E+03  0.24424170124E+03  0.92687892385E+02 0.  0.
         13    1    3    3    0    0 -0.17849477495E+02  0.17115362777E+03 -0.63380664056E+02  0.18338286922E+03  0.00000000000E+00 0. -1.
        -14    1    3    3    0    0  0.15044374977E+02  0.11730344474E+02  0.12374898145E+02  0.22739223910E+02  0.00000000000E+00 0.  1.
        -11    1    4    4    0    0  0.27101327888E+02 -0.10895213582E+03 -0.56177084285E+02  0.12554248154E+03  0.00000000000E+00 0.  1.
         11    1    4    4    0    0 -0.48090853774E+02 -0.64196072698E+02 -0.87496507305E+02  0.11869921970E+03  0.00000000000E+00 0. -1.
         21    1    1    2  502  501  0.23794628403E+02 -0.97357637297E+01 -0.22153843189E+02  0.33937622254E+02  0.00000000000E+00 0. -1.
<scales pt_clust_5="13000.00000" pt_clust_6="13000.00000" pt_clust_7="13000.00000" pt_clust_8="13000.00000" pt_clust_9="25.70933"></scales>
<clustering>
<clus scale="   25.709">  2  9  1 -1</clus>
<clus scale="   80.189">  5  6 -1 -1</clus>
<clus scale="   92.688">  7  8 -1 -1</clus>
<clus scale="  196.258">  1  5  2 -1</clus>
<clus scale="   25.709">  2  5  1 -1</clus>
</clustering>
</event>
<event>
 9    1  0.2374319E-005  0.9216369E+02  0.7546771E-02  0.1304871E+00
         -2   -1    0    0    0  501 -0.00000000000E+00  0.00000000000E+00  0.95811766768E+02  0.95811766768E+02  0.00000000000E+00 0.  1.
          1   -1    0    0  502    0  0.00000000000E+00 -0.00000000000E+00 -0.38125566190E+03  0.38125566190E+03  0.00000000000E+00 0. -1.
        -24    2    1    2    0    0 -0.19374890259E+01 -0.17565215989E+02  0.49519691561E+02  0.95811735673E+02  0.80096180708E+02 0.  0.
         23    2    1    2    0    0 -0.23968975741E+02 -0.51446885340E+02 -0.18309393447E+03  0.21244157536E+03  0.91579147693E+02 0.  0.
         11    1    3    3    0    0 -0.27045629643E+02  0.17970771942E+01 -0.95762974001E+01  0.28747191882E+02  0.00000000000E+00 0. -1.
        -12    1    3    3    0    0  0.25108140617E+02 -0.19362293183E+02  0.59095988961E+02  0.67064543791E+02  0.00000000000E+00 0.  1.
        -13    1    4    4    0    0 -0.72559060964E+01 -0.71046969816E+02 -0.84986896315E+02  0.11100942590E+03  0.00000000000E+00 0.  1.
         13    1    4    4    0    0 -0.16713069645E+02  0.19600084477E+02 -0.98107038155E+02  0.10143214946E+03  0.00000000000E+00 0. -1.
         21    1    1    2  502  501  0.25906464767E+02  0.69012101329E+02 -0.15186965222E+03  0.16881411764E+03  0.00000000000E+00 0. -1.
<scales pt_clust_5="13000.00000" pt_clust_6="13000.00000" pt_clust_7="13000.00000" pt_clust_8="13000.00000" pt_clust_9="73.71442"></scales>
<clustering>
<clus scale="   73.714">  2  9  1 -1</clus>
<clus scale="   80.096">  5  6 -1 -1</clus>
<clus scale="   80.764">  1  5  2 -1</clus>
<clus scale="   91.579">  7  8 -1 -1</clus>
<clus scale="   73.714">  2  5  1 -1</clus>
</clustering>
</event>
<event>
 9    1  0.2374319E-005  0.9706764E+02  0.7546771E-02  0.1297695E+00
          1   -1    0    0  502    0  0.00000000000E+00  0.00000000000E+00  0.29338765747E+03  0.29338765747E+03  0.00000000000E+00 0. -1.
         -2   -1    0    0    0  501 -0.00000000000E+00 -0.00000000000E+00 -0.20815953408E+03  0.20815953408E+03  0.00000000000E+00 0.  1.
         23    2    1    2    0    0 -0.11996456319E+02  0.32663062646E+02 -0.18670972740E+03  0.21053076849E+03  0.90839922677E+02 0.  0.
        -24    2    1    2    0    0 -0.11252793391E+02 -0.30236514655E+02  0.18088869359E+03  0.19701448279E+03  0.71085264178E+02 0.  0.
         13    1    4    4    0    0  0.13974394384E+02 -0.23547061746E+02  0.16321140293E+03  0.16549232569E+03  0.00000000000E+00 0. -1.
        -14    1    4    4    0    0 -0.25227187775E+02 -0.66894529096E+01  0.17677290656E+02  0.31522157099E+02  0.00000000000E+00 0.  1.
        -11    1    3    3    0    0  0.24634635204E+02  0.14504936828E+02 -0.15801788698E+03  0.16058303475E+03  0.00000000000E+00 0.  1.
         11    1    3    3    0    0 -0.36631091523E+02  0.18158125818E+02 -0.28691840415E+02  0.49947733740E+02  0.00000000000E+00 0. -1.
         21    1    1    2  502  501  0.23249249711E+02 -0.24265479909E+01  0.91049157195E+02  0.94001940263E+02  0.00000000000E+00 0. -1.
<scales pt_clust_5="13000.00000" pt_clust_6="13000.00000" pt_clust_7="13000.00000" pt_clust_8="13000.00000" pt_clust_9="23.37554"></scales>
<clustering>
<clus scale="   23.376">  1  9  2 -1</clus>
<clus scale="   71.085">  5  6 -1 -1</clus>
<clus scale="   78.888">  1  5  2 -1</clus>
<clus scale="   90.840">  7  8 -1 -1</clus>
<clus scale="   23.376">  1  5  2 -1</clus>
</clustering>
</event>
<event>
 9    1  0.2374319E-005  0.1242032E+03  0.7546771E-02  0.1238941E+00
          1   -1    0    0  502    0  0.00000000000E+00  0.00000000000E+00  0.21392459344E+03  0.21392459344E+03  0.00000000000E+00 0. -1.
         -2   -1    0    0    0  501 -0.00000000000E+00 -0.00000000000E+00 -0.15566268171E+03  0.15566268171E+03  0.00000000000E+00 0.  1.
        -24    2    1    2    0    0 -0.60577150153E+02 -0.58008217336E+02 -0.94994239261E+02  0.15017104127E+03  0.80578481888E+02 0.  0.
         23    2    1    2    0    0  0.80617842016E+02  0.54307311213E+02  0.11178615090E+03  0.17320923285E+03  0.89759536030E+02 0.  0.
         13    1    3    3    0    0 -0.46558896913E+02 -0.31349639488E+01 -0.95034243357E+01  0.47622200231E+02  0.00000000000E+00 0. -1.
        -14    1    3    3    0    0 -0.14018253239E+02 -0.54873253387E+02 -0.85490814926E+02  0.10254884104E+03  0.00000000000E+00 0.  1.
        -13    1    4    4    0    0  0.49949981057E+02 -0.82103652317E+01  0.12852502892E+02  0.52226406496E+02  0.00000000000E+00 0.  1.
         13    1    4    4    0    0  0.30667860958E+02  0.62517676445E+02  0.98933648012E+02  0.12098282635E+03  0.00000000000E+00 0. -1.
         21    1    1    2  502  501 -0.20040691863E+02  0.37009061223E+01  0.41470000091E+02  0.46207001028E+02  0.00000000000E+00 0.  1.
<scales pt_clust_5="13000.00000" pt_clust_6="13000.00000" pt_clust_7="13000.00000" pt_clust_8="13000.00000" pt_clust_9="20.37955"></scales>
<clustering>
<clus scale="   20.380">  1  9  2 -1</clus>
<clus scale="   80.578">  5  6 -1 -1</clus>
<clus scale="   89.760">  7  8 -1 -1</clus>
<clus scale="  117.739">  2  5  1 -1</clus>
<clus scale="   20.380">  1  5  2 -1</clus>
</clustering>
</event>
<event>
 9    1  0.2374319E-005  0.1292649E+03  0.7546771E-02  0.1228900E+00
         -2   -1    0    0    0  501 -0.00000000000E+00  0.00000000000E+00  0.23082073497E+03  0.23082073497E+03  0.00000000000E+00 0.  1.
          1   -1    0    0  502    0  0.00000000000E+00 -0.00000000000E+00 -0.55070894489E+03  0.55070894489E+03  0.00000000000E+00 0. -1.
        -24    2    1    2    0    0 -0.26116490188E+01  0.99471307512E+02  0.19840385796E+03  0.23603805156E+03  0.80302610162E+02 0.  0.
         23    2    1    2    0    0 -0.16730708991E+02 -0.11574499490E+03 -0.46685771404E+03  0.48818148549E+03  0.81781520813E+02 0.  0.
         13    1    3    3    0    0 -0.40869795244E+02  0.57541407827E+02  0.99236743635E+02  0.12177555200E+03  0.00000000000E+00 0. -1.
        -14    1    3    3    0    0  0.38258146225E+02  0.41929899685E+02  0.99167114328E+02  0.11426249955E+03  0.00000000000E+00 0.  1.
        -11    1    4    4    0    0 -0.46474904553E+02 -0.92260292482E+02 -0.30788182434E+03  0.32475082152E+03  0.00000000000E+00 0. -1.
         11    1    4    4    0    0  0.29744195563E+02 -0.23484702417E+02 -0.15897588971E+03  0.16343066397E+03  0.00000000000E+00 0.  1.
         21    1    1    2  502  501  0.19342358009E+02  0.16273687387E+02 -0.51434353836E+02  0.57310142812E+02  0.00000000000E+00 0.  1.
<scales pt_clust_5="13000.00000" pt_clust_6="13000.00000" pt_clust_7="13000.00000" pt_clust_8="13000.00000" pt_clust_9="25.27765"></scales>
<clustering>
<clus scale="   25.278">  2  9  1 -1</clus>
<clus scale="   80.303">  5  6 -1 -1</clus>
<clus scale="   81.782">  7  8 -1 -1</clus>
<clus scale="  128.334">  1  5  2 -1</clus>
<clus scale="   25.278">  2  5  1 -1</clus>
</clustering>
</event>
<event>
 9    1  0.2374319E-005  0.2669833E+03  0.7546771E-02  0.1103574E+00
          1   -1    0    0  502    0  0.00000000000E+00  0.00000000000E+00  0.50793210216E+03  0.50793210216E+03  0.00000000000E+00 0. -1.
         -2   -1    0    0    0  501 -0.00000000000E+00 -0.00000000000E+00 -0.38187493215E+03  0.38187493215E+03  0.00000000000E+00 0.  1.
        -24    2    1    2    0    0 -0.22954398688E+03  0.96843542423E+02 -0.22262787763E+03  0.34318789746E+03  0.78394179869E+02 0.  0.
         23    2    1    2    0    0  0.25427306412E+03 -0.61532421762E+00  0.35632949878E+03  0.44697058005E+03  0.90315103752E+02 0.  0.
         11    1    3    3    0    0 -0.12374562613E+03  0.10771166890E+02 -0.94741181858E+02  0.15622064384E+03  0.00000000000E+00 0. -1.
        -12    1    3    3    0    0 -0.10579836076E+03  0.86072375533E+02 -0.12788669578E+03  0.18696725362E+03  0.00000000000E+00 0.  1.
        -11    1    4    4    0    0  0.16748291574E+03 -0.10258243270E+02  0.15891757337E+03  0.23110723430E+03  0.00000000000E+00 0.  1.
         11    1    4    4    0    0  0.86790148384E+02  0.96429190528E+01  0.19741192541E+03  0.21586334575E+03  0.00000000000E+00 0. -1.
         21    1    1    2  502  501 -0.24729077241E+02 -0.96228218205E+02 -0.76444511363E+01  0.99648556805E+02  0.00000000000E+00 0.  1.
<scales pt_clust_5="13000.00000" pt_clust_6="13000.00000" pt_clust_7="13000.00000" pt_clust_8="13000.00000" pt_clust_9="99.35491"></scales>
<clustering>
<clus scale="   78.394">  5  6 -1 -1</clus>
<clus scale="   90.315">  7  8 -1 -1</clus>
<clus scale="   99.355">  2  9  1 -1</clus>
<clus scale="  263.190">  2  5  1 -1</clus>
<clus scale="  266.983">  1  5  2 -1</clus>
</clustering>
</event>
<event>
 9    1  0.2374319E-005  0.9730674E+02  0.7546771E-02  0.1294002E+00
         -2   -1    0    0    0  501 -0.00000000000E+00  0.00000000000E+00  0.97450664574E+02  0.97450664574E+02  0.00000000000E+00 0.  1.
          1   -1    0    0  502    0  0.00000000000E+00 -0.00000000000E+00 -0.15653373039E+03  0.15653373039E+03  0.00000000000E+00 0. -1.
        -24    2    1    2    0    0  0.62924220173E+01 -0.27047391898E+02  0.25642289874E+02  0.88451938762E+02  0.79969134405E+02 0.  0.
         23    2    1    2    0    0 -0.38401263960E+02  0.22025109871E+01 -0.58187703590E+02  0.11702995300E+03  0.93971766616E+02 0.  0.
         13    1    3    3    0    0  0.31003424881E+02  0.13598387181E+02 -0.11186510069E+01  0.33872996153E+02  0.00000000000E+00 0. -1.
        -14    1    3    3    0    0 -0.24711002864E+02 -0.40645779079E+02  0.26760940881E+02  0.54578942609E+02  0.00000000000E+00 0.  1.
        -13    1    4    4    0    0  0.22044830223E+02  0.37678442327E+01  0.11183850847E+02  0.25004993691E+02  0.00000000000E+00 0. -1.
         13    1    4    4    0    0 -0.60446094183E+02 -0.15653332456E+01 -0.69371554437E+02  0.92024959305E+02  0.00000000000E+00 0.  1.
         21    1    1    2  502  501  0.32108841942E+02  0.24844880911E+02 -0.26537652102E+02  0.48502503208E+02  0.00000000000E+00 0. -1.
<scales pt_clust_5="13000.00000" pt_clust_6="13000.00000" pt_clust_7="13000.00000" pt_clust_8="13000.00000" pt_clust_9="40.59859"></scales>
<clustering>
<clus scale="   40.599">  2  9  1 -1</clus>
<clus scale="   79.969">  5  6 -1 -1</clus>
<clus scale="   83.863">  1  5  2 -1</clus>
<clus scale="   93.972">  7  8 -1 -1</clus>
<clus scale="   40.599">  2  5  1 -1</clus>
</clustering>
</event>
<event>
 9    1  0.2374319E-005  0.1001754E+03  0.7546771E-02  0.1285887E+00
          3   -1    0    0  502    0  0.00000000000E+00  0.00000000000E+00  0.27133388728E+03  0.27133388728E+03  0.00000000000E+00 0. -1.
         -4   -1    0    0    0  501 -0.00000000000E+00 -0.00000000000E+00 -0.10131573073E+03  0.10131573073E+03  0.00000000000E+00 0.  1.
         23    2    1    2    0    0  0.43131053420E+02 -0.10627628941E+02 -0.41131636502E+02  0.10968090016E+03  0.91459576169E+02 0.  0.
        -24    2    1    2    0    0 -0.10476724956E+02  0.51836714505E+02  0.91647288494E+02  0.13241090500E+03  0.79602861373E+02 0.  0.
         13    1    4    4    0    0 -0.26002523275E+02  0.27373540321E+02  0.95957656874E+02  0.10311796080E+03  0.00000000000E+00 0. -1.
        -14    1    4    4    0    0  0.15525798319E+02  0.24463174184E+02 -0.43103683801E+01  0.29292944204E+02  0.00000000000E+00 0.  1.
        -13    1    3    3    0    0  0.35996251286E+01 -0.31580194472E+02 -0.54407927338E+02  0.63011812712E+02  0.00000000000E+00 0.  1.
         13    1    3    3    0    0  0.39531428292E+02  0.20952565531E+02  0.13276290836E+02  0.46669087451E+02  0.00000000000E+00 0. -1.
         21    1    1    2  502  501 -0.32654328464E+02 -0.41209085564E+02  0.11950250455E+03  0.13055781285E+03  0.00000000000E+00 0. -1.
<scales pt_clust_5="13000.00000" pt_clust_6="13000.00000" pt_clust_7="13000.00000" pt_clust_8="13000.00000" pt_clust_9="52.57845"></scales>
<clustering>
<clus scale="   52.578">  1  9  2 -1</clus>
<clus scale="   79.603">  5  6 -1 -1</clus>
<clus scale="   89.481">  1  5  2 -1</clus>
<clus scale="   91.460">  7  8 -1 -1</clus>
<clus scale="   52.578">  1  5  2 -1</clus>
</clustering>
</event>
<event>
 9    1  0.2374319E-005  0.1298276E+03  0.7546771E-02  0.1233514E+00
         -2   -1    0    0    0  501 -0.00000000000E+00  0.00000000000E+00  0.28583851859E+02  0.28583851859E+02  0.00000000000E+00 0.  1.
          1   -1    0    0  502    0  0.00000000000E+00 -0.00000000000E+00 -0.86936419408E+03  0.86936419408E+03  0.00000000000E+00 0. -1.
        -24    2    1    2    0    0  0.63526568990E+02 -0.44820995868E+02 -0.15918566791E+03  0.19477192660E+03  0.80941212526E+02 0.  0.
         23    2    1    2    0    0 -0.92951450970E+02  0.31729675837E+02 -0.55627061761E+03  0.57378011659E+03  0.10069695928E+03 0.  0.
         13    1    3    3    0    0  0.39445857575E+01 -0.36065415654E+02 -0.11356983345E+03  0.11922407909E+03  0.00000000000E+00 0. -1.
        -14    1    3    3    0    0  0.59581983233E+02 -0.87555802139E+01 -0.45615834454E+02  0.75547847513E+02  0.00000000000E+00 0.  1.
        -11    1    4    4    0    0 -0.10781293320E+03  0.24703884028E+01 -0.42880242285E+03  0.44215523204E+03  0.00000000000E+00 0. -1.
         11    1    4    4    0    0  0.14861482228E+02  0.29259287434E+02 -0.12746819476E+03  0.13162488454E+03  0.00000000000E+00 0.  1.
         21    1    1    2  502  501  0.29424881980E+02  0.13091320031E+02 -0.12532405670E+03  0.12939600275E+03  0.00000000000E+00 0.  1.
<scales pt_clust_5="13000.00000" pt_clust_6="13000.00000" pt_clust_7="13000.00000" pt_clust_8="13000.00000" pt_clust_9="32.20569"></scales>
<clustering>
<clus scale="   32.206">  2  9  1 -1</clus>
<clus scale="   80.941">  5  6 -1 -1</clus>
<clus scale="  100.697">  7  8 -1 -1</clus>
<clus scale="  115.182">  1  5  2 -1</clus>
<clus scale="   32.206">  2  5  1 -1</clus>
</clustering>
</event>
<event>
 9    1  0.2374319E-005  0.1101016E+03  0.7546771E-02  0.1265219E+00
          1   -1    0    0  502    0  0.00000000000E+00  0.00000000000E+00  0.70852056117E+02  0.70852056117E+02  0.00000000000E+00 0. -1.
         -2   -1    0    0    0  501 -0.00000000000E+00 -0.00000000000E+00 -0.25645879361E+03  0.25645879361E+03  0.00000000000E+00 0.  1.
        -24    2    1    2    0    0 -0.65920988711E+02  0.89649143864E+01 -0.13120784226E+03  0.16737168082E+03  0.79823776071E+02 0.  0.
         23    2    1    2    0    0  0.49907770453E+02  0.27675239204E+02 -0.51408056181E+02  0.11984092540E+03  0.91991057957E+02 0.  0.
         11    1    3    3    0    0 -0.66699884265E+02  0.30360746667E+02 -0.12530651319E+03  0.14516325894E+03  0.00000000000E+00 0. -1.
        -12    1    3    3    0    0  0.77889555380E+00 -0.21395832281E+02 -0.59013290687E+01  0.22208421872E+02  0.00000000000E+00 0.  1.
        -13    1    4    4    0    0  0.22732729841E+02  0.56900098036E+02 -0.95589908070E+01  0.62014292448E+02  0.00000000000E+00 0. -1.
         13    1    4    4    0    0  0.27175040613E+02 -0.29224858832E+02 -0.41849065374E+02  0.57826632954E+02  0.00000000000E+00 0.  1.
         21    1    1    2  502  501  0.16013218258E+02 -0.36640153591E+02 -0.29908390496E+01  0.40098243507E+02  0.00000000000E+00 0. -1.
<scales pt_clust_5="13000.00000" pt_clust_6="13000.00000" pt_clust_7="13000.00000" pt_clust_8="13000.00000" pt_clust_9="39.98655"></scales>
<clustering>
<clus scale="   39.987">  1  9  2 -1</clus>
<clus scale="   79.824">  5  6 -1 -1</clus>
<clus scale="   91.991">  7  8 -1 -1</clus>
<clus scale="  100.159">  2  5  1 -1</clus>
<clus scale="   39.987">  1  5  2 -1</clus>
</clustering>
</event>
<event>
 9    1  0.2374319E-005  0.9191759E+02  0.7546771E-02  0.1303538E+00
          1   -1    0    0  502    0  0.00000000000E+00  0.00000000000E+00  0.22854268095E+03  0.22854268095E+03  0.00000000000E+00 0. -1.
         -2   -1    0    0    0  501 -0.00000000000E+00 -0.00000000000E+00 -0.12779918378E+03  0.12779918378E+03  0.00000000000E+00 0.  1.
        -24    2    1    2    0    0 -0.13193076739E+02  0.10426160644E+02 -0.76835013069E+02  0.11142811404E+03  0.78929356167E+02 0.  0.
         23    2    1    2    0    0 -0.22537121529E+02  0.23525694193E+02  0.17126511696E+03  0.19522235858E+03  0.87855841395E+02 0.  0.
         13    1    3    3    0    0 -0.45242543839E+02  0.88688596710E+01 -0.58459557103E+02  0.74451757948E+02  0.00000000000E+00 0. -1.
        -14    1    3    3    0    0  0.32049467099E+02  0.15573009735E+01 -0.18375455966E+02  0.36976356089E+02  0.00000000000E+00 0.  1.
        -13    1    4    4    0    0 -0.50032696017E+02  0.37501908614E+02  0.12219619933E+03  0.13726461653E+03  0.00000000000E+00 0.  1.
         13    1    4    4    0    0  0.27495574487E+02 -0.13976214421E+02  0.49068917634E+02  0.57957742051E+02  0.00000000000E+00 0. -1.
         21    1    1    2  502  501  0.35730198268E+02 -0.33951854838E+02  0.63133932845E+01  0.49691392112E+02  0.00000000000E+00 0. -1.
<scales pt_clust_5="13000.00000" pt_clust_6="13000.00000" pt_clust_7="13000.00000" pt_clust_8="13000.00000" pt_clust_9="49.28870"></scales>
<clustering>
<clus scale="   49.289">  2  9  1 -1</clus>
<clus scale="   78.929">  5  6 -1 -1</clus>
<clus scale="   83.427">  2  5  1 -1</clus>
<clus scale="   87.856">  7  8 -1 -1</clus>
<clus scale="   91.918">  1  5  2 -1</clus>
</clustering>
</event>
<event>
 9    1  0.2374319E-005  0.1180855E+03  0.7546771E-02  0.1246509E+00
         -2   -1    0    0    0  501 -0.00000000000E+00  0.00000000000E+00  0.23189613051E+03  0.23189613051E+03  0.00000000000E+00 0.  1.
          1   -1    0    0  502    0  0.00000000000E+00 -0.00000000000E+00 -0.13035633598E+03  0.13035633598E+03  0.00000000000E+00 0. -1.
        -24    2    1    2    0    0 -0.67492772939E+02  0.38559545461E+02  0.17500104552E+03  0.21187654636E+03  0.90687331075E+02 0.  0.
         23    2    1    2    0    0  0.46477847463E+02 -0.39890211091E+02 -0.58853852331E+02  0.12474832056E+03  0.91361634741E+02 0.  0.
         11    1    3    3    0    0  0.91628682631E+01  0.41614212366E+02  0.58102401425E+02  0.72052688201E+02  0.00000000000E+00 0. -1.
        -12    1    3    3    0    0 -0.76655641202E+02 -0.30546669049E+01  0.11689864410E+03  0.13982385816E+03  0.00000000000E+00 0.  1.
        -13    1    4    4    0    0  0.26965780041E+02 -0.67937192711E+02 -0.26659184226E+02  0.77803133293E+02  0.00000000000E+00 0. -1.
         13    1    4    4    0    0  0.19512067422E+02  0.28046981620E+02 -0.32194668105E+02  0.46945187266E+02  0.00000000000E+00 0.  1.
         21    1    1    2  502  501  0.21014925476E+02  0.13306656298E+01 -0.14607398665E+02  0.25627599566E+02  0.00000000000E+00 0. -1.
<scales pt_clust_5="13000.00000" pt_clust_6="13000.00000" pt_clust_7="13000.00000" pt_clust_8="13000.00000" pt_clust_9="21.05701"></scales>
<clustering>
<clus scale="   21.057">  2  9  1 -1</clus>
<clus scale="   90.687">  5  6 -1 -1</clus>
<clus scale="   91.362">  7  8 -1 -1</clus>
<clus scale="  117.565">  1  5  2 -1</clus>
<clus scale="   21.057">  2  5  1 -1</clus>
</clustering>
</event>
<event>
 9    1  0.2374319E-005  0.1113192E+03  0.7546771E-02  0.1262566E+00
          1   -1    0    0  502    0  0.00000000000E+00  0.00000000000E+00  0.63918123261E+03  0.63918123261E+03  0.00000000000E+00 0. -1.
         -2   -1    0    0    0  501 -0.00000000000E+00 -0.00000000000E+00 -0.62639472506E+02  0.62639472506E+02  0.00000000000E+00 0.  1.
         23    2    1    2    0    0 -0.50241778441E+02 -0.15217816509E+02  0.23399491366E+02  0.10785887368E+03  0.91269831788E+02 0.  0.
        -24    2    1    2    0    0  0.99191403835E+02  0.52928180975E+02  0.25887958246E+03  0.29328149295E+03  0.79718686389E+02 0.  0.
         11    1    4    4    0    0  0.11139373483E+03  0.48859889050E+02  0.20948066902E+03  0.24223543013E+03  0.00000000000E+00 0. -1.
        -12    1    4    4    0    0 -0.12202330996E+02  0.40682919254E+01  0.49398913434E+02  0.51046062820E+02  0.00000000000E+00 0.  1.
        -13    1    3    3    0    0 -0.53795415215E+02 -0.42075329111E+02  0.36859998800E+02  0.77607599690E+02  0.00000000000E+00 0.  1.
         13    1    3    3    0    0  0.35536367746E+01  0.26857512602E+02 -0.13460507434E+02  0.30251273988E+02  0.00000000000E+00 0. -1.
         21    1    1    2  502  501 -0.48949625394E+02 -0.37710364466E+02  0.29426268628E+03  0.30068033849E+03  0.00000000000E+00 0.  1.
<scales pt_clust_5="13000.00000" pt_clust_6="13000.00000" pt_clust_7="13000.00000" pt_clust_8="13000.00000" pt_clust_9="61.79108"></scales>
<clustering>
<clus scale="   61.791">  1  9  2 -1</clus>
<clus scale="   79.719">  5  6 -1 -1</clus>
<clus scale="   91.270">  7  8 -1 -1</clus>
<clus scale="  102.063">  1  5  2 -1</clus>
<clus scale="   61.791">  1  5  2 -1</clus>
</clustering>
</event>
<event>
 9    1  0.2374319E-005  0.1090667E+03  0.7546771E-02  0.1266420E+00
          3   -1    0    0  502    0  0.00000000000E+00  0.00000000000E+00  0.85494279593E+02  0.85494279593E+02  0.00000000000E+00 0. -1.
         -4   -1    0    0    0  501 -0.00000000000E+00 -0.00000000000E+00 -0.85768378948E+03  0.85768378948E+03  0.00000000000E+00 0.  1.
        -24    2    1    2    0    0 -0.27236797327E+02 -0.50921309936E+02 -0.76712302089E+03  0.77358051822E+03  0.81328138124E+02 0.  0.
         23    2    1    2    0    0  0.57238112535E+02  0.63483916264E+02 -0.29801654971E+02  0.12873526473E+03  0.91532620385E+02 0.  0.
         11    1    3    3    0    0  0.98073074871E+01 -0.51731456830E+02 -0.27047762412E+03  0.27555484401E+03  0.00000000000E+00 0. -1.
        -12    1    3    3    0    0 -0.37044104814E+02  0.81014689439E+00 -0.49664539677E+03  0.49802567421E+03  0.00000000000E+00 0.  1.
        -13    1    4    4    0    0 -0.20043912374E+02  0.30241772389E+02 -0.25786304530E+02  0.44511310043E+02  0.00000000000E+00 0.  1.
         13    1    4    4    0    0  0.77282024909E+02  0.33242143875E+02 -0.40153504414E+01  0.84223954684E+02  0.00000000000E+00 0. -1.
         21    1    1    2  502  501 -0.30001315208E+02 -0.12562606328E+02  0.24735165974E+02  0.40862286129E+02  0.00000000000E+00 0. -1.
<scales pt_clust_5="13000.00000" pt_clust_6="13000.00000" pt_clust_7="13000.00000" pt_clust_8="13000.00000" pt_clust_9="32.52534"></scales>
<clustering>
<clus scale="   32.525">  1  9  2 -1</clus>
<clus scale="   81.328">  5  6 -1 -1</clus>
<clus scale="   91.533">  7  8 -1 -1</clus>
<clus scale="  100.656">  2  5  1 -1</clus>
<clus scale="   32.525">  1  5  2 -1</clus>
</clustering>
</event>
<event>
 9    1  0.2374319E-005  0.3755868E+03  0.7546771E-02  0.1071653E+00
         -2   -1    0    0    0  501 -0.00000000000E+00  0.00000000000E+00  0.37909985594E+03  0.37909985594E+03  0.00000000000E+00 0.  1.
          1   -1    0    0  502    0  0.00000000000E+00 -0.00000000000E+00 -0.69225027121E+03  0.69225027121E+03  0.00000000000E+00 0. -1.
         23    2    1    2    0    0  0.58068505475E+02 -0.32374874078E+03 -0.30656322965E+02  0.34267107324E+03  0.91095860588E+02 0.  0.
        -24    2    1    2    0    0 -0.17171859961E+03 -0.11193271697E+03 -0.10905427279E+03  0.24616890116E+03  0.81792926977E+02 0.  0.
         11    1    4    4    0    0 -0.10069139829E+03 -0.10833645772E+03 -0.87536396533E+02  0.17186671138E+03  0.00000000000E+00 0. -1.
        -12    1    4    4    0    0 -0.71027201317E+02 -0.35962592487E+01 -0.21517876257E+02  0.74302189780E+02  0.00000000000E+00 0.  1.
        -13    1    3    3    0    0 -0.23851423650E+02 -0.60207712483E+02 -0.13545931472E+02  0.66161554637E+02  0.00000000000E+00 0. -1.
         13    1    3    3    0    0  0.81919929124E+02 -0.26354102829E+03 -0.17110391492E+02  0.27650951860E+03  0.00000000000E+00 0.  1.
         21    1    1    2  502  501  0.11365009413E+03  0.43568145775E+03 -0.17343981951E+03  0.48251015276E+03  0.00000000000E+00 0.  1.
<scales pt_clust_5="13000.00000" pt_clust_6="13000.00000" pt_clust_7="13000.00000" pt_clust_8="13000.00000" pt_clust_9="364.37204"></scales>
<clustering>
<clus scale="   81.793">  5  6 -1 -1</clus>
<clus scale="   91.096">  7  8 -1 -1</clus>
<clus scale="  220.695">  2  5  1 -1</clus>
<clus scale="  364.372">  2  9  1 -1</clus>
<clus scale="  220.695">  2  5  1 -1</clus>
</clustering>
</event>
<event>
 9    1  0.2374319E-005  0.1175976E+03  0.7546771E-02  0.1249888E+00
          1   -1    0    0  502    0  0.00000000000E+00  0.00000000000E+00  0.10118394234E+03  0.10118394234E+03  0.00000000000E+00 0. -1.
         -2   -1    0    0    0  501 -0.00000000000E+00 -0.00000000000E+00 -0.22457880536E+03  0.22457880536E+03  0.00000000000E+00 0.  1.
        -24    2    1    2    0    0  0.52105233531E+02  0.75500826565E+02 -0.11926770515E+03  0.17040460718E+03  0.79985089132E+02 0.  0.
         23    2    1    2    0    0 -0.38732479380E+02 -0.26743464873E+02  0.14700182324E+02  0.10140835265E+03  0.88612305882E+02 0.  0.
         13    1    3    3    0    0  0.65057741301E+02  0.33109511461E+02 -0.51151987671E+02  0.89136273733E+02  0.00000000000E+00 0. -1.
        -14    1    3    3    0    0 -0.12952507770E+02  0.42391315105E+02 -0.68115717475E+02  0.81268333446E+02  0.00000000000E+00 0.  1.
        -13    1    4    4    0    0  0.25037522744E+02  0.88524169436E+01 -0.15086285163E+01  0.26599225381E+02  0.00000000000E+00 0.  1.
         13    1    4    4    0    0 -0.63770002124E+02 -0.35595881817E+02  0.16208810840E+02  0.74809127265E+02  0.00000000000E+00 0. -1.
         21    1    1    2  502  501 -0.13372754150E+02 -0.48757361692E+02 -0.18827340199E+02  0.53949787874E+02  0.00000000000E+00 0. -1.
<scales pt_clust_5="13000.00000" pt_clust_6="13000.00000" pt_clust_7="13000.00000" pt_clust_8="13000.00000" pt_clust_9="50.55800"></scales>
<clustering>
<clus scale="   50.558">  1  9  2 -1</clus>
<clus scale="   79.985">  5  6 -1 -1</clus>
<clus scale="   88.612">  7  8 -1 -1</clus>
<clus scale="  111.242">  2  5  1 -1</clus>
<clus scale="   50.558">  1  5  2 -1</clus>
</clustering>
</event>
<event>
 9    1  0.2374319E-005  0.1001362E+03  0.7546771E-02  0.1284381E+00
          3   -1    0    0  502    0  0.00000000000E+00  0.00000000000E+00  0.71885811669E+02  0.71885811669E+02  0.00000000000E+00 0. -1.
         -4   -1    0    0    0  501 -0.00000000000E+00 -0.00000000000E+00 -0.26031036025E+03  0.26031036025E+03  0.00000000000E+00 0.  1.
        -24    2    1    2    0    0  0.21499258067E+01  0.50102180050E+02 -0.19223833819E+03  0.21424929261E+03  0.80201808496E+02 0.  0.
         23    2    1    2    0    0  0.13012257404E+01 -0.25708125583E+02 -0.78734599498E+00  0.92883942747E+02  0.89242400220E+02 0.  0.
         11    1    3    3    0    0 -0.22246102940E+02 -0.13514856727E+02 -0.62615059198E+02  0.67809926167E+02  0.00000000000E+00 0. -1.
        -12    1    3    3    0    0  0.24396028747E+02  0.63617036777E+02 -0.12962327899E+03  0.14643936644E+03  0.00000000000E+00 0.  1.
        -11    1    4    4    0    0 -0.94768694084E+01 -0.50644559807E+02  0.23327817140E+02  0.56558549702E+02  0.00000000000E+00 0. -1.
         11    1    4    4    0    0  0.10778095149E+02  0.24936434224E+02 -0.24115163135E+02  0.36325393045E+02  0.00000000000E+00 0.  1.
         21    1    1    2  502  501 -0.34511515471E+01 -0.24394054467E+02  0.46011356049E+01  0.25062936564E+02  0.00000000000E+00 0. -1.
<scales pt_clust_5="13000.00000" pt_clust_6="13000.00000" pt_clust_7="13000.00000" pt_clust_8="13000.00000" pt_clust_9="24.63697"></scales>
<clustering>
<clus scale="   24.637">  1  9  2 -1</clus>
<clus scale="   80.202">  5  6 -1 -1</clus>
<clus scale="   89.242">  7  8 -1 -1</clus>
<clus scale="   92.170">  2  5  1 -1</clus>
<clus scale="   24.637">  1  5  2 -1</clus>
</clustering>
</event>
<event>
 9    1  0.2374319E-005  0.1511214E+03  0.7546771E-02  0.1200175E+00
          1   -1    0    0  502    0  0.00000000000E+00  0.00000000000E+00  0.18030235454E+03  0.18030235454E+03  0.00000000000E+00 0. -1.
         -2   -1    0    0    0  501 -0.00000000000E+00 -0.00000000000E+00 -0.65997037169E+03  0.65997037169E+03  0.00000000000E+00 0.  1.
         23    2    1    2    0    0 -0.11703787262E+03 -0.69338411120E+01 -0.56857598280E+03  0.58764058799E+03  0.91087159692E+02 0.  0.
        -24    2    1    2    0    0  0.16588643150E+03  0.11785370174E+02  0.63418100612E+02  0.19731982263E+03  0.85182473612E+02 0.  0.
         13    1    4    4    0    0  0.51563232760E+02 -0.10593139569E+02  0.61310115811E+02  0.80807870158E+02  0.00000000000E+00 0. -1.
        -14    1    4    4    0    0  0.11432319874E+03  0.22378509743E+02  0.21079848006E+01  0.11651195247E+03  0.00000000000E+00 0.  1.
        -13    1    3    3    0    0 -0.99583549596E+02  0.18793301816E+02 -0.52129441140E+03  0.53105360831E+03  0.00000000000E+00 0.  1.
         13    1    3    3    0    0 -0.17454323026E+02 -0.25727142928E+02 -0.47281571396E+02  0.56586979679E+02  0.00000000000E+00 0. -1.
         21    1    1    2  502  501 -0.48848558877E+02 -0.48515290619E+01  0.25489865035E+02  0.55312315610E+02  0.00000000000E+00 0. -1.
<scales pt_clust_5="13000.00000" pt_clust_6="13000.00000" pt_clust_7="13000.00000" pt_clust_8="13000.00000" pt_clust_9="49.08889"></scales>
<clustering>
<clus scale="   49.089">  1  9  2 -1</clus>
<clus scale="   85.182">  5  6 -1 -1</clus>
<clus scale="   91.087">  7  8 -1 -1</clus>
<clus scale="  147.638">  1  5  2 -1</clus>
<clus scale="   49.089">  1  5  2 -1</clus>
</clustering>
</event>
<event>
 9    1  0.2374319E-005  0.1020382E+03  0.7546771E-02  0.1285349E+00
          1   -1    0    0  502    0  0.00000000000E+00  0.00000000000E+00  0.45719402133E+03  0.45719402133E+03  0.00000000000E+00 0. -1.
         -2   -1    0    0    0  501 -0.00000000000E+00 -0.00000000000E+00 -0.47429681859E+02  0.47429681859E+02  0.00000000000E+00 0.  1.
         23    2    1    2    0    0  0.66276891909E+01 -0.36456823795E+02  0.33362329393E+02  0.10464270695E+03  0.92000134946E+02 0.  0.
        -24    2    1    2    0    0 -0.37787138971E+02  0.27335014491E+02  0.34125067313E+03  0.35212981857E+03  0.73268795015E+02 0.  0.
         13    1    4    4    0    0 -0.10976983692E+02 -0.24285522961E+02  0.14545869793E+03  0.14788006492E+03  0.00000000000E+00 0. -1.
        -14    1    4    4    0    0 -0.26810155279E+02  0.51620537452E+02  0.19579197520E+03  0.20424975365E+03  0.00000000000E+00 0.  1.
        -11    1    3    3    0    0  0.25149078958E+02  0.24261282512E+02  0.57363199583E+01  0.35411740542E+02  0.00000000000E+00 0.  1.
         11    1    3    3    0    0 -0.18521389767E+02 -0.60718106307E+02  0.27626009434E+02  0.69230966407E+02  0.00000000000E+00 0. -1.
         21    1    1    2  502  501  0.31159449780E+02  0.91218093040E+01  0.35151336952E+02  0.47851177677E+02  0.00000000000E+00 0. -1.
<scales pt_clust_5="13000.00000" pt_clust_6="13000.00000" pt_clust_7="13000.00000" pt_clust_8="13000.00000" pt_clust_9="32.46719"></scales>
<clustering>
<clus scale="   32.467">  2  9  1 -1</clus>
<clus scale="   73.269">  5  6 -1 -1</clus>
<clus scale="   85.534">  1  5  2 -1</clus>
<clus scale="   92.000">  7  8 -1 -1</clus>
<clus scale="   85.534">  1  5  2 -1</clus>
</clustering>
</event>
<event>
 9    1  0.2374319E-005  0.1054507E+03  0.7546771E-02  0.1275245E+00
         -2   -1    0    0    0  501 -0.00000000000E+00  0.00000000000E+00  0.76528653601E+02  0.76528653601E+02  0.00000000000E+00 0.  1.
          1   -1    0    0  502    0  0.00000000000E+00 -0.00000000000E+00 -0.55875467192E+03  0.55875467192E+03  0.00000000000E+00 0. -1.
        -24    2    1    2    0    0 -0.30748675388E+02  0.43418466282E+02  0.34359419118E+02  0.10075003435E+03  0.78354039373E+02 0.  0.
         23    2    1    2    0    0  0.43497410966E+02 -0.13231167486E+02 -0.34745492783E+03  0.36225754550E+03  0.91861383871E+02 0.  0.
         13    1    3    3    0    0 -0.34197541120E+02  0.30703750206E+01  0.47110320852E+02  0.58294779802E+02  0.00000000000E+00 0. -1.
        -14    1    3    3    0    0  0.34488657323E+01  0.40348091261E+02 -0.12750901734E+02  0.42455254543E+02  0.00000000000E+00 0.  1.
        -13    1    4    4    0    0 -0.21898706034E+01  0.34433739322E+02 -0.87708106710E+02  0.94250675963E+02  0.00000000000E+00 0.  1.
         13    1    4    4    0    0  0.45687281569E+02 -0.47664906808E+02 -0.25974682112E+03  0.26800686954E+03  0.00000000000E+00 0. -1.
         21    1    1    2  502  501 -0.12748735578E+02 -0.30187298795E+02 -0.16913050961E+03  0.17227574568E+03  0.00000000000E+00 0.  1.
<scales pt_clust_5="13000.00000" pt_clust_6="13000.00000" pt_clust_7="13000.00000" pt_clust_8="13000.00000" pt_clust_9="32.76894"></scales>
<clustering>
<clus scale="   32.769">  2  9  1 -1</clus>
<clus scale="   78.354">  5  6 -1 -1</clus>
<clus scale="   91.861">  7  8 -1 -1</clus>
<clus scale="   93.918">  1  5  2 -1</clus>
<clus scale="   32.769">  2  5  1 -1</clus>
</clustering>
</event>
<event>
 9    1  0.2374319E-005  0.1834585E+03  0.7546771E-02  0.1165798E+00
          3   -1    0    0  502    0  0.00000000000E+00  0.00000000000E+00  0.21054018842E+03  0.21054018842E+03  0.00000000000E+00 0. -1.
         -4   -1    0    0    0  501 -0.00000000000E+00 -0.00000000000E+00 -0.28689624723E+03  0.28689624723E+03  0.00000000000E+00 0.  1.
        -24    2    1    2    0    0 -0.22151247283E+02 -0.17717422953E+03 -0.16445851910E+03  0.25564534164E+03  0.80165770945E+02 0.  0.
         23    2    1    2    0    0 -0.12843686143E+02  0.12023026338E+03  0.33145726639E+02  0.15526073391E+03  0.91580455297E+02 0.  0.
         13    1    3    3    0    0  0.26377894622E+01 -0.38878289927E+02  0.48880976613E+00  0.38970736404E+02  0.00000000000E+00 0. -1.
        -14    1    3    3    0    0 -0.24789036745E+02 -0.13829593960E+03 -0.16494732887E+03  0.21667460523E+03  0.00000000000E+00 0.  1.
        -13    1    4    4    0    0  0.31050810836E+02  0.95367962734E+01  0.96559676497E+01  0.33887181175E+02  0.00000000000E+00 0.  1.
         13    1    4    4    0    0 -0.43894496979E+02  0.11069346711E+03  0.23489758989E+02  0.12137355273E+03  0.00000000000E+00 0. -1.
         21    1    1    2  502  501  0.34994933426E+02  0.56943966145E+02  0.54956733649E+02  0.86530360101E+02  0.00000000000E+00 0. -1.
<scales pt_clust_5="13000.00000" pt_clust_6="13000.00000" pt_clust_7="13000.00000" pt_clust_8="13000.00000" pt_clust_9="66.83757"></scales>
<clustering>
<clus scale="   66.838">  1  9  2 -1</clus>
<clus scale="   80.166">  5  6 -1 -1</clus>
<clus scale="   91.580">  7  8 -1 -1</clus>
<clus scale="  178.035">  2  5  1 -1</clus>
<clus scale="   66.838">  1  5  2 -1</clus>
</clustering>
</event>
<event>
 9    1  0.2374319E-005  0.1546797E+03  0.7546771E-02  0.1196435E+00
          1   -1    0    0  502    0  0.00000000000E+00  0.00000000000E+00  0.23344843238E+03  0.23344843238E+03  0.00000000000E+00 0. -1.
         -2   -1    0    0    0  501 -0.00000000000E+00 -0.00000000000E+00 -0.23111078902E+03  0.23111078902E+03  0.00000000000E+00 0.  1.
        -24    2    1    2    0    0  0.12627293280E+03 -0.11179115715E+02 -0.14492902515E+03  0.20863988320E+03  0.80351430247E+02 0.  0.
         23    2    1    2    0    0 -0.12390761201E+03 -0.97926840508E+01  0.57636723598E+02  0.16383818838E+03  0.89844126636E+02 0.  0.
         11    1    3    3    0    0  0.66012325789E+02 -0.96272814338E+01 -0.19539996018E+02  0.69513474581E+02  0.00000000000E+00 0. -1.
        -12    1    3    3    0    0  0.60260607008E+02 -0.15518342816E+01 -0.12538902914E+03  0.13912640862E+03  0.00000000000E+00 0.  1.
        -13    1    4    4    0    0 -0.52111654232E+02 -0.48953443000E+02  0.24163474342E+02  0.75471435528E+02  0.00000000000E+00 0. -1.
         13    1    4    4    0    0 -0.71795957778E+02  0.39160758949E+02  0.33473249256E+02  0.88366752857E+02  0.00000000000E+00 0.  1.
         21    1    1    2  502  501 -0.23653207875E+01  0.20971799766E+02  0.89629944915E+02  0.92081149827E+02  0.00000000000E+00 0. -1.
<scales pt_clust_5="13000.00000" pt_clust_6="13000.00000" pt_clust_7="13000.00000" pt_clust_8="13000.00000" pt_clust_9="21.10477"></scales>
<clustering>
<clus scale="   21.105">  1  9  2 -1</clus>
<clus scale="   80.351">  5  6 -1 -1</clus>
<clus scale="   89.844">  7  8 -1 -1</clus>
<clus scale="  149.366">  2  5  1 -1</clus>
<clus scale="   21.105">  1  5  2 -1</clus>
</clustering>
</event>
<event>
 9    1  0.2374319E-005  0.1205661E+03  0.7546771E-02  0.1246307E+00
         -2   -1    0    0    0  501 -0.00000000000E+00  0.00000000000E+00  0.33582217537E+03  0.33582217537E+03  0.00000000000E+00 0.  1.
          1   -1    0    0  502    0  0.00000000000E+00 -0.00000000000E+00 -0.51632957053E+03  0.51632957053E+03  0.00000000000E+00 0. -1.
         23    2    1    2    0    0  0.65728088584E+02 -0.42455332237E+02  0.31176213860E+03  0.33441233333E+03  0.92267766615E+02 0.  0.
        -24    2    1    2    0    0 -0.71021283216E+02 -0.78117445833E+01 -0.37847250560E+03  0.39322210236E+03  0.79228393036E+02 0.  0.
         13    1    4    4    0    0 -0.35856158516E+02 -0.39838920805E+02 -0.26173560476E+03  0.26716723323E+03  0.00000000000E+00 0. -1.
        -14    1    4    4    0    0 -0.35165124700E+02  0.32027176221E+02 -0.11673690084E+03  0.12605486912E+03  0.00000000000E+00 0.  1.
        -11    1    3    3    0    0  0.20993211142E+02  0.43821233770E+01  0.65791570408E+01  0.22432191750E+02  0.00000000000E+00 0. -1.
         11    1    3    3    0    0  0.44734877441E+02 -0.46837455615E+02  0.30518298156E+03  0.31198014158E+03  0.00000000000E+00 0.  1.
         21    1    1    2  502  501  0.52931946320E+01  0.50267076821E+02 -0.11379702817E+03  0.12451731021E+03  0.00000000000E+00 0. -1.
<scales pt_clust_5="13000.00000" pt_clust_6="13000.00000" pt_clust_7="13000.00000" pt_clust_8="13000.00000" pt_clust_9="50.54500"></scales>
<clustering>
<clus scale="   50.545">  2  9  1 -1</clus>
<clus scale="   79.228">  5  6 -1 -1</clus>
<clus scale="   92.268">  7  8 -1 -1</clus>
<clus scale="  110.905">  2  5  1 -1</clus>
<clus scale="   50.545">  2  5  1 -1</clus>
</clustering>
</event>
<event>
 9    1  0.2374319E-005  0.1556805E+03  0.7546771E-02  0.1195304E+00
         -2   -1    0    0    0  501 -0.00000000000E+00  0.00000000000E+00  0.70294388458E+03  0.70294388458E+03  0.00000000000E+00 0.  1.
          1   -1    0    0  502    0  0.00000000000E+00 -0.00000000000E+00 -0.87675605220E+02  0.87675605220E+02  0.00000000000E+00 0. -1.
        -24    2    1    2    0    0  0.12937459679E+03 -0.54776651719E+02  0.43437926939E+03  0.46364359476E+03  0.80881180902E+02 0.  0.
         23    2    1    2    0    0 -0.79083165368E+02  0.78113302928E+02  0.21748783686E+03  0.26054321112E+03  0.90697136349E+02 0.  0.
         13    1    3    3    0    0  0.53431440112E+02 -0.23241806301E+02  0.30374490099E+03  0.30928314734E+03  0.00000000000E+00 0. -1.
        -14    1    3    3    0    0  0.75943156676E+02 -0.31534845418E+02  0.13063436840E+03  0.15436044742E+03  0.00000000000E+00 0.  1.
        -11    1    4    4    0    0  0.16914898281E+02  0.22278185391E+02  0.21507881673E+02  0.35284845220E+02  0.00000000000E+00 0. -1.
         11    1    4    4    0    0 -0.95998063649E+02  0.55835117537E+02  0.19597995518E+03  0.22525836590E+03  0.00000000000E+00 0.  1.
         21    1    1    2  502  501 -0.50291431420E+02 -0.23336651209E+02 -0.36598826878E+02  0.66432683920E+02  0.00000000000E+00 0. -1.
<scales pt_clust_5="13000.00000" pt_clust_6="13000.00000" pt_clust_7="13000.00000" pt_clust_8="13000.00000" pt_clust_9="55.44211"></scales>
<clustering>
<clus scale="   55.442">  2  9  1 -1</clus>
<clus scale="   80.881">  5  6 -1 -1</clus>
<clus scale="   90.697">  7  8 -1 -1</clus>
<clus scale="  150.174">  1  5  2 -1</clus>
<clus scale="   55.442">  2  5  1 -1</clus>
</clustering>
</event>
<event>
 9    1  0.2374319E-005  0.1127176E+03  0.7546771E-02  0.1259338E+00
         -2   -1    0    0    0  501 -0.00000000000E+00  0.00000000000E+00  0.13817103585E+03  0.13817103585E+03  0.00000000000E+00 0.  1.
          1   -1    0    0  502    0  0.00000000000E+00 -0.00000000000E+00 -0.19691864976E+03  0.19691864976E+03  0.00000000000E+00 0. -1.
        -24    2    1    2    0    0 -0.71219344518E+02  0.49623919090E+02  0.59746876641E+02  0.13313478289E+03  0.81366164751E+02 0.  0.
         23    2    1    2    0    0  0.14042448506E+02 -0.83692090972E+01 -0.62710503971E+02  0.11204938735E+03  0.91406913726E+02 0.  0.
         11    1    3    3    0    0  0.82064411045E+01  0.22090825721E+02 -0.82976657201E+01  0.24984025157E+02  0.00000000000E+00 0. -1.
        -12    1    3    3    0    0 -0.79425785622E+02  0.27533093370E+02  0.68044542361E+02  0.10815075773E+03  0.00000000000E+00 0.  1.
        -13    1    4    4    0    0 -0.32011032785E+02  0.20459853125E+02 -0.19965009798E+02  0.42917518872E+02  0.00000000000E+00 0.  1.
         13    1    4    4    0    0  0.46053481291E+02 -0.28829062222E+02 -0.42745494174E+02  0.69131868482E+02  0.00000000000E+00 0. -1.
         21    1    1    2  502  501  0.57176896012E+02 -0.41254709993E+02 -0.55783986584E+02  0.89905515367E+02  0.00000000000E+00 0.  1.
<scales pt_clust_5="13000.00000" pt_clust_6="13000.00000" pt_clust_7="13000.00000" pt_clust_8="13000.00000" pt_clust_9="70.50637"></scales>
<clustering>
<clus scale="   70.506">  2  9  1 -1</clus>
<clus scale="   81.366">  5  6 -1 -1</clus>
<clus scale="   91.407">  7  8 -1 -1</clus>
<clus scale="  104.740">  1  5  2 -1</clus>
<clus scale="   70.506">  2  5  1 -1</clus>
</clustering>
</event>
<event>
 9    1  0.2374319E-005  0.9758473E+02  0.7546771E-02  0.1290849E+00
         -2   -1    0    0    0  501 -0.00000000000E+00  0.00000000000E+00  0.12569273994E+03  0.12569273994E+03  0.00000000000E+00 0.  1.
          1   -1    0    0  502    0  0.00000000000E+00 -0.00000000000E+00 -0.20858552562E+03  0.20858552562E+03  0.00000000000E+00 0. -1.
         23    2    1    2    0    0 -0.46624001168E+01 -0.47737114369E+02  0.64720061321E+02  0.12079124829E+03  0.90007051189E+02 0.  0.
        -24    2    1    2    0    0 -0.27927905775E+01  0.18271663355E+02 -0.22694739144E+02  0.84924478630E+02  0.79721154813E+02 0.  0.
         13    1    4    4    0    0 -0.29349766863E+02 -0.16320836748E+02  0.39566404053E+01  0.33814694001E+02  0.00000000000E+00 0. -1.
        -14    1    4    4    0    0  0.26556976286E+02  0.34592500103E+02 -0.26651379550E+02  0.51109784628E+02  0.00000000000E+00 0.  1.
        -13    1    3    3    0    0  0.41104621532E+02 -0.29383126949E+02  0.20396161393E+02  0.54488177251E+02  0.00000000000E+00 0.  1.
         13    1    3    3    0    0 -0.45767021649E+02 -0.18353987420E+02  0.44323899928E+02  0.66303071042E+02  0.00000000000E+00 0. -1.
         21    1    1    2  502  501  0.74551906943E+01  0.29465451014E+02 -0.12491810785E+03  0.12856253864E+03  0.00000000000E+00 0. -1.
<scales pt_clust_5="13000.00000" pt_clust_6="13000.00000" pt_clust_7="13000.00000" pt_clust_8="13000.00000" pt_clust_9="30.39396"></scales>
<clustering>
<clus scale="   30.394">  2  9  1 -1</clus>
<clus scale="   79.721">  5  6 -1 -1</clus>
<clus scale="   88.187">  2  5  1 -1</clus>
<clus scale="   90.007">  7  8 -1 -1</clus>
<clus scale="   30.394">  2  5  1 -1</clus>
</clustering>
</event>
<event>
 9    1  0.2374319E-005  0.1174966E+03  0.7546771E-02  0.1250606E+00
          1   -1    0    0  502    0  0.00000000000E+00  0.00000000000E+00  0.13573111921E+03  0.13573111921E+03  0.00000000000E+00 0. -1.
         -2   -1    0    0    0  501 -0.00000000000E+00 -0.00000000000E+00 -0.34501912991E+03  0.34501912991E+03  0.00000000000E+00 0.  1.
         23    2    1    2    0    0  0.64327837808E+02 -0.34765024596E+02 -0.28991557501E+03  0.31237914505E+03  0.90460002080E+02 0.  0.
        -24    2    1    2    0    0 -0.86906568618E+02  0.29488290051E+02  0.55073893938E+02  0.13386555260E+03  0.80402372230E+02 0.  0.
         13    1    4    4    0    0 -0.65449529941E+02  0.32723690107E+02  0.74727870075E+02  0.10458840963E+03  0.00000000000E+00 0. -1.
        -14    1    4    4    0    0 -0.21457038677E+02 -0.32354000556E+01 -0.19653976136E+02  0.29277142966E+02  0.00000000000E+00 0.  1.
        -13    1    3    3    0    0  0.79399153517E+02 -0.50624356561E+02 -0.22644029940E+03  0.24523918987E+03  0.00000000000E+00 0. -1.
         13    1    3    3    0    0 -0.15071315709E+02  0.15859331965E+02 -0.63475275617E+02  0.67139955185E+02  0.00000000000E+00 0.  1.
         21    1    1    2  502  501  0.22578730810E+02  0.52767345445E+01  0.25553670376E+02  0.34505551468E+02  0.00000000000E+00 0. -1.
<scales pt_clust_5="13000.00000" pt_clust_6="13000.00000" pt_clust_7="13000.00000" pt_clust_8="13000.00000" pt_clust_9="23.18713"></scales>
<clustering>
<clus scale="   23.187">  1  9  2 -1</clus>
<clus scale="   80.402">  5  6 -1 -1</clus>
<clus scale="   90.460">  7  8 -1 -1</clus>
<clus scale="  109.941">  1  5  2 -1</clus>
<clus scale="   23.187">  1  5  2 -1</clus>
</clustering>
</event>
<event>
 9    1  0.2374319E-005  0.1165587E+03  0.7546771E-02  0.1254273E+00
          1   -1    0    0  502    0  0.00000000000E+00  0.00000000000E+00  0.62537907856E+02  0.62537907856E+02  0.00000000000E+00 0. -1.
         -2   -1    0    0    0  501 -0.00000000000E+00 -0.00000000000E+00 -0.77592330554E+03  0.77592330554E+03  0.00000000000E+00 0.  1.
        -24    2    1    2    0    0  0.61156596197E+02 -0.37768717918E+02 -0.62419640394E+03  0.63346009769E+03  0.80522912015E+02 0.  0.
         23    2    1    2    0    0 -0.44016470152E+02  0.15143942076E+02 -0.12191699215E+03  0.16167922422E+03  0.95444381403E+02 0.  0.
         13    1    3    3    0    0 -0.17016534239E+02 -0.21133107969E+02 -0.12546381331E+03  0.12836408820E+03  0.00000000000E+00 0. -1.
        -14    1    3    3    0    0  0.78173130437E+02 -0.16635609948E+02 -0.49873259063E+03  0.50509600949E+03  0.00000000000E+00 0.  1.
        -13    1    4    4    0    0  0.24851010215E+02  0.22278647679E+02 -0.60654929856E+02  0.69231000043E+02  0.00000000000E+00 0.  1.
         13    1    4    4    0    0 -0.68867480366E+02 -0.71347056026E+01 -0.61262062297E+02  0.92448224174E+02  0.00000000000E+00 0. -1.
         21    1    1    2  502  501 -0.17140126045E+02  0.22624775841E+02  0.32727998408E+02  0.43321891493E+02  0.00000000000E+00 0.  1.
<scales pt_clust_5="13000.00000" pt_clust_6="13000.00000" pt_clust_7="13000.00000" pt_clust_8="13000.00000" pt_clust_9="28.38423"></scales>
<clustering>
<clus scale="   28.384">  1  9  2 -1</clus>
<clus scale="   80.523">  5  6 -1 -1</clus>
<clus scale="   95.444">  7  8 -1 -1</clus>
<clus scale="  104.691">  2  5  1 -1</clus>
<clus scale="   28.384">  1  5  2 -1</clus>
</clustering>
</event>
<event>
 9    1  0.2374319E-005  0.1788204E+03  0.7546771E-02  0.1169942E+00
         -2   -1    0    0    0  501 -0.00000000000E+00  0.00000000000E+00  0.23370318154E+03  0.23370318154E+03  0.00000000000E+00 0.  1.
          1   -1    0    0  502    0  0.00000000000E+00 -0.00000000000E+00 -0.21517439211E+03  0.21517439211E+03  0.00000000000E+00 0. -1.
        -24    2    1    2    0    0 -0.93076567736E+02  0.11965531674E+03  0.10623517882E+03  0.20225441813E+03  0.81488000025E+02 0.  0.
         23    2    1    2    0    0  0.11336961929E+03 -0.11628272249E+03 -0.33396007246E+02  0.18854734350E+03  0.89780094207E+02 0.  0.
         11    1    3    3    0    0  0.14174286903E+02  0.23488874782E+02  0.23573290522E+02  0.36170950690E+02  0.00000000000E+00 0. -1.
        -12    1    3    3    0    0 -0.10725085464E+03  0.96166441960E+02  0.82661888300E+02  0.16608346744E+03  0.00000000000E+00 0.  1.
        -11    1    4    4    0    0  0.95381368243E+02 -0.65957377675E+02 -0.58059089458E+02  0.12968746642E+03  0.00000000000E+00 0. -1.
         11    1    4    4    0    0  0.17988251043E+02 -0.50325344814E+02  0.24663082212E+02  0.58859877084E+02  0.00000000000E+00 0.  1.
         21    1    1    2  502  501 -0.20293051550E+02 -0.33725942539E+01 -0.54310382146E+02  0.58075812023E+02  0.00000000000E+00 0.  1.
<scales pt_clust_5="13000.00000" pt_clust_6="13000.00000" pt_clust_7="13000.00000" pt_clust_8="13000.00000" pt_clust_9="20.57140"></scales>
<clustering>
<clus scale="   20.571">  2  9  1 -1</clus>
<clus scale="   81.488">  5  6 -1 -1</clus>
<clus scale="   89.780">  7  8 -1 -1</clus>
<clus scale="  174.804">  1  5  2 -1</clus>
<clus scale="   20.571">  2  5  1 -1</clus>
</clustering>
</event>
<event>
 9    1  0.2374319E-005  0.1087534E+03  0.7546771E-02  0.1269235E+00
         -2   -1    0    0    0  501 -0.00000000000E+00  0.00000000000E+00  0.10285884261E+03  0.10285884261E+03  0.00000000000E+00 0.  1.
          1   -1    0    0  502    0  0.00000000000E+00 -0.00000000000E+00 -0.21423255595E+03  0.21423255595E+03  0.00000000000E+00 0. -1.
         23    2    1    2    0    0 -0.50748763365E+01 -0.33490423422E+02  0.20483465292E+02  0.10767038381E+03  0.10012979760E+03 0.  0.
        -24    2    1    2    0    0 -0.95006338160E+01  0.57598825843E+02 -0.37097417546E+02  0.11056216141E+03  0.86254775899E+02 0.  0.
         13    1    4    4    0    0  0.33201891111E+02  0.51029313248E+02 -0.23661034211E+02  0.65316161276E+02  0.00000000000E+00 0. -1.
        -14    1    4    4    0    0 -0.42702524927E+02  0.65695125951E+01 -0.13436383335E+02  0.45246000133E+02  0.00000000000E+00 0.  1.
        -13    1    3    3    0    0  0.24900182812E+02  0.54803475245E+01  0.45763474906E+02  0.52386534038E+02  0.00000000000E+00 0. -1.
         13    1    3    3    0    0 -0.29975059149E+02 -0.38970770946E+02 -0.25280009613E+02  0.55283849768E+02  0.00000000000E+00 0.  1.
         21    1    1    2  502  501  0.14575510153E+02 -0.24108402422E+02 -0.94759761091E+02  0.98858853349E+02  0.00000000000E+00 0. -1.
<scales pt_clust_5="13000.00000" pt_clust_6="13000.00000" pt_clust_7="13000.00000" pt_clust_8="13000.00000" pt_clust_9="28.17198"></scales>
<clustering>
<clus scale="   28.172">  2  9  1 -1</clus>
<clus scale="   86.255">  5  6 -1 -1</clus>
<clus scale="   96.131">  2  5  1 -1</clus>
<clus scale="  100.130">  7  8 -1 -1</clus>
<clus scale="   28.172">  2  5  1 -1</clus>
</clustering>
</event>
<event>
 9    1  0.2374319E-005  0.2275242E+03  0.7546771E-02  0.1129416E+00
          1   -1    0    0  502    0  0.00000000000E+00  0.00000000000E+00  0.11697359908E+04  0.11697359908E+04  0.00000000000E+00 0. -1.
         -2   -1    0    0    0  501 -0.00000000000E+00 -0.00000000000E+00 -0.82461321254E+02  0.82461321254E+02  0.00000000000E+00 0.  1.
         23    2    1    2    0    0 -0.21671950609E+03  0.14663495857E+02  0.13721413082E+03  0.27229984798E+03  0.90206025758E+02 0.  0.
        -24    2    1    2    0    0  0.18032035008E+03 -0.38726098244E+01  0.69063336182E+03  0.71770707162E+03  0.74823622163E+02 0.  0.
         13    1    4    4    0    0  0.17562750134E+03  0.13464948526E+02  0.64630686989E+03  0.66987976095E+03  0.00000000000E+00 0. -1.
        -14    1    4    4    0    0  0.46928487377E+01 -0.17337558350E+02  0.44326491933E+02  0.47827310670E+02  0.00000000000E+00 0.  1.
        -11    1    3    3    0    0 -0.45335718256E+02 -0.63870528778E+01  0.76711343173E+02  0.89335054517E+02  0.00000000000E+00 0. -1.
         11    1    3    3    0    0 -0.17138378783E+03  0.21050548735E+02  0.60502787649E+02  0.18296479346E+03  0.00000000000E+00 0.  1.
         21    1    1    2  502  501  0.36399156011E+02 -0.10790886033E+02  0.25942717690E+03  0.26219039245E+03  0.00000000000E+00 0. -1.
<scales pt_clust_5="13000.00000" pt_clust_6="13000.00000" pt_clust_7="13000.00000" pt_clust_8="13000.00000" pt_clust_9="37.96501"></scales>
<clustering>
<clus scale="   37.965">  1  9  2 -1</clus>
<clus scale="   74.824">  5  6 -1 -1</clus>
<clus scale="   90.206">  7  8 -1 -1</clus>
<clus scale="  221.875">  1  5  2 -1</clus>
<clus scale="   37.965">  1  5  2 -1</clus>
</clustering>
</event>
<event>
 9    1  0.2374319E-005  0.2098825E+03  0.7546771E-02  0.1166656E+00
          1   -1    0    0  502    0  0.00000000000E+00  0.00000000000E+00  0.41368114466E+03  0.41368114466E+03  0.00000000000E+00 0. -1.
         -2   -1    0    0    0  501 -0.00000000000E+00 -0.00000000000E+00 -0.17419799554E+03  0.17419799554E+03  0.00000000000E+00 0.  1.
         23    2    1    2    0    0 -0.11057914165E+03 -0.12627271996E+03  0.96372419099E+02  0.21255962929E+03  0.87871533885E+02 0.  0.
        -24    2    1    2    0    0  0.36953708696E+02 -0.76118429549E+02  0.10442187572E+03  0.15650518500E+03  0.80189481236E+02 0.  0.
         13    1    4    4    0    0  0.39056883240E+02  0.11501621347E+01  0.30740764538E+02  0.49716773887E+02  0.00000000000E+00 0. -1.
        -14    1    4    4    0    0 -0.21031745435E+01 -0.77268591683E+02  0.73681111181E+02  0.10678841112E+03  0.00000000000E+00 0.  1.
        -11    1    3    3    0    0 -0.41274658591E+02 -0.10841253113E+03  0.44839892104E+02  0.12436836524E+03  0.00000000000E+00 0.  1.
         11    1    3    3    0    0 -0.69304483055E+02 -0.17860188827E+02  0.51532526995E+02  0.88191264051E+02  0.00000000000E+00 0. -1.
         21    1    1    2  502  501  0.73625432950E+02  0.20239114950E+03  0.38688854302E+02  0.21881432591E+03  0.00000000000E+00 0. -1.
<scales pt_clust_5="13000.00000" pt_clust_6="13000.00000" pt_clust_7="13000.00000" pt_clust_8="13000.00000" pt_clust_9="190.60237"></scales>
<clustering>
<clus scale="   80.189">  5  6 -1 -1</clus>
<clus scale="   87.872">  7  8 -1 -1</clus>
<clus scale="  116.576">  1  5  2 -1</clus>
<clus scale="  190.602">  2  9  1 -1</clus>
<clus scale="  116.576">  1  5  2 -1</clus>
</clustering>
</event>
<event>
 9    1  0.2374319E-005  0.9225991E+02  0.7546771E-02  0.1304165E+00
         -2   -1    0    0    0  501 -0.00000000000E+00  0.00000000000E+00  0.24236548383E+03  0.24236548383E+03  0.00000000000E+00 0.  1.
          1   -1    0    0  502    0  0.00000000000E+00 -0.00000000000E+00 -0.32302152826E+03  0.32302152826E+03  0.00000000000E+00 0. -1.
         23    2    1    2    0    0 -0.26402170330E+01  0.20651074480E+00  0.20984557198E+03  0.22920867605E+03  0.92165284706E+02 0.  0.
        -24    2    1    2    0    0  0.85256700928E+00 -0.32335966933E+02 -0.66857195264E+02  0.11023072097E+03  0.81452965927E+02 0.  0.
         11    1    4    4    0    0 -0.59434514081E+01 -0.28205078606E+02 -0.85357702989E+02  0.90093221351E+02  0.00000000000E+00 0. -1.
        -12    1    4    4    0    0  0.67960184174E+01 -0.41308883271E+01  0.18500507725E+02  0.20137499616E+02  0.00000000000E+00 0.  1.
        -13    1    3    3    0    0  0.43224490341E+02  0.10141227821E+02  0.11783206997E+03  0.12591901278E+03  0.00000000000E+00 0. -1.
         13    1    3    3    0    0 -0.45864707374E+02 -0.99347170759E+01  0.92013502010E+02  0.10328966327E+03  0.00000000000E+00 0.  1.
         21    1    1    2  502  501  0.17876500237E+01  0.32129456188E+02 -0.22364442115E+03  0.22594761507E+03  0.00000000000E+00 0. -1.
<scales pt_clust_5="13000.00000" pt_clust_6="13000.00000" pt_clust_7="13000.00000" pt_clust_8="13000.00000" pt_clust_9="32.17915"></scales>
<clustering>
<clus scale="   32.179">  2  9  1 -1</clus>
<clus scale="   81.453">  5  6 -1 -1</clus>
<clus scale="   81.560">  2  5  1 -1</clus>
<clus scale="   92.165">  7  8 -1 -1</clus>
<clus scale="   32.179">  2  5  1 -1</clus>
</clustering>
</event>
<event>
 9    1  0.2374319E-005  0.9056131E+02  0.7546771E-02  0.1306472E+00
          1   -1    0    0  502    0  0.00000000000E+00  0.00000000000E+00  0.53244555860E+03  0.53244555860E+03  0.00000000000E+00 0. -1.
         -2   -1    0    0    0  501 -0.00000000000E+00 -0.00000000000E+00 -0.10445450353E+03  0.10445450353E+03  0.00000000000E+00 0.  1.
        -24    2    1    2    0    0  0.65740427985E+01 -0.19545551493E+02 -0.69573546766E+02  0.10738143731E+03  0.79152056489E+02 0.  0.
         23    2    1    2    0    0 -0.33476985575E+02  0.74734205968E+02  0.32461317012E+03  0.34599273117E+03  0.87357596690E+02 0.  0.
         13    1    3    3    0    0  0.22554630401E+02  0.83889666713E+01 -0.71201140333E+02  0.75157757411E+02  0.00000000000E+00 0. -1.
        -14    1    3    3    0    0 -0.15980587602E+02 -0.27934518164E+02  0.16275935664E+01  0.32223679895E+02  0.00000000000E+00 0.  1.
        -13    1    4    4    0    0 -0.19932378443E+02  0.13379132274E+02  0.11465591911E+02  0.26603772076E+02  0.00000000000E+00 0.  1.
         13    1    4    4    0    0 -0.13544607132E+02  0.61355073694E+02  0.31314757821E+03  0.31938895909E+03  0.00000000000E+00 0. -1.
         21    1    1    2  502  501  0.26902942776E+02 -0.55188654475E+02  0.17295143171E+03  0.18352589366E+03  0.00000000000E+00 0.  1.
<scales pt_clust_5="13000.00000" pt_clust_6="13000.00000" pt_clust_7="13000.00000" pt_clust_8="13000.00000" pt_clust_9="61.39671"></scales>
<clustering>
<clus scale="   61.397">  1  9  2 -1</clus>
<clus scale="   79.152">  5  6 -1 -1</clus>
<clus scale="   82.674">  2  5  1 -1</clus>
<clus scale="   87.358">  7  8 -1 -1</clus>
<clus scale="   61.397">  1  5  2 -1</clus>
</clustering>
</event>
<event>
 9    1  0.2374319E-005  0.2315771E+03  0.7546771E-02  0.1154159E+00
         -2   -1    0    0    0  501 -0.00000000000E+00  0.00000000000E+00  0.14577033692E+03  0.14577033692E+03  0.00000000000E+00 0.  1.
          1   -1    0    0  502    0  0.00000000000E+00 -0.00000000000E+00 -0.64979392650E+03  0.64979392650E+03  0.00000000000E+00 0. -1.
        -24    2    1    2    0    0 -0.15278472056E+01 -0.22456713249E+03 -0.26158135464E+03  0.35440063056E+03  0.82111330089E+02 0.  0.
         23    2    1    2    0    0  0.61594913295E+02  0.17346660139E+02 -0.18415190331E+03  0.21767730363E+03  0.96833078350E+02 0.  0.
         13    1    3    3    0    0  0.16027204487E+02 -0.24576610472E+02 -0.69632804824E+01  0.30155734796E+02  0.00000000000E+00 0. -1.
        -14    1    3    3    0    0 -0.17555051693E+02 -0.19999052202E+03 -0.25461807416E+03  0.32424489576E+03  0.00000000000E+00 0.  1.
        -11    1    4    4    0    0 -0.23768772305E+02  0.77547654788E+01 -0.73243586120E+02  0.77393241515E+02  0.00000000000E+00 0.  1.
         11    1    4    4    0    0  0.85363685601E+02  0.95918946606E+01 -0.11090831719E+03  0.14028406212E+03  0.00000000000E+00 0. -1.
         21    1    1    2  502  501 -0.60067066090E+02  0.20722047235E+03 -0.58290331628E+02  0.22348632923E+03  0.00000000000E+00 0. -1.
<scales pt_clust_5="13000.00000" pt_clust_6="13000.00000" pt_clust_7="13000.00000" pt_clust_8="13000.00000" pt_clust_9="216.53107"></scales>
<clustering>
<clus scale="   82.111">  5  6 -1 -1</clus>
<clus scale="   96.833">  7  8 -1 -1</clus>
<clus scale="  116.067">  2  7  1 -1</clus>
<clus scale="  216.531">  1  9  2 -1</clus>
<clus scale="  116.067">  2  5  1 -1</clus>
</clustering>
</event>
<event>
 9    1  0.2374319E-005  0.1131496E+03  0.7546771E-02  0.1256009E+00
          1   -1    0    0  502    0  0.00000000000E+00  0.00000000000E+00  0.16705965930E+03  0.16705965930E+03  0.00000000000E+00 0. -1.
         -2   -1    0    0    0  501 -0.00000000000E+00 -0.00000000000E+00 -0.15167671215E+03  0.15167671215E+03  0.00000000000E+00 0.  1.
        -24    2    1    2    0    0 -0.13429356078E+02  0.76375494984E+02 -0.48918725718E+02  0.12214540703E+03  0.80702508594E+02 0.  0.
         23    2    1    2    0    0  0.56287457548E+02 -0.58285987010E+02 -0.45909721873E+00  0.11685386827E+03  0.84196684030E+02 0.  0.
         11    1    3    3    0    0  0.25076538334E+02  0.43865962574E+02  0.19173351330E+01  0.50564133745E+02  0.00000000000E+00 0. -1.
        -12    1    3    3    0    0 -0.38505894412E+02  0.32509532410E+02 -0.50836060851E+02  0.71581273283E+02  0.00000000000E+00 0.  1.
        -11    1    4    4    0    0  0.39251461024E+02 -0.16148696544E+02 -0.38713271265E+02  0.57447149317E+02  0.00000000000E+00 0.  1.
         11    1    4    4    0    0  0.17035996524E+02 -0.42137290466E+02  0.38254174047E+02  0.59406718958E+02  0.00000000000E+00 0. -1.
         21    1    1    2  502  501 -0.42858101470E+02 -0.18089507974E+02  0.64760770085E+02  0.79737096150E+02  0.00000000000E+00 0.  1.
<scales pt_clust_5="13000.00000" pt_clust_6="13000.00000" pt_clust_7="13000.00000" pt_clust_8="13000.00000" pt_clust_9="46.51932"></scales>
<clustering>
<clus scale="   46.519">  1  9  2 -1</clus>
<clus scale="   80.703">  5  6 -1 -1</clus>
<clus scale="   84.197">  7  8 -1 -1</clus>
<clus scale="  110.574">  2  5  1 -1</clus>
<clus scale="   46.519">  1  5  2 -1</clus>
</clustering>
</event>
<event>
 9    1  0.2374319E-005  0.1942485E+03  0.7546771E-02  0.1155831E+00
         -2   -1    0    0    0  501 -0.00000000000E+00  0.00000000000E+00  0.52710091111E+03  0.52710091111E+03  0.00000000000E+00 0.  1.
          1   -1    0    0  502    0  0.00000000000E+00 -0.00000000000E+00 -0.19200212432E+03  0.19200212432E+03  0.00000000000E+00 0. -1.
        -24    2    1    2    0    0 -0.68912524105E+02 -0.15853011523E+03  0.44185868089E+03  0.48134698319E+03  0.81086934418E+02 0.  0.
         23    2    1    2    0    0  0.50333387289E+02  0.14579027390E+03 -0.11534397734E+03  0.21364849394E+03  0.92483468878E+02 0.  0.
         11    1    3    3    0    0 -0.30003398558E+02 -0.59900372797E+01  0.10772894586E+03  0.11198933096E+03  0.00000000000E+00 0. -1.
        -12    1    3    3    0    0 -0.38909125546E+02 -0.15254007795E+03  0.33412973503E+03  0.36935765223E+03  0.00000000000E+00 0.  1.
        -11    1    4    4    0    0  0.15999122229E+02  0.69503828928E+02 -0.19869782702E+00  0.71321761256E+02  0.00000000000E+00 0.  1.
         11    1    4    4    0    0  0.34334265060E+02  0.76286444972E+02 -0.11514527951E+03  0.14232673269E+03  0.00000000000E+00 0. -1.
         21    1    1    2  502  501  0.18579136816E+02  0.12739841331E+02  0.85840832375E+01  0.24107558296E+02  0.00000000000E+00 0. -1.
<scales pt_clust_5="13000.00000" pt_clust_6="13000.00000" pt_clust_7="13000.00000" pt_clust_8="13000.00000" pt_clust_9="22.52749"></scales>
<clustering>
<clus scale="   22.527">  2  9  1 -1</clus>
<clus scale="   81.087">  5  6 -1 -1</clus>
<clus scale="   92.483">  7  8 -1 -1</clus>
<clus scale="  189.088">  1  5  2 -1</clus>
<clus scale="   22.527">  2  5  1 -1</clus>
</clustering>
</event>
<event>
 9    1  0.2374319E-005  0.1090022E+03  0.7546771E-02  0.1269312E+00
         -2   -1    0    0    0  501 -0.00000000000E+00  0.00000000000E+00  0.30972281866E+02  0.30972281866E+02  0.00000000000E+00 0.  1.
          1   -1    0    0  502    0  0.00000000000E+00 -0.00000000000E+00 -0.60033514822E+03  0.60033514822E+03  0.00000000000E+00 0. -1.
         23    2    1    2    0    0 -0.46487020957E+02  0.17370419310E+02 -0.11054596017E+03  0.15397434515E+03  0.94999552995E+02 0.  0.
        -24    2    1    2    0    0  0.63901073820E+02 -0.38195485947E+01 -0.29456639570E+03  0.31160708960E+03  0.78940994612E+02 0.  0.
         11    1    4    4    0    0  0.41184817763E+02  0.36706428057E+02 -0.16184363633E+03  0.17098805133E+03  0.00000000000E+00 0. -1.
        -12    1    4    4    0    0  0.22716256056E+02 -0.40525976651E+02 -0.13272275936E+03  0.14061903828E+03  0.00000000000E+00 0.  1.
        -13    1    3    3    0    0 -0.14714946165E+02 -0.25133751096E+02  0.23593389780E+01  0.29219883046E+02  0.00000000000E+00 0.  1.
         13    1    3    3    0    0 -0.31772074792E+02  0.42504170407E+02 -0.11290529915E+03  0.12475446210E+03  0.00000000000E+00 0. -1.
         21    1    1    2  502  501 -0.17414052863E+02 -0.13550870716E+02 -0.16425051049E+03  0.16572599534E+03  0.00000000000E+00 0.  1.
<scales pt_clust_5="13000.00000" pt_clust_6="13000.00000" pt_clust_7="13000.00000" pt_clust_8="13000.00000" pt_clust_9="22.06525"></scales>
<clustering>
<clus scale="   22.065">  2  9  1 -1</clus>
<clus scale="   78.941">  5  6 -1 -1</clus>
<clus scale="   95.000">  7  8 -1 -1</clus>
<clus scale="   95.332">  2  5  1 -1</clus>
<clus scale="   22.065">  2  5  1 -1</clus>
</clustering>
</event>
<event>
 9    1  0.2374319E-005  0.9370345E+02  0.7546771E-02  0.1298617E+00
         -2   -1    0    0    0  501 -0.00000000000E+00  0.00000000000E+00  0.14080422224E+03  0.14080422224E+03  0.00000000000E+00 0.  1.
          1   -1    0    0  502    0  0.00000000000E+00 -0.00000000000E+00 -0.13073430733E+03  0.13073430733E+03  0.00000000000E+00 0. -1.
        -24    2    1    2    0    0 -0.14874561308E+02 -0.19791852539E+02  0.90967888900E+02  0.12588236636E+03  0.83416085666E+02 0.  0.
         23    2    1    2    0    0  0.12755455793E+02 -0.43943874522E+01 -0.78895623939E+02  0.12129483692E+03  0.91136741730E+02 0.  0.
         11    1    3    3    0    0 -0.10859173616E+02  0.30757444633E+02  0.54157678742E+02  0.63221801767E+02  0.00000000000E+00 0. -1.
        -12    1    3    3    0    0 -0.40153876923E+01 -0.50549297172E+02  0.36810210158E+02  0.62660564590E+02  0.00000000000E+00 0.  1.
        -13    1    4    4    0    0 -0.27289883853E+02 -0.48733344034E+01  0.51494243147E+01  0.28195810322E+02  0.00000000000E+00 0.  1.
         13    1    4    4    0    0  0.40045339646E+02  0.47894695114E+00 -0.84045048254E+02  0.93099026598E+02  0.00000000000E+00 0. -1.
         21    1    1    2  502  501  0.21191055153E+01  0.24186239991E+02 -0.20023500519E+01  0.24361326294E+02  0.00000000000E+00 0. -1.
<scales pt_clust_5="13000.00000" pt_clust_6="13000.00000" pt_clust_7="13000.00000" pt_clust_8="13000.00000" pt_clust_9="24.27890"></scales>
<clustering>
<clus scale="   24.279">  2  9  1 -1</clus>
<clus scale="   83.416">  5  6 -1 -1</clus>
<clus scale="   86.213">  1  5  2 -1</clus>
<clus scale="   91.137">  7  8 -1 -1</clus>
<clus scale="   24.279">  2  5  1 -1</clus>
</clustering>
</event>
<event>
 9    1  0.2374319E-005  0.1415135E+03  0.7546771E-02  0.1212748E+00
         -2   -1    0    0    0  501 -0.00000000000E+00  0.00000000000E+00  0.12338801962E+03  0.12338801962E+03  0.00000000000E+00 0.  1.
          1   -1    0    0  502    0  0.00000000000E+00 -0.00000000000E+00 -0.77345335781E+03  0.77345335781E+03  0.00000000000E+00 0. -1.
         23    2    1    2    0    0  0.59514551083E+02  0.10252223075E+03  0.58841968074E+02  0.16153976183E+03  0.92627899986E+02 0.  0.
        -24    2    1    2    0    0 -0.40305265505E+02 -0.37351820924E+02 -0.23015597838E+03  0.25175325925E+03  0.85954966157E+02 0.  0.
         13    1    4    4    0    0  0.18459421179E+02 -0.30644134269E+02 -0.13545518613E+03  0.14009968110E+03  0.00000000000E+00 0. -1.
        -14    1    4    4    0    0 -0.58764686685E+02 -0.67076866543E+01 -0.94700792252E+02  0.11165357815E+03  0.00000000000E+00 0.  1.
        -13    1    3    3    0    0  0.76643420917E+02  0.75962472487E+02  0.69305173284E+02  0.12824865785E+03  0.00000000000E+00 0.  1.
         13    1    3    3    0    0 -0.17128869833E+02  0.26559758264E+02 -0.10463205211E+02  0.33291103978E+02  0.00000000000E+00 0. -1.
         21    1    1    2  502  501 -0.19209285578E+02 -0.65170409828E+02 -0.47875132789E+03  0.48354835635E+03  0.00000000000E+00 0. -1.
<scales pt_clust_5="13000.00000" pt_clust_6="13000.00000" pt_clust_7="13000.00000" pt_clust_8="13000.00000" pt_clust_9="67.94247"></scales>
<clustering>
<clus scale="   67.942">  2  9  1 -1</clus>
<clus scale="   85.955">  5  6 -1 -1</clus>
<clus scale="   92.628">  7  8 -1 -1</clus>
<clus scale="  137.238">  2  5  1 -1</clus>
<clus scale="   67.942">  2  5  1 -1</clus>
</clustering>
</event>
<event>
 9    1  0.2374319E-005  0.1016443E+03  0.7546771E-02  0.1287275E+00
          1   -1    0    0  502    0  0.00000000000E+00  0.00000000000E+00  0.90592776377E+02  0.90592776377E+02  0.00000000000E+00 0. -1.
         -2   -1    0    0    0  501 -0.00000000000E+00 -0.00000000000E+00 -0.30443659944E+03  0.30443659944E+03  0.00000000000E+00 0.  1.
         23    2    1    2    0    0 -0.11863964388E+01 -0.45651068992E+02 -0.21373816137E+03  0.23955069891E+03  0.98056657528E+02 0.  0.
        -24    2    1    2    0    0  0.10250501496E+02 -0.20884011159E+02 -0.21234813031E+02  0.85083251434E+02  0.79038140711E+02 0.  0.
         11    1    4    4    0    0 -0.29775573823E+02  0.91696579420E+01 -0.15206394944E+02  0.34668456418E+02  0.00000000000E+00 0. -1.
        -12    1    4    4    0    0  0.40026075318E+02 -0.30053669101E+02 -0.60284180879E+01  0.50414795015E+02  0.00000000000E+00 0.  1.
        -11    1    3    3    0    0 -0.36473296503E+02 -0.19747580163E+02 -0.17878776360E+03  0.18353564420E+03  0.00000000000E+00 0.  1.
         11    1    3    3    0    0  0.35286900064E+02 -0.25903488829E+02 -0.34950397776E+02  0.56015054711E+02  0.00000000000E+00 0. -1.
         21    1    1    2  502  501 -0.90641050568E+01  0.66535080151E+02  0.21129151340E+02  0.70395425472E+02  0.00000000000E+00 0. -1.
<scales pt_clust_5="13000.00000" pt_clust_6="13000.00000" pt_clust_7="13000.00000" pt_clust_8="13000.00000" pt_clust_9="67.14965"></scales>
<clustering>
<clus scale="   67.150">  1  9  2 -1</clus>
<clus scale="   79.038">  5  6 -1 -1</clus>
<clus scale="   83.448">  1  5  2 -1</clus>
<clus scale="   98.057">  7  8 -1 -1</clus>
<clus scale="   67.150">  1  5  2 -1</clus>
</clustering>
</event>
<event>
 9    1  0.2374319E-005  0.9708437E+02  0.7546771E-02  0.1292402E+00
          1   -1    0    0  502    0  0.00000000000E+00  0.00000000000E+00  0.11235664637E+03  0.11235664637E+03  0.00000000000E+00 0. -1.
         -2   -1    0    0    0  501 -0.00000000000E+00 -0.00000000000E+00 -0.12729805462E+03  0.12729805462E+03  0.00000000000E+00 0.  1.
        -24    2    1    2    0    0 -0.38488382171E+02  0.64099882105E+01 -0.44350046657E+02  0.10000293204E+03  0.80692107836E+02 0.  0.
         23    2    1    2    0    0  0.17164087336E+02 -0.20505811326E+02 -0.65520049709E+01  0.95531641447E+02  0.91478257287E+02 0.  0.
         13    1    3    3    0    0 -0.90039269531E+00 -0.33371867035E+02 -0.80892910646E+01  0.34350092377E+02  0.00000000000E+00 0. -1.
        -14    1    3    3    0    0 -0.37587989476E+02  0.39781855245E+02 -0.36260755592E+02  0.65652839662E+02  0.00000000000E+00 0.  1.
        -11    1    4    4    0    0 -0.17016440025E+02  0.29154010079E+02 -0.98231235907E+01  0.35156923811E+02  0.00000000000E+00 0.  1.
         11    1    4    4    0    0  0.34180527361E+02 -0.49659821404E+02  0.32711186198E+01  0.60374717636E+02  0.00000000000E+00 0. -1.
         21    1    1    2  502  501  0.21324294835E+02  0.14095823115E+02  0.35960643375E+02  0.44120127509E+02  0.00000000000E+00 0. -1.
<scales pt_clust_5="13000.00000" pt_clust_6="13000.00000" pt_clust_7="13000.00000" pt_clust_8="13000.00000" pt_clust_9="25.56204"></scales>
<clustering>
<clus scale="   25.562">  1  9  2 -1</clus>
<clus scale="   80.692">  5  6 -1 -1</clus>
<clus scale="   86.996">  2  5  1 -1</clus>
<clus scale="   91.478">  7  8 -1 -1</clus>
<clus scale="   25.562">  1  5  2 -1</clus>
</clustering>
</event>
<event>
 9    1  0.2374319E-005  0.1039953E+03  0.7546771E-02  0.1276679E+00
          3   -1    0    0  502    0  0.00000000000E+00  0.00000000000E+00  0.18928448000E+03  0.18928448000E+03  0.00000000000E+00 0. -1.
         -4   -1    0    0    0  501 -0.00000000000E+00 -0.00000000000E+00 -0.75869878233E+02  0.75869878233E+02  0.00000000000E+00 0.  1.
        -24    2    1    2    0    0  0.90909137338E+01  0.46052058745E+02  0.16116116885E+02  0.94761415213E+02  0.80725211443E+02 0.  0.
         23    2    1    2    0    0 -0.36400333395E+02 -0.47933428366E+02  0.60906478115E+02  0.12485480394E+03  0.90865423377E+02 0.  0.
         11    1    3    3    0    0 -0.21941859372E+02  0.56520404196E+02  0.10434794927E+02  0.61521429018E+02  0.00000000000E+00 0. -1.
        -12    1    3    3    0    0  0.31032773105E+02 -0.10468345451E+02  0.56813219583E+01  0.33239986196E+02  0.00000000000E+00 0.  1.
        -11    1    4    4    0    0  0.25615860157E+02  0.16484957190E+01  0.15405076501E+01  0.25715034387E+02  0.00000000000E+00 0.  1.
         11    1    4    4    0    0 -0.62016193552E+02 -0.49581924085E+02  0.59365970465E+02  0.99139769557E+02  0.00000000000E+00 0. -1.
         21    1    1    2  502  501  0.27309419661E+02  0.18813696207E+01  0.36392006768E+02  0.45538139076E+02  0.00000000000E+00 0. -1.
<scales pt_clust_5="13000.00000" pt_clust_6="13000.00000" pt_clust_7="13000.00000" pt_clust_8="13000.00000" pt_clust_9="27.37415"></scales>
<clustering>
<clus scale="   27.374">  1  9  2 -1</clus>
<clus scale="   80.725">  5  6 -1 -1</clus>
<clus scale="   90.865">  7  8 -1 -1</clus>
<clus scale="   95.263">  2  5  1 -1</clus>
<clus scale="   27.374">  1  5  2 -1</clus>
</clustering>
</event>
<event>
 9    1  0.2374319E-005  0.1063228E+03  0.7546771E-02  0.1274543E+00
         -2   -1    0    0    0  501 -0.00000000000E+00  0.00000000000E+00  0.27201532410E+03  0.27201532410E+03  0.00000000000E+00 0.  1.
          1   -1    0    0  502    0  0.00000000000E+00 -0.00000000000E+00 -0.69080173164E+02  0.69080173164E+02  0.00000000000E+00 0. -1.
        -24    2    1    2    0    0 -0.40873268126E+02 -0.18974427595E+02  0.18669022493E+03  0.20808187035E+03  0.80088524349E+02 0.  0.
         23    2    1    2    0    0  0.48417570003E+02  0.39294207111E+00 -0.39928328374E+00  0.10695181965E+03  0.95363078867E+02 0.  0.
         13    1    3    3    0    0 -0.32081066120E+02 -0.32761302745E+02  0.41101795907E+02  0.61578043065E+02  0.00000000000E+00 0. -1.
        -14    1    3    3    0    0 -0.87922020065E+01  0.13786875150E+02  0.14558842903E+03  0.14650382728E+03  0.00000000000E+00 0.  1.
        -13    1    4    4    0    0 -0.16208494526E+02  0.22985392360E+02  0.21137466790E+02  0.35182894410E+02  0.00000000000E+00 0.  1.
         13    1    4    4    0    0  0.64626064529E+02 -0.22592450289E+02 -0.21536750074E+02  0.71768925241E+02  0.00000000000E+00 0. -1.
         21    1    1    2  502  501 -0.75443018768E+01  0.18581485524E+02  0.16644209288E+02  0.26061807265E+02  0.00000000000E+00 0.  1.
<scales pt_clust_5="13000.00000" pt_clust_6="13000.00000" pt_clust_7="13000.00000" pt_clust_8="13000.00000" pt_clust_9="20.05463"></scales>
<clustering>
<clus scale="   20.055">  1  9  2 -1</clus>
<clus scale="   80.089">  5  6 -1 -1</clus>
<clus scale="   92.869">  1  5  2 -1</clus>
<clus scale="   95.363">  7  8 -1 -1</clus>
<clus scale="  106.323">  2  5  1 -1</clus>
</clustering>
</event>
<event>
 9    1  0.2374319E-005  0.8963490E+02  0.7546771E-02  0.1311653E+00
          1   -1    0    0  502    0  0.00000000000E+00  0.00000000000E+00  0.46389481672E+03  0.46389481672E+03  0.00000000000E+00 0. -1.
         -2   -1    0    0    0  501 -0.00000000000E+00 -0.00000000000E+00 -0.32906844266E+02  0.32906844266E+02  0.00000000000E+00 0.  1.
        -24    2    1    2    0    0 -0.24329659742E+01  0.19281617631E+01  0.35704568913E+02  0.85227350246E+02  0.77325596392E+02 0.  0.
         23    2    1    2    0    0  0.21295392273E+02 -0.11104620698E+02  0.29757795840E+03  0.31164257136E+03  0.89395998952E+02 0.  0.
         11    1    3    3    0    0  0.29575293667E+02 -0.22451241331E+02  0.18126528400E+02  0.41319816851E+02  0.00000000000E+00 0. -1.
        -12    1    3    3    0    0 -0.32008259641E+02  0.24379403094E+02  0.17578040514E+02  0.43907533394E+02  0.00000000000E+00 0.  1.
        -13    1    4    4    0    0 -0.32788542892E+02 -0.46648521426E-01  0.67601938285E+02  0.75133965561E+02  0.00000000000E+00 0.  1.
         13    1    4    4    0    0  0.54083935164E+02 -0.11057972176E+02  0.22997602011E+03  0.23650860580E+03  0.00000000000E+00 0. -1.
         21    1    1    2  502  501 -0.18862426299E+02  0.91764589348E+01  0.97705445141E+02  0.99931739375E+02  0.00000000000E+00 0.  1.
<scales pt_clust_5="13000.00000" pt_clust_6="13000.00000" pt_clust_7="13000.00000" pt_clust_8="13000.00000" pt_clust_9="20.97614"></scales>
<clustering>
<clus scale="   20.976">  1  9  2 -1</clus>
<clus scale="   77.326">  5  6 -1 -1</clus>
<clus scale="   77.602">  2  5  1 -1</clus>
<clus scale="   89.396">  7  8 -1 -1</clus>
<clus scale="   20.976">  1  5  2 -1</clus>
</clustering>
</event>
<event>
 9    1  0.2374319E-005  0.1875280E+03  0.7546771E-02  0.1176892E+00
         -2   -1    0    0    0  501 -0.00000000000E+00  0.00000000000E+00  0.79161869647E+02  0.79161869647E+02  0.00000000000E+00 0.  1.
          1   -1    0    0  502    0  0.00000000000E+00 -0.00000000000E+00 -0.14683806246E+04  0.14683806246E+04  0.00000000000E+00 0. -1.
         23    2    1    2    0    0  0.24190887690E+01 -0.91663211257E+02 -0.42897033720E+02  0.13633648858E+03  0.91320788042E+02 0.  0.
        -24    2    1    2    0    0 -0.14571116213E+03  0.16043899460E+03 -0.50947550427E+03  0.55939950328E+03  0.79938107665E+02 0.  0.
         13    1    4    4    0    0 -0.13782938073E+03  0.10073635646E+03 -0.38234883578E+03  0.41873068186E+03  0.00000000000E+00 0. -1.
        -14    1    4    4    0    0 -0.78817814057E+01  0.59702638137E+02 -0.12712666848E+03  0.14066882141E+03  0.00000000000E+00 0.  1.
        -11    1    3    3    0    0 -0.22917618383E+02 -0.14472692332E+02  0.19923131637E+02  0.33639370236E+02  0.00000000000E+00 0.  1.
         11    1    3    3    0    0  0.25336707152E+02 -0.77190518924E+02 -0.62820165357E+02  0.10269711835E+03  0.00000000000E+00 0. -1.
         21    1    1    2  502  501  0.14329207337E+03 -0.68775783343E+02 -0.83684621693E+03  0.85180650236E+03  0.00000000000E+00 0.  1.
<scales pt_clust_5="13000.00000" pt_clust_6="13000.00000" pt_clust_7="13000.00000" pt_clust_8="13000.00000" pt_clust_9="169.63686"></scales>
<clustering>
<clus scale="   79.938">  5  6 -1 -1</clus>
<clus scale="   91.321">  7  8 -1 -1</clus>
<clus scale="  129.412">  1  7  2 -1</clus>
<clus scale="  169.637">  2  9  1 -1</clus>
<clus scale="  169.637">  2  5  1 -1</clus>
</clustering>
</event>
<event>
 9    1  0.2374319E-005  0.9470171E+02  0.7546771E-02  0.1297647E+00
         -2   -1    0    0    0  501 -0.00000000000E+00  0.00000000000E+00  0.30168344184E+02  0.30168344184E+02  0.00000000000E+00 0.  1.
          1   -1    0    0  502    0  0.00000000000E+00 -0.00000000000E+00 -0.92853440507E+03  0.92853440507E+03  0.00000000000E+00 0. -1.
        -24    2    1    2    0    0  0.15397282794E+02 -0.11782794509E+02 -0.75401592175E+02  0.11207600931E+03  0.80620848398E+02 0.  0.
         23    2    1    2    0    0 -0.96071537818E+00  0.84139050144E+02 -0.46921756822E+03  0.48526720733E+03  0.90768019947E+02 0.  0.
         13    1    3    3    0    0  0.43915357089E+02 -0.24542475251E+02 -0.56095318115E+02  0.75349694055E+02  0.00000000000E+00 0. -1.
        -14    1    3    3    0    0 -0.28518074295E+02  0.12759680742E+02 -0.19306274060E+02  0.36726315255E+02  0.00000000000E+00 0.  1.
        -13    1    4    4    0    0  0.20220359465E+02  0.78654285069E+02 -0.44612063373E+03  0.45345229004E+03  0.00000000000E+00 0.  1.
         13    1    4    4    0    0 -0.21181074843E+02  0.54847650754E+01 -0.23096934491E+02  0.31814917292E+02  0.00000000000E+00 0. -1.
         21    1    1    2  502  501 -0.14436567416E+02 -0.72356255635E+02 -0.35374690049E+03  0.36135953262E+03  0.00000000000E+00 0. -1.
<scales pt_clust_5="13000.00000" pt_clust_6="13000.00000" pt_clust_7="13000.00000" pt_clust_8="13000.00000" pt_clust_9="73.78240"></scales>
<clustering>
<clus scale="   73.782">  2  9  1 -1</clus>
<clus scale="   80.621">  5  6 -1 -1</clus>
<clus scale="   85.025">  1  5  2 -1</clus>
<clus scale="   90.768">  7  8 -1 -1</clus>
<clus scale="   73.782">  2  5  1 -1</clus>
</clustering>
</event>
<event>
 9    1  0.2374319E-005  0.1402608E+03  0.7546771E-02  0.1214727E+00
         -2   -1    0    0    0  501 -0.00000000000E+00  0.00000000000E+00  0.33603399565E+02  0.33603399565E+02  0.00000000000E+00 0.  1.
          1   -1    0    0  502    0  0.00000000000E+00 -0.00000000000E+00 -0.70874893495E+03  0.70874893495E+03  0.00000000000E+00 0. -1.
        -24    2    1    2    0    0  0.69154200099E+02  0.89876080890E+02 -0.27068626914E+03  0.30416268448E+03  0.79899117775E+02 0.  0.
         23    2    1    2    0    0 -0.84169489366E+02 -0.66203523574E+02 -0.35763477495E+03  0.38361509675E+03  0.88263813224E+02 0.  0.
         13    1    3    3    0    0  0.24992675498E+02  0.59159884633E+02 -0.22370656761E+03  0.23274267801E+03  0.00000000000E+00 0. -1.
        -14    1    3    3    0    0  0.44161524601E+02  0.30716196257E+02 -0.46979701537E+02  0.71420006469E+02  0.00000000000E+00 0.  1.
        -13    1    4    4    0    0 -0.26294836407E+02 -0.40561271369E+02 -0.27657374122E+03  0.28076621857E+03  0.00000000000E+00 0.  1.
         13    1    4    4    0    0 -0.57874652959E+02 -0.25642252205E+02 -0.81061033732E+02  0.10284887818E+03  0.00000000000E+00 0. -1.
         21    1    1    2  502  501  0.15015289267E+02 -0.23672557316E+02 -0.46824491290E+02  0.54574553285E+02  0.00000000000E+00 0.  1.
<scales pt_clust_5="13000.00000" pt_clust_6="13000.00000" pt_clust_7="13000.00000" pt_clust_8="13000.00000" pt_clust_9="28.03300"></scales>
<clustering>
<clus scale="   28.033">  1  9  2 -1</clus>
<clus scale="   79.899">  5  6 -1 -1</clus>
<clus scale="   88.264">  7  8 -1 -1</clus>
<clus scale="  135.153">  1  5  2 -1</clus>
<clus scale="  140.261">  2  5  1 -1</clus>
</clustering>
</event>
<event>
 9    1  0.2374319E-005  0.1231463E+03  0.7546771E-02  0.1255690E+00
          1   -1    0    0  502    0  0.00000000000E+00  0.00000000000E+00  0.94663190863E+03  0.94663190863E+03  0.00000000000E+00 0. -1.
         -2   -1    0    0    0  501 -0.00000000000E+00 -0.00000000000E+00 -0.26051109036E+03  0.26051109036E+03  0.00000000000E+00 0.  1.
         23    2    1    2    0    0 -0.81944828457E+02  0.86888944427E+01 -0.23554270678E+03  0.26566186883E+03  0.91134022366E+02 0.  0.
        -24    2    1    2    0    0 -0.19364266093E+02 -0.23724470405E+02  0.33479759745E+03  0.34574526741E+03  0.80700268774E+02 0.  0.
         13    1    4    4    0    0 -0.42895752236E+02  0.49118999013E+01  0.11486992944E+03  0.12271622961E+03  0.00000000000E+00 0. -1.
        -14    1    4    4    0    0  0.23531486143E+02 -0.28636370306E+02  0.21992766802E+03  0.22302903780E+03  0.00000000000E+00 0.  1.
        -11    1    3    3    0    0 -0.58096403508E+02 -0.33734796299E+02 -0.90760850643E+02  0.11291926581E+03  0.00000000000E+00 0. -1.
         11    1    3    3    0    0 -0.23848424949E+02  0.42423690742E+02 -0.14478185614E+03  0.15274260301E+03  0.00000000000E+00 0.  1.
         21    1    1    2  502  501  0.10130909455E+03  0.15035575962E+02  0.58686592760E+03  0.59573586275E+03  0.00000000000E+00 0. -1.
<scales pt_clust_5="13000.00000" pt_clust_6="13000.00000" pt_clust_7="13000.00000" pt_clust_8="13000.00000" pt_clust_9="82.82277"></scales>
<clustering>
<clus scale="   80.700">  5  6 -1 -1</clus>
<clus scale="   86.315">  1  5  2 -1</clus>
<clus scale="   82.823">  1  9  2 -1</clus>
<clus scale="   91.134">  7  8 -1 -1</clus>
<clus scale="   86.315">  1  5  2 -1</clus>
</clustering>
</event>
<event>
 9    1  0.2374319E-005  0.1171995E+03  0.7546771E-02  0.1252367E+00
         -2   -1    0    0    0  501 -0.00000000000E+00  0.00000000000E+00  0.96374862361E+02  0.96374862361E+02  0.00000000000E+00 0.  1.
          1   -1    0    0  502    0  0.00000000000E+00 -0.00000000000E+00 -0.63573016244E+03  0.63573016244E+03  0.00000000000E+00 0. -1.
         23    2    1    2    0    0 -0.25256811151E+02  0.66602910009E+02  0.41614274808E+02  0.12476169794E+03  0.93594226717E+02 0.  0.
        -24    2    1    2    0    0  0.76783519904E+02 -0.36599869766E+02 -0.40283666993E+03  0.41949627214E+03  0.80401991895E+02 0.  0.
         11    1    4    4    0    0 -0.90516531425E+01 -0.29322526105E+02 -0.11735236084E+03  0.12129847302E+03  0.00000000000E+00 0. -1.
        -12    1    4    4    0    0  0.85835173047E+02 -0.72773436613E+01 -0.28548430909E+03  0.29819779912E+03  0.00000000000E+00 0.  1.
        -11    1    3    3    0    0  0.25694848074E+02  0.55791690113E+02  0.38689764941E+02  0.72593634807E+02  0.00000000000E+00 0.  1.
         11    1    3    3    0    0 -0.50951659226E+02  0.10811219896E+02  0.29245098666E+01  0.52168063137E+02  0.00000000000E+00 0. -1.
         21    1    1    2  502  501 -0.51526708753E+02 -0.30003040243E+02 -0.17813290496E+03  0.18784705472E+03  0.00000000000E+00 0.  1.
<scales pt_clust_5="13000.00000" pt_clust_6="13000.00000" pt_clust_7="13000.00000" pt_clust_8="13000.00000" pt_clust_9="59.62536"></scales>
<clustering>
<clus scale="   59.625">  2  9  1 -1</clus>
<clus scale="   80.402">  5  6 -1 -1</clus>
<clus scale="   93.594">  7  8 -1 -1</clus>
<clus scale="  106.959">  2  5  1 -1</clus>
<clus scale="   59.625">  2  5  1 -1</clus>
</clustering>
</event>
<event>
 9    1  0.2374319E-005  0.1317700E+03  0.7546771E-02  0.1240263E+00
          1   -1    0    0  502    0  0.00000000000E+00  0.00000000000E+00  0.64316311193E+03  0.64316311193E+03  0.00000000000E+00 0. -1.
         -2   -1    0    0    0  501 -0.00000000000E+00 -0.00000000000E+00 -0.10033076039E+03  0.10033076039E+03  0.00000000000E+00 0.  1.
        -24    2    1    2    0    0  0.95641299879E+02  0.47196894093E+02 -0.27925457786E+02  0.13459815758E+03  0.77214168238E+02 0.  0.
         23    2    1    2    0    0 -0.10348477352E+02  0.21423313734E+02  0.34329944231E+03  0.35646571015E+03  0.92990569760E+02 0.  0.
         11    1    3    3    0    0  0.63961899266E+02  0.36417484422E+02  0.19884016092E+02  0.76241273765E+02  0.00000000000E+00 0. -1.
        -12    1    3    3    0    0  0.31679400614E+02  0.10779409670E+02 -0.47809473878E+02  0.58356883815E+02  0.00000000000E+00 0.  1.
        -13    1    4    4    0    0 -0.51685686378E+02  0.70912865532E+01  0.19321633800E+03  0.20013557853E+03  0.00000000000E+00 0.  1.
         13    1    4    4    0    0  0.41337209026E+02  0.14332027180E+02  0.15008310431E+03  0.15633013162E+03  0.00000000000E+00 0. -1.
         21    1    1    2  502  501 -0.85292822527E+02 -0.68620207826E+02  0.22745836701E+03  0.25243000459E+03  0.00000000000E+00 0. -1.
<scales pt_clust_5="13000.00000" pt_clust_6="13000.00000" pt_clust_7="13000.00000" pt_clust_8="13000.00000" pt_clust_9="106.77687"></scales>
<clustering>
<clus scale="   77.214">  5  6 -1 -1</clus>
<clus scale="   92.991">  7  8 -1 -1</clus>
<clus scale="   95.986">  1  7  2 -1</clus>
<clus scale="  106.777">  1  9  2 -1</clus>
<clus scale="   95.986">  1  5  2 -1</clus>
</clustering>
</event>
<event>
 9    1  0.2374319E-005  0.9135053E+02  0.7546771E-02  0.1306919E+00
          1   -1    0    0  502    0  0.00000000000E+00  0.00000000000E+00  0.45588338383E+03  0.45588338383E+03  0.00000000000E+00 0. -1.
         -2   -1    0    0    0  501 -0.00000000000E+00 -0.00000000000E+00 -0.39355533847E+02  0.39355533847E+02  0.00000000000E+00 0.  1.
         23    2    1    2    0    0  0.10998154480E+02  0.95920971090E+01  0.40580980314E+02  0.10070934039E+03  0.91008722378E+02 0.  0.
        -24    2    1    2    0    0  0.33458162867E+01  0.15622360411E+02  0.19372963146E+03  0.21001767994E+03  0.79504736642E+02 0.  0.
         11    1    4    4    0    0  0.37411497073E+02  0.26056501002E+01  0.14102675313E+03  0.14592790900E+03  0.00000000000E+00 0. -1.
        -12    1    4    4    0    0 -0.34065680786E+02  0.13016710311E+02  0.52702878328E+02  0.64089770937E+02  0.00000000000E+00 0.  1.
        -13    1    3    3    0    0  0.42483840883E+02  0.28745379102E+02  0.37862808957E+02  0.63755516295E+02  0.00000000000E+00 0. -1.
         13    1    3    3    0    0 -0.31485686403E+02 -0.19153281993E+02  0.27181713562E+01  0.36953824091E+02  0.00000000000E+00 0.  1.
         21    1    1    2  502  501 -0.14343970766E+02 -0.25214457520E+02  0.18221723821E+03  0.18451189735E+03  0.00000000000E+00 0. -1.
<scales pt_clust_5="13000.00000" pt_clust_6="13000.00000" pt_clust_7="13000.00000" pt_clust_8="13000.00000" pt_clust_9="29.00894"></scales>
<clustering>
<clus scale="   29.009">  1  9  2 -1</clus>
<clus scale="   79.505">  5  6 -1 -1</clus>
<clus scale="   79.896">  1  5  2 -1</clus>
<clus scale="   91.009">  7  8 -1 -1</clus>
<clus scale="   29.009">  1  5  2 -1</clus>
</clustering>
</event>
<event>
 9    1  0.2374319E-005  0.1335554E+03  0.7546771E-02  0.1225526E+00
         -2   -1    0    0    0  501 -0.00000000000E+00  0.00000000000E+00  0.27520929625E+03  0.27520929625E+03  0.00000000000E+00 0.  1.
          1   -1    0    0  502    0  0.00000000000E+00 -0.00000000000E+00 -0.38597027809E+03  0.38597027809E+03  0.00000000000E+00 0. -1.
         23    2    1    2    0    0 -0.65915446895E+02 -0.64251568183E+02  0.13620923144E+03  0.18845409669E+03  0.92135127268E+02 0.  0.
        -24    2    1    2    0    0  0.85832273126E+02  0.45682038335E+02 -0.34708081113E+03  0.36897751763E+03  0.78900515361E+02 0.  0.
         11    1    4    4    0    0  0.94082373834E+02  0.39160605279E+02 -0.23172427519E+03  0.25314261945E+03  0.00000000000E+00 0. -1.
        -12    1    4    4    0    0 -0.82501007077E+01  0.65214330558E+01 -0.11535653594E+03  0.11583489818E+03  0.00000000000E+00 0.  1.
        -13    1    3    3    0    0 -0.34143063060E+02 -0.67942090351E+02  0.13674424356E+03  0.15646362051E+03  0.00000000000E+00 0.  1.
         13    1    3    3    0    0 -0.31772383835E+02  0.36905221681E+01 -0.53501211818E+00  0.31990476182E+02  0.00000000000E+00 0. -1.
         21    1    1    2  502  501 -0.19916826231E+02  0.18569529848E+02  0.10011059785E+03  0.10374796002E+03  0.00000000000E+00 0. -1.
<scales pt_clust_5="13000.00000" pt_clust_6="13000.00000" pt_clust_7="13000.00000" pt_clust_8="13000.00000" pt_clust_9="27.23063"></scales>
<clustering>
<clus scale="   27.231">  1  9  2 -1</clus>
<clus scale="   78.901">  5  6 -1 -1</clus>
<clus scale="   92.135">  7  8 -1 -1</clus>
<clus scale="  124.794">  2  5  1 -1</clus>
<clus scale="  124.794">  2  5  1 -1</clus>
</clustering>
</event>
<event>
 9    1  0.2374319E-005  0.1552547E+03  0.7546771E-02  0.1196108E+00
         -2   -1    0    0    0  501 -0.00000000000E+00  0.00000000000E+00  0.24408929008E+03  0.24408929008E+03  0.00000000000E+00 0.  1.
          1   -1    0    0  502    0  0.00000000000E+00 -0.00000000000E+00 -0.21425269396E+03  0.21425269396E+03  0.00000000000E+00 0. -1.
         23    2    1    2    0    0 -0.12133866418E+03  0.40428929703E+02  0.11787776105E+03  0.19633653526E+03  0.91078530647E+02 0.  0.
        -24    2    1    2    0    0  0.84362085985E+02 -0.10718497055E+03 -0.18882364763E+02  0.15901721661E+03  0.79525794663E+02 0.  0.
         11    1    4    4    0    0  0.63593095066E+02 -0.51809196082E+02  0.24571618398E+02  0.85627326067E+02  0.00000000000E+00 0. -1.
        -12    1    4    4    0    0  0.20768990919E+02 -0.55375774467E+02 -0.43453983161E+02  0.73389890545E+02  0.00000000000E+00 0.  1.
        -13    1    3    3    0    0 -0.39939873785E+02 -0.24540066667E+02  0.13258050010E+02  0.48715339269E+02  0.00000000000E+00 0. -1.
         13    1    3    3    0    0 -0.81398790396E+02  0.64968996370E+02  0.10461971104E+03  0.14762119599E+03  0.00000000000E+00 0.  1.
         21    1    1    2  502  501  0.36976578196E+02  0.66756040846E+02 -0.69158800161E+02  0.10298823216E+03  0.00000000000E+00 0. -1.
<scales pt_clust_5="13000.00000" pt_clust_6="13000.00000" pt_clust_7="13000.00000" pt_clust_8="13000.00000" pt_clust_9="76.31275"></scales>
<clustering>
<clus scale="   76.313">  2  9  1 -1</clus>
<clus scale="   79.526">  5  6 -1 -1</clus>
<clus scale="   91.079">  7  8 -1 -1</clus>
<clus scale="  148.772">  2  5  1 -1</clus>
<clus scale="   76.313">  2  5  1 -1</clus>
</clustering>
</event>
<event>
 9    1  0.2374319E-005  0.1341197E+03  0.7546771E-02  0.1221737E+00
          1   -1    0    0  502    0  0.00000000000E+00  0.00000000000E+00  0.18795098041E+03  0.18795098041E+03  0.00000000000E+00 0. -1.
         -2   -1    0    0    0  501 -0.00000000000E+00 -0.00000000000E+00 -0.36288294086E+03  0.36288294086E+03  0.00000000000E+00 0.  1.
        -24    2    1    2    0    0 -0.80433121269E+02 -0.14163798473E+03 -0.23922203569E+03  0.30144356671E+03  0.84322214365E+02 0.  0.
         23    2    1    2    0    0  0.88910964852E+01  0.97104808145E+02  0.93846745052E+02  0.16008715272E+03  0.85511926351E+02 0.  0.
         11    1    3    3    0    0 -0.34136883069E+02  0.27825972526E+00 -0.44385783498E+02  0.55995553313E+02  0.00000000000E+00 0. -1.
        -12    1    3    3    0    0 -0.46296238201E+02 -0.14191624446E+03 -0.19483625219E+03  0.24544801340E+03  0.00000000000E+00 0.  1.
        -13    1    4    4    0    0 -0.10869554374E+01  0.65570156440E+02  0.55674752667E+01  0.65815071743E+02  0.00000000000E+00 0.  1.
         13    1    4    4    0    0  0.99780519226E+01  0.31534651705E+02  0.88279269786E+02  0.94272080980E+02  0.00000000000E+00 0. -1.
         21    1    1    2  502  501  0.71542024784E+02  0.44533176589E+02 -0.29556669808E+02  0.89303201832E+02  0.00000000000E+00 0. -1.
<scales pt_clust_5="13000.00000" pt_clust_6="13000.00000" pt_clust_7="13000.00000" pt_clust_8="13000.00000" pt_clust_9="84.27019"></scales>
<clustering>
<clus scale="   84.270">  2  9  1 -1</clus>
<clus scale="   84.322">  5  6 -1 -1</clus>
<clus scale="   85.512">  7  8 -1 -1</clus>
<clus scale="  133.364">  2  5  1 -1</clus>
<clus scale="  134.120">  1  5  2 -1</clus>
</clustering>
</event>
<event>
 9    1  0.2374319E-005  0.9561388E+02  0.7546771E-02  0.1296354E+00
          1   -1    0    0  502    0  0.00000000000E+00  0.00000000000E+00  0.70585164761E+02  0.70585164761E+02  0.00000000000E+00 0. -1.
         -2   -1    0    0    0  501 -0.00000000000E+00 -0.00000000000E+00 -0.32140174014E+03  0.32140174014E+03  0.00000000000E+00 0.  1.
         23    2    1    2    0    0 -0.25481507067E+02  0.93812001102E+01 -0.16797247775E+03  0.19401345681E+03  0.93215631850E+02 0.  0.
        -24    2    1    2    0    0 -0.38619957484E+02 -0.43476773676E+02 -0.74150334853E+02  0.12484966670E+03  0.81898938647E+02 0.  0.
         11    1    4    4    0    0 -0.39427279697E+02  0.11842682381E+02 -0.49220103616E+02  0.64166799127E+02  0.00000000000E+00 0. -1.
        -12    1    4    4    0    0  0.80732221309E+00 -0.55319456057E+02 -0.24930231236E+02  0.60682867574E+02  0.00000000000E+00 0.  1.
        -13    1    3    3    0    0 -0.60866020496E+01 -0.27975206816E+02 -0.14132617869E+03  0.14419690601E+03  0.00000000000E+00 0.  1.
         13    1    3    3    0    0 -0.19394905017E+02  0.37356406926E+02 -0.26646299064E+02  0.49816550793E+02  0.00000000000E+00 0. -1.
         21    1    1    2  502  501  0.64101464551E+02  0.34095573565E+02 -0.86937627756E+01  0.73123781395E+02  0.00000000000E+00 0.  1.
<scales pt_clust_5="13000.00000" pt_clust_6="13000.00000" pt_clust_7="13000.00000" pt_clust_8="13000.00000" pt_clust_9="72.60514"></scales>
<clustering>
<clus scale="   72.605">  1  9  2 -1</clus>
<clus scale="   81.899">  5  6 -1 -1</clus>
<clus scale="   84.619">  1  5  2 -1</clus>
<clus scale="   93.216">  7  8 -1 -1</clus>
<clus scale="   72.605">  1  5  2 -1</clus>
</clustering>
</event>
<event>
 9    1  0.2374319E-005  0.9957949E+02  0.7546771E-02  0.1287001E+00
         -2   -1    0    0    0  501 -0.00000000000E+00  0.00000000000E+00  0.21827125215E+03  0.21827125215E+03  0.00000000000E+00 0.  1.
          1   -1    0    0  502    0  0.00000000000E+00 -0.00000000000E+00 -0.31466771290E+03  0.31466771290E+03  0.00000000000E+00 0. -1.
        -24    2    1    2    0    0 -0.34970216074E+02 -0.13425277513E+02  0.19109557988E+03  0.21100565374E+03  0.81257068452E+02 0.  0.
         23    2    1    2    0    0  0.63207220810E+01  0.37896258862E+02 -0.24739752750E+03  0.26691338385E+03  0.92526428127E+02 0.  0.
         13    1    3    3    0    0  0.21689631820E+02 -0.16767534585E+02  0.32270615073E+02  0.42343629293E+02  0.00000000000E+00 0. -1.
        -14    1    3    3    0    0 -0.56659847893E+02  0.33422570724E+01  0.15882496481E+03  0.16866202445E+03  0.00000000000E+00 0.  1.
        -11    1    4    4    0    0  0.30192944200E+02  0.57518198382E+02 -0.12746621327E+03  0.14306499414E+03  0.00000000000E+00 0. -1.
         11    1    4    4    0    0 -0.23872222119E+02 -0.19621939519E+02 -0.11993131423E+03  0.12384838971E+03  0.00000000000E+00 0.  1.
         21    1    1    2  502  501  0.28649493993E+02 -0.24470981350E+02 -0.40094513134E+02  0.55019927460E+02  0.00000000000E+00 0.  1.
<scales pt_clust_5="13000.00000" pt_clust_6="13000.00000" pt_clust_7="13000.00000" pt_clust_8="13000.00000" pt_clust_9="37.67788"></scales>
<clustering>
<clus scale="   37.678">  2  9  1 -1</clus>
<clus scale="   81.257">  5  6 -1 -1</clus>
<clus scale="   89.206">  1  5  2 -1</clus>
<clus scale="   92.526">  7  8 -1 -1</clus>
<clus scale="   37.678">  2  5  1 -1</clus>
</clustering>
</event>
<event>
 9    1  0.2374319E-005  0.1191737E+03  0.7546771E-02  0.1251421E+00
          1   -1    0    0  502    0  0.00000000000E+00  0.00000000000E+00  0.72034542144E+03  0.72034542144E+03  0.00000000000E+00 0. -1.
         -2   -1    0    0    0  501 -0.00000000000E+00 -0.00000000000E+00 -0.54271919969E+02  0.54271919969E+02  0.00000000000E+00 0.  1.
         23    2    1    2    0    0 -0.49279742410E+02 -0.14039429520E+02  0.87827879361E+02  0.13586935026E+03  0.90117397625E+02 0.  0.
        -24    2    1    2    0    0 -0.68774525533E+02 -0.29395428086E+02  0.43123387170E+03  0.44526452469E+03  0.81876848305E+02 0.  0.
         11    1    4    4    0    0 -0.79618986693E+02 -0.38689417378E+02  0.28741290476E+03  0.30073614994E+03  0.00000000000E+00 0. -1.
        -12    1    4    4    0    0  0.10844461160E+02  0.92939892916E+01  0.14382096695E+03  0.14452837475E+03  0.00000000000E+00 0.  1.
        -11    1    3    3    0    0  0.26496865691E+02 -0.38807821260E+01  0.28399670497E+02  0.39034416169E+02  0.00000000000E+00 0. -1.
         11    1    3    3    0    0 -0.75776608101E+02 -0.10158647394E+02  0.59428208864E+02  0.96834934094E+02  0.00000000000E+00 0.  1.
         21    1    1    2  502  501  0.11805426794E+03  0.43434857606E+02  0.14701175041E+03  0.19348346646E+03  0.00000000000E+00 0.  1.
<scales pt_clust_5="13000.00000" pt_clust_6="13000.00000" pt_clust_7="13000.00000" pt_clust_8="13000.00000" pt_clust_9="86.59424"></scales>
<clustering>
<clus scale="   81.877">  5  6 -1 -1</clus>
<clus scale="   90.117">  7  8 -1 -1</clus>
<clus scale="  103.667">  2  7  1 -1</clus>
<clus scale="   86.594">  2  9  1 -1</clus>
<clus scale="  119.174">  1  5  2 -1</clus>
</clustering>
</event>
<event>
 9    1  0.2374319E-005  0.9643812E+02  0.7546771E-02  0.1289379E+00
          1   -1    0    0  502    0  0.00000000000E+00  0.00000000000E+00  0.13791319026E+03  0.13791319026E+03  0.00000000000E+00 0. -1.
         -2   -1    0    0    0  501 -0.00000000000E+00 -0.00000000000E+00 -0.23757100834E+03  0.23757100834E+03  0.00000000000E+00 0.  1.
         23    2    1    2    0    0  0.18447838030E+02 -0.22169095518E+02 -0.19571441267E+03  0.21854580423E+03  0.92878122793E+02 0.  0.
        -24    2    1    2    0    0  0.12211158362E+02  0.13017460337E+02  0.68423970787E+02  0.11466206076E+03  0.90260632267E+02 0.  0.
         11    1    4    4    0    0 -0.76968501231E+01  0.49675565814E+02  0.38723455631E+02  0.63453994017E+02  0.00000000000E+00 0. -1.
        -12    1    4    4    0    0  0.19908008485E+02 -0.36658105477E+02  0.29700515156E+02  0.51208066742E+02  0.00000000000E+00 0.  1.
        -13    1    3    3    0    0  0.45050473042E+01 -0.46225872015E+02 -0.18144084830E+03  0.18729097182E+03  0.00000000000E+00 0.  1.
         13    1    3    3    0    0  0.13942790726E+02  0.24056776497E+02 -0.14273564372E+02  0.31254832403E+02  0.00000000000E+00 0. -1.
         21    1    1    2  502  501 -0.30658996392E+02  0.91516351807E+01  0.27632623798E+02  0.42276333618E+02  0.00000000000E+00 0. -1.
<scales pt_clust_5="13000.00000" pt_clust_6="13000.00000" pt_clust_7="13000.00000" pt_clust_8="13000.00000" pt_clust_9="31.99573"></scales>
<clustering>
<clus scale="   31.996">  1  9  2 -1</clus>
<clus scale="   90.261">  5  6 -1 -1</clus>
<clus scale="   92.878">  7  8 -1 -1</clus>
<clus scale="   93.920">  1  5  2 -1</clus>
<clus scale="   31.996">  1  5  2 -1</clus>
</clustering>
</event>
<event>
 9    1  0.2374319E-005  0.1047809E+03  0.7546771E-02  0.1276341E+00
          1   -1    0    0  502    0  0.00000000000E+00  0.00000000000E+00  0.38920546829E+03  0.38920546829E+03  0.00000000000E+00 0. -1.
         -2   -1    0    0    0  501 -0.00000000000E+00 -0.00000000000E+00 -0.50003890659E+02  0.50003890659E+02  0.00000000000E+00 0.  1.
        -24    2    1    2    0    0 -0.23651077395E+02 -0.39241464866E+02  0.23355400819E+02  0.95698941158E+02  0.80706545984E+02 0.  0.
         23    2    1    2    0    0  0.10754941510E+02  0.58708620100E+02  0.27489201731E+03  0.29636676887E+03  0.93302034624E+02 0.  0.
         13    1    3    3    0    0 -0.40669670447E+02 -0.55749286041E+02  0.15549180464E+02  0.70737415852E+02  0.00000000000E+00 0. -1.
        -14    1    3    3    0    0  0.17018593052E+02  0.16507821175E+02  0.78062203550E+01  0.24961525307E+02  0.00000000000E+00 0.  1.
        -11    1    4    4    0    0  0.40079977472E+02  0.68032578915E+02  0.17856672084E+03  0.19524576866E+03  0.00000000000E+00 0.  1.
         11    1    4    4    0    0 -0.29325035962E+02 -0.93239588154E+01  0.96325296474E+02  0.10112100021E+03  0.00000000000E+00 0. -1.
         21    1    1    2  502  501  0.12896135886E+02 -0.19467155234E+02  0.40954159500E+02  0.47143648926E+02  0.00000000000E+00 0. -1.
<scales pt_clust_5="13000.00000" pt_clust_6="13000.00000" pt_clust_7="13000.00000" pt_clust_8="13000.00000" pt_clust_9="23.35124"></scales>
<clustering>
<clus scale="   23.351">  1  9  2 -1</clus>
<clus scale="   80.707">  5  6 -1 -1</clus>
<clus scale="   93.302">  7  8 -1 -1</clus>
<clus scale="   93.741">  2  5  1 -1</clus>
<clus scale="   23.351">  1  5  2 -1</clus>
</clustering>
</event>
<event>
 9    1  0.2374319E-005  0.1618158E+03  0.7546771E-02  0.1188017E+00
         -4   -1    0    0    0  501 -0.00000000000E+00  0.00000000000E+00  0.76816289681E+03  0.76816289681E+03  0.00000000000E+00 0.  1.
          3   -1    0    0  502    0  0.00000000000E+00 -0.00000000000E+00 -0.12133102401E+03  0.12133102401E+03  0.00000000000E+00 0. -1.
        -24    2    1    2    0    0  0.22697872762E+02  0.12578534634E+03  0.53962872011E+03  0.56047198982E+03  0.81194513488E+02 0.  0.
         23    2    1    2    0    0 -0.34179343448E+02 -0.15535158589E+03  0.17568399149E+03  0.25355265267E+03  0.90120697165E+02 0.  0.
         13    1    3    3    0    0  0.47655215259E+02  0.51486361989E+02  0.20102592836E+03  0.21291615459E+03  0.00000000000E+00 0. -1.
        -14    1    3    3    0    0 -0.24957342496E+02  0.74298984351E+02  0.33860279175E+03  0.34755583523E+03  0.00000000000E+00 0.  1.
        -13    1    4    4    0    0  0.25135757582E+02 -0.81177311845E+02  0.10545140140E+03  0.13543101685E+03  0.00000000000E+00 0.  1.
         13    1    4    4    0    0 -0.59315101030E+02 -0.74174274040E+02  0.70232590088E+02  0.11812163583E+03  0.00000000000E+00 0. -1.
         21    1    1    2  502  501  0.11481470686E+02  0.29566239545E+02 -0.68480838799E+02  0.75469278336E+02  0.00000000000E+00 0. -1.
<scales pt_clust_5="13000.00000" pt_clust_6="13000.00000" pt_clust_7="13000.00000" pt_clust_8="13000.00000" pt_clust_9="31.71729"></scales>
<clustering>
<clus scale="   31.717">  2  9  1 -1</clus>
<clus scale="   81.195">  5  6 -1 -1</clus>
<clus scale="   90.121">  7  8 -1 -1</clus>
<clus scale="  157.020">  1  5  2 -1</clus>
<clus scale="   31.717">  2  5  1 -1</clus>
</clustering>
</event>
<event>
 9    1  0.2374319E-005  0.9247411E+02  0.7546771E-02  0.1304331E+00
         -2   -1    0    0    0  501 -0.00000000000E+00  0.00000000000E+00  0.19019480439E+02  0.19019480439E+02  0.00000000000E+00 0.  1.
          1   -1    0    0  502    0  0.00000000000E+00 -0.00000000000E+00 -0.79924696016E+03  0.79924696016E+03  0.00000000000E+00 0. -1.
        -24    2    1    2    0    0 -0.19808550888E+02 -0.62298135138E+01 -0.15437129326E+03  0.17512261223E+03  0.80039014651E+02 0.  0.
         23    2    1    2    0    0 -0.13817562565E+02 -0.29669414124E+02 -0.37213705271E+03  0.38470066463E+03  0.91855409201E+02 0.  0.
         11    1    3    3    0    0 -0.21881969678E+02  0.17587811807E+02 -0.14763986353E+03  0.15028533203E+03  0.00000000000E+00 0. -1.
        -12    1    3    3    0    0  0.20734187895E+01 -0.23817625321E+02 -0.67314297334E+01  0.24837280199E+02  0.00000000000E+00 0.  1.
        -11    1    4    4    0    0  0.37386265943E+02 -0.26184642752E+02 -0.15500321339E+03  0.16158392420E+03  0.00000000000E+00 0.  1.
         11    1    4    4    0    0 -0.51203828508E+02 -0.34847713714E+01 -0.21713383932E+03  0.22311674044E+03  0.00000000000E+00 0. -1.
         21    1    1    2  502  501  0.33626113453E+02  0.35899227638E+02 -0.25371913375E+03  0.25844316374E+03  0.00000000000E+00 0. -1.
<scales pt_clust_5="13000.00000" pt_clust_6="13000.00000" pt_clust_7="13000.00000" pt_clust_8="13000.00000" pt_clust_9="49.18811"></scales>
<clustering>
<clus scale="   49.188">  2  9  1 -1</clus>
<clus scale="   80.039">  5  6 -1 -1</clus>
<clus scale="   80.748">  1  5  2 -1</clus>
<clus scale="   91.855">  7  8 -1 -1</clus>
<clus scale="   49.188">  2  5  1 -1</clus>
</clustering>
</event>
<event>
 9    1  0.2374319E-005  0.2716581E+03  0.7546771E-02  0.1100772E+00
          1   -1    0    0  502    0  0.00000000000E+00  0.00000000000E+00  0.14963183806E+04  0.14963183806E+04  0.00000000000E+00 0. -1.
         -2   -1    0    0    0  501 -0.00000000000E+00 -0.00000000000E+00 -0.33545935440E+03  0.33545935440E+03  0.00000000000E+00 0.  1.
         23    2    1    2    0    0 -0.11785488439E+03  0.23557231207E+03 -0.25719390722E+03  0.37910156230E+03  0.90472098689E+02 0.  0.
        -24    2    1    2    0    0  0.78240890999E+01 -0.16626581224E+03  0.85822512149E+03  0.87794376031E+03  0.80804395999E+02 0.  0.
         13    1    4    4    0    0 -0.26112452730E+02 -0.13796546112E+03  0.67712753229E+03  0.69153309656E+03  0.00000000000E+00 0. -1.
        -14    1    4    4    0    0  0.33936541830E+02 -0.28300351125E+02  0.18109758920E+03  0.18641066375E+03  0.00000000000E+00 0.  1.
        -13    1    3    3    0    0 -0.68002719298E+02  0.21335709114E+03 -0.20742895862E+03  0.30524152904E+03  0.00000000000E+00 0.  1.
         13    1    3    3    0    0 -0.49852165091E+02  0.22215220923E+02 -0.49764948598E+02  0.73860033265E+02  0.00000000000E+00 0. -1.
         21    1    1    2  502  501  0.11003079529E+03 -0.69306499824E+02  0.55982781190E+03  0.57473241235E+03  0.00000000000E+00 0. -1.
<scales pt_clust_5="13000.00000" pt_clust_6="13000.00000" pt_clust_7="13000.00000" pt_clust_8="13000.00000" pt_clust_9="130.03910"></scales>
<clustering>
<clus scale="   80.804">  5  6 -1 -1</clus>
<clus scale="   90.472">  7  8 -1 -1</clus>
<clus scale="  130.039">  1  9  2 -1</clus>
<clus scale="  268.593">  1  5  2 -1</clus>
<clus scale="  130.039">  1  5  2 -1</clus>
</clustering>
</event>
<event>
 9    1  0.2374319E-005  0.1018804E+03  0.7546771E-02  0.1281504E+00
          1   -1    0    0  502    0  0.00000000000E+00  0.00000000000E+00  0.46165664583E+02  0.46165664583E+02  0.00000000000E+00 0. -1.
         -2   -1    0    0    0  501 -0.00000000000E+00 -0.00000000000E+00 -0.31791236498E+03  0.31791236498E+03  0.00000000000E+00 0.  1.
        -24    2    1    2    0    0 -0.43853225807E+02  0.94248853806E+01 -0.18773228838E+03  0.20953140656E+03  0.81535663118E+02 0.  0.
         23    2    1    2    0    0  0.42391770510E+02  0.17101296353E+02 -0.62337964478E+02  0.12025897876E+03  0.92123198026E+02 0.  0.
         13    1    3    3    0    0  0.12091221068E+02 -0.24315796181E+02 -0.45024368269E+02  0.52579932568E+02  0.00000000000E+00 0. -1.
        -14    1    3    3    0    0 -0.55944446875E+02  0.33740681562E+02 -0.14270792011E+03  0.15695147400E+03  0.00000000000E+00 0.  1.
        -13    1    4    4    0    0 -0.14405298406E+02  0.34347980993E+02 -0.45012112988E+02  0.58424196495E+02  0.00000000000E+00 0.  1.
         13    1    4    4    0    0  0.56797068916E+02 -0.17246684640E+02 -0.17325851490E+02  0.61834782270E+02  0.00000000000E+00 0. -1.
         21    1    1    2  502  501  0.14614552975E+01 -0.26526181734E+02 -0.21676447541E+02  0.34287644231E+02  0.00000000000E+00 0.  1.
<scales pt_clust_5="13000.00000" pt_clust_6="13000.00000" pt_clust_7="13000.00000" pt_clust_8="13000.00000" pt_clust_9="26.56641"></scales>
<clustering>
<clus scale="   26.566">  1  9  2 -1</clus>
<clus scale="   81.536">  5  6 -1 -1</clus>
<clus scale="   92.123">  7  8 -1 -1</clus>
<clus scale="   92.418">  2  5  1 -1</clus>
<clus scale="   26.566">  1  5  2 -1</clus>
</clustering>
</event>
<event>
 9    1  0.2374319E-005  0.1492584E+03  0.7546771E-02  0.1203685E+00
          1   -1    0    0  502    0  0.00000000000E+00  0.00000000000E+00  0.59824772761E+03  0.59824772761E+03  0.00000000000E+00 0. -1.
         -2   -1    0    0    0  501 -0.00000000000E+00 -0.00000000000E+00 -0.10892710264E+03  0.10892710264E+03  0.00000000000E+00 0.  1.
        -24    2    1    2    0    0 -0.10295432555E+03 -0.58430396170E+02 -0.39008121550E+02  0.14785788830E+03  0.79540035445E+02 0.  0.
         23    2    1    2    0    0  0.86601171811E+02  0.75384194186E+02  0.35272748212E+03  0.38214284406E+03  0.91836468425E+02 0.  0.
         11    1    3    3    0    0 -0.83062595436E+01 -0.23509818459E+02  0.19123739960E+02  0.31423286614E+02  0.00000000000E+00 0. -1.
        -12    1    3    3    0    0 -0.94648066006E+02 -0.34920577711E+02 -0.58131861510E+02  0.11643460168E+03  0.00000000000E+00 0.  1.
        -13    1    4    4    0    0  0.74109637074E+02  0.34398786834E+02  0.31377019297E+03  0.32423332469E+03  0.00000000000E+00 0. -1.
         13    1    4    4    0    0  0.12491534737E+02  0.40985407352E+02  0.38957289147E+02  0.57909519369E+02  0.00000000000E+00 0.  1.
         21    1    1    2  502  501  0.16353153738E+02 -0.16953798017E+02  0.17560126440E+03  0.17717409789E+03  0.00000000000E+00 0. -1.
<scales pt_clust_5="13000.00000" pt_clust_6="13000.00000" pt_clust_7="13000.00000" pt_clust_8="13000.00000" pt_clust_9="23.55540"></scales>
<clustering>
<clus scale="   23.555">  1  9  2 -1</clus>
<clus scale="   79.540">  5  6 -1 -1</clus>
<clus scale="   91.836">  7  8 -1 -1</clus>
<clus scale="  142.024">  2  5  1 -1</clus>
<clus scale="   23.555">  1  5  2 -1</clus>
</clustering>
</event>
<event>
 9    1  0.2374319E-005  0.1419786E+03  0.7546771E-02  0.1213347E+00
         -4   -1    0    0    0  501 -0.00000000000E+00  0.00000000000E+00  0.72855530928E+03  0.72855530928E+03  0.00000000000E+00 0.  1.
          3   -1    0    0  502    0  0.00000000000E+00 -0.00000000000E+00 -0.63494466547E+02  0.63494466547E+02  0.00000000000E+00 0. -1.
         23    2    1    2    0    0  0.66338421857E+02  0.90736031613E+02  0.62651089131E+03  0.64306205334E+03  0.91537390582E+02 0.  0.
        -24    2    1    2    0    0 -0.56254366519E+02 -0.68141496258E+02  0.37390197399E+02  0.12421785714E+03  0.78893801438E+02 0.  0.
         11    1    4    4    0    0 -0.63718827867E+02 -0.80665915975E+02  0.26904596582E+02  0.10625881771E+03  0.00000000000E+00 0. -1.
        -12    1    4    4    0    0  0.74644613477E+01  0.12524419717E+02  0.10485600817E+02  0.17959039422E+02  0.00000000000E+00 0.  1.
        -13    1    3    3    0    0  0.77230293475E+02  0.30705521221E+02  0.32663356379E+03  0.33704129162E+03  0.00000000000E+00 0.  1.
         13    1    3    3    0    0 -0.10891871617E+02  0.60030510391E+02  0.29987732752E+03  0.30602076173E+03  0.00000000000E+00 0. -1.
         21    1    1    2  502  501 -0.10084055338E+02 -0.22594535355E+02  0.11597540273E+01  0.24769865348E+02  0.00000000000E+00 0. -1.
<scales pt_clust_5="13000.00000" pt_clust_6="13000.00000" pt_clust_7="13000.00000" pt_clust_8="13000.00000" pt_clust_9="24.74270"></scales>
<clustering>
<clus scale="   24.743">  2  9  1 -1</clus>
<clus scale="   78.894">  5  6 -1 -1</clus>
<clus scale="   91.537">  7  8 -1 -1</clus>
<clus scale="  134.176">  2  5  1 -1</clus>
<clus scale="   24.743">  2  5  1 -1</clus>
</clustering>
</event>
<event>
 9    1  0.2374319E-005  0.1216387E+03  0.7546771E-02  0.1243325E+00
         -4   -1    0    0    0  501 -0.00000000000E+00  0.00000000000E+00  0.41994689848E+03  0.41994689848E+03  0.00000000000E+00 0.  1.
          3   -1    0    0  502    0  0.00000000000E+00 -0.00000000000E+00 -0.16921717354E+03  0.16921717354E+03  0.00000000000E+00 0. -1.
         23    2    1    2    0    0  0.64933409437E+02  0.48454883616E+02  0.35840642721E+03  0.37886800846E+03  0.92312390052E+02 0.  0.
        -24    2    1    2    0    0 -0.20129400078E+02 -0.78675897540E+02 -0.38044796471E+02  0.12215236700E+03  0.82937956471E+02 0.  0.
         11    1    4    4    0    0  0.13617647484E+01 -0.38513026397E+02 -0.60216051435E+02  0.71491820903E+02  0.00000000000E+00 0. -1.
        -12    1    4    4    0    0 -0.21491164827E+02 -0.40162871143E+02  0.22171254965E+02  0.50660546096E+02  0.00000000000E+00 0.  1.
        -11    1    3    3    0    0 -0.17895443621E+02  0.30759249509E+02  0.73901050342E+02  0.82022823497E+02  0.00000000000E+00 0. -1.
         11    1    3    3    0    0  0.82828853058E+02  0.17695634107E+02  0.28450537687E+03  0.29684518496E+03  0.00000000000E+00 0.  1.
         21    1    1    2  502  501 -0.44804009359E+02  0.30221013924E+02 -0.69631905806E+02  0.88143696561E+02  0.00000000000E+00 0. -1.
<scales pt_clust_5="13000.00000" pt_clust_6="13000.00000" pt_clust_7="13000.00000" pt_clust_8="13000.00000" pt_clust_9="54.04358"></scales>
<clustering>
<clus scale="   54.044">  2  9  1 -1</clus>
<clus scale="   82.938">  5  6 -1 -1</clus>
<clus scale="   92.312">  7  8 -1 -1</clus>
<clus scale="  114.687">  2  5  1 -1</clus>
<clus scale="   54.044">  2  5  1 -1</clus>
</clustering>
</event>
<event>
 9    1  0.2374319E-005  0.1153901E+03  0.7546771E-02  0.1254971E+00
         -2   -1    0    0    0  501 -0.00000000000E+00  0.00000000000E+00  0.11780898085E+03  0.11780898085E+03  0.00000000000E+00 0.  1.
          1   -1    0    0  502    0  0.00000000000E+00 -0.00000000000E+00 -0.27779164423E+03  0.27779164423E+03  0.00000000000E+00 0. -1.
        -24    2    1    2    0    0 -0.55637848254E+02  0.40241242167E+02  0.44869063154E+02  0.11501685237E+03  0.80627016390E+02 0.  0.
         23    2    1    2    0    0  0.19826943027E+02 -0.89875964903E+02 -0.14654078375E+03  0.19604861622E+03  0.92141531808E+02 0.  0.
         11    1    3    3    0    0 -0.28249700346E+02 -0.17036310200E+02 -0.61640756456E+01  0.33560054580E+02  0.00000000000E+00 0. -1.
        -12    1    3    3    0    0 -0.27388147909E+02  0.57277552367E+02  0.51033138799E+02  0.81456797793E+02  0.00000000000E+00 0.  1.
        -13    1    4    4    0    0 -0.26678354150E+02 -0.41825506399E+02 -0.10804403700E+03  0.11888911429E+03  0.00000000000E+00 0. -1.
         13    1    4    4    0    0  0.46505297177E+02 -0.48050458504E+02 -0.38496746747E+02  0.77159501930E+02  0.00000000000E+00 0.  1.
         21    1    1    2  502  501  0.35810905227E+02  0.49634722736E+02 -0.58310942789E+02  0.84535156493E+02  0.00000000000E+00 0.  1.
<scales pt_clust_5="13000.00000" pt_clust_6="13000.00000" pt_clust_7="13000.00000" pt_clust_8="13000.00000" pt_clust_9="61.20479"></scales>
<clustering>
<clus scale="   61.205">  2  9  1 -1</clus>
<clus scale="   80.627">  5  6 -1 -1</clus>
<clus scale="   92.142">  7  8 -1 -1</clus>
<clus scale="  106.421">  1  5  2 -1</clus>
<clus scale="   61.205">  2  5  1 -1</clus>
</clustering>
</event>
<event>
 9    1  0.2374319E-005  0.2546566E+03  0.7546771E-02  0.1110758E+00
         -2   -1    0    0    0  501 -0.00000000000E+00  0.00000000000E+00  0.12445659088E+03  0.12445659088E+03  0.00000000000E+00 0.  1.
          1   -1    0    0  502    0  0.00000000000E+00 -0.00000000000E+00 -0.96729205090E+03  0.96729205090E+03  0.00000000000E+00 0. -1.
        -24    2    1    2    0    0 -0.15464866678E+03  0.17689903440E+03 -0.74673676998E+02  0.26010001796E+03  0.82863639803E+02 0.  0.
         23    2    1    2    0    0  0.19490927550E+03 -0.16509095207E+03 -0.71056688124E+03  0.76039190390E+03  0.89698978058E+02 0.  0.
         13    1    3    3    0    0 -0.22814146361E+02  0.10399502820E+02  0.15389423626E+02  0.29418859472E+02  0.00000000000E+00 0. -1.
        -14    1    3    3    0    0 -0.13183452042E+03  0.16649953158E+03 -0.90063100625E+02  0.23068115849E+03  0.00000000000E+00 0.  1.
        -11    1    4    4    0    0  0.16554665774E+03 -0.17381552340E+03 -0.63487143730E+03  0.67873358099E+03  0.00000000000E+00 0. -1.
         11    1    4    4    0    0  0.29362617762E+02  0.87245713304E+01 -0.75695443939E+02  0.81658322906E+02  0.00000000000E+00 0.  1.
         21    1    1    2  502  501 -0.40260608723E+02 -0.11808082329E+02 -0.57594901782E+02  0.71256719924E+02  0.00000000000E+00 0.  1.
<scales pt_clust_5="13000.00000" pt_clust_6="13000.00000" pt_clust_7="13000.00000" pt_clust_8="13000.00000" pt_clust_9="41.95649"></scales>
<clustering>
<clus scale="   41.956">  2  9  1 -1</clus>
<clus scale="   82.864">  5  6 -1 -1</clus>
<clus scale="   89.699">  7  8 -1 -1</clus>
<clus scale="  252.330">  1  5  2 -1</clus>
<clus scale="   41.956">  2  5  1 -1</clus>
</clustering>
</event>
<event>
 9    1  0.2374319E-005  0.2484869E+03  0.7546771E-02  0.1114900E+00
         -2   -1    0    0    0  501 -0.00000000000E+00  0.00000000000E+00  0.12626557956E+03  0.12626557956E+03  0.00000000000E+00 0.  1.
          1   -1    0    0  502    0  0.00000000000E+00 -0.00000000000E+00 -0.87376735979E+03  0.87376735979E+03  0.00000000000E+00 0. -1.
         23    2    1    2    0    0  0.21013682305E+03  0.32805781244E+02 -0.12763652901E+03  0.26415791994E+03  0.90854936278E+02 0.  0.
        -24    2    1    2    0    0 -0.25754366731E+03 -0.57218951420E+02 -0.28355202986E+03  0.39536071041E+03  0.79407737213E+02 0.  0.
         11    1    4    4    0    0 -0.84740447614E+02  0.76142862553E+01 -0.12951594433E+03  0.15496225557E+03  0.00000000000E+00 0. -1.
        -12    1    4    4    0    0 -0.17280321969E+03 -0.64833237675E+02 -0.15403608553E+03  0.24039845484E+03  0.00000000000E+00 0.  1.
        -11    1    3    3    0    0  0.82160408464E+02 -0.30558271437E+02 -0.59395882994E+02  0.10588678666E+03  0.00000000000E+00 0.  1.
         11    1    3    3    0    0  0.12797641459E+03  0.63364052681E+02 -0.68240646013E+02  0.15827113328E+03  0.00000000000E+00 0. -1.
         21    1    1    2  502  501  0.47406844256E+02  0.24413170176E+02 -0.33631322136E+03  0.34051430899E+03  0.00000000000E+00 0. -1.
<scales pt_clust_5="13000.00000" pt_clust_6="13000.00000" pt_clust_7="13000.00000" pt_clust_8="13000.00000" pt_clust_9="53.32365"></scales>
<clustering>
<clus scale="   53.324">  2  9  1 -1</clus>
<clus scale="   79.408">  5  6 -1 -1</clus>
<clus scale="   90.855">  7  8 -1 -1</clus>
<clus scale="  244.534">  2  5  1 -1</clus>
<clus scale="   53.324">  2  5  1 -1</clus>
</clustering>
</event>
<event>
 9    1  0.2374319E-005  0.1165914E+03  0.7546771E-02  0.1248867E+00
         -2   -1    0    0    0  501 -0.00000000000E+00  0.00000000000E+00  0.28797441038E+03  0.28797441038E+03  0.00000000000E+00 0.  1.
          1   -1    0    0  502    0  0.00000000000E+00 -0.00000000000E+00 -0.12867731777E+03  0.12867731777E+03  0.00000000000E+00 0. -1.
        -24    2    1    2    0    0 -0.26143130423E+02  0.76848366130E+02  0.23821124380E+03  0.26598188764E+03  0.86096650532E+02 0.  0.
         23    2    1    2    0    0  0.27233876629E+02 -0.56466917256E+02 -0.56945982726E+02  0.12068328334E+03  0.85973328121E+02 0.  0.
         11    1    3    3    0    0 -0.39520333694E+02  0.68056582945E+02  0.10199129486E+03  0.12882460745E+03  0.00000000000E+00 0. -1.
        -12    1    3    3    0    0  0.13377203271E+02  0.87917831854E+01  0.13621994894E+03  0.13715728019E+03  0.00000000000E+00 0.  1.
        -13    1    4    4    0    0 -0.26652534925E+02 -0.41561599686E+02 -0.18027163072E+02  0.52561419262E+02  0.00000000000E+00 0. -1.
         13    1    4    4    0    0  0.53886411554E+02 -0.14905317569E+02 -0.38918819654E+02  0.68121864076E+02  0.00000000000E+00 0.  1.
         21    1    1    2  502  501 -0.10907462052E+01 -0.20381448875E+02 -0.21968168467E+02  0.29986557177E+02  0.00000000000E+00 0. -1.
<scales pt_clust_5="13000.00000" pt_clust_6="13000.00000" pt_clust_7="13000.00000" pt_clust_8="13000.00000" pt_clust_9="20.41061"></scales>
<clustering>
<clus scale="   20.411">  2  9  1 -1</clus>
<clus scale="   85.973">  7  8 -1 -1</clus>
<clus scale="   86.097">  5  6 -1 -1</clus>
<clus scale="  116.500">  2  7  1 -1</clus>
<clus scale="   20.411">  2  5  1 -1</clus>
</clustering>
</event>
<event>
 9    1  0.2374319E-005  0.1388186E+03  0.7546771E-02  0.1217336E+00
         -2   -1    0    0    0  501 -0.00000000000E+00  0.00000000000E+00  0.45982427759E+02  0.45982427759E+02  0.00000000000E+00 0.  1.
          1   -1    0    0  502    0  0.00000000000E+00 -0.00000000000E+00 -0.79847791911E+03  0.79847791911E+03  0.00000000000E+00 0. -1.
         23    2    1    2    0    0  0.90899715859E+02 -0.15586802790E+02 -0.14641533880E+03  0.19576254939E+03  0.91541343366E+02 0.  0.
        -24    2    1    2    0    0 -0.98995969386E+02 -0.62976362371E+02 -0.47272067638E+03  0.49370595858E+03  0.80712523686E+02 0.  0.
         11    1    4    4    0    0 -0.90777697085E+02 -0.28885776690E+02 -0.41796507115E+03  0.42868377516E+03  0.00000000000E+00 0. -1.
        -12    1    4    4    0    0 -0.82182723016E+01 -0.34090585682E+02 -0.54755605234E+02  0.65022183417E+02  0.00000000000E+00 0.  1.
        -13    1    3    3    0    0  0.52301264277E+02  0.23256378579E+02 -0.12403638887E+03  0.13660639499E+03  0.00000000000E+00 0.  1.
         13    1    3    3    0    0  0.38598451582E+02 -0.38843181369E+02 -0.22378949929E+02  0.59156154399E+02  0.00000000000E+00 0. -1.
         21    1    1    2  502  501  0.80962535274E+01  0.78563165161E+02 -0.13335947617E+03  0.15499183890E+03  0.00000000000E+00 0.  1.
<scales pt_clust_5="13000.00000" pt_clust_6="13000.00000" pt_clust_7="13000.00000" pt_clust_8="13000.00000" pt_clust_9="78.97924"></scales>
<clustering>
<clus scale="   78.979">  1  9  2 -1</clus>
<clus scale="   80.713">  5  6 -1 -1</clus>
<clus scale="   91.541">  7  8 -1 -1</clus>
<clus scale="  131.929">  2  5  1 -1</clus>
<clus scale="  131.929">  2  5  1 -1</clus>
</clustering>
</event>
<event>
 9    1  0.2374319E-005  0.1653433E+03  0.7546771E-02  0.1184496E+00
         -2   -1    0    0    0  501 -0.00000000000E+00  0.00000000000E+00  0.18681768936E+03  0.18681768936E+03  0.00000000000E+00 0.  1.
          1   -1    0    0  502    0  0.00000000000E+00 -0.00000000000E+00 -0.65772964347E+03  0.65772964347E+03  0.00000000000E+00 0. -1.
         23    2    1    2    0    0  0.45874400086E+02 -0.13325412728E+03  0.13405935945E+03  0.21503007193E+03  0.91678225098E+02 0.  0.
        -24    2    1    2    0    0 -0.15463607791E+02  0.10010474530E+03 -0.45065862660E+03  0.46878113188E+03  0.80015427753E+02 0.  0.
         13    1    4    4    0    0  0.20554651850E+02  0.66642058805E+02 -0.34848207795E+03  0.35539191938E+03  0.00000000000E+00 0. -1.
        -14    1    4    4    0    0 -0.36018259641E+02  0.33462686497E+02 -0.10217654866E+03  0.11338921250E+03  0.00000000000E+00 0.  1.
        -13    1    3    3    0    0  0.27645860273E+02 -0.14268382851E+03  0.12790406445E+03  0.19360376601E+03  0.00000000000E+00 0.  1.
         13    1    3    3    0    0  0.18228539813E+02  0.94297012285E+01  0.61552949959E+01  0.21426305922E+02  0.00000000000E+00 0. -1.
         21    1    1    2  502  501 -0.30410792295E+02  0.33149381980E+02 -0.15431268696E+03  0.16073612902E+03  0.00000000000E+00 0. -1.
<scales pt_clust_5="13000.00000" pt_clust_6="13000.00000" pt_clust_7="13000.00000" pt_clust_8="13000.00000" pt_clust_9="44.98553"></scales>
<clustering>
<clus scale="   44.986">  2  9  1 -1</clus>
<clus scale="   80.015">  5  6 -1 -1</clus>
<clus scale="   91.678">  7  8 -1 -1</clus>
<clus scale="  159.173">  2  5  1 -1</clus>
<clus scale="   44.986">  2  5  1 -1</clus>
</clustering>
</event>
<event>
 9    1  0.2374319E-005  0.4177794E+03  0.7546771E-02  0.1038045E+00
          1   -1    0    0  502    0  0.00000000000E+00  0.00000000000E+00  0.43918418429E+03  0.43918418429E+03  0.00000000000E+00 0. -1.
         -2   -1    0    0    0  501 -0.00000000000E+00 -0.00000000000E+00 -0.50365719393E+03  0.50365719393E+03  0.00000000000E+00 0.  1.
        -24    2    1    2    0    0 -0.30244266231E+03 -0.29114512784E+03 -0.13674455548E+03  0.44804473435E+03  0.76209980153E+02 0.  0.
         23    2    1    2    0    0  0.27984376898E+03  0.27514547135E+03 -0.14973806408E+02  0.40326276775E+03  0.91537312258E+02 0.  0.
         13    1    3    3    0    0 -0.14062608841E+03 -0.16675574001E+03 -0.38415569717E+02  0.22149250454E+03  0.00000000000E+00 0. -1.
        -14    1    3    3    0    0 -0.16181657390E+03 -0.12438938783E+03 -0.98328985761E+02  0.22655222981E+03  0.00000000000E+00 0.  1.
        -13    1    4    4    0    0  0.20341645749E+03  0.17211214752E+03  0.28105233763E+02  0.26793796048E+03  0.00000000000E+00 0. -1.
         13    1    4    4    0    0  0.76427311493E+02  0.10303332383E+03 -0.43079040171E+02  0.13532480727E+03  0.00000000000E+00 0.  1.
         21    1    1    2  502  501  0.22598893324E+02  0.15999656495E+02  0.87245352246E+02  0.91533876111E+02  0.00000000000E+00 0. -1.
<scales pt_clust_5="13000.00000" pt_clust_6="13000.00000" pt_clust_7="13000.00000" pt_clust_8="13000.00000" pt_clust_9="27.68933"></scales>
<clustering>
<clus scale="   27.689">  1  9  2 -1</clus>
<clus scale="   76.210">  5  6 -1 -1</clus>
<clus scale="   91.537">  7  8 -1 -1</clus>
<clus scale="  414.691">  2  5  1 -1</clus>
<clus scale="   27.689">  1  5  2 -1</clus>
</clustering>
</event>
<event>
 9    1  0.2374319E-005  0.8899288E+02  0.7546771E-02  0.1305390E+00
          1   -1    0    0  502    0  0.00000000000E+00  0.00000000000E+00  0.33386471260E+03  0.33386471260E+03  0.00000000000E+00 0. -1.
         -2   -1    0    0    0  501 -0.00000000000E+00 -0.00000000000E+00 -0.59177689857E+02  0.59177689857E+02  0.00000000000E+00 0.  1.
        -24    2    1    2    0    0  0.21105050989E+02 -0.27593747470E+02  0.67617719588E+00  0.88499919536E+02  0.81393737262E+02 0.  0.
         23    2    1    2    0    0 -0.68621996508E+01  0.43444681173E+02  0.13306580924E+03  0.16199559880E+03  0.81249826679E+02 0.  0.
         11    1    3    3    0    0 -0.24515080242E+02 -0.16593657900E+02  0.22071179010E+02  0.36925270272E+02  0.00000000000E+00 0. -1.
        -12    1    3    3    0    0  0.45620131231E+02 -0.11000089570E+02 -0.21395001814E+02  0.51574649264E+02  0.00000000000E+00 0.  1.
        -11    1    4    4    0    0 -0.28326387139E+02  0.15480093671E+02  0.12021567612E+03  0.12447419931E+03  0.00000000000E+00 0. -1.
         11    1    4    4    0    0  0.21464187488E+02  0.27964587502E+02  0.12850133123E+02  0.37521399494E+02  0.00000000000E+00 0.  1.
         21    1    1    2  502  501 -0.14242851338E+02 -0.15850933703E+02  0.14094503631E+03  0.14254688412E+03  0.00000000000E+00 0. -1.
<scales pt_clust_5="13000.00000" pt_clust_6="13000.00000" pt_clust_7="13000.00000" pt_clust_8="13000.00000" pt_clust_9="21.30988"></scales>
<clustering>
<clus scale="   21.310">  1  9  2 -1</clus>
<clus scale="   81.250">  7  8 -1 -1</clus>
<clus scale="   81.394">  5  6 -1 -1</clus>
<clus scale="   88.861">  1  7  2 -1</clus>
<clus scale="   21.310">  1  5  2 -1</clus>
</clustering>
</event>
<event>
 9    1  0.2374319E-005  0.2709715E+03  0.7546771E-02  0.1100725E+00
         -4   -1    0    0    0  501 -0.00000000000E+00  0.00000000000E+00  0.64948514141E+02  0.64948514141E+02  0.00000000000E+00 0.  1.
          3   -1    0    0  502    0  0.00000000000E+00 -0.00000000000E+00 -0.83273135971E+03  0.83273135971E+03  0.00000000000E+00 0. -1.
        -24    2    1    2    0    0 -0.70866157693E+02 -0.11852810614E+03 -0.24907106905E+03  0.29415206578E+03  0.73607853615E+02 0.  0.
         23    2    1    2    0    0  0.13580870077E+02 -0.66460505147E+02 -0.17814396242E+03  0.21175130740E+03  0.92205781061E+02 0.  0.
         13    1    3    3    0    0 -0.53982130627E+02 -0.11723375017E+03 -0.17085743774E+03  0.21412633336E+03  0.00000000000E+00 0. -1.
        -14    1    3    3    0    0 -0.16884027065E+02 -0.12943559694E+01 -0.78213631303E+02  0.80025732417E+02  0.00000000000E+00 0.  1.
        -11    1    4    4    0    0  0.27617504595E+02 -0.84750441845E+02 -0.15662882610E+03  0.18021640635E+03  0.00000000000E+00 0.  1.
         11    1    4    4    0    0 -0.14036634518E+02  0.18289936699E+02 -0.21515136321E+02  0.31534901045E+02  0.00000000000E+00 0. -1.
         21    1    1    2  502  501  0.57285287616E+02  0.18498861128E+03 -0.34056781410E+03  0.39177650068E+03  0.00000000000E+00 0.  1.
<scales pt_clust_5="13000.00000" pt_clust_6="13000.00000" pt_clust_7="13000.00000" pt_clust_8="13000.00000" pt_clust_9="193.65534"></scales>
<clustering>
<clus scale="   73.608">  5  6 -1 -1</clus>
<clus scale="   92.206">  7  8 -1 -1</clus>
<clus scale="  104.511">  5  7 -1 -1</clus>
<clus scale="  193.655">  2  9  1 -1</clus>
<clus scale="  193.655">  2  5  1 -1</clus>
</clustering>
</event>
<event>
 9    1  0.2374319E-005  0.1473966E+03  0.7546771E-02  0.1205953E+00
         -2   -1    0    0    0  501 -0.00000000000E+00  0.00000000000E+00  0.19269191515E+03  0.19269191515E+03  0.00000000000E+00 0.  1.
          1   -1    0    0  502    0  0.00000000000E+00 -0.00000000000E+00 -0.81523250274E+03  0.81523250274E+03  0.00000000000E+00 0. -1.
         23    2    1    2    0    0  0.11380780713E+03 -0.26646760461E+02  0.15458613513E+03  0.21484632607E+03  0.92735127356E+02 0.  0.
        -24    2    1    2    0    0 -0.70625783479E+02  0.32167150136E+02 -0.49314542077E+03  0.50577939407E+03  0.81225997046E+02 0.  0.
         13    1    4    4    0    0 -0.78483334412E+02  0.68074949038E+01 -0.43192234565E+03  0.43904770634E+03  0.00000000000E+00 0. -1.
        -14    1    4    4    0    0  0.78575509336E+01  0.25359655232E+02 -0.61223075117E+02  0.66731687727E+02  0.00000000000E+00 0.  1.
        -13    1    3    3    0    0  0.11309253200E+03  0.42011338667E+01  0.14185379463E+03  0.18146644145E+03  0.00000000000E+00 0.  1.
         13    1    3    3    0    0  0.71527512380E+00 -0.30847894327E+02  0.12732340502E+02  0.33379884625E+02  0.00000000000E+00 0. -1.
         21    1    1    2  502  501 -0.43182023649E+02 -0.55203896752E+01 -0.28398130196E+03  0.28729869775E+03  0.00000000000E+00 0. -1.
<scales pt_clust_5="13000.00000" pt_clust_6="13000.00000" pt_clust_7="13000.00000" pt_clust_8="13000.00000" pt_clust_9="43.53346"></scales>
<clustering>
<clus scale="   43.533">  2  9  1 -1</clus>
<clus scale="   81.226">  5  6 -1 -1</clus>
<clus scale="   92.735">  7  8 -1 -1</clus>
<clus scale="  140.441">  2  5  1 -1</clus>
<clus scale="   43.533">  2  5  1 -1</clus>
</clustering>
</event>
<event>
 9    1  0.2374319E-005  0.1061552E+03  0.7546771E-02  0.1271732E+00
          1   -1    0    0  502    0  0.00000000000E+00  0.00000000000E+00  0.74888247866E+03  0.74888247866E+03  0.00000000000E+00 0. -1.
         -2   -1    0    0    0  501 -0.00000000000E+00 -0.00000000000E+00 -0.48489916563E+02  0.48489916563E+02  0.00000000000E+00 0.  1.
        -24    2    1    2    0    0  0.32858235030E+02  0.50570125087E+02  0.50906930651E+02  0.11363436930E+03  0.81757281867E+02 0.  0.
         23    2    1    2    0    0  0.57150827845E+02 -0.58617430154E+02  0.40632799622E+03  0.42433095954E+03  0.90841083608E+02 0.  0.
         13    1    3    3    0    0  0.58410571222E+02  0.46921609317E+02  0.44108915537E+02  0.86942674685E+02  0.00000000000E+00 0. -1.
        -14    1    3    3    0    0 -0.25552336192E+02  0.36485157697E+01  0.67980151135E+01  0.26691694620E+02  0.00000000000E+00 0.  1.
        -13    1    4    4    0    0  0.52540555633E+02 -0.82376431663E+02  0.33825855875E+03  0.35208697653E+03  0.00000000000E+00 0.  1.
         13    1    4    4    0    0  0.46102722117E+01  0.23759001510E+02  0.68069437475E+02  0.72243983007E+02  0.00000000000E+00 0. -1.
         21    1    1    2  502  501 -0.90009062875E+02  0.80473050666E+01  0.24315763523E+03  0.25940706638E+03  0.00000000000E+00 0. -1.
<scales pt_clust_5="13000.00000" pt_clust_6="13000.00000" pt_clust_7="13000.00000" pt_clust_8="13000.00000" pt_clust_9="90.36808"></scales>
<clustering>
<clus scale="   81.757">  5  6 -1 -1</clus>
<clus scale="   90.368">  1  9  2 -1</clus>
<clus scale="   90.841">  7  8 -1 -1</clus>
<clus scale="   98.494">  2  5  1 -1</clus>
<clus scale="   90.368">  1  5  2 -1</clus>
</clustering>
</event>
<event>
 9    1  0.2374319E-005  0.1741571E+03  0.7546771E-02  0.1174957E+00
         -2   -1    0    0    0  501 -0.00000000000E+00  0.00000000000E+00  0.33601079359E+03  0.33601079359E+03  0.00000000000E+00 0.  1.
          1   -1    0    0  502    0  0.00000000000E+00 -0.00000000000E+00 -0.51413464587E+03  0.51413464587E+03  0.00000000000E+00 0. -1.
        -24    2    1    2    0    0  0.99411322274E+02  0.11291152660E+03  0.29098695142E+03  0.33736370227E+03  0.80679848029E+02 0.  0.
         23    2    1    2    0    0 -0.55033299770E+02 -0.11044380543E+03 -0.28881787062E+03  0.32709102594E+03  0.91357969651E+02 0.  0.
         11    1    3    3    0    0  0.97314024912E+02  0.74943059157E+02  0.16457888922E+03  0.20535990927E+03  0.00000000000E+00 0. -1.
        -12    1    3    3    0    0  0.20972973623E+01  0.37968467441E+02  0.12640806220E+03  0.13200379300E+03  0.00000000000E+00 0.  1.
        -13    1    4    4    0    0  0.52544942991E+01 -0.66111731055E+02 -0.72804665688E+02  0.98482942886E+02  0.00000000000E+00 0.  1.
         13    1    4    4    0    0 -0.60287794069E+02 -0.44332074372E+02 -0.21601320493E+03  0.22860808305E+03  0.00000000000E+00 0. -1.
         21    1    1    2  502  501 -0.44378022504E+02 -0.24677211700E+01 -0.18029293308E+03  0.18569071126E+03  0.00000000000E+00 0.  1.
<scales pt_clust_5="13000.00000" pt_clust_6="13000.00000" pt_clust_7="13000.00000" pt_clust_8="13000.00000" pt_clust_9="44.44658"></scales>
<clustering>
<clus scale="   44.447">  2  9  1 -1</clus>
<clus scale="   80.680">  5  6 -1 -1</clus>
<clus scale="   91.358">  7  8 -1 -1</clus>
<clus scale="  168.801">  1  5  2 -1</clus>
<clus scale="   44.447">  2  5  1 -1</clus>
</clustering>
</event>
<event>
 9    1  0.2374319E-005  0.9871003E+02  0.7546771E-02  0.1285896E+00
          1   -1    0    0  502    0  0.00000000000E+00  0.00000000000E+00  0.18016036717E+03  0.18016036717E+03  0.00000000000E+00 0. -1.
         -2   -1    0    0    0  501 -0.00000000000E+00 -0.00000000000E+00 -0.18119123588E+03  0.18119123588E+03  0.00000000000E+00 0.  1.
         23    2    1    2    0    0 -0.43722241202E+02 -0.91594158072E+01 -0.14810393601E+03  0.17851241233E+03  0.89086341385E+02 0.  0.
        -24    2    1    2    0    0  0.25208460607E+02 -0.13068422370E+01  0.11225160643E+03  0.14203677942E+03  0.83287749639E+02 0.  0.
         11    1    4    4    0    0 -0.46901998167E+00  0.31671104398E+02  0.88424462629E+02  0.93926377683E+02  0.00000000000E+00 0. -1.
        -12    1    4    4    0    0  0.25677480589E+02 -0.32977946635E+02  0.23827143797E+02  0.48110401736E+02  0.00000000000E+00 0.  1.
        -11    1    3    3    0    0 -0.53504413400E+02 -0.31754044651E+02 -0.13895143620E+03  0.15224501051E+03  0.00000000000E+00 0.  1.
         11    1    3    3    0    0  0.97821721981E+01  0.22594628844E+02 -0.91524998141E+01  0.26267401820E+02  0.00000000000E+00 0. -1.
         21    1    1    2  502  501  0.18513780595E+02  0.10466258044E+02  0.34821460877E+02  0.40802411288E+02  0.00000000000E+00 0. -1.
<scales pt_clust_5="13000.00000" pt_clust_6="13000.00000" pt_clust_7="13000.00000" pt_clust_8="13000.00000" pt_clust_9="21.26741"></scales>
<clustering>
<clus scale="   21.267">  1  9  2 -1</clus>
<clus scale="   83.288">  5  6 -1 -1</clus>
<clus scale="   89.086">  7  8 -1 -1</clus>
<clus scale="   93.510">  1  5  2 -1</clus>
<clus scale="   21.267">  1  5  2 -1</clus>
</clustering>
</event>
<event>
 9    1  0.2374319E-005  0.9245345E+02  0.7546771E-02  0.1303015E+00
         -2   -1    0    0    0  501 -0.00000000000E+00  0.00000000000E+00  0.46255443007E+02  0.46255443007E+02  0.00000000000E+00 0.  1.
          1   -1    0    0  502    0  0.00000000000E+00 -0.00000000000E+00 -0.89723508168E+03  0.89723508168E+03  0.00000000000E+00 0. -1.
         23    2    1    2    0    0 -0.15888995247E+02  0.14174513959E+02 -0.14563584521E+02  0.94109810773E+02  0.90505146118E+02 0.  0.
        -24    2    1    2    0    0  0.17043900528E+02  0.37933607519E+02 -0.62959750051E+03  0.63609568335E+03  0.80593130030E+02 0.  0.
         13    1    4    4    0    0  0.16720524247E+02 -0.20574531921E+02 -0.10710803662E+03  0.11034046766E+03  0.00000000000E+00 0. -1.
        -14    1    4    4    0    0  0.32337628111E+00  0.58508139440E+02 -0.52248946389E+03  0.52575521569E+03  0.00000000000E+00 0.  1.
        -13    1    3    3    0    0  0.31637297865E+02  0.24775235854E+02  0.71136779440E+01  0.40808520455E+02  0.00000000000E+00 0. -1.
         13    1    3    3    0    0 -0.47526293112E+02 -0.10600721896E+02 -0.21677262465E+02  0.53301290318E+02  0.00000000000E+00 0.  1.
         21    1    1    2  502  501 -0.11549052810E+01 -0.52108121478E+02 -0.20681855365E+03  0.21328503056E+03  0.00000000000E+00 0. -1.
<scales pt_clust_5="13000.00000" pt_clust_6="13000.00000" pt_clust_7="13000.00000" pt_clust_8="13000.00000" pt_clust_9="52.12092"></scales>
<clustering>
<clus scale="   52.121">  2  9  1 -1</clus>
<clus scale="   80.593">  5  6 -1 -1</clus>
<clus scale="   82.775">  2  5  1 -1</clus>
<clus scale="   90.505">  7  8 -1 -1</clus>
<clus scale="   52.121">  2  5  1 -1</clus>
</clustering>
</event>
<event>
 9    1  0.2374319E-005  0.1520347E+03  0.7546771E-02  0.1200432E+00
          1   -1    0    0  502    0  0.00000000000E+00  0.00000000000E+00  0.25147468205E+03  0.25147468205E+03  0.00000000000E+00 0. -1.
         -2   -1    0    0    0  501 -0.00000000000E+00 -0.00000000000E+00 -0.33697345289E+03  0.33697345289E+03  0.00000000000E+00 0.  1.
        -24    2    1    2    0    0  0.89839218577E+02 -0.91113607750E+02 -0.27628221443E+03  0.31497441341E+03  0.80648895711E+02 0.  0.
         23    2    1    2    0    0 -0.68446881400E+02  0.15450930467E+02  0.11185031271E+03  0.16206047288E+03  0.93964874250E+02 0.  0.
         13    1    3    3    0    0  0.21291690526E+02 -0.32476928415E+01 -0.12629270203E+03  0.12811608088E+03  0.00000000000E+00 0. -1.
        -14    1    3    3    0    0  0.68547528051E+02 -0.87865914908E+02 -0.14998951240E+03  0.18685833253E+03  0.00000000000E+00 0.  1.
        -11    1    4    4    0    0 -0.90418595587E+02  0.84842948579E+01  0.10312948102E+03  0.13741614004E+03  0.00000000000E+00 0. -1.
         11    1    4    4    0    0  0.21971714187E+02  0.69666356090E+01  0.87208316813E+01  0.24644332842E+02  0.00000000000E+00 0.  1.
         21    1    1    2  502  501 -0.21392337177E+02  0.75662677283E+02  0.78933130889E+02  0.11141324865E+03  0.00000000000E+00 0.  1.
<scales pt_clust_5="13000.00000" pt_clust_6="13000.00000" pt_clust_7="13000.00000" pt_clust_8="13000.00000" pt_clust_9="78.62870"></scales>
<clustering>
<clus scale="   78.629">  1  9  2 -1</clus>
<clus scale="   80.649">  5  6 -1 -1</clus>
<clus scale="   93.965">  7  8 -1 -1</clus>
<clus scale="  144.185">  2  5  1 -1</clus>
<clus scale="   78.629">  1  5  2 -1</clus>
</clustering>
</event>
<event>
 9    1  0.2374319E-005  0.1389277E+03  0.7546771E-02  0.1217089E+00
          1   -1    0    0  502    0  0.00000000000E+00  0.00000000000E+00  0.33237453607E+03  0.33237453607E+03  0.00000000000E+00 0. -1.
         -2   -1    0    0    0  501 -0.00000000000E+00 -0.00000000000E+00 -0.16689530322E+03  0.16689530322E+03  0.00000000000E+00 0.  1.
         23    2    1    2    0    0 -0.48236686514E+02 -0.10770254742E+03 -0.97570789589E+02  0.17818607112E+03  0.91124092931E+02 0.  0.
        -24    2    1    2    0    0  0.58385033228E+02  0.39462323959E+02  0.11175328107E+03  0.15479961081E+03  0.80672402717E+02 0.  0.
         11    1    4    4    0    0  0.75087740375E+02  0.16517753475E+02  0.93524148437E+02  0.12106928296E+03  0.00000000000E+00 0. -1.
        -12    1    4    4    0    0 -0.16702707147E+02  0.22944570484E+02  0.18229132637E+02  0.33730327859E+02  0.00000000000E+00 0.  1.
        -13    1    3    3    0    0 -0.65296353385E+02 -0.58272023488E+02 -0.89672731676E+02  0.12530140180E+03  0.00000000000E+00 0.  1.
         13    1    3    3    0    0  0.17059666872E+02 -0.49430523932E+02 -0.78980579127E+01  0.52884669317E+02  0.00000000000E+00 0. -1.
         21    1    1    2  502  501 -0.10148346714E+02  0.68240223461E+02  0.15129674137E+03  0.16628415736E+03  0.00000000000E+00 0.  1.
<scales pt_clust_5="13000.00000" pt_clust_6="13000.00000" pt_clust_7="13000.00000" pt_clust_8="13000.00000" pt_clust_9="68.99070"></scales>
<clustering>
<clus scale="   68.991">  1  9  2 -1</clus>
<clus scale="   80.672">  5  6 -1 -1</clus>
<clus scale="   91.124">  7  8 -1 -1</clus>
<clus scale="  132.308">  1  5  2 -1</clus>
<clus scale="   68.991">  1  5  2 -1</clus>
</clustering>
</event>
<event>
 9    1  0.2374319E-005  0.1493103E+03  0.7546771E-02  0.1204278E+00
          1   -1    0    0  502    0  0.00000000000E+00  0.00000000000E+00  0.52520153153E+03  0.52520153153E+03  0.00000000000E+00 0. -1.
         -2   -1    0    0    0  501 -0.00000000000E+00 -0.00000000000E+00 -0.61014249747E+02  0.61014249747E+02  0.00000000000E+00 0.  1.
        -24    2    1    2    0    0  0.60406925175E+02  0.12035925515E+03  0.10907640538E+03  0.18909922664E+03  0.75667089239E+02 0.  0.
         23    2    1    2    0    0 -0.42343769773E+02 -0.10339964327E+03  0.33621415762E+03  0.36595581012E+03  0.91647226399E+02 0.  0.
         13    1    3    3    0    0  0.26400510928E+02  0.11375633673E+03  0.98795862430E+02  0.15296441925E+03  0.00000000000E+00 0. -1.
        -14    1    3    3    0    0  0.34006414247E+02  0.66029184259E+01  0.10280542955E+02  0.36134807390E+02  0.00000000000E+00 0.  1.
        -13    1    4    4    0    0 -0.11578105070E+02 -0.10395443575E+03  0.19348847129E+03  0.21995082575E+03  0.00000000000E+00 0. -1.
         13    1    4    4    0    0 -0.30765664703E+02  0.55479247855E+00  0.14272568634E+03  0.14600498436E+03  0.00000000000E+00 0.  1.
         21    1    1    2  502  501 -0.18063155402E+02 -0.16959611885E+02  0.18896718774E+02  0.31160744516E+02  0.00000000000E+00 0. -1.
<scales pt_clust_5="13000.00000" pt_clust_6="13000.00000" pt_clust_7="13000.00000" pt_clust_8="13000.00000" pt_clust_9="24.77713"></scales>
<clustering>
<clus scale="   24.777">  2  9  1 -1</clus>
<clus scale="   75.667">  5  6 -1 -1</clus>
<clus scale="   91.647">  7  8 -1 -1</clus>
<clus scale="  140.071">  2  5  1 -1</clus>
<clus scale="  149.310">  1  5  2 -1</clus>
</clustering>
</event>
<event>
 9    1  0.2374319E-005  0.9636248E+02  0.7546771E-02  0.1291830E+00
         -2   -1    0    0    0  501 -0.00000000000E+00  0.00000000000E+00  0.43621167600E+03  0.43621167600E+03  0.00000000000E+00 0.  1.
          1   -1    0    0  502    0  0.00000000000E+00 -0.00000000000E+00 -0.46145778479E+03  0.46145778479E+03  0.00000000000E+00 0. -1.
        -24    2    1    2    0    0  0.22801112820E+02  0.16231333769E+02  0.42038501008E+03  0.42989250908E+03  0.85443933234E+02 0.  0.
         23    2    1    2    0    0 -0.46489945319E+02  0.13140622014E+02 -0.34203756453E+03  0.35752498088E+03  0.92197751800E+02 0.  0.
         11    1    3    3    0    0  0.16970938363E+02  0.47468204665E+02  0.16474362374E+03  0.17228379136E+03  0.00000000000E+00 0. -1.
        -12    1    3    3    0    0  0.58301744573E+01 -0.31236870896E+02  0.25564138634E+03  0.25760871772E+03  0.00000000000E+00 0.  1.
        -11    1    4    4    0    0  0.26929960861E+02  0.36390213923E+01 -0.58863058442E+02  0.64833054207E+02  0.00000000000E+00 0.  1.
         11    1    4    4    0    0 -0.73419906180E+02  0.95016006218E+01 -0.28317450609E+03  0.29269192667E+03  0.00000000000E+00 0. -1.
         21    1    1    2  502  501  0.23688832499E+02 -0.29371955783E+02 -0.10359355434E+03  0.11025197083E+03  0.00000000000E+00 0.  1.
<scales pt_clust_5="13000.00000" pt_clust_6="13000.00000" pt_clust_7="13000.00000" pt_clust_8="13000.00000" pt_clust_9="37.73424"></scales>
<clustering>
<clus scale="   37.734">  2  9  1 -1</clus>
<clus scale="   85.444">  5  6 -1 -1</clus>
<clus scale="   89.922">  1  5  2 -1</clus>
<clus scale="   92.198">  7  8 -1 -1</clus>
<clus scale="   37.734">  2  5  1 -1</clus>
</clustering>
</event>
<event>
 9    1  0.2374319E-005  0.2455025E+03  0.7546771E-02  0.1116488E+00
         -2   -1    0    0    0  501 -0.00000000000E+00  0.00000000000E+00  0.14708207759E+04  0.14708207759E+04  0.00000000000E+00 0.  1.
          1   -1    0    0  502    0  0.00000000000E+00 -0.00000000000E+00 -0.61556634288E+02  0.61556634288E+02  0.00000000000E+00 0. -1.
        -24    2    1    2    0    0  0.27424464144E+02 -0.22484623703E+03  0.99824869509E+03  0.10266110370E+04  0.78242140292E+02 0.  0.
         23    2    1    2    0    0 -0.57435934947E+02  0.23642942580E+03  0.39022935061E+03  0.46746597599E+03  0.83950774992E+02 0.  0.
         11    1    3    3    0    0 -0.25581296816E+02 -0.58626609024E+02  0.22435507787E+03  0.23329526999E+03  0.00000000000E+00 0. -1.
        -12    1    3    3    0    0  0.53005760960E+02 -0.16621962801E+03  0.77389361722E+03  0.79331576702E+03  0.00000000000E+00 0.  1.
        -13    1    4    4    0    0 -0.11780772110E+02  0.17431827207E+03  0.22273093962E+03  0.28308076238E+03  0.00000000000E+00 0. -1.
         13    1    4    4    0    0 -0.45655162837E+02  0.62111153737E+02  0.16749841100E+03  0.18438521361E+03  0.00000000000E+00 0.  1.
         21    1    1    2  502  501  0.30011470804E+02 -0.11583188773E+02  0.20786095922E+02  0.38300397199E+02  0.00000000000E+00 0.  1.
<scales pt_clust_5="13000.00000" pt_clust_6="13000.00000" pt_clust_7="13000.00000" pt_clust_8="13000.00000" pt_clust_9="32.16922"></scales>
<clustering>
<clus scale="   32.169">  2  9  1 -1</clus>
<clus scale="   78.242">  5  6 -1 -1</clus>
<clus scale="   83.951">  7  8 -1 -1</clus>
<clus scale="  243.609">  1  5  2 -1</clus>
<clus scale="   32.169">  2  5  1 -1</clus>
</clustering>
</event>
<event>
 9    1  0.2374319E-005  0.1166716E+03  0.7546771E-02  0.1253421E+00
         -2   -1    0    0    0  501 -0.00000000000E+00  0.00000000000E+00  0.81033385476E+02  0.81033385476E+02  0.00000000000E+00 0.  1.
          1   -1    0    0  502    0  0.00000000000E+00 -0.00000000000E+00 -0.47071177356E+03  0.47071177356E+03  0.00000000000E+00 0. -1.
         23    2    1    2    0    0  0.55032767968E+02  0.53361130425E+02 -0.15852526098E+02  0.12117750718E+03  0.92502269548E+02 0.  0.
        -24    2    1    2    0    0  0.20001010264E+02 -0.86128200367E+02 -0.14326615797E+03  0.18590150001E+03  0.78842046991E+02 0.  0.
         11    1    4    4    0    0  0.11562276155E+02 -0.95876271559E+02 -0.14354392099E+03  0.17300521071E+03  0.00000000000E+00 0. -1.
        -12    1    4    4    0    0  0.84387341092E+01  0.97480711924E+01  0.27776302038E+00  0.12896289297E+02  0.00000000000E+00 0.  1.
        -11    1    3    3    0    0  0.49317511083E+02 -0.10812246850E+02  0.10499862701E+02  0.51569067261E+02  0.00000000000E+00 0.  1.
         11    1    3    3    0    0  0.57152568846E+01  0.64173377275E+02 -0.26352388799E+02  0.69608439916E+02  0.00000000000E+00 0. -1.
         21    1    1    2  502  501 -0.75033778232E+02  0.32767069942E+02 -0.23055970401E+03  0.24466615185E+03  0.00000000000E+00 0. -1.
<scales pt_clust_5="13000.00000" pt_clust_6="13000.00000" pt_clust_7="13000.00000" pt_clust_8="13000.00000" pt_clust_9="81.87642"></scales>
<clustering>
<clus scale="   78.842">  5  6 -1 -1</clus>
<clus scale="   81.876">  2  9  1 -1</clus>
<clus scale="   92.502">  7  8 -1 -1</clus>
<clus scale="  106.168">  2  5  1 -1</clus>
<clus scale="   81.876">  2  5  1 -1</clus>
</clustering>
</event>
<event>
 9    1  0.2374319E-005  0.9342568E+02  0.7546771E-02  0.1304019E+00
          1   -1    0    0  502    0  0.00000000000E+00  0.00000000000E+00  0.13047857503E+03  0.13047857503E+03  0.00000000000E+00 0. -1.
         -2   -1    0    0    0  501 -0.00000000000E+00 -0.00000000000E+00 -0.12627546621E+03  0.12627546621E+03  0.00000000000E+00 0.  1.
        -24    2    1    2    0    0 -0.15225434783E+02  0.20091249481E+02 -0.67596989527E+02  0.10556041181E+03  0.77059557342E+02 0.  0.
         23    2    1    2    0    0  0.15581982494E+02  0.11430642556E+02  0.73931308049E+02  0.11959776168E+03  0.92001785430E+02 0.  0.
         13    1    3    3    0    0 -0.30414307179E+02  0.41562525350E+02 -0.57994319684E+02  0.77561683261E+02  0.00000000000E+00 0. -1.
        -14    1    3    3    0    0  0.15188872396E+02 -0.21471275868E+02 -0.96026698428E+01  0.27998728546E+02  0.00000000000E+00 0.  1.
        -11    1    4    4    0    0 -0.91509095397E+01 -0.28367628821E+02 -0.25370313536E+01  0.29914846455E+02  0.00000000000E+00 0.  1.
         11    1    4    4    0    0  0.24732892034E+02  0.39798271377E+02  0.76468339403E+02  0.89682915229E+02  0.00000000000E+00 0. -1.
         21    1    1    2  502  501 -0.35654771098E+00 -0.31521892038E+02 -0.21312097040E+01  0.31595867747E+02  0.00000000000E+00 0.  1.
<scales pt_clust_5="13000.00000" pt_clust_6="13000.00000" pt_clust_7="13000.00000" pt_clust_8="13000.00000" pt_clust_9="31.52391"></scales>
<clustering>
<clus scale="   31.524">  2  9  1 -1</clus>
<clus scale="   77.060">  5  6 -1 -1</clus>
<clus scale="   78.754">  2  5  1 -1</clus>
<clus scale="   92.002">  7  8 -1 -1</clus>
<clus scale="   93.426">  1  5  2 -1</clus>
</clustering>
</event>
<event>
 9    1  0.2374319E-005  0.1127908E+03  0.7546771E-02  0.1258237E+00
          1   -1    0    0  502    0  0.00000000000E+00  0.00000000000E+00  0.62544766094E+02  0.62544766094E+02  0.00000000000E+00 0. -1.
         -2   -1    0    0    0  501 -0.00000000000E+00 -0.00000000000E+00 -0.76625234966E+03  0.76625234966E+03  0.00000000000E+00 0.  1.
        -24    2    1    2    0    0  0.36796386255E+02 -0.47766950180E+02 -0.65859333897E+03  0.66845708124E+03  0.97231824780E+02 0.  0.
         23    2    1    2    0    0 -0.21089077327E+01  0.46921794287E+02 -0.64631104426E+02  0.12052994443E+03  0.90245141560E+02 0.  0.
         13    1    3    3    0    0  0.66231672862E+02 -0.36114662655E+02 -0.33861256961E+03  0.34691407531E+03  0.00000000000E+00 0. -1.
        -14    1    3    3    0    0 -0.29435286607E+02 -0.11652287525E+02 -0.31998076936E+03  0.32154300593E+03  0.00000000000E+00 0.  1.
        -11    1    4    4    0    0  0.39800221822E+02  0.34260992167E+02 -0.54314755748E+02  0.75551081616E+02  0.00000000000E+00 0. -1.
         11    1    4    4    0    0 -0.41909129555E+02  0.12660802120E+02 -0.10316348678E+02  0.44978862818E+02  0.00000000000E+00 0.  1.
         21    1    1    2  502  501 -0.34687478522E+02  0.84515589312E+00  0.19516859830E+02  0.39810090082E+02  0.00000000000E+00 0.  1.
<scales pt_clust_5="13000.00000" pt_clust_6="13000.00000" pt_clust_7="13000.00000" pt_clust_8="13000.00000" pt_clust_9="34.69777"></scales>
<clustering>
<clus scale="   34.698">  1  9  2 -1</clus>
<clus scale="   90.245">  7  8 -1 -1</clus>
<clus scale="   97.232">  5  6 -1 -1</clus>
<clus scale="  106.827">  1  7  2 -1</clus>
<clus scale="   34.698">  1  5  2 -1</clus>
</clustering>
</event>
<event>
 9    1  0.2374319E-005  0.1107688E+03  0.7546771E-02  0.1262086E+00
         -2   -1    0    0    0  501 -0.00000000000E+00  0.00000000000E+00  0.36405029704E+02  0.36405029704E+02  0.00000000000E+00 0.  1.
          1   -1    0    0  502    0  0.00000000000E+00 -0.00000000000E+00 -0.50060616076E+03  0.50060616076E+03  0.00000000000E+00 0. -1.
        -24    2    1    2    0    0 -0.59579961939E+02  0.65595286338E+02 -0.15902611513E+03  0.19937140338E+03  0.81284301932E+02 0.  0.
         23    2    1    2    0    0  0.42933815370E+02 -0.33719362540E+02 -0.25767460104E+03  0.27806245810E+03  0.89119148736E+02 0.  0.
         11    1    3    3    0    0  0.10825417093E+02  0.38403631401E+02 -0.83780311179E+02  0.92796385173E+02  0.00000000000E+00 0. -1.
        -12    1    3    3    0    0 -0.70405379031E+02  0.27191654938E+02 -0.75245803947E+02  0.10657501821E+03  0.00000000000E+00 0.  1.
        -11    1    4    4    0    0  0.15629398041E+02 -0.40607557894E+02 -0.24190632225E+03  0.24578836544E+03  0.00000000000E+00 0. -1.
         11    1    4    4    0    0  0.27304417330E+02  0.68881953543E+01 -0.15768278787E+02  0.32274092657E+02  0.00000000000E+00 0.  1.
         21    1    1    2  502  501  0.16646146568E+02 -0.31875923799E+02 -0.47500414891E+02  0.59577328980E+02  0.00000000000E+00 0. -1.
<scales pt_clust_5="13000.00000" pt_clust_6="13000.00000" pt_clust_7="13000.00000" pt_clust_8="13000.00000" pt_clust_9="35.96066"></scales>
<clustering>
<clus scale="   35.961">  1  9  2 -1</clus>
<clus scale="   81.284">  5  6 -1 -1</clus>
<clus scale="   89.119">  7  8 -1 -1</clus>
<clus scale="  104.569">  1  5  2 -1</clus>
<clus scale="  110.769">  2  5  1 -1</clus>
</clustering>
</event>
<event>
 9    1  0.2374319E-005  0.9242902E+02  0.7546771E-02  0.1304211E+00
         -2   -1    0    0    0  501 -0.00000000000E+00  0.00000000000E+00  0.43449018814E+02  0.43449018814E+02  0.00000000000E+00 0.  1.
          1   -1    0    0  502    0  0.00000000000E+00 -0.00000000000E+00 -0.33667041852E+03  0.33667041852E+03  0.00000000000E+00 0. -1.
         23    2    1    2    0    0  0.46046237911E+01 -0.69742687683E+00 -0.23926469675E+02  0.84598457681E+02  0.81010703777E+02 0.  0.
        -24    2    1    2    0    0  0.20657962884E+02  0.88527462461E+01 -0.21450885423E+03  0.23464223442E+03  0.92400254782E+02 0.  0.
         11    1    4    4    0    0 -0.32929980196E+02 -0.14152417630E+02 -0.66210787091E+02  0.75289726044E+02  0.00000000000E+00 0. -1.
        -12    1    4    4    0    0  0.53587943081E+02  0.23005163876E+02 -0.14829806714E+03  0.15935250837E+03  0.00000000000E+00 0.  1.
        -11    1    3    3    0    0  0.37599337703E+01  0.39460617666E+02 -0.42365917919E+01  0.39865099505E+02  0.00000000000E+00 0.  1.
         11    1    3    3    0    0  0.84469002078E+00 -0.40158044543E+02 -0.19689877883E+02  0.44733358177E+02  0.00000000000E+00 0. -1.
         21    1    1    2  502  501 -0.25262586675E+02 -0.81553193693E+01 -0.54786075804E+02  0.60878745236E+02  0.00000000000E+00 0. -1.
<scales pt_clust_5="13000.00000" pt_clust_6="13000.00000" pt_clust_7="13000.00000" pt_clust_8="13000.00000" pt_clust_9="26.54633"></scales>
<clustering>
<clus scale="   26.546">  2  9  1 -1</clus>
<clus scale="   81.011">  7  8 -1 -1</clus>
<clus scale="   81.044">  1  7  2 -1</clus>
<clus scale="   92.400">  5  6 -1 -1</clus>
<clus scale="   26.546">  2  5  1 -1</clus>
</clustering>
</event>
<event>
 9    1  0.2374319E-005  0.1125037E+03  0.7546771E-02  0.1259930E+00
         -2   -1    0    0    0  501 -0.00000000000E+00  0.00000000000E+00  0.78335875023E+03  0.78335875023E+03  0.00000000000E+00 0.  1.
          1   -1    0    0  502    0  0.00000000000E+00 -0.00000000000E+00 -0.60993599402E+02  0.60993599402E+02  0.00000000000E+00 0. -1.
        -24    2    1    2    0    0  0.30012068355E+02  0.58340255523E+02  0.70865828188E+03  0.71638787820E+03  0.81918995982E+02 0.  0.
         23    2    1    2    0    0 -0.12089225883E+02 -0.48866897707E+02  0.19315578960E+02  0.10693044141E+03  0.92341240169E+02 0.  0.
         11    1    3    3    0    0 -0.26624174028E+02  0.53800103601E+01  0.16296992340E+03  0.16521799868E+03  0.00000000000E+00 0. -1.
        -12    1    3    3    0    0  0.56636242383E+02  0.52960245163E+02  0.54568835848E+03  0.55116987953E+03  0.00000000000E+00 0.  1.
        -11    1    4    4    0    0 -0.41603404385E+00 -0.21230564176E+02  0.55795084702E+02  0.59699258090E+02  0.00000000000E+00 0.  1.
         11    1    4    4    0    0 -0.11673191839E+02 -0.27636333532E+02 -0.36479505742E+02  0.47231183322E+02  0.00000000000E+00 0. -1.
         21    1    1    2  502  501 -0.17922842472E+02 -0.94733578155E+01 -0.56087100121E+01  0.21034030013E+02  0.00000000000E+00 0. -1.
<scales pt_clust_5="13000.00000" pt_clust_6="13000.00000" pt_clust_7="13000.00000" pt_clust_8="13000.00000" pt_clust_9="20.27246"></scales>
<clustering>
<clus scale="   20.272">  2  9  1 -1</clus>
<clus scale="   81.919">  5  6 -1 -1</clus>
<clus scale="   92.341">  7  8 -1 -1</clus>
<clus scale="  104.120">  1  5  2 -1</clus>
<clus scale="   20.272">  2  5  1 -1</clus>
</clustering>
</event>
<event>
 9    1  0.2374319E-005  0.1215393E+03  0.7546771E-02  0.1252355E+00
         -4   -1    0    0    0  501 -0.00000000000E+00  0.00000000000E+00  0.69022753509E+03  0.69022753509E+03  0.00000000000E+00 0.  1.
          3   -1    0    0  502    0  0.00000000000E+00 -0.00000000000E+00 -0.40676690857E+02  0.40676690857E+02  0.00000000000E+00 0. -1.
         23    2    1    2    0    0  0.35896339703E+02 -0.47558115533E+02  0.55625704712E+03  0.57000443199E+03  0.10923748649E+03 0.  0.
        -24    2    1    2    0    0 -0.34014483181E+00  0.33766390568E+02  0.40119139511E+02  0.95462809904E+02  0.79770407353E+02 0.  0.
         11    1    4    4    0    0 -0.23461184165E+02  0.44046322779E+02  0.22979502832E+01  0.49957845113E+02  0.00000000000E+00 0. -1.
        -12    1    4    4    0    0  0.23121039333E+02 -0.10279932211E+02  0.37821189228E+02  0.45504964792E+02  0.00000000000E+00 0.  1.
        -11    1    3    3    0    0  0.11370767243E+02 -0.80223565625E+02  0.42050161396E+03  0.42823675948E+03  0.00000000000E+00 0.  1.
         11    1    3    3    0    0  0.24525572461E+02  0.32665450091E+02  0.13575543316E+03  0.14176767250E+03  0.00000000000E+00 0. -1.
         21    1    1    2  502  501 -0.35556194871E+02  0.13791724965E+02  0.53174657596E+02  0.65436984051E+02  0.00000000000E+00 0.  1.
<scales pt_clust_5="13000.00000" pt_clust_6="13000.00000" pt_clust_7="13000.00000" pt_clust_8="13000.00000" pt_clust_9="38.13731"></scales>
<clustering>
<clus scale="   38.137">  2  9  1 -1</clus>
<clus scale="   79.770">  5  6 -1 -1</clus>
<clus scale="   95.929">  2  5  1 -1</clus>
<clus scale="  109.237">  7  8 -1 -1</clus>
<clus scale="   38.137">  2  5  1 -1</clus>
</clustering>
</event>
<event>
 9    1  0.2374319E-005  0.9647728E+02  0.7546771E-02  0.1290980E+00
          1   -1    0    0  502    0  0.00000000000E+00  0.00000000000E+00  0.48522757090E+02  0.48522757090E+02  0.00000000000E+00 0. -1.
         -2   -1    0    0    0  501 -0.00000000000E+00 -0.00000000000E+00 -0.29698022760E+03  0.29698022760E+03  0.00000000000E+00 0.  1.
         23    2    1    2    0    0  0.58400255137E-01 -0.31850117672E+02 -0.19209179955E+03  0.21433633927E+03  0.89590029974E+02 0.  0.
        -24    2    1    2    0    0 -0.16234263760E+02  0.44761886442E+02 -0.53811804156E+02  0.11031251948E+03  0.83701636131E+02 0.  0.
         11    1    4    4    0    0  0.16932243074E+02  0.11000060686E+02  0.16143471687E+02  0.25851767226E+02  0.00000000000E+00 0. -1.
        -12    1    4    4    0    0 -0.33166506834E+02  0.33761825756E+02 -0.69955275843E+02  0.84460752259E+02  0.00000000000E+00 0.  1.
        -11    1    3    3    0    0 -0.43154256410E+02 -0.12709784485E+02 -0.11978011855E+03  0.12794962004E+03  0.00000000000E+00 0. -1.
         11    1    3    3    0    0  0.43212656666E+02 -0.19140333187E+02 -0.72311681004E+02  0.86386719235E+02  0.00000000000E+00 0.  1.
         21    1    1    2  502  501  0.16175863505E+02 -0.12911768770E+02 -0.25538668054E+01  0.20854125937E+02  0.00000000000E+00 0.  1.
<scales pt_clust_5="13000.00000" pt_clust_6="13000.00000" pt_clust_7="13000.00000" pt_clust_8="13000.00000" pt_clust_9="20.69716"></scales>
<clustering>
<clus scale="   20.697">  1  9  2 -1</clus>
<clus scale="   83.702">  5  6 -1 -1</clus>
<clus scale="   89.590">  7  8 -1 -1</clus>
<clus scale="   91.035">  1  5  2 -1</clus>
<clus scale="   20.697">  1  5  2 -1</clus>
</clustering>
</event>
<event>
 9    1  0.2374319E-005  0.1084699E+03  0.7546771E-02  0.1265797E+00
         -2   -1    0    0    0  501 -0.00000000000E+00  0.00000000000E+00  0.10363776688E+04  0.10363776688E+04  0.00000000000E+00 0.  1.
          1   -1    0    0  502    0  0.00000000000E+00 -0.00000000000E+00 -0.73902826224E+02  0.73902826224E+02  0.00000000000E+00 0. -1.
        -24    2    1    2    0    0 -0.25808642064E+02  0.29826137005E+02  0.92383199290E+03  0.92830763094E+03  0.82059869066E+02 0.  0.
         23    2    1    2    0    0  0.42503020345E+02 -0.58503834614E+02 -0.27406285585E+02  0.10805668943E+03  0.75471439882E+02 0.  0.
         11    1    3    3    0    0 -0.37556565605E+02 -0.59378657356E+01  0.20537603512E+03  0.20886615252E+03  0.00000000000E+00 0. -1.
        -12    1    3    3    0    0  0.11747923541E+02  0.35764002741E+02  0.71845595778E+03  0.71944147842E+03  0.00000000000E+00 0.  1.
        -13    1    4    4    0    0 -0.19265128886E+02 -0.20526538616E+02 -0.21280102166E+02  0.35289187108E+02  0.00000000000E+00 0.  1.
         13    1    4    4    0    0  0.61768149232E+02 -0.37977295998E+02 -0.61261834192E+01  0.72767502322E+02  0.00000000000E+00 0. -1.
         21    1    1    2  502  501 -0.16694378281E+02  0.28677697609E+02  0.66049135289E+02  0.73916174676E+02  0.00000000000E+00 0.  1.
<scales pt_clust_5="13000.00000" pt_clust_6="13000.00000" pt_clust_7="13000.00000" pt_clust_8="13000.00000" pt_clust_9="33.18302"></scales>
<clustering>
<clus scale="   33.183">  1  9  2 -1</clus>
<clus scale="   75.471">  7  8 -1 -1</clus>
<clus scale="   82.060">  5  6 -1 -1</clus>
<clus scale="  103.575">  2  7  1 -1</clus>
<clus scale="  103.575">  2  5  1 -1</clus>
</clustering>
</event>
<event>
 9    1  0.2374319E-005  0.9609505E+02  0.7546771E-02  0.1294896E+00
         -2   -1    0    0    0  501 -0.00000000000E+00  0.00000000000E+00  0.51976825308E+02  0.51976825308E+02  0.00000000000E+00 0.  1.
          1   -1    0    0  502    0  0.00000000000E+00 -0.00000000000E+00 -0.46234389459E+03  0.46234389459E+03  0.00000000000E+00 0. -1.
        -24    2    1    2    0    0 -0.11404988526E+02  0.46173601901E+02 -0.62053795444E+02  0.11207239198E+03  0.80296153325E+02 0.  0.
         23    2    1    2    0    0  0.74609804788E+02 -0.23128764049E+02 -0.95381287365E+02  0.14052232017E+03  0.67434188588E+02 0.  0.
         13    1    3    3    0    0 -0.15900630643E+02  0.65188596423E+02 -0.63626388446E+02  0.92469997648E+02  0.00000000000E+00 0. -1.
        -14    1    3    3    0    0  0.44956421172E+01 -0.19014994522E+02  0.15725930011E+01  0.19602394330E+02  0.00000000000E+00 0.  1.
        -11    1    4    4    0    0  0.35951658045E+02 -0.15950102810E+02 -0.93181193651E+02  0.10114179327E+03  0.00000000000E+00 0. -1.
         11    1    4    4    0    0  0.38658146743E+02 -0.71786612384E+01 -0.22000937143E+01  0.39380526902E+02  0.00000000000E+00 0.  1.
         21    1    1    2  502  501 -0.63204816262E+02 -0.23044837852E+02 -0.25293198647E+03  0.26172600774E+03  0.00000000000E+00 0.  1.
<scales pt_clust_5="13000.00000" pt_clust_6="13000.00000" pt_clust_7="13000.00000" pt_clust_8="13000.00000" pt_clust_9="67.27491"></scales>
<clustering>
<clus scale="   67.275">  2  9  1 -1</clus>
<clus scale="   67.434">  7  8 -1 -1</clus>
<clus scale="   80.296">  5  6 -1 -1</clus>
<clus scale="   85.640">  2  7  1 -1</clus>
<clus scale="   67.275">  2  5  1 -1</clus>
</clustering>
</event>
<event>
 9    1  0.2374319E-005  0.1031178E+03  0.7546771E-02  0.1277568E+00
         -2   -1    0    0    0  501 -0.00000000000E+00  0.00000000000E+00  0.28973493970E+02  0.28973493970E+02  0.00000000000E+00 0.  1.
          1   -1    0    0  502    0  0.00000000000E+00 -0.00000000000E+00 -0.67816729462E+03  0.67816729462E+03  0.00000000000E+00 0. -1.
        -24    2    1    2    0    0 -0.26161451806E+02  0.41788767795E+02 -0.98384716719E+02  0.13700282147E+03  0.81605746932E+02 0.  0.
         23    2    1    2    0    0  0.53604860209E+02 -0.28217346839E+02 -0.33266806863E+03  0.34985899244E+03  0.89797388611E+02 0.  0.
         11    1    3    3    0    0 -0.23903541675E+02  0.61163739767E+02 -0.97402744066E+02  0.11747202611E+03  0.00000000000E+00 0. -1.
        -12    1    3    3    0    0 -0.22579101306E+01 -0.19374971972E+02 -0.98197265307E+00  0.19530795359E+02  0.00000000000E+00 0.  1.
        -13    1    4    4    0    0  0.29744514105E+02  0.31764259342E+02 -0.14576583672E+03  0.15212292216E+03  0.00000000000E+00 0. -1.
         13    1    4    4    0    0  0.23860346103E+02 -0.59981606181E+02 -0.18690223191E+03  0.19773607027E+03  0.00000000000E+00 0.  1.
         21    1    1    2  502  501 -0.27443408403E+02 -0.13571420957E+02 -0.21814101530E+03  0.22027897468E+03  0.00000000000E+00 0. -1.
<scales pt_clust_5="13000.00000" pt_clust_6="13000.00000" pt_clust_7="13000.00000" pt_clust_8="13000.00000" pt_clust_9="30.61575"></scales>
<clustering>
<clus scale="   30.616">  2  9  1 -1</clus>
<clus scale="   81.606">  5  6 -1 -1</clus>
<clus scale="   89.797">  7  8 -1 -1</clus>
<clus scale="   96.069">  1  5  2 -1</clus>
<clus scale="   30.616">  2  5  1 -1</clus>
</clustering>
</event>
<event>
 9    1  0.2374319E-005  0.1283611E+03  0.7546771E-02  0.1232917E+00
          1   -1    0    0  502    0  0.00000000000E+00  0.00000000000E+00  0.60046350823E+03  0.60046350823E+03  0.00000000000E+00 0. -1.
         -2   -1    0    0    0  501 -0.00000000000E+00 -0.00000000000E+00 -0.45137860152E+02  0.45137860152E+02  0.00000000000E+00 0.  1.
        -24    2    1    2    0    0  0.42551821839E+02 -0.95488233270E+02  0.11773990472E+03  0.17698596039E+03  0.80825025687E+02 0.  0.
         23    2    1    2    0    0 -0.42366171172E+02  0.40288760978E+02  0.33275529991E+03  0.35013993339E+03  0.91944584493E+02 0.  0.
         11    1    3    3    0    0  0.19732490458E+02 -0.95580204421E+02  0.11927469256E+03  0.15411488877E+03  0.00000000000E+00 0. -1.
        -12    1    3    3    0    0  0.22819331381E+02  0.91971150619E-01 -0.15347878350E+01  0.22871071620E+02  0.00000000000E+00 0.  1.
        -11    1    4    4    0    0 -0.41661763885E+02  0.68533798270E+02  0.23059921116E+03  0.24414868475E+03  0.00000000000E+00 0. -1.
         11    1    4    4    0    0 -0.70440728705E+00 -0.28245037292E+02  0.10215608875E+03  0.10599124865E+03  0.00000000000E+00 0.  1.
         21    1    1    2  502  501 -0.18565066733E+00  0.55199472292E+02  0.10483044345E+03  0.11847547460E+03  0.00000000000E+00 0.  1.
<scales pt_clust_5="13000.00000" pt_clust_6="13000.00000" pt_clust_7="13000.00000" pt_clust_8="13000.00000" pt_clust_9="55.19978"></scales>
<clustering>
<clus scale="   55.200">  1  9  2 -1</clus>
<clus scale="   80.825">  5  6 -1 -1</clus>
<clus scale="   91.945">  7  8 -1 -1</clus>
<clus scale="  120.646">  2  5  1 -1</clus>
<clus scale="   55.200">  1  5  2 -1</clus>
</clustering>
</event>
<event>
 9    1  0.2374319E-005  0.1124343E+03  0.7546771E-02  0.1259379E+00
          1   -1    0    0  502    0  0.00000000000E+00  0.00000000000E+00  0.23542012835E+03  0.23542012835E+03  0.00000000000E+00 0. -1.
         -2   -1    0    0    0  501 -0.00000000000E+00 -0.00000000000E+00 -0.10241376015E+03  0.10241376015E+03  0.00000000000E+00 0.  1.
        -24    2    1    2    0    0  0.23034320932E+02 -0.69273870727E+02 -0.35189322644E+02  0.11482253272E+03  0.81341726591E+02 0.  0.
         23    2    1    2    0    0  0.26881721977E+01  0.53446012830E+02  0.86651616245E+02  0.13605387284E+03  0.90213364639E+02 0.  0.
         13    1    3    3    0    0 -0.21577367090E+00 -0.82297708686E+02 -0.30476010164E+02  0.87759595536E+02  0.00000000000E+00 0. -1.
        -14    1    3    3    0    0  0.23250094603E+02  0.13023837959E+02 -0.47133124806E+01  0.27062937179E+02  0.00000000000E+00 0.  1.
        -11    1    4    4    0    0  0.43959309462E+02  0.24682413657E+02  0.24376743603E+02  0.55998821961E+02  0.00000000000E+00 0.  1.
         11    1    4    4    0    0 -0.41271137264E+02  0.28763599172E+02  0.62274872642E+02  0.80055050878E+02  0.00000000000E+00 0. -1.
         21    1    1    2  502  501 -0.25722493130E+02  0.15827857897E+02  0.81544074603E+02  0.86957482951E+02  0.00000000000E+00 0. -1.
<scales pt_clust_5="13000.00000" pt_clust_6="13000.00000" pt_clust_7="13000.00000" pt_clust_8="13000.00000" pt_clust_9="30.20211"></scales>
<clustering>
<clus scale="   30.202">  1  9  2 -1</clus>
<clus scale="   81.342">  5  6 -1 -1</clus>
<clus scale="   90.213">  7  8 -1 -1</clus>
<clus scale="  105.449">  2  5  1 -1</clus>
<clus scale="   30.202">  1  5  2 -1</clus>
</clustering>
</event>
<event>
 9    1  0.2374319E-005  0.1308895E+03  0.7546771E-02  0.1228225E+00
          1   -1    0    0  502    0  0.00000000000E+00  0.00000000000E+00  0.94609886236E+03  0.94609886236E+03  0.00000000000E+00 0. -1.
         -2   -1    0    0    0  501 -0.00000000000E+00 -0.00000000000E+00 -0.11215744075E+03  0.11215744075E+03  0.00000000000E+00 0.  1.
         23    2    1    2    0    0 -0.95240814139E+02  0.60102800417E+01 -0.59314283863E+02  0.14402992567E+03  0.90108263068E+02 0.  0.
        -24    2    1    2    0    0  0.81852839950E+02 -0.62572553124E+02  0.70593251830E+03  0.71809248175E+03  0.81858903856E+02 0.  0.
         13    1    4    4    0    0  0.45634493806E+02 -0.79456083731E+02  0.49332686434E+03  0.50176405944E+03  0.00000000000E+00 0. -1.
        -14    1    4    4    0    0  0.36218346144E+02  0.16883530608E+02  0.21260565396E+03  0.21632842231E+03  0.00000000000E+00 0.  1.
        -13    1    3    3    0    0 -0.82618608064E+02 -0.19451743282E+02 -0.73489786251E+02  0.11227178363E+03  0.00000000000E+00 0.  1.
         13    1    3    3    0    0 -0.12622206075E+02  0.25462023324E+02  0.14175502388E+02  0.31758142041E+02  0.00000000000E+00 0. -1.
         21    1    1    2  502  501  0.13387974189E+02  0.56562273082E+02  0.18732318717E+03  0.19613389570E+03  0.00000000000E+00 0.  1.
<scales pt_clust_5="13000.00000" pt_clust_6="13000.00000" pt_clust_7="13000.00000" pt_clust_8="13000.00000" pt_clust_9="58.12511"></scales>
<clustering>
<clus scale="   58.125">  1  9  2 -1</clus>
<clus scale="   81.859">  5  6 -1 -1</clus>
<clus scale="   90.108">  7  8 -1 -1</clus>
<clus scale="  125.353">  1  5  2 -1</clus>
<clus scale="   58.125">  1  5  2 -1</clus>
</clustering>
</event>
<event>
 9    1  0.2374319E-005  0.1370267E+03  0.7546771E-02  0.1239383E+00
          1   -1    0    0  502    0  0.00000000000E+00  0.00000000000E+00  0.56538100325E+03  0.56538100325E+03  0.00000000000E+00 0. -1.
         -2   -1    0    0    0  501 -0.00000000000E+00 -0.00000000000E+00 -0.68173946412E+02  0.68173946412E+02  0.00000000000E+00 0.  1.
        -24    2    1    2    0    0  0.28855106186E+02  0.15144633223E+02  0.41083843056E+02  0.96119217547E+02  0.80554607275E+02 0.  0.
         23    2    1    2    0    0  0.89195558950E+02 -0.11460891785E+01  0.36422156585E+03  0.38717651720E+03  0.96390586583E+02 0.  0.
         11    1    3    3    0    0  0.27412456645E+02 -0.18229276373E+02  0.51504414830E+02  0.61126541235E+02  0.00000000000E+00 0. -1.
        -12    1    3    3    0    0  0.14426495418E+01  0.33373909595E+02 -0.10420571774E+02  0.34992676312E+02  0.00000000000E+00 0.  1.
        -13    1    4    4    0    0  0.15781617239E+02  0.39287361246E+02  0.75782957161E+02  0.86807907431E+02  0.00000000000E+00 0. -1.
         13    1    4    4    0    0  0.73413941710E+02 -0.40433450425E+02  0.28843860869E+03  0.30036860977E+03  0.00000000000E+00 0.  1.
         21    1    1    2  502  501 -0.11805066514E+03 -0.13998544044E+02  0.91901647928E+02  0.15025921491E+03  0.00000000000E+00 0. -1.
<scales pt_clust_5="13000.00000" pt_clust_6="13000.00000" pt_clust_7="13000.00000" pt_clust_8="13000.00000" pt_clust_9="97.39179"></scales>
<clustering>
<clus scale="   80.555">  5  6 -1 -1</clus>
<clus scale="   86.897">  2  5  1 -1</clus>
<clus scale="   96.391">  7  8 -1 -1</clus>
<clus scale="   97.392">  2  9  1 -1</clus>
<clus scale="  137.027">  1  5  2 -1</clus>
</clustering>
</event>
<event>
 9    1  0.2374319E-005  0.1249992E+03  0.7546771E-02  0.1238196E+00
          3   -1    0    0  502    0  0.00000000000E+00  0.00000000000E+00  0.41598449367E+03  0.41598449367E+03  0.00000000000E+00 0. -1.
         -4   -1    0    0    0  501 -0.00000000000E+00 -0.00000000000E+00 -0.18704727270E+03  0.18704727270E+03  0.00000000000E+00 0.  1.
        -24    2    1    2    0    0  0.82248100920E+02 -0.16102388289E+02 -0.14231048973E+03  0.18332026370E+03  0.79561338494E+02 0.  0.
         23    2    1    2    0    0 -0.71464198273E+02  0.49132973974E+02  0.36293223258E+03  0.38398393176E+03  0.90568612886E+02 0.  0.
         13    1    3    3    0    0  0.62366668421E+02  0.23496623997E+01 -0.32808985928E+02  0.70509232027E+02  0.00000000000E+00 0. -1.
        -14    1    3    3    0    0  0.19881432499E+02 -0.18452050689E+02 -0.10950150380E+03  0.11281103167E+03  0.00000000000E+00 0.  1.
        -11    1    4    4    0    0 -0.29175351247E+01  0.55800797419E+02  0.18214197765E+03  0.19052018535E+03  0.00000000000E+00 0.  1.
         11    1    4    4    0    0 -0.68546663148E+02 -0.66678234443E+01  0.18079025493E+03  0.19346374642E+03  0.00000000000E+00 0. -1.
         21    1    1    2  502  501 -0.10783902647E+02 -0.33030585685E+02  0.83154781146E+01  0.35727570912E+02  0.00000000000E+00 0.  1.
<scales pt_clust_5="13000.00000" pt_clust_6="13000.00000" pt_clust_7="13000.00000" pt_clust_8="13000.00000" pt_clust_9="34.74640"></scales>
<clustering>
<clus scale="   34.746">  2  9  1 -1</clus>
<clus scale="   79.561">  5  6 -1 -1</clus>
<clus scale="   90.569">  7  8 -1 -1</clus>
<clus scale="  117.270">  2  5  1 -1</clus>
<clus scale="  124.999">  1  5  2 -1</clus>
</clustering>
</event>
<event>
 9    1  0.2374319E-005  0.1004970E+03  0.7546771E-02  0.1283073E+00
         -2   -1    0    0    0  501 -0.00000000000E+00  0.00000000000E+00  0.12328444284E+03  0.12328444284E+03  0.00000000000E+00 0.  1.
          1   -1    0    0  502    0  0.00000000000E+00 -0.00000000000E+00 -0.30342571547E+03  0.30342571547E+03  0.00000000000E+00 0. -1.
         23    2    1    2    0    0  0.40277567000E+02  0.26327821193E+02  0.89304257029E+02  0.13520366048E+03  0.89383124305E+02 0.  0.
        -24    2    1    2    0    0 -0.20690830450E+02 -0.19518381535E+02 -0.17859709513E+03  0.19832148415E+03  0.81396627734E+02 0.  0.
         13    1    4    4    0    0 -0.28306650306E+02 -0.48555503576E+02 -0.11656952413E+03  0.12941158115E+03  0.00000000000E+00 0. -1.
        -14    1    4    4    0    0  0.76158198561E+01  0.29037122041E+02 -0.62027570996E+02  0.68909903006E+02  0.00000000000E+00 0.  1.
        -13    1    3    3    0    0  0.43497977871E+02  0.55381995907E+02  0.74207312707E+02  0.10230329813E+03  0.00000000000E+00 0. -1.
         13    1    3    3    0    0 -0.32204108716E+01 -0.29054174714E+02  0.15096944322E+02  0.32900362344E+02  0.00000000000E+00 0.  1.
         21    1    1    2  502  501 -0.19586736550E+02 -0.68094396578E+01 -0.90848434537E+02  0.93185013682E+02  0.00000000000E+00 0. -1.
<scales pt_clust_5="13000.00000" pt_clust_6="13000.00000" pt_clust_7="13000.00000" pt_clust_8="13000.00000" pt_clust_9="20.73665"></scales>
<clustering>
<clus scale="   20.737">  2  9  1 -1</clus>
<clus scale="   81.397">  5  6 -1 -1</clus>
<clus scale="   89.383">  7  8 -1 -1</clus>
<clus scale="   93.465">  2  5  1 -1</clus>
<clus scale="   20.737">  2  5  1 -1</clus>
</clustering>
</event>
<event>
 9    1  0.2374319E-005  0.1046231E+03  0.7546771E-02  0.1278247E+00
          3   -1    0    0  502    0  0.00000000000E+00  0.00000000000E+00  0.24148081033E+03  0.24148081033E+03  0.00000000000E+00 0. -1.
         -4   -1    0    0    0  501 -0.00000000000E+00 -0.00000000000E+00 -0.75350337440E+02  0.75350337440E+02  0.00000000000E+00 0.  1.
        -24    2    1    2    0    0 -0.33418149398E+02  0.43499191272E+02 -0.16374066693E+02  0.93391204409E+02  0.73789258366E+02 0.  0.
         23    2    1    2    0    0  0.83240919975E+01 -0.48335463366E+02  0.15443508476E+03  0.18547949633E+03  0.90259850590E+02 0.  0.
         13    1    3    3    0    0 -0.45448971100E+02  0.34037810173E+01 -0.22930128943E+02  0.51019462096E+02  0.00000000000E+00 0. -1.
        -14    1    3    3    0    0  0.12030821702E+02  0.40095410255E+02  0.65560622508E+01  0.42371742312E+02  0.00000000000E+00 0.  1.
        -13    1    4    4    0    0 -0.35077649535E+02 -0.18067196668E+02  0.27895399580E+02  0.48322028208E+02  0.00000000000E+00 0.  1.
         13    1    4    4    0    0  0.43401741533E+02 -0.30268266698E+02  0.12653968518E+03  0.13715746813E+03  0.00000000000E+00 0. -1.
         21    1    1    2  502  501  0.25094057401E+02  0.48362720937E+01  0.28069454817E+02  0.37960447025E+02  0.00000000000E+00 0. -1.
<scales pt_clust_5="13000.00000" pt_clust_6="13000.00000" pt_clust_7="13000.00000" pt_clust_8="13000.00000" pt_clust_9="25.55585"></scales>
<clustering>
<clus scale="   25.556">  1  9  2 -1</clus>
<clus scale="   73.789">  5  6 -1 -1</clus>
<clus scale="   90.260">  7  8 -1 -1</clus>
<clus scale="   90.796">  2  5  1 -1</clus>
<clus scale="   25.556">  1  5  2 -1</clus>
</clustering>
</event>
<event>
 9    1  0.2374319E-005  0.1915385E+03  0.7546771E-02  0.1158307E+00
          1   -1    0    0  502    0  0.00000000000E+00  0.00000000000E+00  0.25962099887E+03  0.25962099887E+03  0.00000000000E+00 0. -1.
         -2   -1    0    0    0  501 -0.00000000000E+00 -0.00000000000E+00 -0.16307810165E+03  0.16307810165E+03  0.00000000000E+00 0.  1.
        -24    2    1    2    0    0  0.97975378026E+02 -0.14295576142E+03  0.33752943945E+01  0.19155307496E+03  0.81520938976E+02 0.  0.
         23    2    1    2    0    0 -0.73899450622E+02  0.14167694455E+03  0.70247221166E+02  0.19787998359E+03  0.93211213948E+02 0.  0.
         13    1    3    3    0    0  0.69180487863E+02 -0.80720950195E+02  0.40273447958E+02  0.11368272653E+03  0.00000000000E+00 0. -1.
        -14    1    3    3    0    0  0.28794890163E+02 -0.62234811227E+02 -0.36898153564E+02  0.77870348428E+02  0.00000000000E+00 0.  1.
        -13    1    4    4    0    0 -0.48861548371E+02  0.47337826047E+02  0.73588440417E+02  0.10021765936E+03  0.00000000000E+00 0.  1.
         13    1    4    4    0    0 -0.25037902250E+02  0.94339118499E+02 -0.33412192513E+01  0.97662324232E+02  0.00000000000E+00 0. -1.
         21    1    1    2  502  501 -0.24075927404E+02  0.12788168759E+01  0.22920381662E+02  0.33266041972E+02  0.00000000000E+00 0.  1.
<scales pt_clust_5="13000.00000" pt_clust_6="13000.00000" pt_clust_7="13000.00000" pt_clust_8="13000.00000" pt_clust_9="24.10987"></scales>
<clustering>
<clus scale="   24.110">  1  9  2 -1</clus>
<clus scale="   81.521">  5  6 -1 -1</clus>
<clus scale="   93.211">  7  8 -1 -1</clus>
<clus scale="  186.130">  2  5  1 -1</clus>
<clus scale="   24.110">  1  5  2 -1</clus>
</clustering>
</event>
<event>
 9    1  0.2374319E-005  0.9480633E+02  0.7546771E-02  0.1298597E+00
         -2   -1    0    0    0  501 -0.00000000000E+00  0.00000000000E+00  0.11146695845E+03  0.11146695845E+03  0.00000000000E+00 0.  1.
          1   -1    0    0  502    0  0.00000000000E+00 -0.00000000000E+00 -0.25715603599E+03  0.25715603599E+03  0.00000000000E+00 0. -1.
        -24    2    1    2    0    0 -0.18584738037E+02 -0.19866993868E+02  0.76280788034E+02  0.11351926245E+03  0.79547309132E+02 0.  0.
         23    2    1    2    0    0 -0.10389119879E+02  0.65389860919E+01 -0.18074989006E+03  0.20298649286E+03  0.91554909060E+02 0.  0.
         13    1    3    3    0    0  0.12448225111E+01 -0.34416306254E+02  0.11420495307E+01  0.34457742184E+02  0.00000000000E+00 0. -1.
        -14    1    3    3    0    0 -0.19829560548E+02  0.14549312386E+02  0.75138738503E+02  0.79061520263E+02  0.00000000000E+00 0.  1.
        -11    1    4    4    0    0  0.35956347631E+02 -0.17551302486E+02 -0.83775856892E+02  0.92840192546E+02  0.00000000000E+00 0. -1.
         11    1    4    4    0    0 -0.46345467510E+02  0.24090288578E+02 -0.96974033173E+02  0.11014630031E+03  0.00000000000E+00 0.  1.
         21    1    1    2  502  501  0.28973857916E+02  0.13328007776E+02 -0.41219975514E+02  0.52117239137E+02  0.00000000000E+00 0. -1.
<scales pt_clust_5="13000.00000" pt_clust_6="13000.00000" pt_clust_7="13000.00000" pt_clust_8="13000.00000" pt_clust_9="31.89232"></scales>
<clustering>
<clus scale="   31.892">  2  9  1 -1</clus>
<clus scale="   79.547">  5  6 -1 -1</clus>
<clus scale="   83.269">  1  5  2 -1</clus>
<clus scale="   91.555">  7  8 -1 -1</clus>
<clus scale="   31.892">  2  5  1 -1</clus>
</clustering>
</event>
<event>
 9    1  0.2374319E-005  0.1027836E+03  0.7546771E-02  0.1280282E+00
         -2   -1    0    0    0  501 -0.00000000000E+00  0.00000000000E+00  0.34993085102E+03  0.34993085102E+03  0.00000000000E+00 0.  1.
          1   -1    0    0  502    0  0.00000000000E+00 -0.00000000000E+00 -0.67436309751E+02  0.67436309751E+02  0.00000000000E+00 0. -1.
         23    2    1    2    0    0  0.46471232622E+02 -0.21399573069E+02  0.24958694210E+03  0.27084645674E+03  0.91905626979E+02 0.  0.
        -24    2    1    2    0    0 -0.34541891685E+02 -0.23179781275E+02  0.25915733083E+00  0.89991518978E+02  0.79799509925E+02 0.  0.
         11    1    4    4    0    0  0.17309004957E+02 -0.28615820777E+02  0.13717396420E+02  0.36147390167E+02  0.00000000000E+00 0. -1.
        -12    1    4    4    0    0 -0.51850896642E+02  0.54360395019E+01 -0.13458239090E+02  0.53844128811E+02  0.00000000000E+00 0.  1.
        -13    1    3    3    0    0 -0.11276254114E+02 -0.30960597694E+02  0.33567148387E+02  0.47036857540E+02  0.00000000000E+00 0. -1.
         13    1    3    3    0    0  0.57747486736E+02  0.95610246252E+01  0.21601979371E+03  0.22380959920E+03  0.00000000000E+00 0.  1.
         21    1    1    2  502  501 -0.11929340937E+02  0.44579354344E+02  0.32648441840E+02  0.56529185059E+02  0.00000000000E+00 0.  1.
<scales pt_clust_5="13000.00000" pt_clust_6="13000.00000" pt_clust_7="13000.00000" pt_clust_8="13000.00000" pt_clust_9="46.14789"></scales>
<clustering>
<clus scale="   46.148">  2  9  1 -1</clus>
<clus scale="   79.800">  5  6 -1 -1</clus>
<clus scale="   91.906">  7  8 -1 -1</clus>
<clus scale="   92.118">  2  5  1 -1</clus>
<clus scale="   46.148">  2  5  1 -1</clus>
</clustering>
</event>
<event>
 9    1  0.2374319E-005  0.1727585E+03  0.7546771E-02  0.1176294E+00
         -2   -1    0    0    0  501 -0.00000000000E+00  0.00000000000E+00  0.20806329716E+03  0.20806329716E+03  0.00000000000E+00 0.  1.
          1   -1    0    0  502    0  0.00000000000E+00 -0.00000000000E+00 -0.38766823650E+03  0.38766823650E+03  0.00000000000E+00 0. -1.
         23    2    1    2    0    0 -0.70569979304E+02  0.13235520090E+03  0.14327984904E+03  0.22602854709E+03  0.89787347531E+02 0.  0.
        -24    2    1    2    0    0  0.75831570871E+02 -0.10666577356E+03 -0.28547082723E+03  0.32401452509E+03  0.79773459775E+02 0.  0.
         13    1    4    4    0    0  0.92758471503E+02 -0.85812810156E+02 -0.23844756506E+03  0.26986147132E+03  0.00000000000E+00 0. -1.
        -14    1    4    4    0    0 -0.16926900632E+02 -0.20852963402E+02 -0.47023262166E+02  0.54153053768E+02  0.00000000000E+00 0.  1.
        -11    1    3    3    0    0 -0.86117787473E+02  0.11822087785E+03  0.97849726826E+02  0.17597448201E+03  0.00000000000E+00 0.  1.
         11    1    3    3    0    0  0.15547808170E+02  0.14134323049E+02  0.45430122217E+02  0.50054065086E+02  0.00000000000E+00 0. -1.
         21    1    1    2  502  501 -0.52615915674E+01 -0.25689427339E+02 -0.37413961156E+02  0.45688461478E+02  0.00000000000E+00 0. -1.
<scales pt_clust_5="13000.00000" pt_clust_6="13000.00000" pt_clust_7="13000.00000" pt_clust_8="13000.00000" pt_clust_9="26.22272"></scales>
<clustering>
<clus scale="   26.223">  2  9  1 -1</clus>
<clus scale="   79.773">  5  6 -1 -1</clus>
<clus scale="   89.787">  7  8 -1 -1</clus>
<clus scale="  167.772">  2  5  1 -1</clus>
<clus scale="   26.223">  2  5  1 -1</clus>
</clustering>
</event>
<event>
 9    1  0.2374319E-005  0.1104302E+03  0.7546771E-02  0.1264960E+00
          1   -1    0    0  502    0  0.00000000000E+00  0.00000000000E+00  0.55701465200E+03  0.55701465200E+03  0.00000000000E+00 0. -1.
         -2   -1    0    0    0  501 -0.00000000000E+00 -0.00000000000E+00 -0.18967545803E+03  0.18967545803E+03  0.00000000000E+00 0.  1.
        -24    2    1    2    0    0 -0.55817918133E+02 -0.90457386294E+01 -0.15080026879E+03  0.18028892326E+03  0.81030299337E+02 0.  0.
         23    2    1    2    0    0  0.10023809243E+03  0.58294877078E+02  0.43609366789E+03  0.46090169873E+03  0.93844130600E+02 0.  0.
         11    1    3    3    0    0 -0.56757529561E+02 -0.37306506290E+02 -0.85988765335E+02  0.10957764524E+03  0.00000000000E+00 0. -1.
        -12    1    3    3    0    0  0.93961142732E+00  0.28260767661E+02 -0.64811503454E+02  0.70711278014E+02  0.00000000000E+00 0.  1.
        -13    1    4    4    0    0  0.14826413267E+02  0.53705248406E+02  0.10415875482E+03  0.11812333572E+03  0.00000000000E+00 0.  1.
         13    1    4    4    0    0  0.85411679164E+02  0.45896286723E+01  0.33193491307E+03  0.34277836301E+03  0.00000000000E+00 0. -1.
         21    1    1    2  502  501 -0.44420174298E+02 -0.49249138449E+02  0.82045794863E+02  0.10549948804E+03  0.00000000000E+00 0. -1.
<scales pt_clust_5="13000.00000" pt_clust_6="13000.00000" pt_clust_7="13000.00000" pt_clust_8="13000.00000" pt_clust_9="66.32216"></scales>
<clustering>
<clus scale="   66.322">  1  9  2 -1</clus>
<clus scale="   81.030">  5  6 -1 -1</clus>
<clus scale="   93.844">  7  8 -1 -1</clus>
<clus scale="   99.770">  2  5  1 -1</clus>
<clus scale="   66.322">  1  5  2 -1</clus>
</clustering>
</event>
<event>
 9    1  0.2374319E-005  0.1190511E+03  0.7546771E-02  0.1248524E+00
         -2   -1    0    0    0  501 -0.00000000000E+00  0.00000000000E+00  0.32538838341E+03  0.32538838341E+03  0.00000000000E+00 0.  1.
          1   -1    0    0  502    0  0.00000000000E+00 -0.00000000000E+00 -0.10119267285E+03  0.10119267285E+03  0.00000000000E+00 0. -1.
         23    2    1    2    0    0  0.65733571037E+02 -0.41464316610E+02  0.25918319008E+03  0.28564091157E+03  0.91512908520E+02 0.  0.
        -24    2    1    2    0    0 -0.70272846826E+02  0.16380970717E+02 -0.14909871953E+02  0.10849188446E+03  0.79634009760E+02 0.  0.
         11    1    4    4    0    0 -0.37907665834E+02  0.23932136972E+02 -0.45101352687E+02  0.63591432782E+02  0.00000000000E+00 0. -1.
        -12    1    4    4    0    0 -0.32365180992E+02 -0.75511662544E+01  0.30191480734E+02  0.44900451683E+02  0.00000000000E+00 0.  1.
        -13    1    3    3    0    0  0.50149771390E+02 -0.60298604117E+02  0.24529038610E+03  0.25752338678E+03  0.00000000000E+00 0.  1.
         13    1    3    3    0    0  0.15583799647E+02  0.18834287507E+02  0.13892803986E+02  0.28117524783E+02  0.00000000000E+00 0. -1.
         21    1    1    2  502  501  0.45392757885E+01  0.25083345893E+02 -0.20077607567E+02  0.32448260222E+02  0.00000000000E+00 0. -1.
<scales pt_clust_5="13000.00000" pt_clust_6="13000.00000" pt_clust_7="13000.00000" pt_clust_8="13000.00000" pt_clust_9="25.49077"></scales>
<clustering>
<clus scale="   25.491">  2  9  1 -1</clus>
<clus scale="   79.634">  5  6 -1 -1</clus>
<clus scale="   91.513">  7  8 -1 -1</clus>
<clus scale="  110.182">  2  5  1 -1</clus>
<clus scale="   25.491">  2  5  1 -1</clus>
</clustering>
</event>
<event>
 9    1  0.2374319E-005  0.2030250E+03  0.7546771E-02  0.1147432E+00
         -2   -1    0    0    0  501 -0.00000000000E+00  0.00000000000E+00  0.63216891614E+03  0.63216891614E+03  0.00000000000E+00 0.  1.
          1   -1    0    0  502    0  0.00000000000E+00 -0.00000000000E+00 -0.13240353918E+03  0.13240353918E+03  0.00000000000E+00 0. -1.
        -24    2    1    2    0    0  0.15002471029E+03  0.10946254409E+03  0.50670814228E+03  0.54848309996E+03  0.97934198478E+02 0.  0.
         23    2    1    2    0    0 -0.12218363221E+03 -0.78480721169E+02 -0.38688195475E+00  0.17392327199E+03  0.95713589877E+02 0.  0.
         13    1    3    3    0    0 -0.76058470752E+01  0.33941671963E+02  0.97046377385E+02  0.10309163579E+03  0.00000000000E+00 0. -1.
        -14    1    3    3    0    0  0.15763055736E+03  0.75520872128E+02  0.40966176489E+03  0.44539146417E+03  0.00000000000E+00 0.  1.
        -11    1    4    4    0    0 -0.55636372856E+02 -0.84237528383E+02  0.22288637676E+02  0.10338351195E+03  0.00000000000E+00 0.  1.
         11    1    4    4    0    0 -0.66547259350E+02  0.57568072145E+01 -0.22675519631E+02  0.70539760043E+02  0.00000000000E+00 0. -1.
         21    1    1    2  502  501 -0.27841078080E+02 -0.30981822921E+02 -0.65558833705E+01  0.42166083372E+02  0.00000000000E+00 0. -1.
<scales pt_clust_5="13000.00000" pt_clust_6="13000.00000" pt_clust_7="13000.00000" pt_clust_8="13000.00000" pt_clust_9="41.65332"></scales>
<clustering>
<clus scale="   41.653">  2  9  1 -1</clus>
<clus scale="   95.714">  7  8 -1 -1</clus>
<clus scale="   97.934">  5  6 -1 -1</clus>
<clus scale="  201.963">  2  7  1 -1</clus>
<clus scale="   41.653">  2  5  1 -1</clus>
</clustering>
</event>
<event>
 9    1  0.2374319E-005  0.9880950E+02  0.7546771E-02  0.1287762E+00
          1   -1    0    0  502    0  0.00000000000E+00  0.00000000000E+00  0.45995505909E+02  0.45995505909E+02  0.00000000000E+00 0. -1.
         -2   -1    0    0    0  501 -0.00000000000E+00 -0.00000000000E+00 -0.44230121612E+03  0.44230121612E+03  0.00000000000E+00 0.  1.
         23    2    1    2    0    0 -0.45037758605E+02  0.41793979942E+02 -0.21757721115E+03  0.24332120131E+03  0.89945693275E+02 0.  0.
        -24    2    1    2    0    0 -0.17961097394E+02 -0.40554100077E+02 -0.57020424770E+02  0.10792352873E+03  0.80180565971E+02 0.  0.
         11    1    4    4    0    0 -0.20229003205E+02 -0.35344345527E+01  0.15993983844E+02  0.26029066781E+02  0.00000000000E+00 0. -1.
        -12    1    4    4    0    0  0.22679058108E+01 -0.37019665525E+02 -0.73014408614E+02  0.81894461947E+02  0.00000000000E+00 0.  1.
        -11    1    3    3    0    0 -0.21260572095E+02 -0.16460784082E+02 -0.14147033559E+02  0.30382690745E+02  0.00000000000E+00 0. -1.
         11    1    3    3    0    0 -0.23777186510E+02  0.58254764024E+02 -0.20343017759E+03  0.21293851057E+03  0.00000000000E+00 0.  1.
         21    1    1    2  502  501  0.62998855999E+02 -0.12398798648E+01 -0.12170807429E+03  0.13705199199E+03  0.00000000000E+00 0.  1.
<scales pt_clust_5="13000.00000" pt_clust_6="13000.00000" pt_clust_7="13000.00000" pt_clust_8="13000.00000" pt_clust_9="63.01106"></scales>
<clustering>
<clus scale="   63.011">  2  9  1 -1</clus>
<clus scale="   80.181">  5  6 -1 -1</clus>
<clus scale="   89.946">  7  8 -1 -1</clus>
<clus scale="   90.011">  1  5  2 -1</clus>
<clus scale="   90.011">  1  5  2 -1</clus>
</clustering>
</event>
<event>
 9    1  0.2374319E-005  0.1370247E+03  0.7546771E-02  0.1228320E+00
         -4   -1    0    0    0  501 -0.00000000000E+00  0.00000000000E+00  0.97965576777E+02  0.97965576777E+02  0.00000000000E+00 0.  1.
          3   -1    0    0  502    0  0.00000000000E+00 -0.00000000000E+00 -0.60744582631E+03  0.60744582631E+03  0.00000000000E+00 0. -1.
         23    2    1    2    0    0  0.43505865730E+02  0.40503630103E+02  0.26277116464E+02  0.11216496450E+03  0.91417656980E+02 0.  0.
        -24    2    1    2    0    0  0.58226626031E+02  0.45989370909E+02 -0.16049646692E+03  0.19493590460E+03  0.82070267419E+02 0.  0.
         11    1    4    4    0    0  0.22251666124E+02 -0.10572822912E+02 -0.10517710457E+03  0.10802381476E+03  0.00000000000E+00 0. -1.
        -12    1    4    4    0    0  0.35974959907E+02  0.56562193821E+02 -0.55319362351E+02  0.86912089844E+02  0.00000000000E+00 0.  1.
        -13    1    3    3    0    0  0.16109210099E+02  0.67399125722E+02  0.25265337679E+02  0.73759650800E+02  0.00000000000E+00 0.  1.
         13    1    3    3    0    0  0.27396655630E+02 -0.26895495619E+02  0.10117787854E+01  0.38405313703E+02  0.00000000000E+00 0. -1.
         21    1    1    2  502  501 -0.10173249176E+03 -0.86493001012E+02 -0.37526089907E+03  0.39831053398E+03  0.00000000000E+00 0. -1.
<scales pt_clust_5="13000.00000" pt_clust_6="13000.00000" pt_clust_7="13000.00000" pt_clust_8="13000.00000" pt_clust_9="109.72801"></scales>
<clustering>
<clus scale="   82.070">  5  6 -1 -1</clus>
<clus scale="   91.418">  7  8 -1 -1</clus>
<clus scale="  109.044">  1  7  2 -1</clus>
<clus scale="  109.728">  2  9  1 -1</clus>
<clus scale="  109.728">  2  5  1 -1</clus>
</clustering>
</event>
<event>
 9    1  0.2374319E-005  0.9273552E+02  0.7546771E-02  0.1302306E+00
          3   -1    0    0  502    0  0.00000000000E+00  0.00000000000E+00  0.13422727964E+03  0.13422727964E+03  0.00000000000E+00 0. -1.
         -4   -1    0    0    0  501 -0.00000000000E+00 -0.00000000000E+00 -0.15655242896E+03  0.15655242896E+03  0.00000000000E+00 0.  1.
         23    2    1    2    0    0  0.20026822052E+02  0.17709249023E+02 -0.11331986725E+03  0.14686250028E+03  0.89512628004E+02 0.  0.
        -24    2    1    2    0    0 -0.20524991090E+02  0.42035017982E+01  0.46804362848E+02  0.94589687566E+02  0.79483431767E+02 0.  0.
         11    1    4    4    0    0 -0.29163513251E+02  0.34333362573E+01  0.66704376995E+02  0.72881905939E+02  0.00000000000E+00 0. -1.
        -12    1    4    4    0    0  0.86385221611E+01  0.77016554084E+00 -0.19900014147E+02  0.21707781626E+02  0.00000000000E+00 0.  1.
        -13    1    3    3    0    0  0.33230767405E+02 -0.26602279476E+02 -0.31766275230E+02  0.53113665074E+02  0.00000000000E+00 0.  1.
         13    1    3    3    0    0 -0.13203945353E+02  0.44311528500E+02 -0.81553592025E+02  0.93748835209E+02  0.00000000000E+00 0. -1.
         21    1    1    2  502  501  0.49816903808E+00 -0.21912750822E+02  0.44190355088E+02  0.49327520754E+02  0.00000000000E+00 0. -1.
<scales pt_clust_5="13000.00000" pt_clust_6="13000.00000" pt_clust_7="13000.00000" pt_clust_8="13000.00000" pt_clust_9="21.91841"></scales>
<clustering>
<clus scale="   21.918">  1  9  2 -1</clus>
<clus scale="   79.483">  5  6 -1 -1</clus>
<clus scale="   83.096">  1  5  2 -1</clus>
<clus scale="   89.513">  7  8 -1 -1</clus>
<clus scale="   21.918">  1  5  2 -1</clus>
</clustering>
</event>
<event>
 9    1  0.2374319E-005  0.1114119E+03  0.7546771E-02  0.1261238E+00
          1   -1    0    0  502    0  0.00000000000E+00  0.00000000000E+00  0.52959901729E+02  0.52959901729E+02  0.00000000000E+00 0. -1.
         -2   -1    0    0    0  501 -0.00000000000E+00 -0.00000000000E+00 -0.44502746222E+03  0.44502746222E+03  0.00000000000E+00 0.  1.
         23    2    1    2    0    0 -0.58700695598E+02 -0.16565664874E+02 -0.32873253410E+03  0.34637482006E+03  0.90499967269E+02 0.  0.
        -24    2    1    2    0    0  0.80129538828E+02  0.13572312104E+02 -0.58999682819E+02  0.12954558473E+03  0.81829978008E+02 0.  0.
         13    1    4    4    0    0  0.37312503463E+02  0.42175659731E+02 -0.76564217793E+01  0.56829833564E+02  0.00000000000E+00 0. -1.
        -14    1    4    4    0    0  0.42817035364E+02 -0.28603347627E+02 -0.51343261040E+02  0.72715751162E+02  0.00000000000E+00 0.  1.
        -11    1    3    3    0    0 -0.30931933870E+01 -0.29408464814E+02 -0.29575808232E+02  0.41822889435E+02  0.00000000000E+00 0.  1.
         11    1    3    3    0    0 -0.55607502211E+02  0.12842799940E+02 -0.29915672587E+03  0.30455193062E+03  0.00000000000E+00 0. -1.
         21    1    1    2  502  501 -0.21428843230E+02  0.29933527705E+01 -0.43353435694E+01  0.22066959166E+02  0.00000000000E+00 0.  1.
<scales pt_clust_5="13000.00000" pt_clust_6="13000.00000" pt_clust_7="13000.00000" pt_clust_8="13000.00000" pt_clust_9="21.63690"></scales>
<clustering>
<clus scale="   21.637">  1  9  2 -1</clus>
<clus scale="   81.830">  5  6 -1 -1</clus>
<clus scale="   90.500">  7  8 -1 -1</clus>
<clus scale="  104.492">  1  5  2 -1</clus>
<clus scale="   21.637">  1  5  2 -1</clus>
</clustering>
</event>
<event>
 9    1  0.2374319E-005  0.1494441E+03  0.7546771E-02  0.1202866E+00
         -2   -1    0    0    0  501 -0.00000000000E+00  0.00000000000E+00  0.11979828551E+03  0.11979828551E+03  0.00000000000E+00 0.  1.
          1   -1    0    0  502    0  0.00000000000E+00 -0.00000000000E+00 -0.24151947957E+03  0.24151947957E+03  0.00000000000E+00 0. -1.
        -24    2    1    2    0    0 -0.10925539186E+03 -0.87186531351E+01  0.25366192780E+01  0.13649257785E+03  0.81308264078E+02 0.  0.
         23    2    1    2    0    0  0.12373984773E+03 -0.10435784432E+02 -0.12862197333E+03  0.20041744599E+03  0.90570884504E+02 0.  0.
         11    1    3    3    0    0 -0.87612869633E+02 -0.12249478256E+02 -0.33262034858E+02  0.94511521021E+02  0.00000000000E+00 0. -1.
        -12    1    3    3    0    0 -0.21642522226E+02  0.35308251209E+01  0.35798654136E+02  0.41981056826E+02  0.00000000000E+00 0.  1.
        -13    1    4    4    0    0  0.35005095375E+02  0.12364631486E+02  0.59708699367E+01  0.37601756632E+02  0.00000000000E+00 0.  1.
         13    1    4    4    0    0  0.88734752355E+02 -0.22800415918E+02 -0.13459284327E+03  0.16281568936E+03  0.00000000000E+00 0. -1.
         21    1    1    2  502  501 -0.14484455871E+02  0.19154437567E+02  0.43641599948E+01  0.24407741248E+02  0.00000000000E+00 0.  1.
<scales pt_clust_5="13000.00000" pt_clust_6="13000.00000" pt_clust_7="13000.00000" pt_clust_8="13000.00000" pt_clust_9="24.01441"></scales>
<clustering>
<clus scale="   24.014">  1  9  2 -1</clus>
<clus scale="   81.308">  5  6 -1 -1</clus>
<clus scale="   90.571">  7  8 -1 -1</clus>
<clus scale="  144.019">  1  5  2 -1</clus>
<clus scale="  149.444">  2  5  1 -1</clus>
</clustering>
</event>
<event>
 9    1  0.4217751E-005  0.2911252E+03  0.7546771E-02  0.1090282E+00
          1   -1    0    0  502    0  0.00000000000E+00  0.00000000000E+00  0.83497363408E+03  0.83497363408E+03  0.00000000000E+00 0. -1.
         -2   -1    0    0    0  501 -0.00000000000E+00 -0.00000000000E+00 -0.57875156894E+03  0.57875156894E+03  0.00000000000E+00 0.  1.
        -24    2    1    2    0    0  0.27255147466E+03  0.43667405518E+02 -0.50558437076E+03  0.58119738236E+03  0.77354331893E+02 0.  0.
         23    2    1    2    0    0 -0.28781093239E+03 -0.15353724549E+02  0.70846039476E+03  0.77023564069E+03  0.90972202227E+02 0.  0.
         13    1    3    3    0    0  0.79730449972E+02  0.42966656863E+02 -0.20452883817E+03  0.22368532338E+03  0.00000000000E+00 0. -1.
        -14    1    3    3    0    0  0.19282102469E+03  0.70074865447E+00 -0.30105553259E+03  0.35751205898E+03  0.00000000000E+00 0.  1.
        -11    1    4    4    0    0 -0.23581886886E+03  0.30532849753E+00  0.64476638532E+03  0.68653792595E+03  0.00000000000E+00 0. -1.
         11    1    4    4    0    0 -0.51992063538E+02 -0.15659053046E+02  0.63694009446E+02  0.83697714739E+02  0.00000000000E+00 0.  1.
         21    1    1    2  502  501  0.15259457736E+02 -0.28313680969E+02  0.53346041142E+02  0.62292179974E+02  0.00000000000E+00 0.  1.
<scales pt_clust_5="13000.00000" pt_clust_6="13000.00000" pt_clust_7="13000.00000" pt_clust_8="13000.00000" pt_clust_9="32.16389"></scales>
<clustering>
<clus scale="   32.164">  1  9  2 -1</clus>
<clus scale="   77.354">  5  6 -1 -1</clus>
<clus scale="   90.972">  7  8 -1 -1</clus>
<clus scale="  287.161">  2  5  1 -1</clus>
<clus scale="   32.164">  1  5  2 -1</clus>
</clustering>
</event>
<event>
 9    1  0.2374319E-005  0.1702957E+03  0.7546771E-02  0.1178919E+00
          1   -1    0    0  502    0  0.00000000000E+00  0.00000000000E+00  0.68839678443E+03  0.68839678443E+03  0.00000000000E+00 0. -1.
         -2   -1    0    0    0  501 -0.00000000000E+00 -0.00000000000E+00 -0.72492468366E+02  0.72492468366E+02  0.00000000000E+00 0.  1.
         23    2    1    2    0    0  0.10129744961E+03 -0.13382335636E+03  0.11789714206E+03  0.22399773527E+03  0.90029913343E+02 0.  0.
        -24    2    1    2    0    0 -0.48489125693E+02  0.92174447300E+02  0.29002690478E+03  0.31830711028E+03  0.79727579385E+02 0.  0.
         11    1    4    4    0    0 -0.18148546845E+02  0.85507771934E+02  0.26294936417E+03  0.27709802766E+03  0.00000000000E+00 0. -1.
        -12    1    4    4    0    0 -0.30340578848E+02  0.66666753660E+01  0.27077540605E+02  0.41209082622E+02  0.00000000000E+00 0.  1.
        -11    1    3    3    0    0  0.10244595305E+03 -0.11010697003E+03  0.60909103010E+02  0.16226101496E+03  0.00000000000E+00 0.  1.
         11    1    3    3    0    0 -0.11485034407E+01 -0.23716386332E+02  0.56988039046E+02  0.61736720314E+02  0.00000000000E+00 0. -1.
         21    1    1    2  502  501 -0.52808323919E+02  0.41648909061E+02  0.20798026922E+03  0.21858440724E+03  0.00000000000E+00 0. -1.
<scales pt_clust_5="13000.00000" pt_clust_6="13000.00000" pt_clust_7="13000.00000" pt_clust_8="13000.00000" pt_clust_9="67.25586"></scales>
<clustering>
<clus scale="   67.256">  1  9  2 -1</clus>
<clus scale="   79.728">  5  6 -1 -1</clus>
<clus scale="   90.030">  7  8 -1 -1</clus>
<clus scale="  165.081">  1  5  2 -1</clus>
<clus scale="   67.256">  1  5  2 -1</clus>
</clustering>
</event>
<event>
 9    1  0.2374319E-005  0.1236621E+03  0.7546771E-02  0.1239130E+00
          1   -1    0    0  502    0  0.00000000000E+00  0.00000000000E+00  0.17763844689E+02  0.17763844689E+02  0.00000000000E+00 0. -1.
         -2   -1    0    0    0  501 -0.00000000000E+00 -0.00000000000E+00 -0.13638333859E+04  0.13638333859E+04  0.00000000000E+00 0.  1.
        -24    2    1    2    0    0  0.99969738152E+02 -0.48588641959E+02 -0.67104014275E+03  0.68538484183E+03  0.84277538852E+02 0.  0.
         23    2    1    2    0    0 -0.44427512808E+02  0.53076005682E+02 -0.43059803412E+03  0.44550984170E+03  0.90958703757E+02 0.  0.
         13    1    3    3    0    0  0.47354609555E+02 -0.67291021588E+02 -0.35151582755E+03  0.36101789104E+03  0.00000000000E+00 0. -1.
        -14    1    3    3    0    0  0.52615128597E+02  0.18702379629E+02 -0.31952431520E+03  0.32436695079E+03  0.00000000000E+00 0.  1.
        -11    1    4    4    0    0 -0.52285490265E+02 -0.74013554951E+01 -0.17905879540E+03  0.18668316680E+03  0.00000000000E+00 0.  1.
         11    1    4    4    0    0  0.78579774575E+01  0.60477361178E+02 -0.25153923871E+03  0.25882667490E+03  0.00000000000E+00 0. -1.
         21    1    1    2  502  501 -0.55542225344E+02 -0.44873637234E+01 -0.24443136439E+03  0.25070254711E+03  0.00000000000E+00 0. -1.
<scales pt_clust_5="13000.00000" pt_clust_6="13000.00000" pt_clust_7="13000.00000" pt_clust_8="13000.00000" pt_clust_9="55.72320"></scales>
<clustering>
<clus scale="   55.723">  2  9  1 -1</clus>
<clus scale="   84.278">  5  6 -1 -1</clus>
<clus scale="   90.959">  7  8 -1 -1</clus>
<clus scale="  118.834">  2  5  1 -1</clus>
<clus scale="  123.662">  1  5  2 -1</clus>
</clustering>
</event>
<event>
 9    1  0.2374319E-005  0.3341859E+03  0.7546771E-02  0.1069934E+00
         -2   -1    0    0    0  501 -0.00000000000E+00  0.00000000000E+00  0.20687212164E+03  0.20687212164E+03  0.00000000000E+00 0.  1.
          1   -1    0    0  502    0  0.00000000000E+00 -0.00000000000E+00 -0.13421438207E+04  0.13421438207E+04  0.00000000000E+00 0. -1.
        -24    2    1    2    0    0 -0.29003599946E+03 -0.12365676428E+03  0.17622764286E+02  0.32405505151E+03  0.72727149347E+02 0.  0.
         23    2    1    2    0    0  0.31495654335E+03  0.16227151463E+03 -0.99461791600E+03  0.10601470629E+04  0.95484697116E+02 0.  0.
         13    1    3    3    0    0 -0.10932035710E+03 -0.10040132035E+02  0.12932108112E+02  0.11053951397E+03  0.00000000000E+00 0. -1.
        -14    1    3    3    0    0 -0.18071564236E+03 -0.11361663225E+03  0.46906561737E+01  0.21351553754E+03  0.00000000000E+00 0.  1.
        -13    1    4    4    0    0  0.27993657967E+03  0.10796039919E+03 -0.76904231697E+03  0.82549743896E+03  0.00000000000E+00 0. -1.
         13    1    4    4    0    0  0.35019963676E+02  0.54311115437E+02 -0.22557559903E+03  0.23464962390E+03  0.00000000000E+00 0.  1.
         21    1    1    2  502  501 -0.24920543885E+02 -0.38614750347E+02 -0.15827654735E+03  0.16481382798E+03  0.00000000000E+00 0.  1.
<scales pt_clust_5="13000.00000" pt_clust_6="13000.00000" pt_clust_7="13000.00000" pt_clust_8="13000.00000" pt_clust_9="45.95794"></scales>
<clustering>
<clus scale="   45.958">  2  9  1 -1</clus>
<clus scale="   72.727">  5  6 -1 -1</clus>
<clus scale="   95.485">  7  8 -1 -1</clus>
<clus scale="  328.408">  1  5  2 -1</clus>
<clus scale="   45.958">  2  5  1 -1</clus>
</clustering>
</event>
<event>
 9    1  0.2374319E-005  0.2696791E+03  0.7546771E-02  0.1101918E+00
         -2   -1    0    0    0  501 -0.00000000000E+00  0.00000000000E+00  0.18244275961E+03  0.18244275961E+03  0.00000000000E+00 0.  1.
          1   -1    0    0  502    0  0.00000000000E+00 -0.00000000000E+00 -0.68228558727E+03  0.68228558727E+03  0.00000000000E+00 0. -1.
        -24    2    1    2    0    0  0.24971933406E+03  0.27210809748E+02  0.99062743420E+01  0.26429184700E+03  0.81559010237E+02 0.  0.
         23    2    1    2    0    0 -0.25790174267E+03 -0.56029907996E+02 -0.40842942744E+03  0.49478060233E+03  0.91326818498E+02 0.  0.
         11    1    3    3    0    0  0.58302455379E+02  0.36919351224E+02 -0.16129264743E+02  0.70868667118E+02  0.00000000000E+00 0. -1.
        -12    1    3    3    0    0  0.19141687868E+03 -0.97085414755E+01  0.26035539085E+02  0.19342317988E+03  0.00000000000E+00 0.  1.
        -13    1    4    4    0    0 -0.23155554352E+03 -0.64312137353E+02 -0.30823047455E+03  0.39084529700E+03  0.00000000000E+00 0. -1.
         13    1    4    4    0    0 -0.26346199146E+02  0.82822293562E+01 -0.10019895289E+03  0.10393530532E+03  0.00000000000E+00 0.  1.
         21    1    1    2  502  501  0.81824086121E+01  0.28819098248E+02 -0.10131967456E+03  0.10565589755E+03  0.00000000000E+00 0. -1.
<scales pt_clust_5="13000.00000" pt_clust_6="13000.00000" pt_clust_7="13000.00000" pt_clust_8="13000.00000" pt_clust_9="29.95817"></scales>
<clustering>
<clus scale="   29.958">  2  9  1 -1</clus>
<clus scale="   81.559">  5  6 -1 -1</clus>
<clus scale="   91.327">  7  8 -1 -1</clus>
<clus scale="  266.530">  1  5  2 -1</clus>
<clus scale="   29.958">  2  5  1 -1</clus>
</clustering>
</event>
<event>
 9    1  0.2374319E-005  0.1617260E+03  0.7546771E-02  0.1201811E+00
          1   -1    0    0  502    0  0.00000000000E+00  0.00000000000E+00  0.17645080024E+03  0.17645080024E+03  0.00000000000E+00 0. -1.
         -2   -1    0    0    0  501 -0.00000000000E+00 -0.00000000000E+00 -0.41690231945E+03  0.41690231945E+03  0.00000000000E+00 0.  1.
         23    2    1    2    0    0  0.34371792573E+02 -0.65143800378E+02 -0.24892253513E+03  0.27473410930E+03  0.89951472854E+02 0.  0.
        -24    2    1    2    0    0  0.89869643304E+02 -0.65013301170E+02  0.98493525511E+01  0.13867817210E+03  0.82651942224E+02 0.  0.
         13    1    4    4    0    0  0.10314539766E+03 -0.69193161890E+02  0.11126339022E+02  0.12470149210E+03  0.00000000000E+00 0. -1.
        -14    1    4    4    0    0 -0.13275754356E+02  0.41798607201E+01 -0.12769864705E+01  0.13976680000E+02  0.00000000000E+00 0.  1.
        -11    1    3    3    0    0 -0.11443524586E+02  0.17976608598E+02 -0.48464008452E+02  0.52942164925E+02  0.00000000000E+00 0.  1.
         11    1    3    3    0    0  0.45815317159E+02 -0.83120408977E+02 -0.20045852668E+03  0.22179194438E+03  0.00000000000E+00 0. -1.
         21    1    1    2  502  501 -0.12424143588E+03  0.13015710155E+03 -0.13783366269E+01  0.17994083829E+03  0.00000000000E+00 0.  1.
<scales pt_clust_5="13000.00000" pt_clust_6="13000.00000" pt_clust_7="13000.00000" pt_clust_8="13000.00000" pt_clust_9="139.01064"></scales>
<clustering>
<clus scale="   82.652">  5  6 -1 -1</clus>
<clus scale="   89.951">  7  8 -1 -1</clus>
<clus scale="  116.260">  2  7  1 -1</clus>
<clus scale="  139.011">  2  9  1 -1</clus>
<clus scale="  161.726">  1  5  2 -1</clus>
</clustering>
</event>
<event>
 9    1  0.2374319E-005  0.2357541E+03  0.7546771E-02  0.1123679E+00
         -2   -1    0    0    0  501 -0.00000000000E+00  0.00000000000E+00  0.12910111257E+03  0.12910111257E+03  0.00000000000E+00 0.  1.
          1   -1    0    0  502    0  0.00000000000E+00 -0.00000000000E+00 -0.12636236362E+04  0.12636236362E+04  0.00000000000E+00 0. -1.
        -24    2    1    2    0    0  0.37748959150E+02  0.21554297902E+03 -0.41452695035E+00  0.23208478709E+03  0.77326689085E+02 0.  0.
         23    2    1    2    0    0 -0.50600959421E+02 -0.19000755101E+03 -0.97885767266E+03  0.10027795958E+04  0.93494641389E+02 0.  0.
         13    1    3    3    0    0 -0.16487907540E+01  0.36043175849E+02 -0.28757801674E+02  0.46139356231E+02  0.00000000000E+00 0. -1.
        -14    1    3    3    0    0  0.39397749904E+02  0.17949980317E+03  0.28343274724E+02  0.18594543086E+03  0.00000000000E+00 0.  1.
        -11    1    4    4    0    0 -0.39943666154E+02 -0.15980883517E+02 -0.17197641529E+03  0.17727597841E+03  0.00000000000E+00 0.  1.
         11    1    4    4    0    0 -0.10657293267E+02 -0.17402666749E+03 -0.80688125737E+03  0.82550361743E+03  0.00000000000E+00 0. -1.
         21    1    1    2  502  501  0.12852000271E+02 -0.25535428010E+02 -0.15525032405E+03  0.15786036587E+03  0.00000000000E+00 0. -1.
<scales pt_clust_5="13000.00000" pt_clust_6="13000.00000" pt_clust_7="13000.00000" pt_clust_8="13000.00000" pt_clust_9="28.58727"></scales>
<clustering>
<clus scale="   28.587">  2  9  1 -1</clus>
<clus scale="   77.327">  5  6 -1 -1</clus>
<clus scale="   93.495">  7  8 -1 -1</clus>
<clus scale="  229.822">  1  5  2 -1</clus>
<clus scale="   28.587">  2  5  1 -1</clus>
</clustering>
</event>
<event>
 9    1  0.2374319E-005  0.1482109E+03  0.7546771E-02  0.1204100E+00
         -2   -1    0    0    0  501 -0.00000000000E+00  0.00000000000E+00  0.13982750608E+03  0.13982750608E+03  0.00000000000E+00 0.  1.
          1   -1    0    0  502    0  0.00000000000E+00 -0.00000000000E+00 -0.34135526750E+03  0.34135526750E+03  0.00000000000E+00 0. -1.
         23    2    1    2    0    0  0.12996962290E+03 -0.38387181005E+02 -0.50628226598E+02  0.16848897377E+03  0.86369198278E+02 0.  0.
        -24    2    1    2    0    0 -0.46909092767E+02  0.12409744240E+03 -0.93109669246E+02  0.18008546998E+03  0.78490303834E+02 0.  0.
         13    1    4    4    0    0 -0.66721223377E+02  0.84897447818E+02 -0.79551115249E+02  0.13411815027E+03  0.00000000000E+00 0. -1.
        -14    1    4    4    0    0  0.19812130610E+02  0.39199994585E+02 -0.13558553997E+02  0.45967319709E+02  0.00000000000E+00 0.  1.
        -11    1    3    3    0    0  0.12244226094E+02 -0.31227413407E+02  0.11148857685E+02  0.35346420588E+02  0.00000000000E+00 0.  1.
         11    1    3    3    0    0  0.11772539681E+03 -0.71597675988E+01 -0.61777084282E+02  0.13314255318E+03  0.00000000000E+00 0. -1.
         21    1    1    2  502  501 -0.83060530137E+02 -0.85710261398E+02 -0.57789865582E+02  0.13260832983E+03  0.00000000000E+00 0. -1.
<scales pt_clust_5="13000.00000" pt_clust_6="13000.00000" pt_clust_7="13000.00000" pt_clust_8="13000.00000" pt_clust_9="119.35368"></scales>
<clustering>
<clus scale="   78.490">  5  6 -1 -1</clus>
<clus scale="   86.369">  7  8 -1 -1</clus>
<clus scale="  119.354">  2  9  1 -1</clus>
<clus scale="  143.762">  2  5  1 -1</clus>
<clus scale="  119.354">  2  5  1 -1</clus>
</clustering>
</event>
<event>
 9    1  0.2374319E-005  0.1137383E+03  0.7546771E-02  0.1254702E+00
         -2   -1    0    0    0  501 -0.00000000000E+00  0.00000000000E+00  0.86141201494E+02  0.86141201494E+02  0.00000000000E+00 0.  1.
          1   -1    0    0  502    0  0.00000000000E+00 -0.00000000000E+00 -0.26836567094E+03  0.26836567094E+03  0.00000000000E+00 0. -1.
        -24    2    1    2    0    0 -0.62387671778E+02  0.55061698400E+02  0.14370628154E+01  0.12203954829E+03  0.89261268061E+02 0.  0.
         23    2    1    2    0    0  0.24029291160E+02 -0.29811224127E+02 -0.14034684341E+03  0.16933956413E+03  0.86674884521E+02 0.  0.
         13    1    3    3    0    0 -0.46186278673E+02  0.56078297666E+02 -0.36113496676E+02  0.81130342345E+02  0.00000000000E+00 0. -1.
        -14    1    3    3    0    0 -0.16201393105E+02 -0.10165992660E+01  0.37550559492E+02  0.40909205941E+02  0.00000000000E+00 0.  1.
        -11    1    4    4    0    0  0.31980855306E+02  0.23820969812E+02 -0.69486577348E+02  0.80116154053E+02  0.00000000000E+00 0.  1.
         11    1    4    4    0    0 -0.79515641460E+01 -0.53632193939E+02 -0.70860266059E+02  0.89223410073E+02  0.00000000000E+00 0. -1.
         21    1    1    2  502  501  0.38358380618E+02 -0.25250474273E+02 -0.43314688853E+02  0.63127760020E+02  0.00000000000E+00 0.  1.
<scales pt_clust_5="13000.00000" pt_clust_6="13000.00000" pt_clust_7="13000.00000" pt_clust_8="13000.00000" pt_clust_9="45.92333"></scales>
<clustering>
<clus scale="   45.923">  2  9  1 -1</clus>
<clus scale="   86.675">  7  8 -1 -1</clus>
<clus scale="   89.261">  5  6 -1 -1</clus>
<clus scale="  111.720">  2  7  1 -1</clus>
<clus scale="   45.923">  2  5  1 -1</clus>
</clustering>
</event>
<event>
 9    1  0.2374319E-005  0.2649914E+03  0.7546771E-02  0.1145788E+00
          1   -1    0    0  502    0  0.00000000000E+00  0.00000000000E+00  0.21919833626E+04  0.21919833626E+04  0.00000000000E+00 0. -1.
         -2   -1    0    0    0  501 -0.00000000000E+00 -0.00000000000E+00 -0.86534495989E+02  0.86534495989E+02  0.00000000000E+00 0.  1.
         23    2    1    2    0    0 -0.38044855434E+01 -0.21357268009E+02  0.31364804246E+02  0.99529945046E+02  0.91933954601E+02 0.  0.
        -24    2    1    2    0    0  0.49895770892E+01 -0.23471296357E+03  0.31384701899E+03  0.40022210073E+03  0.81010539072E+02 0.  0.
         11    1    4    4    0    0 -0.35114271674E+02 -0.97387560793E+02  0.10861419151E+03  0.15004796456E+03  0.00000000000E+00 0. -1.
        -12    1    4    4    0    0  0.40103848763E+02 -0.13732540278E+03  0.20523282748E+03  0.25017413617E+03  0.00000000000E+00 0.  1.
        -11    1    3    3    0    0  0.12688971403E+02  0.27742191645E+02  0.36396481174E+02  0.47490452034E+02  0.00000000000E+00 0.  1.
         11    1    3    3    0    0 -0.16493456946E+02 -0.49099459654E+02 -0.50316769276E+01  0.52039493013E+02  0.00000000000E+00 0. -1.
         21    1    1    2  502  501 -0.11850915458E+01  0.25607023158E+03  0.17602370434E+04  0.17787658128E+04  0.00000000000E+00 0. -1.
<scales pt_clust_5="13000.00000" pt_clust_6="13000.00000" pt_clust_7="13000.00000" pt_clust_8="13000.00000" pt_clust_9="252.30481"></scales>
<clustering>
<clus scale="   81.011">  5  6 -1 -1</clus>
<clus scale="   91.934">  7  8 -1 -1</clus>
<clus scale="   94.459">  2  7  1 -1</clus>
<clus scale="  252.305">  1  9  2 -1</clus>
<clus scale="  252.305">  1  5  2 -1</clus>
</clustering>
</event>
<event>
 9    1  0.2374319E-005  0.1505414E+03  0.7546771E-02  0.1216289E+00
         -2   -1    0    0    0  501 -0.00000000000E+00  0.00000000000E+00  0.35514358650E+02  0.35514358650E+02  0.00000000000E+00 0.  1.
          1   -1    0    0  502    0  0.00000000000E+00 -0.00000000000E+00 -0.13400051387E+04  0.13400051387E+04  0.00000000000E+00 0. -1.
        -24    2    1    2    0    0  0.38591037295E+02 -0.58072635607E+02 -0.13464439193E+03  0.17121271009E+03  0.79517172069E+02 0.  0.
         23    2    1    2    0    0  0.30719430507E+02 -0.83518927768E+02 -0.53927526083E+03  0.55432828120E+03  0.92428035174E+02 0.  0.
         11    1    3    3    0    0  0.46871155142E+02  0.20187439368E+00 -0.61587050365E+02  0.77394513438E+02  0.00000000000E+00 0. -1.
        -12    1    3    3    0    0 -0.82801178471E+01 -0.58274510000E+02 -0.73057341563E+02  0.93818196655E+02  0.00000000000E+00 0.  1.
        -13    1    4    4    0    0  0.60051654077E+02 -0.31631149838E+02 -0.31825202674E+03  0.32540910147E+03  0.00000000000E+00 0. -1.
         13    1    4    4    0    0 -0.29332223571E+02 -0.51887777930E+02 -0.22102323410E+03  0.22891917973E+03  0.00000000000E+00 0.  1.
         21    1    1    2  502  501 -0.69310467802E+02  0.14159156337E+03 -0.63057112732E+03  0.64997850609E+03  0.00000000000E+00 0.  1.
<scales pt_clust_5="13000.00000" pt_clust_6="13000.00000" pt_clust_7="13000.00000" pt_clust_8="13000.00000" pt_clust_9="118.82664"></scales>
<clustering>
<clus scale="   79.517">  5  6 -1 -1</clus>
<clus scale="   92.428">  7  8 -1 -1</clus>
<clus scale="  105.758">  1  5  2 -1</clus>
<clus scale="  118.827">  1  9  2 -1</clus>
<clus scale="  150.541">  2  5  1 -1</clus>
</clustering>
</event>
<event>
 9    1  0.2374319E-005  0.1631774E+03  0.7546771E-02  0.1187249E+00
         -2   -1    0    0    0  501 -0.00000000000E+00  0.00000000000E+00  0.11754527109E+03  0.11754527109E+03  0.00000000000E+00 0.  1.
          1   -1    0    0  502    0  0.00000000000E+00 -0.00000000000E+00 -0.54894914734E+03  0.54894914734E+03  0.00000000000E+00 0. -1.
         23    2    1    2    0    0 -0.10402519357E+03  0.29675499433E+02 -0.80167410842E+02  0.16437001858E+03  0.94280502136E+02 0.  0.
        -24    2    1    2    0    0  0.12216754940E+03 -0.76685296963E+02 -0.39950003257E+03  0.43235020652E+03  0.80751966888E+02 0.  0.
         11    1    4    4    0    0  0.12535824964E+03 -0.80687152416E+02 -0.32372854843E+03  0.35640606110E+03  0.00000000000E+00 0. -1.
        -12    1    4    4    0    0 -0.31907002392E+01  0.40018554536E+01 -0.75771484141E+02  0.75944145423E+02  0.00000000000E+00 0.  1.
        -13    1    3    3    0    0 -0.27077609532E+02  0.48559343903E+02 -0.61623545783E+02  0.82998001260E+02  0.00000000000E+00 0. -1.
         13    1    3    3    0    0 -0.76947584041E+02 -0.18883844470E+02 -0.18543865059E+02  0.81372017322E+02  0.00000000000E+00 0.  1.
         21    1    1    2  502  501 -0.18142355826E+02  0.47009797530E+02  0.48263567162E+02  0.69774193323E+02  0.00000000000E+00 0.  1.
<scales pt_clust_5="13000.00000" pt_clust_6="13000.00000" pt_clust_7="13000.00000" pt_clust_8="13000.00000" pt_clust_9="50.38915"></scales>
<clustering>
<clus scale="   50.389">  1  9  2 -1</clus>
<clus scale="   80.752">  5  6 -1 -1</clus>
<clus scale="   94.281">  7  8 -1 -1</clus>
<clus scale="  155.753">  2  5  1 -1</clus>
<clus scale="  155.753">  2  5  1 -1</clus>
</clustering>
</event>
<event>
 9    1  0.2374319E-005  0.1104306E+03  0.7546771E-02  0.1264847E+00
          1   -1    0    0  502    0  0.00000000000E+00  0.00000000000E+00  0.54283484439E+03  0.54283484439E+03  0.00000000000E+00 0. -1.
         -2   -1    0    0    0  501 -0.00000000000E+00 -0.00000000000E+00 -0.29578299573E+02  0.29578299573E+02  0.00000000000E+00 0.  1.
         23    2    1    2    0    0 -0.47780815270E+02  0.26194287537E+02  0.15213649155E+03  0.18598498664E+03  0.92063870156E+02 0.  0.
        -24    2    1    2    0    0  0.69654559125E+02 -0.17227307730E+02  0.23581960227E+03  0.25891709734E+03  0.79237874408E+02 0.  0.
         13    1    4    4    0    0  0.45457984589E+02 -0.22751911967E+02  0.22692997686E+03  0.23255384808E+03  0.00000000000E+00 0. -1.
        -14    1    4    4    0    0  0.24196574537E+02  0.55246042363E+01  0.88896254087E+01  0.26363249253E+02  0.00000000000E+00 0.  1.
        -13    1    3    3    0    0 -0.11102093285E+02  0.25610528878E+02 -0.15741163380E+01  0.27957709258E+02  0.00000000000E+00 0.  1.
         13    1    3    3    0    0 -0.36678721985E+02  0.58375865915E+00  0.15371060788E+03  0.15802727738E+03  0.00000000000E+00 0. -1.
         21    1    1    2  502  501 -0.21873743855E+02 -0.89669798072E+01  0.12530045101E+03  0.12751105999E+03  0.00000000000E+00 0. -1.
<scales pt_clust_5="13000.00000" pt_clust_6="13000.00000" pt_clust_7="13000.00000" pt_clust_8="13000.00000" pt_clust_9="23.64038"></scales>
<clustering>
<clus scale="   23.640">  1  9  2 -1</clus>
<clus scale="   79.238">  5  6 -1 -1</clus>
<clus scale="   92.064">  7  8 -1 -1</clus>
<clus scale="   99.989">  1  5  2 -1</clus>
<clus scale="   23.640">  1  5  2 -1</clus>
</clustering>
</event>
<event>
 9    1  0.2374319E-005  0.3453611E+03  0.7546771E-02  0.1087933E+00
          1   -1    0    0  502    0  0.00000000000E+00  0.00000000000E+00  0.40781518123E+03  0.40781518123E+03  0.00000000000E+00 0. -1.
         -2   -1    0    0    0  501 -0.00000000000E+00 -0.00000000000E+00 -0.52985004758E+03  0.52985004758E+03  0.00000000000E+00 0.  1.
         23    2    1    2    0    0 -0.53800159220E+02  0.24996870625E+03  0.12850744915E+03  0.30054510572E+03  0.91838907074E+02 0.  0.
        -24    2    1    2    0    0  0.11223879401E+03  0.11995461867E+03  0.60413350206E+01  0.18314489241E+03  0.80739683361E+02 0.  0.
         11    1    4    4    0    0  0.12044682545E+03  0.92494690119E+02  0.16226421138E+02  0.15272852453E+03  0.00000000000E+00 0. -1.
        -12    1    4    4    0    0 -0.82080314478E+01  0.27459928547E+02 -0.10185086117E+02  0.30416367884E+02  0.00000000000E+00 0.  1.
        -11    1    3    3    0    0  0.23577531666E+02  0.88319172630E+02  0.56113860373E+02  0.10726109071E+03  0.00000000000E+00 0.  1.
         11    1    3    3    0    0 -0.77377690886E+02  0.16164953362E+03  0.72393588780E+02  0.19328401502E+03  0.00000000000E+00 0. -1.
         21    1    1    2  502  501 -0.58438634785E+02 -0.36992332491E+03 -0.25658365052E+03  0.45397523067E+03  0.00000000000E+00 0.  1.
<scales pt_clust_5="13000.00000" pt_clust_6="13000.00000" pt_clust_7="13000.00000" pt_clust_8="13000.00000" pt_clust_9="332.92625"></scales>
<clustering>
<clus scale="   80.740">  5  6 -1 -1</clus>
<clus scale="   91.839">  7  8 -1 -1</clus>
<clus scale="  183.045">  1  5  2 -1</clus>
<clus scale="  332.926">  2  9  1 -1</clus>
<clus scale="  183.045">  1  5  2 -1</clus>
</clustering>
</event>
<event>
 9    1  0.2374319E-005  0.1290025E+03  0.7546771E-02  0.1232212E+00
         -2   -1    0    0    0  501 -0.00000000000E+00  0.00000000000E+00  0.33238294989E+02  0.33238294989E+02  0.00000000000E+00 0.  1.
          1   -1    0    0  502    0  0.00000000000E+00 -0.00000000000E+00 -0.63149489226E+03  0.63149489226E+03  0.00000000000E+00 0. -1.
        -24    2    1    2    0    0  0.61726430692E+02 -0.46079687416E+02 -0.12831888191E+03  0.16923550551E+03  0.79002728000E+02 0.  0.
         23    2    1    2    0    0 -0.77514228304E+02  0.60245928489E+02 -0.42781637246E+03  0.44833684558E+03  0.91329354924E+02 0.  0.
         11    1    3    3    0    0  0.16808545866E+02  0.21350705931E+02 -0.18963455846E+02  0.33135970116E+02  0.00000000000E+00 0. -1.
        -12    1    3    3    0    0  0.44917884826E+02 -0.67430393347E+02 -0.10935542606E+03  0.13609953539E+03  0.00000000000E+00 0.  1.
        -13    1    4    4    0    0 -0.60421926296E+02  0.81804056765E+02 -0.27806235917E+03  0.29607665978E+03  0.00000000000E+00 0.  1.
         13    1    4    4    0    0 -0.17092302008E+02 -0.21558128276E+02 -0.14975401330E+03  0.15226018581E+03  0.00000000000E+00 0. -1.
         21    1    1    2  502  501  0.15787797612E+02 -0.14166241073E+02 -0.42121342904E+02  0.47160836163E+02  0.00000000000E+00 0.  1.
<scales pt_clust_5="13000.00000" pt_clust_6="13000.00000" pt_clust_7="13000.00000" pt_clust_8="13000.00000" pt_clust_9="21.21172"></scales>
<clustering>
<clus scale="   21.212">  1  9  2 -1</clus>
<clus scale="   79.003">  5  6 -1 -1</clus>
<clus scale="   91.329">  7  8 -1 -1</clus>
<clus scale="  120.590">  1  5  2 -1</clus>
<clus scale="  129.003">  2  5  1 -1</clus>
</clustering>
</event>
<event>
 9    1  0.2374319E-005  0.1629138E+03  0.7546771E-02  0.1224883E+00
          1   -1    0    0  502    0  0.00000000000E+00  0.00000000000E+00  0.56809686494E+03  0.56809686494E+03  0.00000000000E+00 0. -1.
         -2   -1    0    0    0  501 -0.00000000000E+00 -0.00000000000E+00 -0.19273643347E+03  0.19273643347E+03  0.00000000000E+00 0.  1.
        -24    2    1    2    0    0  0.34020881875E+02 -0.83309737381E+01 -0.14487928544E+03  0.16076534121E+03  0.60238376945E+02 0.  0.
         23    2    1    2    0    0  0.10075184890E+03  0.65646298574E+02  0.24196244459E+03  0.28560496142E+03  0.92541870658E+02 0.  0.
         13    1    3    3    0    0  0.38336140320E+02 -0.29121541053E+02 -0.93362692191E+02  0.10504435302E+03  0.00000000000E+00 0. -1.
        -14    1    3    3    0    0 -0.43152584450E+01  0.20790567315E+02 -0.51516593253E+02  0.55720988192E+02  0.00000000000E+00 0.  1.
        -11    1    4    4    0    0  0.10625225791E+03  0.28611987046E+02  0.14773267203E+03  0.18420947451E+03  0.00000000000E+00 0.  1.
         11    1    4    4    0    0 -0.55004090138E+01  0.37034311528E+02  0.94229772557E+02  0.10139548691E+03  0.00000000000E+00 0. -1.
         21    1    1    2  502  501 -0.13477273078E+03 -0.57315324836E+02  0.27827727232E+03  0.31446299578E+03  0.00000000000E+00 0. -1.
<scales pt_clust_5="13000.00000" pt_clust_6="13000.00000" pt_clust_7="13000.00000" pt_clust_8="13000.00000" pt_clust_9="134.07802"></scales>
<clustering>
<clus scale="   60.238">  5  6 -1 -1</clus>
<clus scale="   69.681">  2  5  1 -1</clus>
<clus scale="   92.542">  7  8 -1 -1</clus>
<clus scale="  134.078">  2  9  1 -1</clus>
<clus scale="  162.914">  1  5  2 -1</clus>
</clustering>
</event>
<event>
 9    1  0.2374319E-005  0.1315375E+03  0.7546771E-02  0.1227660E+00
         -2   -1    0    0    0  501 -0.00000000000E+00  0.00000000000E+00  0.99704340734E+02  0.99704340734E+02  0.00000000000E+00 0.  1.
          1   -1    0    0  502    0  0.00000000000E+00 -0.00000000000E+00 -0.51050097184E+03  0.51050097184E+03  0.00000000000E+00 0. -1.
        -24    2    1    2    0    0 -0.69356269316E+02 -0.61521487077E+02  0.37495227120E+02  0.12858368549E+03  0.80825037277E+02 0.  0.
         23    2    1    2    0    0  0.88597251488E+02  0.73162907770E+02 -0.32695844426E+03  0.35822172670E+03  0.90657030412E+02 0.  0.
         11    1    3    3    0    0 -0.23225722455E+02 -0.41499984532E+02 -0.20530183198E+02  0.51799337079E+02  0.00000000000E+00 0. -1.
        -12    1    3    3    0    0 -0.46130546861E+02 -0.20021502546E+02  0.58025410318E+02  0.76784348408E+02  0.00000000000E+00 0.  1.
        -11    1    4    4    0    0  0.59412068195E+02  0.91970126825E+02 -0.27205271998E+03  0.29325923775E+03  0.00000000000E+00 0. -1.
         11    1    4    4    0    0  0.29185183293E+02 -0.18807219054E+02 -0.54905724282E+02  0.64962488956E+02  0.00000000000E+00 0.  1.
         21    1    1    2  502  501 -0.19240982172E+02 -0.11641420693E+02 -0.12133341397E+03  0.12339990039E+03  0.00000000000E+00 0. -1.
<scales pt_clust_5="13000.00000" pt_clust_6="13000.00000" pt_clust_7="13000.00000" pt_clust_8="13000.00000" pt_clust_9="22.48862"></scales>
<clustering>
<clus scale="   22.489">  2  9  1 -1</clus>
<clus scale="   80.825">  5  6 -1 -1</clus>
<clus scale="   90.657">  7  8 -1 -1</clus>
<clus scale="  124.964">  1  5  2 -1</clus>
<clus scale="   22.489">  2  5  1 -1</clus>
</clustering>
</event>
<event>
 9    1  0.2374319E-005  0.2464681E+03  0.7546771E-02  0.1161366E+00
          1   -1    0    0  502    0  0.00000000000E+00  0.00000000000E+00  0.80509262292E+03  0.80509262292E+03  0.00000000000E+00 0. -1.
         -2   -1    0    0    0  501 -0.00000000000E+00 -0.00000000000E+00 -0.19152662292E+03  0.19152662292E+03  0.00000000000E+00 0.  1.
        -24    2    1    2    0    0  0.53782824068E+01  0.41059777254E+01 -0.27566500337E+02  0.85893707524E+02  0.81068070637E+02 0.  0.
         23    2    1    2    0    0 -0.20328648807E+03  0.10678125571E+03  0.63770910728E+03  0.68384372761E+03  0.90783839357E+02 0.  0.
         13    1    3    3    0    0 -0.11975256762E+02  0.29495963532E+02  0.13508201206E+02  0.34581644539E+02  0.00000000000E+00 0. -1.
        -14    1    3    3    0    0  0.17353539169E+02 -0.25389985807E+02 -0.41074701543E+02  0.51312062985E+02  0.00000000000E+00 0.  1.
        -13    1    4    4    0    0 -0.14224039076E+03  0.47665442676E+02  0.50005748156E+03  0.52207452347E+03  0.00000000000E+00 0. -1.
         13    1    4    4    0    0 -0.61046097315E+02  0.59115813032E+02  0.13765162572E+03  0.16176920415E+03  0.00000000000E+00 0.  1.
         21    1    1    2  502  501  0.19790820566E+03 -0.11088723343E+03  0.34233930580E+01  0.22688181070E+03  0.00000000000E+00 0.  1.
<scales pt_clust_5="13000.00000" pt_clust_6="13000.00000" pt_clust_7="13000.00000" pt_clust_8="13000.00000" pt_clust_9="229.13933"></scales>
<clustering>
<clus scale="   81.068">  5  6 -1 -1</clus>
<clus scale="   81.350">  2  5  1 -1</clus>
<clus scale="   90.784">  7  8 -1 -1</clus>
<clus scale="  229.139">  2  9  1 -1</clus>
<clus scale="  246.468">  1  5  2 -1</clus>
</clustering>
</event>
<event>
 9    1  0.2374319E-005  0.1017294E+03  0.7546771E-02  0.1285177E+00
          3   -1    0    0  502    0  0.00000000000E+00  0.00000000000E+00  0.56317670983E+03  0.56317670983E+03  0.00000000000E+00 0. -1.
         -4   -1    0    0    0  501 -0.00000000000E+00 -0.00000000000E+00 -0.29831277794E+02  0.29831277794E+02  0.00000000000E+00 0.  1.
         23    2    1    2    0    0  0.30457672594E+02  0.11182463821E+02  0.91568939099E+02  0.13692205482E+03  0.96488658258E+02 0.  0.
        -24    2    1    2    0    0 -0.19187524255E+02 -0.32776408897E+02  0.33889303023E+03  0.35035835075E+03  0.80374336298E+02 0.  0.
         11    1    4    4    0    0 -0.45374328332E+02 -0.40712391517E+02  0.25143659947E+03  0.25872126323E+03  0.00000000000E+00 0. -1.
        -12    1    4    4    0    0  0.26186804078E+02  0.79359826198E+01  0.87456430761E+02  0.91637087521E+02  0.00000000000E+00 0.  1.
        -11    1    3    3    0    0  0.61050099937E+02  0.22431164881E+02  0.41414855534E+02  0.77106822779E+02  0.00000000000E+00 0.  1.
         11    1    3    3    0    0 -0.30592427343E+02 -0.11248701060E+02  0.50154083565E+02  0.59815232044E+02  0.00000000000E+00 0. -1.
         21    1    1    2  502  501 -0.11270148339E+02  0.21593945077E+02  0.10288346271E+03  0.10572758205E+03  0.00000000000E+00 0. -1.
<scales pt_clust_5="13000.00000" pt_clust_6="13000.00000" pt_clust_7="13000.00000" pt_clust_8="13000.00000" pt_clust_9="24.35805"></scales>
<clustering>
<clus scale="   24.358">  1  9  2 -1</clus>
<clus scale="   80.374">  5  6 -1 -1</clus>
<clus scale="   86.596">  1  5  2 -1</clus>
<clus scale="   96.489">  7  8 -1 -1</clus>
<clus scale="   24.358">  1  5  2 -1</clus>
</clustering>
</event>
<event>
 9    1  0.2374319E-005  0.1109346E+03  0.7546771E-02  0.1262994E+00
         -2   -1    0    0    0  501 -0.00000000000E+00  0.00000000000E+00  0.66747237128E+02  0.66747237128E+02  0.00000000000E+00 0.  1.
          1   -1    0    0  502    0  0.00000000000E+00 -0.00000000000E+00 -0.38147884552E+03  0.38147884552E+03  0.00000000000E+00 0. -1.
        -24    2    1    2    0    0  0.59455591511E+02 -0.50166546564E+02 -0.12755574367E+02  0.11189849785E+03  0.79416115416E+02 0.  0.
         23    2    1    2    0    0 -0.30459645835E+02  0.54511591926E+02 -0.27644719566E+03  0.29745129546E+03  0.90304581838E+02 0.  0.
         11    1    3    3    0    0  0.11971214731E+02  0.18887391854E+02 -0.16841597569E+02  0.27994338032E+02  0.00000000000E+00 0. -1.
        -12    1    3    3    0    0  0.47484376780E+02 -0.69053938418E+02  0.40860232028E+01  0.83904159819E+02  0.00000000000E+00 0.  1.
        -13    1    4    4    0    0 -0.26131213581E+02 -0.21235704984E+02 -0.75975845758E+02  0.83103096380E+02  0.00000000000E+00 0.  1.
         13    1    4    4    0    0 -0.43284322537E+01  0.75747296910E+02 -0.20047134990E+03  0.21434819908E+03  0.00000000000E+00 0. -1.
         21    1    1    2  502  501 -0.28995945676E+02 -0.43450453611E+01 -0.25528838367E+02  0.38876289345E+02  0.00000000000E+00 0.  1.
<scales pt_clust_5="13000.00000" pt_clust_6="13000.00000" pt_clust_7="13000.00000" pt_clust_8="13000.00000" pt_clust_9="29.31969"></scales>
<clustering>
<clus scale="   29.320">  1  9  2 -1</clus>
<clus scale="   79.416">  5  6 -1 -1</clus>
<clus scale="   90.305">  7  8 -1 -1</clus>
<clus scale="  102.267">  1  5  2 -1</clus>
<clus scale="  110.935">  2  5  1 -1</clus>
</clustering>
</event>
<event>
 9    1  0.2374319E-005  0.1384414E+03  0.7546771E-02  0.1217292E+00
          1   -1    0    0  502    0  0.00000000000E+00  0.00000000000E+00  0.46021203565E+03  0.46021203565E+03  0.00000000000E+00 0. -1.
         -2   -1    0    0    0  501 -0.00000000000E+00 -0.00000000000E+00 -0.55306625433E+02  0.55306625433E+02  0.00000000000E+00 0.  1.
        -24    2    1    2    0    0  0.11109072446E+01 -0.11151060894E+03  0.83155031591E+02  0.16116174675E+03  0.81378739945E+02 0.  0.
         23    2    1    2    0    0 -0.17352066149E+01  0.90885228392E+02  0.27325563328E+03  0.30165457664E+03  0.89798144787E+02 0.  0.
         13    1    3    3    0    0  0.33949083859E+02 -0.17276930197E+02  0.19461656277E+02  0.42776029233E+02  0.00000000000E+00 0. -1.
        -14    1    3    3    0    0 -0.32838176615E+02 -0.94233678740E+02  0.63693375314E+02  0.11838571751E+03  0.00000000000E+00 0.  1.
        -13    1    4    4    0    0 -0.42529764946E+02  0.41122099547E+02  0.92631485409E+02  0.10991087329E+03  0.00000000000E+00 0.  1.
         13    1    4    4    0    0  0.40794558331E+02  0.49763128845E+02  0.18062414787E+03  0.19174370335E+03  0.00000000000E+00 0. -1.
         21    1    1    2  502  501  0.62429937036E+00  0.20625380546E+02  0.48494745352E+02  0.52702337701E+02  0.00000000000E+00 0. -1.
<scales pt_clust_5="13000.00000" pt_clust_6="13000.00000" pt_clust_7="13000.00000" pt_clust_8="13000.00000" pt_clust_9="20.63483"></scales>
<clustering>
<clus scale="   20.635">  1  9  2 -1</clus>
<clus scale="   81.379">  5  6 -1 -1</clus>
<clus scale="   89.798">  7  8 -1 -1</clus>
<clus scale="  133.135">  2  5  1 -1</clus>
<clus scale="   20.635">  1  5  2 -1</clus>
</clustering>
</event>
<event>
 9    1  0.2374319E-005  0.1004770E+03  0.7546771E-02  0.1280537E+00
         -2   -1    0    0    0  501 -0.00000000000E+00  0.00000000000E+00  0.13886509123E+03  0.13886509123E+03  0.00000000000E+00 0.  1.
          1   -1    0    0  502    0  0.00000000000E+00 -0.00000000000E+00 -0.19881043770E+03  0.19881043770E+03  0.00000000000E+00 0. -1.
         23    2    1    2    0    0 -0.25426970756E+02  0.23222351508E+02  0.89230706807E+02  0.13185855799E+03  0.90767570342E+02 0.  0.
        -24    2    1    2    0    0  0.23651525015E+02 -0.52309317418E+02 -0.98291343020E+02  0.14717860865E+03  0.93298957163E+02 0.  0.
         11    1    4    4    0    0  0.34164258554E+02  0.17871970406E+02 -0.36121708759E+02  0.52833528487E+02  0.00000000000E+00 0. -1.
        -12    1    4    4    0    0 -0.10512733539E+02 -0.70181287824E+02 -0.62169634262E+02  0.94345080165E+02  0.00000000000E+00 0.  1.
        -11    1    3    3    0    0  0.11983200806E+02 -0.18834682822E+02  0.68216071949E+02  0.71775865378E+02  0.00000000000E+00 0.  1.
         11    1    3    3    0    0 -0.37410171562E+02  0.42057034330E+02  0.21014634858E+02  0.60082692609E+02  0.00000000000E+00 0. -1.
         21    1    1    2  502  501  0.17754457415E+01  0.29086965911E+02 -0.50884710258E+02  0.58638362285E+02  0.00000000000E+00 0. -1.
<scales pt_clust_5="13000.00000" pt_clust_6="13000.00000" pt_clust_7="13000.00000" pt_clust_8="13000.00000" pt_clust_9="29.14110"></scales>
<clustering>
<clus scale="   29.141">  2  9  1 -1</clus>
<clus scale="   90.768">  7  8 -1 -1</clus>
<clus scale="   93.299">  5  6 -1 -1</clus>
<clus scale="   98.131">  1  7  2 -1</clus>
<clus scale="   29.141">  2  5  1 -1</clus>
</clustering>
</event>
<event>
 9    1  0.2374319E-005  0.1544025E+03  0.7546771E-02  0.1218810E+00
          1   -1    0    0  502    0  0.00000000000E+00  0.00000000000E+00  0.44530140577E+03  0.44530140577E+03  0.00000000000E+00 0. -1.
         -2   -1    0    0    0  501 -0.00000000000E+00 -0.00000000000E+00 -0.93777644334E+02  0.93777644334E+02  0.00000000000E+00 0.  1.
        -24    2    1    2    0    0  0.22741631809E+02  0.12580823634E+03  0.19139084250E+03  0.24380121900E+03  0.80397049976E+02 0.  0.
         23    2    1    2    0    0 -0.24516539055E+02  0.82418670881E+01  0.12665105988E+03  0.15709818206E+03  0.89276865857E+02 0.  0.
         11    1    3    3    0    0  0.24989142065E+02  0.32558796787E+02  0.13970667266E+02  0.43355645691E+02  0.00000000000E+00 0. -1.
        -12    1    3    3    0    0 -0.22475102557E+01  0.93249439549E+02  0.17742017524E+03  0.20044557331E+03  0.00000000000E+00 0.  1.
        -11    1    4    4    0    0 -0.35378229325E+02  0.40393959623E+02  0.50435857896E+02  0.73668628642E+02  0.00000000000E+00 0.  1.
         11    1    4    4    0    0  0.10861690270E+02 -0.32152092535E+02  0.76215201986E+02  0.83429553419E+02  0.00000000000E+00 0. -1.
         21    1    1    2  502  501  0.17749072456E+01 -0.13405010342E+03  0.33481859049E+02  0.13817964904E+03  0.00000000000E+00 0.  1.
<scales pt_clust_5="13000.00000" pt_clust_6="13000.00000" pt_clust_7="13000.00000" pt_clust_8="13000.00000" pt_clust_9="131.81975"></scales>
<clustering>
<clus scale="   80.397">  5  6 -1 -1</clus>
<clus scale="   89.277">  7  8 -1 -1</clus>
<clus scale="   92.948">  1  7  2 -1</clus>
<clus scale="  131.820">  2  9  1 -1</clus>
<clus scale="   92.948">  1  5  2 -1</clus>
</clustering>
</event>
<event>
 9    1  0.2374319E-005  0.9159702E+02  0.7546771E-02  0.1306858E+00
          1   -1    0    0  502    0  0.00000000000E+00  0.00000000000E+00  0.52766201336E+03  0.52766201336E+03  0.00000000000E+00 0. -1.
         -2   -1    0    0    0  501 -0.00000000000E+00 -0.00000000000E+00 -0.58903790923E+02  0.58903790923E+02  0.00000000000E+00 0.  1.
         23    2    1    2    0    0 -0.41686144939E+01  0.89928904993E+01 -0.11327352079E+02  0.92506568317E+02  0.91273801555E+02 0.  0.
        -24    2    1    2    0    0  0.19366694613E+01  0.18679656519E+02  0.42129837749E+03  0.42904626825E+03  0.78966430634E+02 0.  0.
         11    1    4    4    0    0 -0.28951370833E+01  0.41421352165E+02  0.12252296686E+03  0.12936764527E+03  0.00000000000E+00 0. -1.
        -12    1    4    4    0    0  0.48318065446E+01 -0.22741695647E+02  0.29877541062E+03  0.29967862297E+03  0.00000000000E+00 0.  1.
        -13    1    3    3    0    0  0.17735543027E+02 -0.13839078642E+02  0.31840073623E+02  0.38985380239E+02  0.00000000000E+00 0. -1.
         13    1    3    3    0    0 -0.21904157520E+02  0.22831969141E+02 -0.43167425701E+02  0.53521188078E+02  0.00000000000E+00 0.  1.
         21    1    1    2  502  501  0.22319450326E+01 -0.27672547018E+02  0.58787197028E+02  0.65012967718E+02  0.00000000000E+00 0. -1.
<scales pt_clust_5="13000.00000" pt_clust_6="13000.00000" pt_clust_7="13000.00000" pt_clust_8="13000.00000" pt_clust_9="27.76241"></scales>
<clustering>
<clus scale="   27.762">  1  9  2 -1</clus>
<clus scale="   78.966">  5  6 -1 -1</clus>
<clus scale="   79.340">  1  5  2 -1</clus>
<clus scale="   91.274">  7  8 -1 -1</clus>
<clus scale="   27.762">  1  5  2 -1</clus>
</clustering>
</event>
<event>
 9    1  0.2374319E-005  0.9903749E+02  0.7546771E-02  0.1291836E+00
         -2   -1    0    0    0  501 -0.00000000000E+00  0.00000000000E+00  0.13218765853E+03  0.13218765853E+03  0.00000000000E+00 0.  1.
          1   -1    0    0  502    0  0.00000000000E+00 -0.00000000000E+00 -0.26595916609E+03  0.26595916609E+03  0.00000000000E+00 0. -1.
         23    2    1    2    0    0  0.18101907823E+02  0.38400049752E+02  0.99223809145E+02  0.14013115599E+03  0.89381953943E+02 0.  0.
        -24    2    1    2    0    0 -0.40289766117E+02 -0.29461681492E+02 -0.17723138625E+03  0.19733773670E+03  0.70992690654E+02 0.  0.
         13    1    4    4    0    0 -0.44121872687E+02 -0.42733770676E+02 -0.89652549210E+02  0.10867609850E+03  0.00000000000E+00 0. -1.
        -14    1    4    4    0    0  0.38321065697E+01  0.13272089183E+02 -0.87578837038E+02  0.88661638204E+02  0.00000000000E+00 0.  1.
        -13    1    3    3    0    0  0.52026486858E+02  0.31371983067E+02  0.44283942466E+02  0.75179945575E+02  0.00000000000E+00 0.  1.
         13    1    3    3    0    0 -0.33924579035E+02  0.70280666855E+01  0.54939866679E+02  0.64951210417E+02  0.00000000000E+00 0. -1.
         21    1    1    2  502  501  0.22187858295E+02 -0.89383682602E+01 -0.55763930458E+02  0.60677931928E+02  0.00000000000E+00 0. -1.
<scales pt_clust_5="13000.00000" pt_clust_6="13000.00000" pt_clust_7="13000.00000" pt_clust_8="13000.00000" pt_clust_9="23.92061"></scales>
<clustering>
<clus scale="   23.921">  2  9  1 -1</clus>
<clus scale="   70.993">  5  6 -1 -1</clus>
<clus scale="   82.821">  2  5  1 -1</clus>
<clus scale="   89.382">  7  8 -1 -1</clus>
<clus scale="   23.921">  2  5  1 -1</clus>
</clustering>
</event>
<event>
 9    1  0.2374319E-005  0.2209652E+03  0.7546771E-02  0.1133805E+00
          1   -1    0    0  502    0  0.00000000000E+00  0.00000000000E+00  0.63361171989E+03  0.63361171989E+03  0.00000000000E+00 0. -1.
         -2   -1    0    0    0  501 -0.00000000000E+00 -0.00000000000E+00 -0.12101805930E+03  0.12101805930E+03  0.00000000000E+00 0.  1.
        -24    2    1    2    0    0 -0.11444128922E+03  0.14644486217E+03  0.12103635168E+03  0.23456779865E+03  0.76350163076E+02 0.  0.
         23    2    1    2    0    0  0.14468299509E+03 -0.17568243706E+03  0.17532583161E+03  0.29977705518E+03  0.85613362414E+02 0.  0.
         11    1    3    3    0    0 -0.35562803391E+02  0.10690989683E+03  0.65962273709E+02  0.13055826507E+03  0.00000000000E+00 0. -1.
        -12    1    3    3    0    0 -0.78878485833E+02  0.39534965340E+02  0.55074077967E+02  0.10400953358E+03  0.00000000000E+00 0.  1.
        -11    1    4    4    0    0  0.91609707216E+02 -0.12704188009E+03  0.16421670394E+03  0.22693413936E+03  0.00000000000E+00 0. -1.
         11    1    4    4    0    0  0.53073287874E+02 -0.48640556971E+02  0.11109127670E+02  0.72842915824E+02  0.00000000000E+00 0.  1.
         21    1    1    2  502  501 -0.30241705866E+02  0.29237574889E+02  0.21623147731E+03  0.22028492535E+03  0.00000000000E+00 0. -1.
<scales pt_clust_5="13000.00000" pt_clust_6="13000.00000" pt_clust_7="13000.00000" pt_clust_8="13000.00000" pt_clust_9="42.06420"></scales>
<clustering>
<clus scale="   42.064">  1  9  2 -1</clus>
<clus scale="   76.350">  5  6 -1 -1</clus>
<clus scale="   85.613">  7  8 -1 -1</clus>
<clus scale="  217.544">  2  5  1 -1</clus>
<clus scale="   42.064">  1  5  2 -1</clus>
</clustering>
</event>
<event>
 9    1  0.2374319E-005  0.8900897E+02  0.7546771E-02  0.1308703E+00
         -2   -1    0    0    0  501 -0.00000000000E+00  0.00000000000E+00  0.22408903270E+03  0.22408903270E+03  0.00000000000E+00 0.  1.
          1   -1    0    0  502    0  0.00000000000E+00 -0.00000000000E+00 -0.48456439949E+02  0.48456439949E+02  0.00000000000E+00 0. -1.
        -24    2    1    2    0    0  0.17692922028E+02  0.69053470092E+01  0.97767198438E+02  0.12982486319E+03  0.83278729007E+02 0.  0.
         23    2    1    2    0    0  0.83743097401E+01  0.82103514088E+01  0.57808069714E+02  0.10652280316E+03  0.88700596023E+02 0.  0.
         11    1    3    3    0    0  0.30355349615E+02  0.39555294624E+02  0.50165707677E+02  0.70729532797E+02  0.00000000000E+00 0. -1.
        -12    1    3    3    0    0 -0.12662427587E+02 -0.32649947615E+02  0.47601490762E+02  0.59095330394E+02  0.00000000000E+00 0.  1.
        -11    1    4    4    0    0 -0.19580010359E+02  0.16053895192E+02  0.70445617203E+02  0.74857794114E+02  0.00000000000E+00 0.  1.
         11    1    4    4    0    0  0.27954320099E+02 -0.78435437829E+01 -0.12637547489E+02  0.31665009045E+02  0.00000000000E+00 0. -1.
         21    1    1    2  502  501 -0.26067231768E+02 -0.15115698418E+02  0.20057324594E+02  0.36197806295E+02  0.00000000000E+00 0.  1.
<scales pt_clust_5="13000.00000" pt_clust_6="13000.00000" pt_clust_7="13000.00000" pt_clust_8="13000.00000" pt_clust_9="30.13279"></scales>
<clustering>
<clus scale="   30.133">  2  9  1 -1</clus>
<clus scale="   83.279">  5  6 -1 -1</clus>
<clus scale="   83.607">  1  5  2 -1</clus>
<clus scale="   88.701">  7  8 -1 -1</clus>
<clus scale="   30.133">  2  5  1 -1</clus>
</clustering>
</event>
<event>
 9    1  0.2374319E-005  0.1271171E+03  0.7546771E-02  0.1234629E+00
          1   -1    0    0  502    0  0.00000000000E+00  0.00000000000E+00  0.21754491685E+03  0.21754491685E+03  0.00000000000E+00 0. -1.
         -2   -1    0    0    0  501 -0.00000000000E+00 -0.00000000000E+00 -0.12217607181E+03  0.12217607181E+03  0.00000000000E+00 0.  1.
        -24    2    1    2    0    0  0.26039427043E+02 -0.90830436148E+02 -0.49432201558E+02  0.13318282169E+03  0.79786600063E+02 0.  0.
         23    2    1    2    0    0 -0.11009169155E+02  0.74986156177E+02  0.92308873019E+02  0.14968415967E+03  0.90223578921E+02 0.  0.
         13    1    3    3    0    0  0.38674953767E+02 -0.10014667272E+03 -0.38487668823E+02  0.11404564331E+03  0.00000000000E+00 0. -1.
        -14    1    3    3    0    0 -0.12635526724E+02  0.93162365728E+01 -0.10944532736E+02  0.19137178378E+02  0.00000000000E+00 0.  1.
        -13    1    4    4    0    0 -0.28439891602E+02  0.90200409404E+02  0.76770769942E+02  0.12181417162E+03  0.00000000000E+00 0. -1.
         13    1    4    4    0    0  0.17430722447E+02 -0.15214253227E+02  0.15538103077E+02  0.27869988042E+02  0.00000000000E+00 0.  1.
         21    1    1    2  502  501 -0.15030257888E+02  0.15844279972E+02  0.52492173579E+02  0.56854007308E+02  0.00000000000E+00 0. -1.
<scales pt_clust_5="13000.00000" pt_clust_6="13000.00000" pt_clust_7="13000.00000" pt_clust_8="13000.00000" pt_clust_9="21.83918"></scales>
<clustering>
<clus scale="   21.839">  1  9  2 -1</clus>
<clus scale="   79.787">  5  6 -1 -1</clus>
<clus scale="   90.224">  7  8 -1 -1</clus>
<clus scale="  119.935">  2  5  1 -1</clus>
<clus scale="   21.839">  1  5  2 -1</clus>
</clustering>
</event>
<event>
 9    1  0.2374319E-005  0.1136104E+03  0.7546771E-02  0.1258225E+00
         -2   -1    0    0    0  501 -0.00000000000E+00  0.00000000000E+00  0.85277157568E+02  0.85277157568E+02  0.00000000000E+00 0.  1.
          1   -1    0    0  502    0  0.00000000000E+00 -0.00000000000E+00 -0.39751074201E+03  0.39751074201E+03  0.00000000000E+00 0. -1.
        -24    2    1    2    0    0  0.53495862828E+02  0.49542354899E+02  0.24632440063E+02  0.11075519325E+03  0.79647369439E+02 0.  0.
         23    2    1    2    0    0 -0.54636757433E+02 -0.22703049374E+01 -0.18992684488E+03  0.21767250791E+03  0.91207372220E+02 0.  0.
         11    1    3    3    0    0  0.69725930864E+01 -0.21398196406E+02  0.10168079917E+02  0.24695945274E+02  0.00000000000E+00 0. -1.
        -12    1    3    3    0    0  0.46523269742E+02  0.70940551305E+02  0.14464360146E+02  0.86059247971E+02  0.00000000000E+00 0.  1.
        -13    1    4    4    0    0 -0.72806311161E+02  0.13370180540E+02 -0.98856854132E+02  0.12349979061E+03  0.00000000000E+00 0.  1.
         13    1    4    4    0    0  0.18169553728E+02 -0.15640485477E+02 -0.91069990750E+02  0.94172717300E+02  0.00000000000E+00 0. -1.
         21    1    1    2  502  501  0.11408946041E+01 -0.47272049961E+02 -0.14693917962E+03  0.15436019842E+03  0.00000000000E+00 0. -1.
<scales pt_clust_5="13000.00000" pt_clust_6="13000.00000" pt_clust_7="13000.00000" pt_clust_8="13000.00000" pt_clust_9="47.28582"></scales>
<clustering>
<clus scale="   47.286">  2  9  1 -1</clus>
<clus scale="   79.647">  5  6 -1 -1</clus>
<clus scale="   91.207">  7  8 -1 -1</clus>
<clus scale="  104.557">  1  5  2 -1</clus>
<clus scale="   47.286">  2  5  1 -1</clus>
</clustering>
</event>
<event>
 9    1  0.2374319E-005  0.9663834E+02  0.7546771E-02  0.1294041E+00
          1   -1    0    0  502    0  0.00000000000E+00  0.00000000000E+00  0.11863577869E+03  0.11863577869E+03  0.00000000000E+00 0. -1.
         -2   -1    0    0    0  501 -0.00000000000E+00 -0.00000000000E+00 -0.19206198435E+03  0.19206198435E+03  0.00000000000E+00 0.  1.
        -24    2    1    2    0    0 -0.49413623597E+01 -0.46201014709E+01 -0.12051302379E+03  0.14742447651E+03  0.84645289126E+02 0.  0.
         23    2    1    2    0    0  0.35158248418E+02  0.47590623069E+01 -0.58068045760E+01  0.10235682869E+03  0.95835537742E+02 0.  0.
         11    1    3    3    0    0  0.28551937482E+02  0.82932285435E+01 -0.10223999158E+02  0.31440752734E+02  0.00000000000E+00 0. -1.
        -12    1    3    3    0    0 -0.33493299842E+02 -0.12913330014E+02 -0.11028902464E+03  0.11598372378E+03  0.00000000000E+00 0.  1.
        -13    1    4    4    0    0  0.21443838487E+02 -0.42585899519E+02 -0.19006483074E+02  0.51328777949E+02  0.00000000000E+00 0.  1.
         13    1    4    4    0    0  0.13714409932E+02  0.47344961826E+02  0.13199678498E+02  0.51028050742E+02  0.00000000000E+00 0. -1.
         21    1    1    2  502  501 -0.30216886059E+02 -0.13896083607E+00  0.52893622708E+02  0.60916457845E+02  0.00000000000E+00 0. -1.
<scales pt_clust_5="13000.00000" pt_clust_6="13000.00000" pt_clust_7="13000.00000" pt_clust_8="13000.00000" pt_clust_9="30.21721"></scales>
<clustering>
<clus scale="   30.217">  1  9  2 -1</clus>
<clus scale="   84.645">  5  6 -1 -1</clus>
<clus scale="   85.553">  2  5  1 -1</clus>
<clus scale="   95.836">  7  8 -1 -1</clus>
<clus scale="   30.217">  1  5  2 -1</clus>
</clustering>
</event>
<event>
 9    1  0.2374319E-005  0.1057967E+03  0.7546771E-02  0.1272327E+00
         -2   -1    0    0    0  501 -0.00000000000E+00  0.00000000000E+00  0.50111847491E+03  0.50111847491E+03  0.00000000000E+00 0.  1.
          1   -1    0    0  502    0  0.00000000000E+00 -0.00000000000E+00 -0.72392369480E+02  0.72392369480E+02  0.00000000000E+00 0. -1.
        -24    2    1    2    0    0 -0.15699876853E+02 -0.56661747774E+02  0.31710891665E+03  0.33339897805E+03  0.84497181906E+02 0.  0.
         23    2    1    2    0    0  0.56572580781E+02 -0.19792070988E+02  0.17328767492E+02  0.11202568161E+03  0.93044527982E+02 0.  0.
         13    1    3    3    0    0 -0.30110091296E+02 -0.70525137846E+02  0.19277106047E+03  0.20746347732E+03  0.00000000000E+00 0. -1.
        -14    1    3    3    0    0  0.14410214444E+02  0.13863390072E+02  0.12433785618E+03  0.12593550073E+03  0.00000000000E+00 0.  1.
        -13    1    4    4    0    0  0.50121336076E+02 -0.54347817978E+02  0.27868324802E+01  0.73983782576E+02  0.00000000000E+00 0.  1.
         13    1    4    4    0    0  0.64512447045E+01  0.34555746990E+02  0.14541935012E+02  0.38041899035E+02  0.00000000000E+00 0. -1.
         21    1    1    2  502  501 -0.40872703928E+02  0.76453818762E+02  0.94288421280E+02  0.12808618472E+03  0.00000000000E+00 0. -1.
<scales pt_clust_5="13000.00000" pt_clust_6="13000.00000" pt_clust_7="13000.00000" pt_clust_8="13000.00000" pt_clust_9="86.69351"></scales>
<clustering>
<clus scale="   84.497">  5  6 -1 -1</clus>
<clus scale="   86.694">  2  9  1 -1</clus>
<clus scale="   93.045">  7  8 -1 -1</clus>
<clus scale="   98.364">  1  5  2 -1</clus>
<clus scale="   86.694">  2  5  1 -1</clus>
</clustering>
</event>
<event>
 9    1  0.2374319E-005  0.1148741E+03  0.7546771E-02  0.1254780E+00
         -2   -1    0    0    0  501 -0.00000000000E+00  0.00000000000E+00  0.54177562652E+02  0.54177562652E+02  0.00000000000E+00 0.  1.
          1   -1    0    0  502    0  0.00000000000E+00 -0.00000000000E+00 -0.11755493994E+04  0.11755493994E+04  0.00000000000E+00 0. -1.
        -24    2    1    2    0    0  0.46719799596E+02 -0.53102106586E+02 -0.18374618410E+02  0.10801286474E+03  0.79539794750E+02 0.  0.
         23    2    1    2    0    0 -0.32769946429E+02  0.10968585890E+03 -0.72846452363E+03  0.74267444393E+03  0.88317101726E+02 0.  0.
         13    1    3    3    0    0  0.20752319885E+02 -0.65899597952E+01 -0.43854876473E+02  0.48962603497E+02  0.00000000000E+00 0. -1.
        -14    1    3    3    0    0  0.25967479711E+02 -0.46512146790E+02  0.25480258063E+02  0.59050261240E+02  0.00000000000E+00 0.  1.
        -13    1    4    4    0    0  0.20524429276E+02  0.10479826599E+01 -0.62101220248E+02  0.65413393285E+02  0.00000000000E+00 0.  1.
         13    1    4    4    0    0 -0.53294375704E+02  0.10863787624E+03 -0.66636330338E+03  0.67726105065E+03  0.00000000000E+00 0. -1.
         21    1    1    2  502  501 -0.13949853167E+02 -0.56583752311E+02 -0.37453269470E+03  0.37903965337E+03  0.00000000000E+00 0.  1.
<scales pt_clust_5="13000.00000" pt_clust_6="13000.00000" pt_clust_7="13000.00000" pt_clust_8="13000.00000" pt_clust_9="58.27795"></scales>
<clustering>
<clus scale="   58.278">  2  9  1 -1</clus>
<clus scale="   79.540">  5  6 -1 -1</clus>
<clus scale="   88.317">  7  8 -1 -1</clus>
<clus scale="  108.272">  1  5  2 -1</clus>
<clus scale="   58.278">  2  5  1 -1</clus>
</clustering>
</event>
<event>
 9    1  0.2374319E-005  0.1132815E+03  0.7546771E-02  0.1258581E+00
          1   -1    0    0  502    0  0.00000000000E+00  0.00000000000E+00  0.11650125416E+03  0.11650125416E+03  0.00000000000E+00 0. -1.
         -2   -1    0    0    0  501 -0.00000000000E+00 -0.00000000000E+00 -0.20290362966E+03  0.20290362966E+03  0.00000000000E+00 0.  1.
         23    2    1    2    0    0  0.67951705480E+02  0.20586303574E+02 -0.13004231772E+03  0.17414419218E+03  0.91509371654E+02 0.  0.
        -24    2    1    2    0    0 -0.49647954124E+02 -0.30707931629E+02  0.30940643003E+01  0.99637858708E+02  0.80686016387E+02 0.  0.
         11    1    4    4    0    0 -0.55187887811E+02 -0.42226694451E+02  0.25353038367E+02  0.73970083411E+02  0.00000000000E+00 0. -1.
        -12    1    4    4    0    0  0.55399336872E+01  0.11518762822E+02 -0.22258974066E+02  0.25667775297E+02  0.00000000000E+00 0.  1.
        -13    1    3    3    0    0  0.36167783183E+02  0.56811418800E+01  0.28224899396E+01  0.36719890562E+02  0.00000000000E+00 0. -1.
         13    1    3    3    0    0  0.31783922297E+02  0.14905161694E+02 -0.13286480766E+03  0.13742430162E+03  0.00000000000E+00 0.  1.
         21    1    1    2  502  501 -0.18303751356E+02  0.10121628055E+02  0.40545877919E+02  0.45622832928E+02  0.00000000000E+00 0. -1.
<scales pt_clust_5="13000.00000" pt_clust_6="13000.00000" pt_clust_7="13000.00000" pt_clust_8="13000.00000" pt_clust_9="20.91590"></scales>
<clustering>
<clus scale="   20.916">  1  9  2 -1</clus>
<clus scale="   80.686">  5  6 -1 -1</clus>
<clus scale="   91.509">  7  8 -1 -1</clus>
<clus scale="  104.733">  1  5  2 -1</clus>
<clus scale="   20.916">  1  5  2 -1</clus>
</clustering>
</event>
<event>
 9    1  0.2374319E-005  0.9441145E+02  0.7546771E-02  0.1298503E+00
         -4   -1    0    0    0  501 -0.00000000000E+00  0.00000000000E+00  0.74333492807E+03  0.74333492807E+03  0.00000000000E+00 0.  1.
          3   -1    0    0  502    0  0.00000000000E+00 -0.00000000000E+00 -0.37334573437E+02  0.37334573437E+02  0.00000000000E+00 0. -1.
        -24    2    1    2    0    0 -0.35818393271E+02 -0.49952065682E+01  0.62531007753E+03  0.63272787414E+03  0.89576560956E+02 0.  0.
         23    2    1    2    0    0  0.21581254384E+01 -0.95317100343E+01  0.77544465151E+02  0.11114568915E+03  0.79023472077E+02 0.  0.
         11    1    3    3    0    0  0.60989729878E+01 -0.36965820081E+02  0.15460189376E+03  0.15907675783E+03  0.00000000000E+00 0. -1.
        -12    1    3    3    0    0 -0.41917366258E+02  0.31970613513E+02  0.47070818377E+03  0.47365111632E+03  0.00000000000E+00 0.  1.
        -13    1    4    4    0    0  0.77487008564E+01  0.34380265488E+02  0.31400026350E+02  0.47201765590E+02  0.00000000000E+00 0.  1.
         13    1    4    4    0    0 -0.55905754181E+01 -0.43911975523E+02  0.46144438800E+02  0.63943923558E+02  0.00000000000E+00 0. -1.
         21    1    1    2  502  501  0.33660267832E+02  0.14526916602E+02  0.31458119559E+01  0.36795938219E+02  0.00000000000E+00 0. -1.
<scales pt_clust_5="13000.00000" pt_clust_6="13000.00000" pt_clust_7="13000.00000" pt_clust_8="13000.00000" pt_clust_9="36.66122"></scales>
<clustering>
<clus scale="   36.661">  2  9  1 -1</clus>
<clus scale="   79.023">  7  8 -1 -1</clus>
<clus scale="   84.465">  2  7  1 -1</clus>
<clus scale="   89.577">  5  6 -1 -1</clus>
<clus scale="   36.661">  2  5  1 -1</clus>
</clustering>
</event>
<event>
 9    1  0.2374319E-005  0.8800931E+02  0.7546771E-02  0.1315263E+00
         -2   -1    0    0    0  501 -0.00000000000E+00  0.00000000000E+00  0.19288201686E+03  0.19288201686E+03  0.00000000000E+00 0.  1.
          1   -1    0    0  502    0  0.00000000000E+00 -0.00000000000E+00 -0.79563885723E+02  0.79563885723E+02  0.00000000000E+00 0. -1.
        -24    2    1    2    0    0 -0.95769686877E+01 -0.54819348677E+01  0.11860589432E+03  0.14095793467E+03  0.75365849282E+02 0.  0.
         23    2    1    2    0    0 -0.20846944560E+02  0.99409427530E+00 -0.27707259852E+02  0.93430261191E+02  0.86752165026E+02 0.  0.
         13    1    3    3    0    0 -0.37400147607E+02 -0.15131060762E+01  0.10119828159E+03  0.10789880781E+03  0.00000000000E+00 0. -1.
        -14    1    3    3    0    0  0.27823178919E+02 -0.39688287914E+01  0.17407612735E+02  0.33059126853E+02  0.00000000000E+00 0.  1.
        -13    1    4    4    0    0 -0.21581634121E+02  0.30787159847E+02 -0.45262913433E+02  0.58841715434E+02  0.00000000000E+00 0. -1.
         13    1    4    4    0    0  0.73468956066E+00 -0.29793065572E+02  0.17555653581E+02  0.34588545757E+02  0.00000000000E+00 0.  1.
         21    1    1    2  502  501  0.30423913248E+02  0.44878405924E+01  0.22419496664E+02  0.38057706725E+02  0.00000000000E+00 0.  1.
<scales pt_clust_5="13000.00000" pt_clust_6="13000.00000" pt_clust_7="13000.00000" pt_clust_8="13000.00000" pt_clust_9="30.75313"></scales>
<clustering>
<clus scale="   30.753">  1  9  2 -1</clus>
<clus scale="   75.366">  5  6 -1 -1</clus>
<clus scale="   76.810">  1  5  2 -1</clus>
<clus scale="   86.752">  7  8 -1 -1</clus>
<clus scale="   88.009">  2  5  1 -1</clus>
</clustering>
</event>
<event>
 9    1  0.2374319E-005  0.9927782E+02  0.7546771E-02  0.1284941E+00
          1   -1    0    0  502    0  0.00000000000E+00  0.00000000000E+00  0.50543238127E+03  0.50543238127E+03  0.00000000000E+00 0. -1.
         -2   -1    0    0    0  501 -0.00000000000E+00 -0.00000000000E+00 -0.28579954344E+03  0.28579954344E+03  0.00000000000E+00 0.  1.
         23    2    1    2    0    0 -0.26694789841E+02  0.37695036402E+02 -0.26670268484E+03  0.28468826121E+03  0.88224465980E+02 0.  0.
        -24    2    1    2    0    0  0.37737875698E+02  0.65993629171E+01  0.38423068428E+03  0.39469849562E+03  0.81767871712E+02 0.  0.
         11    1    4    4    0    0  0.50576972338E+02  0.25131150269E+02  0.16679314974E+03  0.17609531409E+03  0.00000000000E+00 0. -1.
        -12    1    4    4    0    0 -0.12839096640E+02 -0.18531787352E+02  0.21743753454E+03  0.21860318152E+03  0.00000000000E+00 0.  1.
        -11    1    3    3    0    0 -0.12624171006E+02 -0.17386490914E+02 -0.13942290314E+02  0.25613418732E+02  0.00000000000E+00 0. -1.
         11    1    3    3    0    0 -0.14070618835E+02  0.55081527316E+02 -0.25276039453E+03  0.25907484248E+03  0.00000000000E+00 0.  1.
         21    1    1    2  502  501 -0.11043085856E+02 -0.44294399319E+02  0.10210483838E+03  0.11184516788E+03  0.00000000000E+00 0. -1.
<scales pt_clust_5="13000.00000" pt_clust_6="13000.00000" pt_clust_7="13000.00000" pt_clust_8="13000.00000" pt_clust_9="45.65023"></scales>
<clustering>
<clus scale="   45.650">  1  9  2 -1</clus>
<clus scale="   81.768">  5  6 -1 -1</clus>
<clus scale="   88.224">  7  8 -1 -1</clus>
<clus scale="   93.587">  1  5  2 -1</clus>
<clus scale="   45.650">  1  5  2 -1</clus>
</clustering>
</event>
<event>
 9    1  0.2374319E-005  0.2177582E+03  0.7546771E-02  0.1136414E+00
         -2   -1    0    0    0  501 -0.00000000000E+00  0.00000000000E+00  0.50948393398E+03  0.50948393398E+03  0.00000000000E+00 0.  1.
          1   -1    0    0  502    0  0.00000000000E+00 -0.00000000000E+00 -0.73937256688E+03  0.73937256688E+03  0.00000000000E+00 0. -1.
        -24    2    1    2    0    0 -0.19552371185E+03 -0.16924871764E+02  0.45788001442E+03  0.50463806621E+03  0.80557414773E+02 0.  0.
         23    2    1    2    0    0  0.22771473076E+03  0.25954588434E+02 -0.55704526788E+03  0.60928734330E+03  0.91673316579E+02 0.  0.
         11    1    3    3    0    0 -0.29620823333E+02  0.10244901932E+02  0.15587811200E+03  0.15899791505E+03  0.00000000000E+00 0. -1.
        -12    1    3    3    0    0 -0.16590288852E+03 -0.27169773696E+02  0.30200190243E+03  0.34564015116E+03  0.00000000000E+00 0.  1.
        -11    1    4    4    0    0  0.21366618169E+03  0.49590582567E+02 -0.49422887694E+03  0.54071678898E+03  0.00000000000E+00 0. -1.
         11    1    4    4    0    0  0.14048549062E+02 -0.23635994134E+02 -0.62816390940E+02  0.68570554323E+02  0.00000000000E+00 0.  1.
         21    1    1    2  502  501 -0.32191018903E+02 -0.90297166695E+01 -0.13072337944E+03  0.13493109135E+03  0.00000000000E+00 0. -1.
<scales pt_clust_5="13000.00000" pt_clust_6="13000.00000" pt_clust_7="13000.00000" pt_clust_8="13000.00000" pt_clust_9="33.43348"></scales>
<clustering>
<clus scale="   33.433">  2  9  1 -1</clus>
<clus scale="   80.557">  5  6 -1 -1</clus>
<clus scale="   91.673">  7  8 -1 -1</clus>
<clus scale="  213.317">  1  5  2 -1</clus>
<clus scale="   33.433">  2  5  1 -1</clus>
</clustering>
</event>
<event>
 9    1  0.2374319E-005  0.2569942E+03  0.7546771E-02  0.1109071E+00
          1   -1    0    0  502    0  0.00000000000E+00  0.00000000000E+00  0.98254090705E+03  0.98254090705E+03  0.00000000000E+00 0. -1.
         -2   -1    0    0    0  501 -0.00000000000E+00 -0.00000000000E+00 -0.19566388515E+03  0.19566388515E+03  0.00000000000E+00 0.  1.
        -24    2    1    2    0    0 -0.24831936983E+03  0.30447455203E+02 -0.58781056943E+02  0.27162156653E+03  0.87940353576E+02 0.  0.
         23    2    1    2    0    0  0.19669744962E+03  0.57274407053E+02  0.54421537324E+03  0.58842029175E+03  0.89987904128E+02 0.  0.
         13    1    3    3    0    0 -0.66448911751E+02  0.34030342847E+02 -0.49307540786E+02  0.89469300240E+02  0.00000000000E+00 0. -1.
        -14    1    3    3    0    0 -0.18187045808E+03 -0.35828876439E+01 -0.94735161569E+01  0.18215226629E+03  0.00000000000E+00 0.  1.
        -11    1    4    4    0    0  0.51958617397E+02  0.30362764576E+02  0.27573186824E+03  0.28222271092E+03  0.00000000000E+00 0.  1.
         11    1    4    4    0    0  0.14473883222E+03  0.26911642478E+02  0.26848350500E+03  0.30619758084E+03  0.00000000000E+00 0. -1.
         21    1    1    2  502  501  0.51621920205E+02 -0.87721862256E+02  0.30144270560E+03  0.31816293392E+03  0.00000000000E+00 0. -1.
<scales pt_clust_5="13000.00000" pt_clust_6="13000.00000" pt_clust_7="13000.00000" pt_clust_8="13000.00000" pt_clust_9="101.78383"></scales>
<clustering>
<clus scale="   87.940">  5  6 -1 -1</clus>
<clus scale="   89.988">  7  8 -1 -1</clus>
<clus scale="  101.784">  1  9  2 -1</clus>
<clus scale="  256.284">  2  5  1 -1</clus>
<clus scale="  101.784">  1  5  2 -1</clus>
</clustering>
</event>
<event>
 9    1  0.2374319E-005  0.1442751E+03  0.7546771E-02  0.1208741E+00
         -2   -1    0    0    0  501 -0.00000000000E+00  0.00000000000E+00  0.14563757281E+03  0.14563757281E+03  0.00000000000E+00 0.  1.
          1   -1    0    0  502    0  0.00000000000E+00 -0.00000000000E+00 -0.24220390775E+03  0.24220390775E+03  0.00000000000E+00 0. -1.
        -24    2    1    2    0    0 -0.15640850107E+02 -0.11691936673E+03  0.44660999329E+02  0.15165729719E+03  0.84205441767E+02 0.  0.
         23    2    1    2    0    0  0.29868263011E+02  0.10048118199E+03 -0.56914780685E+02  0.14911386761E+03  0.89482245073E+02 0.  0.
         11    1    3    3    0    0  0.31476527246E+02 -0.22975423493E+02  0.19562672754E+02  0.43604357780E+02  0.00000000000E+00 0. -1.
        -12    1    3    3    0    0 -0.47117377353E+02 -0.93943943235E+02  0.25098326575E+02  0.10805293941E+03  0.00000000000E+00 0.  1.
        -13    1    4    4    0    0 -0.10293391338E+02  0.89796827598E+02 -0.58258467546E+02  0.10753359100E+03  0.00000000000E+00 0. -1.
         13    1    4    4    0    0  0.40161654349E+02  0.10684354395E+02  0.13436868610E+01  0.41580276614E+02  0.00000000000E+00 0.  1.
         21    1    1    2  502  501 -0.14227412904E+02  0.16438184735E+02 -0.84312553577E+02  0.87070315756E+02  0.00000000000E+00 0.  1.
<scales pt_clust_5="13000.00000" pt_clust_6="13000.00000" pt_clust_7="13000.00000" pt_clust_8="13000.00000" pt_clust_9="21.74013"></scales>
<clustering>
<clus scale="   21.740">  2  9  1 -1</clus>
<clus scale="   84.205">  5  6 -1 -1</clus>
<clus scale="   89.482">  7  8 -1 -1</clus>
<clus scale="  141.063">  1  5  2 -1</clus>
<clus scale="   21.740">  2  5  1 -1</clus>
</clustering>
</event>
<event>
 9    1  0.2374319E-005  0.1131528E+03  0.7546771E-02  0.1256283E+00
          1   -1    0    0  502    0  0.00000000000E+00  0.00000000000E+00  0.11796230536E+03  0.11796230536E+03  0.00000000000E+00 0. -1.
         -2   -1    0    0    0  501 -0.00000000000E+00 -0.00000000000E+00 -0.27494452822E+03  0.27494452822E+03  0.00000000000E+00 0.  1.
        -24    2    1    2    0    0 -0.45660137590E+02 -0.11917430901E+02 -0.84233849283E+02  0.12923392632E+03  0.85902229449E+02 0.  0.
         23    2    1    2    0    0  0.37735198889E+02  0.73208911346E+02  0.45564412456E+02  0.13019120227E+03  0.89945225164E+02 0.  0.
         11    1    3    3    0    0 -0.54365305755E+02  0.18105756471E+01 -0.12675889115E+02  0.55852867598E+02  0.00000000000E+00 0. -1.
        -12    1    3    3    0    0  0.87051681657E+01 -0.13728006548E+02 -0.71557960167E+02  0.73381058727E+02  0.00000000000E+00 0.  1.
        -11    1    4    4    0    0  0.20744818568E+02  0.89209413456E+02  0.16746551371E+02  0.93108076607E+02  0.00000000000E+00 0. -1.
         11    1    4    4    0    0  0.16990380321E+02 -0.16000502111E+02  0.28817861085E+02  0.37083125660E+02  0.00000000000E+00 0.  1.
         21    1    1    2  502  501  0.79249387008E+01 -0.61291480444E+02 -0.11831278604E+03  0.13348170499E+03  0.00000000000E+00 0.  1.
<scales pt_clust_5="13000.00000" pt_clust_6="13000.00000" pt_clust_7="13000.00000" pt_clust_8="13000.00000" pt_clust_9="61.80170"></scales>
<clustering>
<clus scale="   61.802">  2  9  1 -1</clus>
<clus scale="   85.902">  5  6 -1 -1</clus>
<clus scale="   89.945">  7  8 -1 -1</clus>
<clus scale="  109.966">  2  5  1 -1</clus>
<clus scale="  113.153">  1  5  2 -1</clus>
</clustering>
</event>
<event>
 9    1  0.2374319E-005  0.9655061E+02  0.7546771E-02  0.1294701E+00
          1   -1    0    0  502    0  0.00000000000E+00  0.00000000000E+00  0.38269275590E+03  0.38269275590E+03  0.00000000000E+00 0. -1.
         -2   -1    0    0    0  501 -0.00000000000E+00 -0.00000000000E+00 -0.10902564184E+03  0.10902564184E+03  0.00000000000E+00 0.  1.
         23    2    1    2    0    0 -0.19598016717E+02  0.14218463678E+02 -0.71713008985E+02  0.11999281610E+03  0.93108932376E+02 0.  0.
        -24    2    1    2    0    0  0.11975198621E+02 -0.51208279892E+02  0.28109611329E+03  0.29716830319E+03  0.80797785910E+02 0.  0.
         11    1    4    4    0    0  0.68792959755E+01 -0.63943664617E+02  0.27452666759E+03  0.28195923141E+03  0.00000000000E+00 0. -1.
        -12    1    4    4    0    0  0.50959026459E+01  0.12735384725E+02  0.65694456949E+01  0.15209071787E+02  0.00000000000E+00 0.  1.
        -11    1    3    3    0    0  0.25175956499E+02 -0.87642471126E+01 -0.63670910711E+02  0.69026268071E+02  0.00000000000E+00 0.  1.
         11    1    3    3    0    0 -0.44773973216E+02  0.22982710791E+02 -0.80420982743E+01  0.50966548024E+02  0.00000000000E+00 0. -1.
         21    1    1    2  502  501  0.76228180953E+01  0.36989816214E+02  0.64284009760E+02  0.74557278451E+02  0.00000000000E+00 0. -1.
<scales pt_clust_5="13000.00000" pt_clust_6="13000.00000" pt_clust_7="13000.00000" pt_clust_8="13000.00000" pt_clust_9="37.76710"></scales>
<clustering>
<clus scale="   37.767">  1  9  2 -1</clus>
<clus scale="   80.798">  5  6 -1 -1</clus>
<clus scale="   84.741">  1  5  2 -1</clus>
<clus scale="   93.109">  7  8 -1 -1</clus>
<clus scale="   37.767">  1  5  2 -1</clus>
</clustering>
</event>
<event>
 9    1  0.2374319E-005  0.1518041E+03  0.7546771E-02  0.1214997E+00
          1   -1    0    0  502    0  0.00000000000E+00  0.00000000000E+00  0.12547825827E+03  0.12547825827E+03  0.00000000000E+00 0. -1.
         -2   -1    0    0    0  501 -0.00000000000E+00 -0.00000000000E+00 -0.46744580843E+03  0.46744580843E+03  0.00000000000E+00 0.  1.
        -24    2    1    2    0    0  0.13299560998E+03 -0.12758591680E+02 -0.33358985607E+03  0.36864113232E+03  0.82240369879E+02 0.  0.
         23    2    1    2    0    0 -0.30847754135E+02 -0.45361311983E+02  0.42374774724E+01  0.10608289119E+03  0.90699454400E+02 0.  0.
         13    1    3    3    0    0  0.42792332535E+02  0.17210190105E+02 -0.43593426884E+02  0.63464645550E+02  0.00000000000E+00 0. -1.
        -14    1    3    3    0    0  0.90203277440E+02 -0.29968781786E+02 -0.28999642918E+03  0.30517648677E+03  0.00000000000E+00 0.  1.
        -11    1    4    4    0    0 -0.54033115946E+02 -0.44843534564E+01  0.17976346643E+02  0.57121240212E+02  0.00000000000E+00 0.  1.
         11    1    4    4    0    0  0.23185361811E+02 -0.40876958526E+02 -0.13738869171E+02  0.48961650980E+02  0.00000000000E+00 0. -1.
         21    1    1    2  502  501 -0.10214785584E+03  0.58119903663E+02 -0.12615171566E+02  0.11820004318E+03  0.00000000000E+00 0. -1.
<scales pt_clust_5="13000.00000" pt_clust_6="13000.00000" pt_clust_7="13000.00000" pt_clust_8="13000.00000" pt_clust_9="127.59704"></scales>
<clustering>
<clus scale="   82.240">  5  6 -1 -1</clus>
<clus scale="   90.699">  7  8 -1 -1</clus>
<clus scale="  105.998">  1  7  2 -1</clus>
<clus scale="  127.597">  1  9  2 -1</clus>
<clus scale="  105.998">  1  5  2 -1</clus>
</clustering>
</event>
<event>
 9    1  0.2374319E-005  0.9091713E+02  0.7546771E-02  0.1304007E+00
         -2   -1    0    0    0  501 -0.00000000000E+00  0.00000000000E+00  0.35885430123E+03  0.35885430123E+03  0.00000000000E+00 0.  1.
          1   -1    0    0  502    0  0.00000000000E+00 -0.00000000000E+00 -0.50653624178E+02  0.50653624178E+02  0.00000000000E+00 0. -1.
        -24    2    1    2    0    0 -0.35133945227E+02  0.65686022955E+01  0.26751640292E+03  0.28307098928E+03  0.85361692217E+02 0.  0.
         23    2    1    2    0    0  0.60354203189E+01 -0.22478573352E+02  0.14391964242E+02  0.84115110901E+02  0.79539365655E+02 0.  0.
         11    1    3    3    0    0 -0.20761463769E+02 -0.22124558876E+01  0.70154412508E+01  0.22026115291E+02  0.00000000000E+00 0. -1.
        -12    1    3    3    0    0 -0.14372481458E+02  0.87810581830E+01  0.26050096167E+03  0.26104487399E+03  0.00000000000E+00 0.  1.
        -11    1    4    4    0    0  0.25362156222E+02 -0.30347462826E+02  0.36425655350E+02  0.53768353479E+02  0.00000000000E+00 0. -1.
         11    1    4    4    0    0 -0.19326735903E+02  0.78688894733E+01 -0.22033691108E+02  0.30346757422E+02  0.00000000000E+00 0.  1.
         21    1    1    2  502  501  0.29098524908E+02  0.15909971057E+02  0.26292309889E+02  0.42321825222E+02  0.00000000000E+00 0. -1.
<scales pt_clust_5="13000.00000" pt_clust_6="13000.00000" pt_clust_7="13000.00000" pt_clust_8="13000.00000" pt_clust_9="33.16401"></scales>
<clustering>
<clus scale="   33.164">  2  9  1 -1</clus>
<clus scale="   79.539">  7  8 -1 -1</clus>
<clus scale="   85.362">  5  6 -1 -1</clus>
<clus scale="   85.474">  2  7  1 -1</clus>
<clus scale="   33.164">  2  5  1 -1</clus>
</clustering>
</event>
<event>
 9    1  0.2374319E-005  0.1048646E+03  0.7546771E-02  0.1272289E+00
          1   -1    0    0  502    0  0.00000000000E+00  0.00000000000E+00  0.32554475724E+02  0.32554475724E+02  0.00000000000E+00 0. -1.
         -2   -1    0    0    0  501 -0.00000000000E+00 -0.00000000000E+00 -0.44720457363E+03  0.44720457363E+03  0.00000000000E+00 0.  1.
        -24    2    1    2    0    0  0.36665444875E+02 -0.40119769088E+02 -0.28048292450E+03  0.29919722001E+03  0.88850181802E+02 0.  0.
         23    2    1    2    0    0 -0.17515527997E+02  0.32019788348E+02 -0.11235048211E+03  0.15042386286E+03  0.93127048283E+02 0.  0.
         13    1    3    3    0    0  0.20808443695E+02 -0.68071852533E+02 -0.20994160788E+03  0.22168050693E+03  0.00000000000E+00 0. -1.
        -14    1    3    3    0    0  0.15857001180E+02  0.27952083445E+02 -0.70541316623E+02  0.77516713077E+02  0.00000000000E+00 0.  1.
        -13    1    4    4    0    0  0.35785639301E+02  0.27761581261E+02 -0.63505004944E+02  0.78001301445E+02  0.00000000000E+00 0.  1.
         13    1    4    4    0    0 -0.53301167297E+02  0.42582070869E+01 -0.48845477164E+02  0.72422561417E+02  0.00000000000E+00 0. -1.
         21    1    1    2  502  501 -0.19149916878E+02  0.80999807404E+01 -0.21816691303E+02  0.30137966485E+02  0.00000000000E+00 0.  1.
<scales pt_clust_5="13000.00000" pt_clust_6="13000.00000" pt_clust_7="13000.00000" pt_clust_8="13000.00000" pt_clust_9="20.79252"></scales>
<clustering>
<clus scale="   20.793">  1  9  2 -1</clus>
<clus scale="   88.850">  5  6 -1 -1</clus>
<clus scale="   93.127">  7  8 -1 -1</clus>
<clus scale="  101.086">  2  5  1 -1</clus>
<clus scale="   20.793">  1  5  2 -1</clus>
</clustering>
</event>
<event>
 9    1  0.2998944E-005  0.1033050E+03  0.7546771E-02  0.1280379E+00
         -2   -1    0    0    0  501 -0.00000000000E+00  0.00000000000E+00  0.23687720694E+03  0.23687720694E+03  0.00000000000E+00 0.  1.
          1   -1    0    0  502    0  0.00000000000E+00 -0.00000000000E+00 -0.49902849712E+03  0.49902849712E+03  0.00000000000E+00 0. -1.
        -24    2    1    2    0    0 -0.22527071701E+02 -0.44182361583E+02  0.21187950010E+03  0.23050639047E+03  0.76031068987E+02 0.  0.
         23    2    1    2    0    0  0.44617730373E+02  0.11044379088E+02 -0.44399581497E+03  0.45551722435E+03  0.90834672879E+02 0.  0.
         13    1    3    3    0    0 -0.41016164648E+02 -0.24990535582E+01  0.66777418359E+02  0.78407873544E+02  0.00000000000E+00 0. -1.
        -14    1    3    3    0    0  0.18489092947E+02 -0.41683308025E+02  0.14510208174E+03  0.15209851693E+03  0.00000000000E+00 0.  1.
        -13    1    4    4    0    0  0.57486232697E+02 -0.24080261756E+02 -0.23094417176E+03  0.23920647237E+03  0.00000000000E+00 0.  1.
         13    1    4    4    0    0 -0.12868502324E+02  0.35124640844E+02 -0.21305164321E+03  0.21631075198E+03  0.00000000000E+00 0. -1.
         21    1    1    2  502  501 -0.22090658672E+02  0.33137982495E+02 -0.30034975318E+02  0.49882089238E+02  0.00000000000E+00 0. -1.
<scales pt_clust_5="13000.00000" pt_clust_6="13000.00000" pt_clust_7="13000.00000" pt_clust_8="13000.00000" pt_clust_9="39.82616"></scales>
<clustering>
<clus scale="   39.826">  2  9  1 -1</clus>
<clus scale="   76.031">  5  6 -1 -1</clus>
<clus scale="   90.563">  1  5  2 -1</clus>
<clus scale="   90.835">  7  8 -1 -1</clus>
<clus scale="   39.826">  2  5  1 -1</clus>
</clustering>
</event>
<event>
 9    1  0.2374319E-005  0.1183312E+03  0.7546771E-02  0.1246696E+00
          3   -1    0    0  502    0  0.00000000000E+00  0.00000000000E+00  0.51792515309E+03  0.51792515309E+03  0.00000000000E+00 0. -1.
         -4   -1    0    0    0  501 -0.00000000000E+00 -0.00000000000E+00 -0.68274242458E+02  0.68274242458E+02  0.00000000000E+00 0.  1.
         23    2    1    2    0    0  0.75672876229E+02 -0.27464132699E+02  0.53391196151E+02  0.13828055737E+03  0.98945590800E+02 0.  0.
        -24    2    1    2    0    0 -0.21491023367E+02  0.50754856445E+02  0.11292656110E+03  0.15851288316E+03  0.96623011693E+02 0.  0.
         11    1    4    4    0    0  0.36473656284E+02  0.32688812674E+02  0.37498949978E+02  0.61685146723E+02  0.00000000000E+00 0. -1.
        -12    1    4    4    0    0 -0.57964679651E+02  0.18066043771E+02  0.75427611122E+02  0.96827736440E+02  0.00000000000E+00 0.  1.
        -13    1    3    3    0    0  0.41163298766E+02  0.23795098592E+01 -0.24535847844E+02  0.47980069423E+02  0.00000000000E+00 0. -1.
         13    1    3    3    0    0  0.34509577463E+02 -0.29843642558E+02  0.77927043995E+02  0.90300487948E+02  0.00000000000E+00 0.  1.
         21    1    1    2  502  501 -0.54181852862E+02 -0.23290723746E+02  0.28333315338E+03  0.28940595501E+03  0.00000000000E+00 0. -1.
<scales pt_clust_5="13000.00000" pt_clust_6="13000.00000" pt_clust_7="13000.00000" pt_clust_8="13000.00000" pt_clust_9="58.97568"></scales>
<clustering>
<clus scale="   58.976">  1  9  2 -1</clus>
<clus scale="   96.623">  5  6 -1 -1</clus>
<clus scale="   98.946">  7  8 -1 -1</clus>
<clus scale="  116.396">  1  5  2 -1</clus>
<clus scale="   58.976">  1  5  2 -1</clus>
</clustering>
</event>
<event>
 9    1  0.2374319E-005  0.1663778E+03  0.7546771E-02  0.1200781E+00
         -2   -1    0    0    0  501 -0.00000000000E+00  0.00000000000E+00  0.38900326456E+03  0.38900326456E+03  0.00000000000E+00 0.  1.
          1   -1    0    0  502    0  0.00000000000E+00 -0.00000000000E+00 -0.18855630042E+03  0.18855630042E+03  0.00000000000E+00 0. -1.
        -24    2    1    2    0    0 -0.62024730555E+02  0.11574764556E+03  0.21474579950E+03  0.26435132748E+03  0.80754450543E+02 0.  0.
         23    2    1    2    0    0 -0.38819069915E+02  0.48073700115E+02 -0.45559917504E+02  0.11831298192E+03  0.90023634543E+02 0.  0.
         13    1    3    3    0    0  0.19406427963E+02  0.14724677596E+02  0.31649007374E+02  0.39938518304E+02  0.00000000000E+00 0. -1.
        -14    1    3    3    0    0 -0.81431158517E+02  0.10102296796E+03  0.18309679213E+03  0.22441280917E+03  0.00000000000E+00 0.  1.
        -11    1    4    4    0    0 -0.22175949953E+02 -0.25302671107E+02 -0.18202958636E+02  0.38253700796E+02  0.00000000000E+00 0.  1.
         11    1    4    4    0    0 -0.16643119962E+02  0.73376371222E+02 -0.27356958867E+02  0.80059281125E+02  0.00000000000E+00 0. -1.
         21    1    1    2  502  501  0.10084380047E+03 -0.16382134568E+03  0.31261082150E+02  0.19489525558E+03  0.00000000000E+00 0. -1.
<scales pt_clust_5="13000.00000" pt_clust_6="13000.00000" pt_clust_7="13000.00000" pt_clust_8="13000.00000" pt_clust_9="145.46578"></scales>
<clustering>
<clus scale="   80.754">  5  6 -1 -1</clus>
<clus scale="   90.024">  7  8 -1 -1</clus>
<clus scale="  109.189">  2  7  1 -1</clus>
<clus scale="  145.466">  2  9  1 -1</clus>
<clus scale="  109.189">  2  5  1 -1</clus>
</clustering>
</event>
<event>
 9    1  0.2374319E-005  0.1044876E+03  0.7546771E-02  0.1276949E+00
          1   -1    0    0  502    0  0.00000000000E+00  0.00000000000E+00  0.12283936561E+03  0.12283936561E+03  0.00000000000E+00 0. -1.
         -2   -1    0    0    0  501 -0.00000000000E+00 -0.00000000000E+00 -0.15167989569E+03  0.15167989569E+03  0.00000000000E+00 0.  1.
        -24    2    1    2    0    0 -0.17798606336E+02  0.42750668868E+02 -0.68281484773E+02  0.11478788757E+03  0.79809071498E+02 0.  0.
         23    2    1    2    0    0 -0.10452068836E+02 -0.59560122972E+02  0.28594593670E+01  0.11054942385E+03  0.92500511422E+02 0.  0.
         13    1    3    3    0    0 -0.19542639305E+02  0.39975129354E+02  0.18932675415E+01  0.44536616170E+02  0.00000000000E+00 0. -1.
        -14    1    3    3    0    0  0.17440329694E+01  0.27755395135E+01 -0.70174752315E+02  0.70251271398E+02  0.00000000000E+00 0.  1.
        -11    1    4    4    0    0 -0.46902497437E+02 -0.31318676551E+02 -0.19009795821E+02  0.59515343433E+02  0.00000000000E+00 0.  1.
         11    1    4    4    0    0  0.36450428601E+02 -0.28241446421E+02  0.21869255188E+02  0.51034080413E+02  0.00000000000E+00 0. -1.
         21    1    1    2  502  501  0.28250675172E+02  0.16809454104E+02  0.36581495323E+02  0.49181949890E+02  0.00000000000E+00 0. -1.
<scales pt_clust_5="13000.00000" pt_clust_6="13000.00000" pt_clust_7="13000.00000" pt_clust_8="13000.00000" pt_clust_9="32.87337"></scales>
<clustering>
<clus scale="   32.873">  1  9  2 -1</clus>
<clus scale="   79.809">  5  6 -1 -1</clus>
<clus scale="   92.501">  7  8 -1 -1</clus>
<clus scale="   93.439">  2  5  1 -1</clus>
<clus scale="   32.873">  1  5  2 -1</clus>
</clustering>
</event>
<event>
 9    1  0.3680669E-005  0.2821510E+03  0.7546771E-02  0.1095062E+00
          1   -1    0    0  502    0  0.00000000000E+00  0.00000000000E+00  0.49918278078E+03  0.49918278078E+03  0.00000000000E+00 0. -1.
         -2   -1    0    0    0  501 -0.00000000000E+00 -0.00000000000E+00 -0.56975908853E+03  0.56975908853E+03  0.00000000000E+00 0.  1.
        -24    2    1    2    0    0 -0.23180571120E+03  0.13406225662E+03 -0.48396229194E+03  0.55900636398E+03  0.81006410560E+02 0.  0.
         23    2    1    2    0    0  0.20333225168E+03 -0.14132199385E+03  0.39410183856E+03  0.47478838662E+03  0.93764824928E+02 0.  0.
         13    1    3    3    0    0 -0.44199369516E+02 -0.19756173350E+01 -0.47999366744E+02  0.65279602766E+02  0.00000000000E+00 0. -1.
        -14    1    3    3    0    0 -0.18760634168E+03  0.13603787396E+03 -0.43596292520E+03  0.49372676121E+03  0.00000000000E+00 0.  1.
        -11    1    4    4    0    0  0.46241070863E+02  0.87782650607E+01  0.60131466641E+02  0.76361560044E+02  0.00000000000E+00 0.  1.
         11    1    4    4    0    0  0.15709118082E+03 -0.15010025891E+03  0.33397037192E+03  0.39842682658E+03  0.00000000000E+00 0. -1.
         21    1    1    2  502  501  0.28473459512E+02  0.72597372266E+01  0.19284145626E+02  0.35147118712E+02  0.00000000000E+00 0.  1.
<scales pt_clust_5="13000.00000" pt_clust_6="13000.00000" pt_clust_7="13000.00000" pt_clust_8="13000.00000" pt_clust_9="29.38438"></scales>
<clustering>
<clus scale="   29.384">  1  9  2 -1</clus>
<clus scale="   81.006">  5  6 -1 -1</clus>
<clus scale="   93.765">  7  8 -1 -1</clus>
<clus scale="  278.171">  2  5  1 -1</clus>
<clus scale="   29.384">  1  5  2 -1</clus>
</clustering>
</event>
<event>
 9    1  0.2374319E-005  0.1460803E+03  0.7546771E-02  0.1207963E+00
          1   -1    0    0  502    0  0.00000000000E+00  0.00000000000E+00  0.41994961451E+03  0.41994961451E+03  0.00000000000E+00 0. -1.
         -2   -1    0    0    0  501 -0.00000000000E+00 -0.00000000000E+00 -0.14106923515E+03  0.14106923515E+03  0.00000000000E+00 0.  1.
         23    2    1    2    0    0  0.10297346432E+03  0.43409213105E+02 -0.74088937336E+02  0.16156905060E+03  0.90152611387E+02 0.  0.
        -24    2    1    2    0    0 -0.12624640513E+03 -0.58363928621E+02  0.31050985101E+03  0.34877357666E+03  0.76695092601E+02 0.  0.
         13    1    4    4    0    0 -0.82703529106E+02 -0.72784471165E+02  0.18724791728E+03  0.21725385036E+03  0.00000000000E+00 0. -1.
        -14    1    4    4    0    0 -0.43542876027E+02  0.14420542544E+02  0.12326193373E+03  0.13151972630E+03  0.00000000000E+00 0.  1.
        -11    1    3    3    0    0  0.42075344522E+02  0.66281848964E+02 -0.39171241619E+02  0.87738271516E+02  0.00000000000E+00 0.  1.
         11    1    3    3    0    0  0.60898119798E+02 -0.22872635858E+02 -0.34917695717E+02  0.73830779084E+02  0.00000000000E+00 0. -1.
         21    1    1    2  502  501  0.23272940813E+02  0.14954715515E+02  0.42459465680E+02  0.50676222393E+02  0.00000000000E+00 0.  1.
<scales pt_clust_5="13000.00000" pt_clust_6="13000.00000" pt_clust_7="13000.00000" pt_clust_8="13000.00000" pt_clust_9="27.66357"></scales>
<clustering>
<clus scale="   27.664">  1  9  2 -1</clus>
<clus scale="   76.695">  5  6 -1 -1</clus>
<clus scale="   90.153">  7  8 -1 -1</clus>
<clus scale="  138.181">  1  5  2 -1</clus>
<clus scale="   27.664">  1  5  2 -1</clus>
</clustering>
</event>
<event>
 9    1  0.2374319E-005  0.1364754E+03  0.7546771E-02  0.1223009E+00
         -2   -1    0    0    0  501 -0.00000000000E+00  0.00000000000E+00  0.27165024989E+03  0.27165024989E+03  0.00000000000E+00 0.  1.
          1   -1    0    0  502    0  0.00000000000E+00 -0.00000000000E+00 -0.18625875428E+03  0.18625875428E+03  0.00000000000E+00 0. -1.
         23    2    1    2    0    0  0.95442415410E+02 -0.43335565993E+02  0.21479307594E+03  0.25611092040E+03  0.92029952382E+02 0.  0.
        -24    2    1    2    0    0 -0.54564179969E+02  0.59915247605E+02 -0.10882966062E+03  0.15312447845E+03  0.70965655349E+02 0.  0.
         11    1    4    4    0    0 -0.34196311212E+02  0.60060082935E+02 -0.11287983905E+03  0.13235731686E+03  0.00000000000E+00 0. -1.
        -12    1    4    4    0    0 -0.20367868757E+02 -0.14483533009E+00  0.40501784356E+01  0.20767161586E+02  0.00000000000E+00 0.  1.
        -11    1    3    3    0    0 -0.14160532394E+01 -0.42392505583E+02  0.71977613520E+02  0.83545835231E+02  0.00000000000E+00 0. -1.
         11    1    3    3    0    0  0.96858468649E+02 -0.94306040962E+00  0.14281546242E+03  0.17256508517E+03  0.00000000000E+00 0.  1.
         21    1    1    2  502  501 -0.40878235441E+02 -0.16579681613E+02 -0.20571919710E+02  0.48673605329E+02  0.00000000000E+00 0.  1.
<scales pt_clust_5="13000.00000" pt_clust_6="13000.00000" pt_clust_7="13000.00000" pt_clust_8="13000.00000" pt_clust_9="44.11254"></scales>
<clustering>
<clus scale="   44.113">  2  9  1 -1</clus>
<clus scale="   70.966">  5  6 -1 -1</clus>
<clus scale="   92.030">  7  8 -1 -1</clus>
<clus scale="  123.256">  2  5  1 -1</clus>
<clus scale="   44.113">  2  5  1 -1</clus>
</clustering>
</event>
<event>
 9    1  0.2374319E-005  0.1425679E+03  0.7546771E-02  0.1212083E+00
         -2   -1    0    0    0  501 -0.00000000000E+00  0.00000000000E+00  0.31288877369E+03  0.31288877369E+03  0.00000000000E+00 0.  1.
          1   -1    0    0  502    0  0.00000000000E+00 -0.00000000000E+00 -0.24988145600E+03  0.24988145600E+03  0.00000000000E+00 0. -1.
        -24    2    1    2    0    0  0.17933628509E+02 -0.12241881291E+03  0.25601246548E+03  0.29526307380E+03  0.79560791130E+02 0.  0.
         23    2    1    2    0    0 -0.66980794703E+01  0.39952383254E+02 -0.79901277393E+02  0.12708124986E+03  0.90135302417E+02 0.  0.
         13    1    3    3    0    0 -0.23472782468E+02 -0.70027687708E+02  0.90665517104E+02  0.11694051716E+03  0.00000000000E+00 0. -1.
        -14    1    3    3    0    0  0.41406410978E+02 -0.52391125204E+02  0.16534694838E+03  0.17832255664E+03  0.00000000000E+00 0.  1.
        -13    1    4    4    0    0  0.50815147796E+01  0.68016608591E+02 -0.51671334396E+02  0.85568730474E+02  0.00000000000E+00 0. -1.
         13    1    4    4    0    0 -0.11779594250E+02 -0.28064225338E+02 -0.28229942997E+02  0.41512519390E+02  0.00000000000E+00 0.  1.
         21    1    1    2  502  501 -0.11235549039E+02  0.82466429659E+02 -0.11310387040E+03  0.14042590602E+03  0.00000000000E+00 0. -1.
<scales pt_clust_5="13000.00000" pt_clust_6="13000.00000" pt_clust_7="13000.00000" pt_clust_8="13000.00000" pt_clust_9="83.22830"></scales>
<clustering>
<clus scale="   79.561">  5  6 -1 -1</clus>
<clus scale="   83.228">  2  9  1 -1</clus>
<clus scale="   90.135">  7  8 -1 -1</clus>
<clus scale="  136.129">  1  5  2 -1</clus>
<clus scale="   83.228">  2  5  1 -1</clus>
</clustering>
</event>
<event>
 9    1  0.2374319E-005  0.9457694E+02  0.7546771E-02  0.1299739E+00
          1   -1    0    0  502    0  0.00000000000E+00  0.00000000000E+00  0.43580829506E+03  0.43580829506E+03  0.00000000000E+00 0. -1.
         -2   -1    0    0    0  501 -0.00000000000E+00 -0.00000000000E+00 -0.60076653548E+02  0.60076653548E+02  0.00000000000E+00 0.  1.
         23    2    1    2    0    0 -0.82222172715E+01 -0.90627992438E+01 -0.60344216058E+01  0.94205377854E+02  0.93212122524E+02 0.  0.
        -24    2    1    2    0    0  0.39707049151E+02  0.18634874792E+02  0.29237510178E+03  0.30642379278E+03  0.80550805892E+02 0.  0.
         11    1    4    4    0    0  0.25399820163E+02  0.50549232128E+02  0.17142200662E+03  0.18051559514E+03  0.00000000000E+00 0. -1.
        -12    1    4    4    0    0  0.14307228988E+02 -0.31914357336E+02  0.12095309516E+03  0.12590819764E+03  0.00000000000E+00 0.  1.
        -11    1    3    3    0    0  0.26680092119E+02 -0.35826781470E+02 -0.18714073390E+02  0.48431416754E+02  0.00000000000E+00 0.  1.
         11    1    3    3    0    0 -0.34902309391E+02  0.26763982226E+02  0.12679651784E+02  0.45773961100E+02  0.00000000000E+00 0. -1.
         21    1    1    2  502  501 -0.31484831879E+02 -0.95720755479E+01  0.89390961339E+02  0.95255777977E+02  0.00000000000E+00 0. -1.
<scales pt_clust_5="13000.00000" pt_clust_6="13000.00000" pt_clust_7="13000.00000" pt_clust_8="13000.00000" pt_clust_9="32.90774"></scales>
<clustering>
<clus scale="   32.908">  1  9  2 -1</clus>
<clus scale="   80.551">  5  6 -1 -1</clus>
<clus scale="   82.126">  1  5  2 -1</clus>
<clus scale="   93.212">  7  8 -1 -1</clus>
<clus scale="   32.908">  1  5  2 -1</clus>
</clustering>
</event>
<event>
 9    1  0.2374319E-005  0.1053434E+03  0.7546771E-02  0.1272708E+00
         -2   -1    0    0    0  501 -0.00000000000E+00  0.00000000000E+00  0.12218020419E+03  0.12218020419E+03  0.00000000000E+00 0.  1.
          1   -1    0    0  502    0  0.00000000000E+00 -0.00000000000E+00 -0.18936696681E+03  0.18936696681E+03  0.00000000000E+00 0. -1.
        -24    2    1    2    0    0 -0.32900085576E+02 -0.51323738529E+02  0.75980057798E+02  0.12626326968E+03  0.80329959044E+02 0.  0.
         23    2    1    2    0    0  0.20746452531E+02  0.34939241045E+02 -0.11438465137E+03  0.15000535531E+03  0.88128271821E+02 0.  0.
         11    1    3    3    0    0  0.23549382327E+02 -0.27432632380E+02  0.13112334879E+02  0.38458497803E+02  0.00000000000E+00 0. -1.
        -12    1    3    3    0    0 -0.56449467902E+02 -0.23891106149E+02  0.62867722919E+02  0.87804771878E+02  0.00000000000E+00 0.  1.
        -11    1    4    4    0    0 -0.18502978155E+02  0.43553884956E+02 -0.28643703074E+02  0.55315122898E+02  0.00000000000E+00 0.  1.
         11    1    4    4    0    0  0.39249430687E+02 -0.86146439104E+01 -0.85740948299E+02  0.94690232412E+02  0.00000000000E+00 0. -1.
         21    1    1    2  502  501  0.12153633045E+02  0.16384497483E+02 -0.28782169043E+02  0.35278546013E+02  0.00000000000E+00 0.  1.
<scales pt_clust_5="13000.00000" pt_clust_6="13000.00000" pt_clust_7="13000.00000" pt_clust_8="13000.00000" pt_clust_9="20.40006"></scales>
<clustering>
<clus scale="   20.400">  2  9  1 -1</clus>
<clus scale="   80.330">  5  6 -1 -1</clus>
<clus scale="   88.128">  7  8 -1 -1</clus>
<clus scale="   98.912">  1  5  2 -1</clus>
<clus scale="   20.400">  2  5  1 -1</clus>
</clustering>
</event>
<event>
 9    1  0.2374319E-005  0.1025156E+03  0.7546771E-02  0.1279271E+00
          1   -1    0    0  502    0  0.00000000000E+00  0.00000000000E+00  0.16753401816E+03  0.16753401816E+03  0.00000000000E+00 0. -1.
         -2   -1    0    0    0  501 -0.00000000000E+00 -0.00000000000E+00 -0.19127161593E+03  0.19127161593E+03  0.00000000000E+00 0.  1.
         23    2    1    2    0    0  0.18337638585E+02  0.38554763118E+02 -0.12487018880E+03  0.15959992934E+03  0.89759872137E+02 0.  0.
        -24    2    1    2    0    0 -0.41008489265E+02 -0.82318356313E+02  0.73200460319E+02  0.14255393085E+03  0.80655488548E+02 0.  0.
         11    1    4    4    0    0  0.16514163611E+02 -0.56636062938E+02  0.40671319839E+02  0.71655547464E+02  0.00000000000E+00 0. -1.
        -12    1    4    4    0    0 -0.57522652875E+02 -0.25682293375E+02  0.32529140480E+02  0.70898383389E+02  0.00000000000E+00 0.  1.
        -11    1    3    3    0    0  0.44086427452E+02  0.12286501669E+02 -0.22855044134E+02  0.51155881882E+02  0.00000000000E+00 0. -1.
         11    1    3    3    0    0 -0.25748788866E+02  0.26268261448E+02 -0.10201514467E+03  0.10844404746E+03  0.00000000000E+00 0.  1.
         21    1    1    2  502  501  0.22670850680E+02  0.43763593195E+02  0.27932130708E+02  0.56651773897E+02  0.00000000000E+00 0.  1.
<scales pt_clust_5="13000.00000" pt_clust_6="13000.00000" pt_clust_7="13000.00000" pt_clust_8="13000.00000" pt_clust_9="49.28711"></scales>
<clustering>
<clus scale="   49.287">  1  9  2 -1</clus>
<clus scale="   80.655">  5  6 -1 -1</clus>
<clus scale="   89.760">  7  8 -1 -1</clus>
<clus scale="   94.646">  1  5  2 -1</clus>
<clus scale="   49.287">  1  5  2 -1</clus>
</clustering>
</event>
<event>
 9    1  0.2374319E-005  0.1328929E+03  0.7546771E-02  0.1232289E+00
          1   -1    0    0  502    0  0.00000000000E+00  0.00000000000E+00  0.78420189307E+03  0.78420189307E+03  0.00000000000E+00 0. -1.
         -2   -1    0    0    0  501 -0.00000000000E+00 -0.00000000000E+00 -0.49086379976E+02  0.49086379976E+02  0.00000000000E+00 0.  1.
        -24    2    1    2    0    0  0.59706055640E+02 -0.50528226427E+02  0.11670279751E+03  0.16046362075E+03  0.77531386497E+02 0.  0.
         23    2    1    2    0    0 -0.70463354228E+02 -0.67045144133E+02  0.43563825496E+03  0.45523393468E+03  0.89426564581E+02 0.  0.
         11    1    3    3    0    0  0.40126442401E+02 -0.29720074311E+02  0.12162008461E+03  0.13147189501E+03  0.00000000000E+00 0. -1.
        -12    1    3    3    0    0  0.19579613239E+02 -0.20808152115E+02 -0.49172871013E+01  0.28991725742E+02  0.00000000000E+00 0.  1.
        -11    1    4    4    0    0  0.66769178146E+00 -0.59998004927E+02  0.17661368999E+03  0.18652775101E+03  0.00000000000E+00 0.  1.
         11    1    4    4    0    0 -0.71131046009E+02 -0.70471392059E+01  0.25902456498E+03  0.26870618366E+03  0.00000000000E+00 0. -1.
         21    1    1    2  502  501  0.10757298588E+02  0.11757337056E+03  0.18277446062E+03  0.21759071762E+03  0.00000000000E+00 0. -1.
<scales pt_clust_5="13000.00000" pt_clust_6="13000.00000" pt_clust_7="13000.00000" pt_clust_8="13000.00000" pt_clust_9="98.30266"></scales>
<clustering>
<clus scale="   77.531">  5  6 -1 -1</clus>
<clus scale="   89.427">  7  8 -1 -1</clus>
<clus scale="  110.132">  2  5  1 -1</clus>
<clus scale="   98.303">  2  9  1 -1</clus>
<clus scale="  132.893">  1  5  2 -1</clus>
</clustering>
</event>
<event>
 9    1  0.2374319E-005  0.4038748E+03  0.7546771E-02  0.1066528E+00
          1   -1    0    0  502    0  0.00000000000E+00  0.00000000000E+00  0.23470997600E+04  0.23470997600E+04  0.00000000000E+00 0. -1.
         -2   -1    0    0    0  501 -0.00000000000E+00 -0.00000000000E+00 -0.12192449314E+03  0.12192449314E+03  0.00000000000E+00 0.  1.
        -24    2    1    2    0    0  0.24189307792E+03  0.24255862357E+03  0.10865066949E+04  0.11420575586E+04  0.80322612934E+02 0.  0.
         23    2    1    2    0    0  0.16299137597E+03 -0.80650174123E+02  0.60044562194E+03  0.63426927793E+03  0.93230535754E+02 0.  0.
         11    1    3    3    0    0  0.24106461739E+03  0.21315277712E+03  0.97458320856E+03  0.10263326393E+04  0.00000000000E+00 0. -1.
        -12    1    3    3    0    0  0.82846052885E+00  0.29405846442E+02  0.11192348629E+03  0.11572491925E+03  0.00000000000E+00 0.  1.
        -11    1    4    4    0    0  0.16937006377E+03 -0.55303064218E+02  0.52826361648E+03  0.55750075867E+03  0.00000000000E+00 0.  1.
         11    1    4    4    0    0 -0.63786878036E+01 -0.25347109905E+02  0.72182005451E+02  0.76768519261E+02  0.00000000000E+00 0. -1.
         21    1    1    2  502  501 -0.40488445389E+03 -0.16190844944E+03  0.53822295005E+03  0.69269741660E+03  0.00000000000E+00 0.  1.
<scales pt_clust_5="13000.00000" pt_clust_6="13000.00000" pt_clust_7="13000.00000" pt_clust_8="13000.00000" pt_clust_9="395.80689"></scales>
<clustering>
<clus scale="   80.323">  5  6 -1 -1</clus>
<clus scale="   93.231">  7  8 -1 -1</clus>
<clus scale="  204.359">  1  7  2 -1</clus>
<clus scale="  395.807">  2  9  1 -1</clus>
<clus scale="  204.359">  1  5  2 -1</clus>
</clustering>
</event>
<event>
 9    1  0.2374319E-005  0.1004917E+03  0.7546771E-02  0.1286524E+00
          1   -1    0    0  502    0  0.00000000000E+00  0.00000000000E+00  0.28399498172E+03  0.28399498172E+03  0.00000000000E+00 0. -1.
         -2   -1    0    0    0  501 -0.00000000000E+00 -0.00000000000E+00 -0.96349613976E+02  0.96349613976E+02  0.00000000000E+00 0.  1.
         23    2    1    2    0    0 -0.38079046007E+02 -0.17994176222E+02 -0.55549410257E+02  0.11550483648E+03  0.92096830275E+02 0.  0.
        -24    2    1    2    0    0  0.30226732685E+02 -0.16782963687E+01  0.20018595629E+03  0.21689788037E+03  0.77806178207E+02 0.  0.
         11    1    4    4    0    0  0.53600970468E+02  0.58564500849E+01  0.98544436810E+02  0.11233150969E+03  0.00000000000E+00 0. -1.
        -12    1    4    4    0    0 -0.23374237783E+02 -0.75347464535E+01  0.10164151948E+03  0.10456637068E+03  0.00000000000E+00 0.  1.
        -13    1    3    3    0    0 -0.61694541187E+02  0.38641524743E+01 -0.55873081970E+02  0.83324362437E+02  0.00000000000E+00 0.  1.
         13    1    3    3    0    0  0.23615495180E+02 -0.21858328697E+02  0.32367171282E+00  0.32180474039E+02  0.00000000000E+00 0. -1.
         21    1    1    2  502  501  0.78523133225E+01  0.19672472591E+02  0.43008821710E+02  0.47941878846E+02  0.00000000000E+00 0. -1.
<scales pt_clust_5="13000.00000" pt_clust_6="13000.00000" pt_clust_7="13000.00000" pt_clust_8="13000.00000" pt_clust_9="21.18171"></scales>
<clustering>
<clus scale="   21.182">  1  9  2 -1</clus>
<clus scale="   77.806">  5  6 -1 -1</clus>
<clus scale="   87.582">  1  5  2 -1</clus>
<clus scale="   92.097">  7  8 -1 -1</clus>
<clus scale="   21.182">  1  5  2 -1</clus>
</clustering>
</event>
<event>
 9    1  0.2374319E-005  0.2001902E+03  0.7546771E-02  0.1149977E+00
         -2   -1    0    0    0  501 -0.00000000000E+00  0.00000000000E+00  0.14397009901E+03  0.14397009901E+03  0.00000000000E+00 0.  1.
          1   -1    0    0  502    0  0.00000000000E+00 -0.00000000000E+00 -0.86504175100E+03  0.86504175100E+03  0.00000000000E+00 0. -1.
        -24    2    1    2    0    0  0.14931895681E+03  0.84667484051E+02  0.32684704316E+02  0.19481735476E+03  0.86143938269E+02 0.  0.
         23    2    1    2    0    0 -0.19868066891E+03 -0.11695438084E+03 -0.57830530534E+03  0.62909426939E+03  0.90389369969E+02 0.  0.
         11    1    3    3    0    0  0.63998788857E+02 -0.55784676666E+01 -0.65497603853E+01  0.64574481320E+02  0.00000000000E+00 0. -1.
        -12    1    3    3    0    0  0.85320167952E+02  0.90245951718E+02  0.39234464702E+02  0.13024287344E+03  0.00000000000E+00 0.  1.
        -13    1    4    4    0    0 -0.85400744544E+02 -0.33184590766E+02 -0.34121397145E+03  0.35330083292E+03  0.00000000000E+00 0. -1.
         13    1    4    4    0    0 -0.11327992436E+03 -0.83769790077E+02 -0.23709133389E+03  0.27579343647E+03  0.00000000000E+00 0.  1.
         21    1    1    2  502  501  0.49361712100E+02  0.32286896792E+02 -0.17545105097E+03  0.18510022586E+03  0.00000000000E+00 0.  1.
<scales pt_clust_5="13000.00000" pt_clust_6="13000.00000" pt_clust_7="13000.00000" pt_clust_8="13000.00000" pt_clust_9="58.98324"></scales>
<clustering>
<clus scale="   58.983">  2  9  1 -1</clus>
<clus scale="   86.144">  5  6 -1 -1</clus>
<clus scale="   90.389">  7  8 -1 -1</clus>
<clus scale="  198.310">  1  5  2 -1</clus>
<clus scale="   58.983">  2  5  1 -1</clus>
</clustering>
</event>
<event>
 9    1  0.2374319E-005  0.1117022E+03  0.7546771E-02  0.1262296E+00
         -2   -1    0    0    0  501 -0.00000000000E+00  0.00000000000E+00  0.21472474095E+03  0.21472474095E+03  0.00000000000E+00 0.  1.
          1   -1    0    0  502    0  0.00000000000E+00 -0.00000000000E+00 -0.70292190474E+02  0.70292190474E+02  0.00000000000E+00 0. -1.
        -24    2    1    2    0    0  0.39618560785E+02 -0.65419114979E+02  0.61758696596E+02  0.12672320114E+03  0.79970883061E+02 0.  0.
         23    2    1    2    0    0 -0.33647751707E+02  0.37099432088E+02  0.57272131177E+02  0.11978525698E+03  0.92519574815E+02 0.  0.
         11    1    3    3    0    0 -0.75470453083E+01 -0.24758092441E+02 -0.13377476110E+02  0.29135509285E+02  0.00000000000E+00 0. -1.
        -12    1    3    3    0    0  0.47165606093E+02 -0.40661022538E+02  0.75136172705E+02  0.97587691851E+02  0.00000000000E+00 0.  1.
        -13    1    4    4    0    0 -0.59442001589E+02 -0.16817418960E+00  0.37890238635E+02  0.70491488985E+02  0.00000000000E+00 0.  1.
         13    1    4    4    0    0  0.25794249882E+02  0.37267606278E+02  0.19381892542E+02  0.49293767995E+02  0.00000000000E+00 0. -1.
         21    1    1    2  502  501 -0.59708090779E+01  0.28319682891E+02  0.25401722700E+02  0.38508473304E+02  0.00000000000E+00 0. -1.
<scales pt_clust_5="13000.00000" pt_clust_6="13000.00000" pt_clust_7="13000.00000" pt_clust_8="13000.00000" pt_clust_9="28.94227"></scales>
<clustering>
<clus scale="   28.942">  1  9  2 -1</clus>
<clus scale="   79.971">  5  6 -1 -1</clus>
<clus scale="   92.520">  7  8 -1 -1</clus>
<clus scale="  101.552">  1  5  2 -1</clus>
<clus scale="  111.702">  2  5  1 -1</clus>
</clustering>
</event>
<event>
 9    1  0.2374319E-005  0.9420450E+02  0.7546771E-02  0.1299410E+00
          1   -1    0    0  502    0  0.00000000000E+00  0.00000000000E+00  0.33376683585E+03  0.33376683585E+03  0.00000000000E+00 0. -1.
         -2   -1    0    0    0  501 -0.00000000000E+00 -0.00000000000E+00 -0.47928807245E+02  0.47928807245E+02  0.00000000000E+00 0.  1.
         23    2    1    2    0    0 -0.17461366790E+02  0.27470346050E+02  0.22605018346E+02  0.97480831079E+02  0.89061811857E+02 0.  0.
        -24    2    1    2    0    0 -0.58095622981E+01 -0.30222030747E+02  0.21062647515E+03  0.22662526917E+03  0.77771321417E+02 0.  0.
         11    1    4    4    0    0 -0.22465884517E+02  0.69053383643E+01  0.17616833956E+02  0.29372648905E+02  0.00000000000E+00 0. -1.
        -12    1    4    4    0    0  0.16656322219E+02 -0.37127369111E+02  0.19300964119E+03  0.19725262026E+03  0.00000000000E+00 0.  1.
        -11    1    3    3    0    0  0.23280351969E+02 -0.21057892242E+02  0.57396765787E+01  0.31911651489E+02  0.00000000000E+00 0.  1.
         11    1    3    3    0    0 -0.40741718760E+02  0.48528238292E+02  0.16865341768E+02  0.65569179591E+02  0.00000000000E+00 0. -1.
         21    1    1    2  502  501  0.23270929089E+02  0.27516846967E+01  0.52606535117E+02  0.57589542856E+02  0.00000000000E+00 0.  1.
<scales pt_clust_5="13000.00000" pt_clust_6="13000.00000" pt_clust_7="13000.00000" pt_clust_8="13000.00000" pt_clust_9="23.43305"></scales>
<clustering>
<clus scale="   23.433">  1  9  2 -1</clus>
<clus scale="   77.771">  5  6 -1 -1</clus>
<clus scale="   83.611">  1  5  2 -1</clus>
<clus scale="   89.062">  7  8 -1 -1</clus>
<clus scale="   23.433">  1  5  2 -1</clus>
</clustering>
</event>
<event>
 9    1  0.2374319E-005  0.1458471E+03  0.7546771E-02  0.1209065E+00
          1   -1    0    0  502    0  0.00000000000E+00  0.00000000000E+00  0.27080370115E+03  0.27080370115E+03  0.00000000000E+00 0. -1.
         -2   -1    0    0    0  501 -0.00000000000E+00 -0.00000000000E+00 -0.27998012554E+03  0.27998012554E+03  0.00000000000E+00 0.  1.
         23    2    1    2    0    0  0.10642991152E+03  0.45071309720E+02 -0.17663802794E+03  0.23205181199E+03  0.96375834671E+02 0.  0.
        -24    2    1    2    0    0 -0.81430016043E+02 -0.56167371067E+02 -0.20415293050E+02  0.12887457969E+03  0.80039065553E+02 0.  0.
         13    1    4    4    0    0 -0.65352474749E+02 -0.28123231571E+02  0.22976957084E+02  0.74764982890E+02  0.00000000000E+00 0. -1.
        -14    1    4    4    0    0 -0.16077541294E+02 -0.28044139497E+02 -0.43392250134E+02  0.54109596800E+02  0.00000000000E+00 0.  1.
        -13    1    3    3    0    0  0.20264037531E+02 -0.24011559776E+02 -0.11645475611E+02  0.33508257522E+02  0.00000000000E+00 0.  1.
         13    1    3    3    0    0  0.86165873987E+02  0.69082869496E+02 -0.16499255233E+03  0.19854355447E+03  0.00000000000E+00 0. -1.
         21    1    1    2  502  501 -0.24999895475E+02  0.11096061348E+02  0.18787689660E+03  0.18985743501E+03  0.00000000000E+00 0. -1.
<scales pt_clust_5="13000.00000" pt_clust_6="13000.00000" pt_clust_7="13000.00000" pt_clust_8="13000.00000" pt_clust_9="27.35173"></scales>
<clustering>
<clus scale="   27.352">  1  9  2 -1</clus>
<clus scale="   80.039">  5  6 -1 -1</clus>
<clus scale="   96.376">  7  8 -1 -1</clus>
<clus scale="  135.607">  1  5  2 -1</clus>
<clus scale="   27.352">  1  5  2 -1</clus>
</clustering>
</event>
<event>
 9    1  0.2374319E-005  0.1111871E+03  0.7546771E-02  0.1266736E+00
          1   -1    0    0  502    0  0.00000000000E+00  0.00000000000E+00  0.18295590305E+03  0.18295590305E+03  0.00000000000E+00 0. -1.
         -2   -1    0    0    0  501 -0.00000000000E+00 -0.00000000000E+00 -0.12303110571E+03  0.12303110571E+03  0.00000000000E+00 0.  1.
        -24    2    1    2    0    0 -0.57055700102E+02 -0.29914092796E+02 -0.67778553883E+02  0.11771086525E+03  0.71496220667E+02 0.  0.
         23    2    1    2    0    0  0.52401854288E+02 -0.53104992549E-01  0.11078312851E+03  0.15354884646E+03  0.92511564320E+02 0.  0.
         13    1    3    3    0    0 -0.51336055311E+02 -0.36360659893E+02 -0.15584673648E+02  0.64810263195E+02  0.00000000000E+00 0. -1.
        -14    1    3    3    0    0 -0.57196447911E+01  0.64465670972E+01 -0.52193880234E+02  0.52900602055E+02  0.00000000000E+00 0.  1.
        -13    1    4    4    0    0  0.65256694852E+02 -0.23668317480E+02  0.10527850499E+03  0.12610388213E+03  0.00000000000E+00 0.  1.
         13    1    4    4    0    0 -0.12854840564E+02  0.23615212487E+02  0.55046235171E+01  0.27444964325E+02  0.00000000000E+00 0. -1.
         21    1    1    2  502  501  0.46538458143E+01  0.29967197788E+02  0.16920222717E+02  0.34727297057E+02  0.00000000000E+00 0.  1.
<scales pt_clust_5="13000.00000" pt_clust_6="13000.00000" pt_clust_7="13000.00000" pt_clust_8="13000.00000" pt_clust_9="30.32641"></scales>
<clustering>
<clus scale="   30.326">  1  9  2 -1</clus>
<clus scale="   71.496">  5  6 -1 -1</clus>
<clus scale="   92.512">  7  8 -1 -1</clus>
<clus scale="   94.424">  2  5  1 -1</clus>
<clus scale="   30.326">  1  5  2 -1</clus>
</clustering>
</event>
<event>
 9    1  0.2374319E-005  0.1409796E+03  0.7546771E-02  0.1219889E+00
          1   -1    0    0  502    0  0.00000000000E+00  0.00000000000E+00  0.55628293621E+03  0.55628293621E+03  0.00000000000E+00 0. -1.
         -2   -1    0    0    0  501 -0.00000000000E+00 -0.00000000000E+00 -0.80393123944E+02  0.80393123944E+02  0.00000000000E+00 0.  1.
        -24    2    1    2    0    0  0.11399640501E+02 -0.87873422569E+02  0.38444301423E+02  0.12540541430E+03  0.79980394014E+02 0.  0.
         23    2    1    2    0    0  0.10018229956E+03  0.41919091176E+02  0.20259559672E+03  0.24723123197E+03  0.91019793995E+02 0.  0.
         11    1    3    3    0    0 -0.30255421662E+02 -0.58404812943E+02  0.34379024775E+02  0.74218798558E+02  0.00000000000E+00 0. -1.
        -12    1    3    3    0    0  0.41655062163E+02 -0.29468609626E+02  0.40652766482E+01  0.51186615744E+02  0.00000000000E+00 0.  1.
        -11    1    4    4    0    0  0.52527289005E+02  0.17995746158E+02  0.23371097862E+02  0.60242602744E+02  0.00000000000E+00 0.  1.
         11    1    4    4    0    0  0.47655010556E+02  0.23923345019E+02  0.17922449886E+03  0.18698862922E+03  0.00000000000E+00 0. -1.
         21    1    1    2  502  501 -0.11158194006E+03  0.45954331393E+02  0.23484991412E+03  0.26403941389E+03  0.00000000000E+00 0. -1.
<scales pt_clust_5="13000.00000" pt_clust_6="13000.00000" pt_clust_7="13000.00000" pt_clust_8="13000.00000" pt_clust_9="107.65991"></scales>
<clustering>
<clus scale="   79.980">  5  6 -1 -1</clus>
<clus scale="   91.020">  7  8 -1 -1</clus>
<clus scale="  119.367">  2  5  1 -1</clus>
<clus scale="  107.660">  1  9  2 -1</clus>
<clus scale="  107.660">  1  5  2 -1</clus>
</clustering>
</event>
<event>
 9    1  0.2374319E-005  0.1210803E+03  0.7546771E-02  0.1245720E+00
          1   -1    0    0  502    0  0.00000000000E+00  0.00000000000E+00  0.23582672894E+03  0.23582672894E+03  0.00000000000E+00 0. -1.
         -2   -1    0    0    0  501 -0.00000000000E+00 -0.00000000000E+00 -0.11861404687E+03  0.11861404687E+03  0.00000000000E+00 0.  1.
         23    2    1    2    0    0 -0.56084224629E+02  0.80967048439E+02 -0.31816595284E+02  0.13910328273E+03  0.92931826331E+02 0.  0.
        -24    2    1    2    0    0  0.24528419553E+02 -0.69630144595E+02  0.14594469715E+03  0.18166541477E+03  0.79072548315E+02 0.  0.
         13    1    4    4    0    0  0.26258317351E+02 -0.64291840405E+02  0.50042106832E+02  0.85598787544E+02  0.00000000000E+00 0. -1.
        -14    1    4    4    0    0 -0.17298977981E+01 -0.53383041900E+01  0.95902590315E+02  0.96066627229E+02  0.00000000000E+00 0.  1.
        -13    1    3    3    0    0 -0.21798199259E+02 -0.15173386353E+02  0.10564542729E+02  0.28583259217E+02  0.00000000000E+00 0.  1.
         13    1    3    3    0    0 -0.34286025370E+02  0.96140434793E+02 -0.42381138013E+02  0.11052002351E+03  0.00000000000E+00 0. -1.
         21    1    1    2  502  501  0.31555805076E+02 -0.11336903844E+02  0.30845801998E+01  0.33672078311E+02  0.00000000000E+00 0. -1.
<scales pt_clust_5="13000.00000" pt_clust_6="13000.00000" pt_clust_7="13000.00000" pt_clust_8="13000.00000" pt_clust_9="33.53050"></scales>
<clustering>
<clus scale="   33.530">  2  9  1 -1</clus>
<clus scale="   79.073">  5  6 -1 -1</clus>
<clus scale="   92.932">  7  8 -1 -1</clus>
<clus scale="  110.800">  1  5  2 -1</clus>
<clus scale="  110.800">  1  5  2 -1</clus>
</clustering>
</event>
<event>
 9    1  0.2374319E-005  0.1004290E+03  0.7546771E-02  0.1283396E+00
         -2   -1    0    0    0  501 -0.00000000000E+00  0.00000000000E+00  0.11065420433E+03  0.11065420433E+03  0.00000000000E+00 0.  1.
          1   -1    0    0  502    0  0.00000000000E+00 -0.00000000000E+00 -0.23674103859E+03  0.23674103859E+03  0.00000000000E+00 0. -1.
         23    2    1    2    0    0 -0.20773330851E+02  0.37486921195E+02  0.59546768011E+02  0.11853933316E+03  0.93107225228E+02 0.  0.
        -24    2    1    2    0    0  0.13764396520E+02 -0.16374457505E+02 -0.73354269390E+02  0.11439408261E+03  0.85132695413E+02 0.  0.
         11    1    4    4    0    0 -0.31059306155E+02 -0.25078030361E+02 -0.47031723548E+02  0.61689311274E+02  0.00000000000E+00 0. -1.
        -12    1    4    4    0    0  0.44823702674E+02  0.87035728566E+01 -0.26322545842E+02  0.52704771336E+02  0.00000000000E+00 0.  1.
        -13    1    3    3    0    0 -0.40428956279E+02  0.53998886095E+02  0.63408411140E+02  0.92579732169E+02  0.00000000000E+00 0.  1.
         13    1    3    3    0    0  0.19655625428E+02 -0.16511964900E+02 -0.38616431285E+01  0.25959600989E+02  0.00000000000E+00 0. -1.
         21    1    1    2  502  501  0.70089343309E+01 -0.21112463690E+02 -0.11227933288E+03  0.11446182716E+03  0.00000000000E+00 0. -1.
<scales pt_clust_5="13000.00000" pt_clust_6="13000.00000" pt_clust_7="13000.00000" pt_clust_8="13000.00000" pt_clust_9="22.24548"></scales>
<clustering>
<clus scale="   22.245">  2  9  1 -1</clus>
<clus scale="   85.133">  5  6 -1 -1</clus>
<clus scale="   93.084">  2  5  1 -1</clus>
<clus scale="   93.107">  7  8 -1 -1</clus>
<clus scale="   22.245">  2  5  1 -1</clus>
</clustering>
</event>
<event>
 9    1  0.2374319E-005  0.1036250E+03  0.7546771E-02  0.1280126E+00
          1   -1    0    0  502    0  0.00000000000E+00  0.00000000000E+00  0.99435155010E+02  0.99435155010E+02  0.00000000000E+00 0. -1.
         -2   -1    0    0    0  501 -0.00000000000E+00 -0.00000000000E+00 -0.32994854027E+03  0.32994854027E+03  0.00000000000E+00 0.  1.
        -24    2    1    2    0    0  0.20969807567E+02  0.43763523340E+02 -0.25914323456E+03  0.27477224379E+03  0.77392448845E+02 0.  0.
         23    2    1    2    0    0 -0.34739855807E+02 -0.19736179871E+02 -0.15856732139E+02  0.10220931995E+03  0.92730441349E+02 0.  0.
         11    1    3    3    0    0  0.20212482790E+02 -0.16889396859E+02 -0.12203945024E+03  0.12484960393E+03  0.00000000000E+00 0. -1.
        -12    1    3    3    0    0  0.75732477692E+00  0.60652920199E+02 -0.13710378432E+03  0.14992263986E+03  0.00000000000E+00 0.  1.
        -11    1    4    4    0    0 -0.36059672039E+02  0.16540735787E+02 -0.41770555363E+02  0.57607943751E+02  0.00000000000E+00 0.  1.
         11    1    4    4    0    0  0.13198162324E+01 -0.36276915658E+02  0.25913823224E+02  0.44601376197E+02  0.00000000000E+00 0. -1.
         21    1    1    2  502  501  0.13770048240E+02 -0.24027343470E+02  0.44486581432E+02  0.52402131542E+02  0.00000000000E+00 0. -1.
<scales pt_clust_5="13000.00000" pt_clust_6="13000.00000" pt_clust_7="13000.00000" pt_clust_8="13000.00000" pt_clust_9="27.69346"></scales>
<clustering>
<clus scale="   27.693">  1  9  2 -1</clus>
<clus scale="   77.392">  5  6 -1 -1</clus>
<clus scale="   90.160">  2  5  1 -1</clus>
<clus scale="   92.730">  7  8 -1 -1</clus>
<clus scale="   27.693">  1  5  2 -1</clus>
</clustering>
</event>
<event>
 9    1  0.2374319E-005  0.1507195E+03  0.7546771E-02  0.1201735E+00
          1   -1    0    0  502    0  0.00000000000E+00  0.00000000000E+00  0.75037426572E+03  0.75037426572E+03  0.00000000000E+00 0. -1.
         -2   -1    0    0    0  501 -0.00000000000E+00 -0.00000000000E+00 -0.62073863621E+02  0.62073863621E+02  0.00000000000E+00 0.  1.
         23    2    1    2    0    0 -0.54965802774E+02  0.10777484491E+03  0.73976762762E+02  0.16893317948E+03  0.91810680364E+02 0.  0.
        -24    2    1    2    0    0  0.87289785960E+02 -0.82390681180E+02  0.39863064250E+03  0.42394112506E+03  0.80074698203E+02 0.  0.
         13    1    4    4    0    0  0.55103347128E+02 -0.94066060055E+02  0.28020416120E+03  0.30066455473E+03  0.00000000000E+00 0. -1.
        -14    1    4    4    0    0  0.32186438831E+02  0.11675378875E+02  0.11842648130E+03  0.12327657032E+03  0.00000000000E+00 0.  1.
        -11    1    3    3    0    0 -0.49390394224E+02  0.43778290693E+02 -0.60919297720E+01  0.66280173400E+02  0.00000000000E+00 0.  1.
         11    1    3    3    0    0 -0.55754085499E+01  0.63996554221E+02  0.80068692534E+02  0.10265300608E+03  0.00000000000E+00 0. -1.
         21    1    1    2  502  501 -0.32323983186E+02 -0.25384163734E+02  0.21569299683E+03  0.21957382480E+03  0.00000000000E+00 0. -1.
<scales pt_clust_5="13000.00000" pt_clust_6="13000.00000" pt_clust_7="13000.00000" pt_clust_8="13000.00000" pt_clust_9="41.09983"></scales>
<clustering>
<clus scale="   41.100">  1  9  2 -1</clus>
<clus scale="   80.075">  5  6 -1 -1</clus>
<clus scale="   91.811">  7  8 -1 -1</clus>
<clus scale="  143.872">  1  5  2 -1</clus>
<clus scale="   41.100">  1  5  2 -1</clus>
</clustering>
</event>
<event>
 9    1  0.2374319E-005  0.1217080E+03  0.7546771E-02  0.1244966E+00
         -2   -1    0    0    0  501 -0.00000000000E+00  0.00000000000E+00  0.45310207223E+03  0.45310207223E+03  0.00000000000E+00 0.  1.
          1   -1    0    0  502    0  0.00000000000E+00 -0.00000000000E+00 -0.45177583285E+02  0.45177583285E+02  0.00000000000E+00 0. -1.
        -24    2    1    2    0    0  0.78803994820E+02 -0.58435636537E+02  0.21433812701E+03  0.24897306656E+03  0.80137144720E+02 0.  0.
         23    2    1    2    0    0 -0.49333566140E+02  0.40854536077E+02  0.10871788668E+03  0.15776283247E+03  0.94692336322E+02 0.  0.
         13    1    3    3    0    0  0.67658776532E+02 -0.53099609397E+02  0.91732363105E+02  0.12574619279E+03  0.00000000000E+00 0. -1.
        -14    1    3    3    0    0  0.11145218288E+02 -0.53360271399E+01  0.12260576390E+03  0.12322687377E+03  0.00000000000E+00 0.  1.
        -11    1    4    4    0    0 -0.37991239458E+02 -0.10164125961E+02  0.96332758608E+02  0.10405116104E+03  0.00000000000E+00 0. -1.
         11    1    4    4    0    0 -0.11342326681E+02  0.51018662038E+02  0.12385128073E+02  0.53711671432E+02  0.00000000000E+00 0.  1.
         21    1    1    2  502  501 -0.29470428680E+02  0.17581100460E+02  0.84868475259E+02  0.91543756493E+02  0.00000000000E+00 0. -1.
<scales pt_clust_5="13000.00000" pt_clust_6="13000.00000" pt_clust_7="13000.00000" pt_clust_8="13000.00000" pt_clust_9="34.31620"></scales>
<clustering>
<clus scale="   34.316">  1  9  2 -1</clus>
<clus scale="   80.137">  5  6 -1 -1</clus>
<clus scale="   94.692">  7  8 -1 -1</clus>
<clus scale="  110.762">  1  5  2 -1</clus>
<clus scale="  121.708">  2  5  1 -1</clus>
</clustering>
</event>
<event>
 9    1  0.2374319E-005  0.1555658E+03  0.7546771E-02  0.1196167E+00
         -2   -1    0    0    0  501 -0.00000000000E+00  0.00000000000E+00  0.15737267627E+03  0.15737267627E+03  0.00000000000E+00 0.  1.
          1   -1    0    0  502    0  0.00000000000E+00 -0.00000000000E+00 -0.83685077606E+03  0.83685077606E+03  0.00000000000E+00 0. -1.
         23    2    1    2    0    0 -0.53400051092E+02 -0.11176064655E+03  0.10298556884E+03  0.18594417575E+03  0.92882730016E+02 0.  0.
        -24    2    1    2    0    0  0.89220401574E+02  0.11275040689E+03 -0.68689357424E+03  0.70621204347E+03  0.78991985000E+02 0.  0.
         11    1    4    4    0    0  0.95013832718E+02  0.10748701838E+03 -0.52849982501E+03  0.54762501090E+03  0.00000000000E+00 0. -1.
        -12    1    4    4    0    0 -0.57934311444E+01  0.52633885100E+01 -0.15839374923E+03  0.15858703257E+03  0.00000000000E+00 0.  1.
        -11    1    3    3    0    0 -0.46336105726E+02 -0.66491294862E+01  0.48245733823E+02  0.67222737588E+02  0.00000000000E+00 0. -1.
         11    1    3    3    0    0 -0.70639453659E+01 -0.10511151706E+03  0.54739835014E+02  0.11872143817E+03  0.00000000000E+00 0.  1.
         21    1    1    2  502  501 -0.35820350482E+02 -0.98976034269E+00 -0.95570094384E+02  0.10206723311E+03  0.00000000000E+00 0. -1.
<scales pt_clust_5="13000.00000" pt_clust_6="13000.00000" pt_clust_7="13000.00000" pt_clust_8="13000.00000" pt_clust_9="35.83402"></scales>
<clustering>
<clus scale="   35.834">  2  9  1 -1</clus>
<clus scale="   78.992">  5  6 -1 -1</clus>
<clus scale="   92.883">  7  8 -1 -1</clus>
<clus scale="  147.693">  2  5  1 -1</clus>
<clus scale="   35.834">  2  5  1 -1</clus>
</clustering>
</event>
<event>
 9    1  0.2374319E-005  0.1743722E+03  0.7546771E-02  0.1174977E+00
          1   -1    0    0  502    0  0.00000000000E+00  0.00000000000E+00  0.38507820112E+03  0.38507820112E+03  0.00000000000E+00 0. -1.
         -2   -1    0    0    0  501 -0.00000000000E+00 -0.00000000000E+00 -0.10353943846E+03  0.10353943846E+03  0.00000000000E+00 0.  1.
         23    2    1    2    0    0 -0.15687048238E+03 -0.35879311127E+02  0.62934800257E+02  0.19516017138E+03  0.90725025227E+02 0.  0.
        -24    2    1    2    0    0  0.12611435147E+03  0.42999377391E+02  0.13869700604E+03  0.20754031853E+03  0.77989410980E+02 0.  0.
         13    1    4    4    0    0  0.42808788407E+02 -0.20320992508E+02  0.60824564570E+02  0.77104881535E+02  0.00000000000E+00 0. -1.
        -14    1    4    4    0    0  0.83305563068E+02  0.63320369900E+02  0.77872441474E+02  0.13043543699E+03  0.00000000000E+00 0.  1.
        -13    1    3    3    0    0 -0.23076720203E+02 -0.44331841274E+02  0.96681733459E+01  0.50905016864E+02  0.00000000000E+00 0.  1.
         13    1    3    3    0    0 -0.13379376217E+03  0.84525301474E+01  0.53266626911E+02  0.14425515452E+03  0.00000000000E+00 0. -1.
         21    1    1    2  502  501  0.30756130901E+02 -0.71200662644E+01  0.79906956367E+02  0.85917149671E+02  0.00000000000E+00 0. -1.
<scales pt_clust_5="13000.00000" pt_clust_6="13000.00000" pt_clust_7="13000.00000" pt_clust_8="13000.00000" pt_clust_9="31.56953"></scales>
<clustering>
<clus scale="   31.570">  1  9  2 -1</clus>
<clus scale="   77.989">  5  6 -1 -1</clus>
<clus scale="   90.725">  7  8 -1 -1</clus>
<clus scale="  168.098">  1  5  2 -1</clus>
<clus scale="   31.570">  1  5  2 -1</clus>
</clustering>
</event>
<event>
 9    1  0.2374319E-005  0.1050961E+03  0.7546771E-02  0.1276060E+00
          1   -1    0    0  502    0  0.00000000000E+00  0.00000000000E+00  0.51224032569E+03  0.51224032569E+03  0.00000000000E+00 0. -1.
         -2   -1    0    0    0  501 -0.00000000000E+00 -0.00000000000E+00 -0.11376191476E+03  0.11376191476E+03  0.00000000000E+00 0.  1.
         23    2    1    2    0    0  0.10472987948E+01 -0.17641220462E+01 -0.73147631094E+02  0.11590127802E+03  0.89879482370E+02 0.  0.
        -24    2    1    2    0    0 -0.26908565784E+02  0.50636230591E+02  0.43130982652E+03  0.44167081295E+03  0.75873854538E+02 0.  0.
         11    1    4    4    0    0  0.70007552004E+01  0.49959901761E+02  0.14851223902E+03  0.15684670063E+03  0.00000000000E+00 0. -1.
        -12    1    4    4    0    0 -0.33909320985E+02  0.67632883027E+00  0.28279758750E+03  0.28482411233E+03  0.00000000000E+00 0.  1.
        -13    1    3    3    0    0 -0.37420351161E+02  0.15760766441E+02 -0.13491499075E+02  0.42786738449E+02  0.00000000000E+00 0. -1.
         13    1    3    3    0    0  0.38467649956E+02 -0.17524888487E+02 -0.59656132018E+02  0.73114539573E+02  0.00000000000E+00 0.  1.
         21    1    1    2  502  501  0.25861266990E+02 -0.48872108545E+02  0.40316215511E+02  0.68430149475E+02  0.00000000000E+00 0.  1.
<scales pt_clust_5="13000.00000" pt_clust_6="13000.00000" pt_clust_7="13000.00000" pt_clust_8="13000.00000" pt_clust_9="55.29275"></scales>
<clustering>
<clus scale="   55.293">  2  9  1 -1</clus>
<clus scale="   75.874">  5  6 -1 -1</clus>
<clus scale="   89.879">  7  8 -1 -1</clus>
<clus scale="   93.401">  1  5  2 -1</clus>
<clus scale="   93.401">  1  5  2 -1</clus>
</clustering>
</event>
<event>
 9    1  0.2374319E-005  0.9683417E+02  0.7546771E-02  0.1291165E+00
         -2   -1    0    0    0  501 -0.00000000000E+00  0.00000000000E+00  0.26414183704E+03  0.26414183704E+03  0.00000000000E+00 0.  1.
          1   -1    0    0  502    0  0.00000000000E+00 -0.00000000000E+00 -0.12737505138E+03  0.12737505138E+03  0.00000000000E+00 0. -1.
        -24    2    1    2    0    0  0.40473383540E+02 -0.60019712541E+01  0.22351881459E+03  0.24094079574E+03  0.80110474609E+02 0.  0.
         23    2    1    2    0    0 -0.37727533416E+02 -0.14565403655E+02 -0.51552595631E+02  0.10971588333E+03  0.88002199846E+02 0.  0.
         13    1    3    3    0    0 -0.15617981000E+02 -0.16836843755E+02  0.12470007674E+03  0.12679712054E+03  0.00000000000E+00 0. -1.
        -14    1    3    3    0    0  0.56091364539E+02  0.10834872501E+02  0.98818737849E+02  0.11414367520E+03  0.00000000000E+00 0.  1.
        -13    1    4    4    0    0 -0.42139789832E+01 -0.33274444222E+02  0.11874034157E+02  0.35580035755E+02  0.00000000000E+00 0.  1.
         13    1    4    4    0    0 -0.33513554433E+02  0.18709040567E+02 -0.63426629788E+02  0.74135847577E+02  0.00000000000E+00 0. -1.
         21    1    1    2  502  501 -0.27458501239E+01  0.20567374909E+02 -0.35199433298E+02  0.40860209349E+02  0.00000000000E+00 0. -1.
<scales pt_clust_5="13000.00000" pt_clust_6="13000.00000" pt_clust_7="13000.00000" pt_clust_8="13000.00000" pt_clust_9="20.74986"></scales>
<clustering>
<clus scale="   20.750">  2  9  1 -1</clus>
<clus scale="   80.110">  5  6 -1 -1</clus>
<clus scale="   88.002">  7  8 -1 -1</clus>
<clus scale="   89.723">  1  5  2 -1</clus>
<clus scale="   20.750">  2  5  1 -1</clus>
</clustering>
</event>
<event>
 9    1  0.2374319E-005  0.9614128E+02  0.7546771E-02  0.1289356E+00
          1   -1    0    0  502    0  0.00000000000E+00  0.00000000000E+00  0.48531994949E+03  0.48531994949E+03  0.00000000000E+00 0. -1.
         -2   -1    0    0    0  501 -0.00000000000E+00 -0.00000000000E+00 -0.74731755219E+02  0.74731755219E+02  0.00000000000E+00 0.  1.
        -24    2    1    2    0    0  0.33875516240E+02  0.35317628725E+02  0.48659088485E+02  0.10672543496E+03  0.81410847412E+02 0.  0.
         23    2    1    2    0    0  0.42334054151E+02  0.21124363588E+02  0.34082337457E+03  0.35617150143E+03  0.91973664165E+02 0.  0.
         11    1    3    3    0    0  0.57252275089E+02  0.13109618591E+02  0.45559858642E+02  0.74332939011E+02  0.00000000000E+00 0. -1.
        -12    1    3    3    0    0 -0.23376758848E+02  0.22208010134E+02  0.30992298428E+01  0.32392495952E+02  0.00000000000E+00 0.  1.
        -11    1    4    4    0    0 -0.27884031187E+02  0.17623412658E+02  0.10045051845E+03  0.10572800256E+03  0.00000000000E+00 0.  1.
         11    1    4    4    0    0  0.70218085337E+02  0.35009509294E+01  0.24037285612E+03  0.25044349887E+03  0.00000000000E+00 0. -1.
         21    1    1    2  502  501 -0.76209570391E+02 -0.56441992313E+02  0.21105731208E+02  0.97154768310E+02  0.00000000000E+00 0.  1.
<scales pt_clust_5="13000.00000" pt_clust_6="13000.00000" pt_clust_7="13000.00000" pt_clust_8="13000.00000" pt_clust_9="94.83458"></scales>
<clustering>
<clus scale="   81.411">  5  6 -1 -1</clus>
<clus scale="   91.974">  7  8 -1 -1</clus>
<clus scale="   94.835">  2  9  1 -1</clus>
<clus scale="   94.835">  2  5  1 -1</clus>
<clus scale="   96.141">  1  5  2 -1</clus>
</clustering>
</event>
<event>
 9    1  0.2374319E-005  0.1153605E+03  0.7546771E-02  0.1254860E+00
         -2   -1    0    0    0  501 -0.00000000000E+00  0.00000000000E+00  0.33033760689E+02  0.33033760689E+02  0.00000000000E+00 0.  1.
          1   -1    0    0  502    0  0.00000000000E+00 -0.00000000000E+00 -0.87434391221E+03  0.87434391221E+03  0.00000000000E+00 0. -1.
         23    2    1    2    0    0 -0.55507870360E+02 -0.67096699465E+02 -0.13050003254E+03  0.18119576889E+03  0.90656259680E+02 0.  0.
        -24    2    1    2    0    0  0.36666976305E+01  0.37841880614E+02 -0.38041680276E+03  0.39046908773E+03  0.79395919580E+02 0.  0.
         13    1    4    4    0    0 -0.30348680651E+02  0.41531492553E+02 -0.27060283816E+03  0.27544836778E+03  0.00000000000E+00 0. -1.
        -14    1    4    4    0    0  0.34015378281E+02 -0.36896119390E+01 -0.10981396460E+03  0.11502071995E+03  0.00000000000E+00 0.  1.
        -11    1    3    3    0    0 -0.60276164985E+02 -0.33724518099E+02 -0.30201701815E+02  0.75383698363E+02  0.00000000000E+00 0.  1.
         11    1    3    3    0    0  0.47682946252E+01 -0.33372181366E+02 -0.10029833073E+03  0.10581207053E+03  0.00000000000E+00 0. -1.
         21    1    1    2  502  501  0.51841172729E+02  0.29254818851E+02 -0.33039331622E+03  0.33571281629E+03  0.00000000000E+00 0. -1.
<scales pt_clust_5="13000.00000" pt_clust_6="13000.00000" pt_clust_7="13000.00000" pt_clust_8="13000.00000" pt_clust_9="59.52606"></scales>
<clustering>
<clus scale="   59.526">  2  9  1 -1</clus>
<clus scale="   79.396">  5  6 -1 -1</clus>
<clus scale="   90.656">  7  8 -1 -1</clus>
<clus scale="  106.739">  2  5  1 -1</clus>
<clus scale="   59.526">  2  5  1 -1</clus>
</clustering>
</event>
<event>
 9    1  0.2374319E-005  0.1359191E+03  0.7546771E-02  0.1221289E+00
         -2   -1    0    0    0  501 -0.00000000000E+00  0.00000000000E+00  0.12164718294E+03  0.12164718294E+03  0.00000000000E+00 0.  1.
          1   -1    0    0  502    0  0.00000000000E+00 -0.00000000000E+00 -0.39286816760E+03  0.39286816760E+03  0.00000000000E+00 0. -1.
        -24    2    1    2    0    0 -0.71758062105E+02 -0.75341351714E+02  0.61106119769E+02  0.14510551181E+03  0.80598467287E+02 0.  0.
         23    2    1    2    0    0  0.40731401183E+02  0.70863054926E+02 -0.30210975600E+03  0.32586908798E+03  0.90773003896E+02 0.  0.
         11    1    3    3    0    0 -0.25751634269E+02  0.12364217331E+02 -0.31199967232E+00  0.28567776979E+02  0.00000000000E+00 0. -1.
        -12    1    3    3    0    0 -0.46006427837E+02 -0.87705569045E+02  0.61418119441E+02  0.11653773483E+03  0.00000000000E+00 0.  1.
        -11    1    4    4    0    0 -0.22721515363E+02 -0.39428738318E+01 -0.75400529917E+02  0.78848293743E+02  0.00000000000E+00 0.  1.
         11    1    4    4    0    0  0.63452916545E+02  0.74805928758E+02 -0.22670922609E+03  0.24702079424E+03  0.00000000000E+00 0. -1.
         21    1    1    2  502  501  0.31026660923E+02  0.44782967877E+01 -0.30217348421E+02  0.43540750748E+02  0.00000000000E+00 0. -1.
<scales pt_clust_5="13000.00000" pt_clust_6="13000.00000" pt_clust_7="13000.00000" pt_clust_8="13000.00000" pt_clust_9="31.34819"></scales>
<clustering>
<clus scale="   31.348">  2  9  1 -1</clus>
<clus scale="   80.598">  5  6 -1 -1</clus>
<clus scale="   90.773">  7  8 -1 -1</clus>
<clus scale="  129.346">  1  5  2 -1</clus>
<clus scale="   31.348">  2  5  1 -1</clus>
</clustering>
</event>
<event>
 9    1  0.2374319E-005  0.9694153E+02  0.7546771E-02  0.1292386E+00
          1   -1    0    0  502    0  0.00000000000E+00  0.00000000000E+00  0.43196431511E+03  0.43196431511E+03  0.00000000000E+00 0. -1.
         -2   -1    0    0    0  501 -0.00000000000E+00 -0.00000000000E+00 -0.40654642181E+02  0.40654642181E+02  0.00000000000E+00 0.  1.
        -24    2    1    2    0    0  0.34920000803E+02  0.46578689151E+01  0.38481064856E+02  0.96456101354E+02  0.81128816934E+02 0.  0.
         23    2    1    2    0    0 -0.21916255420E+02  0.24126746803E+02  0.29107582445E+03  0.30680106688E+03  0.91319969865E+02 0.  0.
         11    1    3    3    0    0 -0.22584446597E+02  0.63934752297E+01  0.30328985599E+02  0.38350764282E+02  0.00000000000E+00 0. -1.
        -12    1    3    3    0    0  0.57504447400E+02 -0.17356063146E+01  0.81520792578E+01  0.58105337072E+02  0.00000000000E+00 0.  1.
        -13    1    4    4    0    0 -0.54821114530E+02 -0.10892959627E+01  0.14757926872E+03  0.15743627829E+03  0.00000000000E+00 0. -1.
         13    1    4    4    0    0  0.32904859110E+02  0.25216042765E+02  0.14349655572E+03  0.14936478859E+03  0.00000000000E+00 0.  1.
         21    1    1    2  502  501 -0.13003745383E+02 -0.28784615718E+02  0.61752783626E+02  0.69361789060E+02  0.00000000000E+00 0.  1.
<scales pt_clust_5="13000.00000" pt_clust_6="13000.00000" pt_clust_7="13000.00000" pt_clust_8="13000.00000" pt_clust_9="31.58562"></scales>
<clustering>
<clus scale="   31.586">  1  9  2 -1</clus>
<clus scale="   81.129">  5  6 -1 -1</clus>
<clus scale="   87.408">  2  5  1 -1</clus>
<clus scale="   91.320">  7  8 -1 -1</clus>
<clus scale="   31.586">  1  5  2 -1</clus>
</clustering>
</event>
<event>
 9    1  0.2374319E-005  0.1518464E+03  0.7546771E-02  0.1225078E+00
          1   -1    0    0  502    0  0.00000000000E+00  0.00000000000E+00  0.12129911987E+03  0.12129911987E+03  0.00000000000E+00 0. -1.
         -2   -1    0    0    0  501 -0.00000000000E+00 -0.00000000000E+00 -0.38762772693E+03  0.38762772693E+03  0.00000000000E+00 0.  1.
        -24    2    1    2    0    0  0.27606205990E+02 -0.46141102517E+01 -0.19878548720E+03  0.21647506121E+03  0.81008577201E+02 0.  0.
         23    2    1    2    0    0 -0.10686489854E+03  0.86166445699E+02 -0.68271839142E+02  0.17872731684E+03  0.91856664751E+02 0.  0.
         11    1    3    3    0    0  0.25145209197E+02  0.25025498644E+02 -0.17452345657E+03  0.17809265572E+03  0.00000000000E+00 0. -1.
        -12    1    3    3    0    0  0.24609967928E+01 -0.29639608896E+02 -0.24262030634E+02  0.38382405490E+02  0.00000000000E+00 0.  1.
        -13    1    4    4    0    0 -0.72973970281E+02  0.35616919062E+02  0.74921553193E+01  0.81546904622E+02  0.00000000000E+00 0.  1.
         13    1    4    4    0    0 -0.33890928261E+02  0.50549526637E+02 -0.75763994461E+02  0.97180412215E+02  0.00000000000E+00 0. -1.
         21    1    1    2  502  501  0.79258692552E+02 -0.81552335447E+02  0.72871927625E+00  0.11372446876E+03  0.00000000000E+00 0. -1.
<scales pt_clust_5="13000.00000" pt_clust_6="13000.00000" pt_clust_7="13000.00000" pt_clust_8="13000.00000" pt_clust_9="120.91192"></scales>
<clustering>
<clus scale="   81.009">  5  6 -1 -1</clus>
<clus scale="   85.708">  2  5  1 -1</clus>
<clus scale="   91.857">  7  8 -1 -1</clus>
<clus scale="  120.912">  1  9  2 -1</clus>
<clus scale="  120.912">  1  5  2 -1</clus>
</clustering>
</event>
<event>
 9    1  0.2374319E-005  0.1139425E+03  0.7546771E-02  0.1259994E+00
          1   -1    0    0  502    0  0.00000000000E+00  0.00000000000E+00  0.37744713524E+03  0.37744713524E+03  0.00000000000E+00 0. -1.
         -2   -1    0    0    0  501 -0.00000000000E+00 -0.00000000000E+00 -0.58327394419E+02  0.58327394419E+02  0.00000000000E+00 0.  1.
        -24    2    1    2    0    0 -0.45901143871E+02 -0.53861610464E+02  0.62531150524E+02  0.12385674716E+03  0.80139634016E+02 0.  0.
         23    2    1    2    0    0  0.27205104820E+02  0.39019834541E+02  0.81583298224E+02  0.13529198472E+03  0.96878384402E+02 0.  0.
         13    1    3    3    0    0  0.10076256655E+02 -0.38267724575E+02  0.15201095111E+01  0.39601267976E+02  0.00000000000E+00 0. -1.
        -14    1    3    3    0    0 -0.55977400526E+02 -0.15593885888E+02  0.61011041013E+02  0.84255479182E+02  0.00000000000E+00 0.  1.
        -11    1    4    4    0    0 -0.18686419226E+02  0.29809365363E+02  0.81188515691E+02  0.88483645986E+02  0.00000000000E+00 0.  1.
         11    1    4    4    0    0  0.45891524046E+02  0.92104691775E+01  0.39478253253E+00  0.46808338733E+02  0.00000000000E+00 0. -1.
         21    1    1    2  502  501  0.18696039051E+02  0.14841775923E+02  0.17500529207E+03  0.17662579778E+03  0.00000000000E+00 0. -1.
<scales pt_clust_5="13000.00000" pt_clust_6="13000.00000" pt_clust_7="13000.00000" pt_clust_8="13000.00000" pt_clust_9="23.87091"></scales>
<clustering>
<clus scale="   23.871">  1  9  2 -1</clus>
<clus scale="   80.140">  5  6 -1 -1</clus>
<clus scale="   96.878">  7  8 -1 -1</clus>
<clus scale="  100.099">  2  5  1 -1</clus>
<clus scale="   23.871">  1  5  2 -1</clus>
</clustering>
</event>
<event>
 9    1  0.2374319E-005  0.1332852E+03  0.7546771E-02  0.1225464E+00
         -2   -1    0    0    0  501 -0.00000000000E+00  0.00000000000E+00  0.51009911956E+02  0.51009911956E+02  0.00000000000E+00 0.  1.
          1   -1    0    0  502    0  0.00000000000E+00 -0.00000000000E+00 -0.58949930050E+03  0.58949930050E+03  0.00000000000E+00 0. -1.
        -24    2    1    2    0    0  0.77273574546E+01  0.86469046470E+02 -0.93794422468E+02  0.15064392200E+03  0.79747034419E+02 0.  0.
         23    2    1    2    0    0  0.11689629375E+02 -0.12911832657E+03 -0.34893802087E+03  0.38325678692E+03  0.91213116504E+02 0.  0.
         13    1    3    3    0    0 -0.12220581378E+02  0.78611391183E+02 -0.10050277087E+03  0.12817917298E+03  0.00000000000E+00 0. -1.
        -14    1    3    3    0    0  0.19947938833E+02  0.78576552870E+01  0.67083484017E+01  0.22464749021E+02  0.00000000000E+00 0.  1.
        -13    1    4    4    0    0  0.31602672065E+02 -0.11153173449E+02 -0.41369445970E+02  0.53240522344E+02  0.00000000000E+00 0.  1.
         13    1    4    4    0    0 -0.19913042690E+02 -0.11796515312E+03 -0.30756857490E+03  0.33001626458E+03  0.00000000000E+00 0. -1.
         21    1    1    2  502  501 -0.19416986830E+02  0.42649280100E+02 -0.95756945205E+02  0.10660850353E+03  0.00000000000E+00 0. -1.
<scales pt_clust_5="13000.00000" pt_clust_6="13000.00000" pt_clust_7="13000.00000" pt_clust_8="13000.00000" pt_clust_9="46.86129"></scales>
<clustering>
<clus scale="   46.861">  2  9  1 -1</clus>
<clus scale="   79.747">  5  6 -1 -1</clus>
<clus scale="   91.213">  7  8 -1 -1</clus>
<clus scale="  125.717">  1  5  2 -1</clus>
<clus scale="   46.861">  2  5  1 -1</clus>
</clustering>
</event>
<event>
 9    1  0.2374319E-005  0.1140807E+03  0.7546771E-02  0.1258491E+00
          1   -1    0    0  502    0  0.00000000000E+00  0.00000000000E+00  0.35925175923E+03  0.35925175923E+03  0.00000000000E+00 0. -1.
         -2   -1    0    0    0  501 -0.00000000000E+00 -0.00000000000E+00 -0.12502223712E+03  0.12502223712E+03  0.00000000000E+00 0.  1.
         23    2    1    2    0    0 -0.46897580790E+02 -0.29253556512E+02 -0.62786861597E+02  0.12379279912E+03  0.91254114827E+02 0.  0.
        -24    2    1    2    0    0  0.88723647610E+01  0.71175694493E+02  0.28349225085E+03  0.30228940334E+03  0.76591962605E+02 0.  0.
         11    1    4    4    0    0 -0.37447928500E+01  0.49679011320E+02  0.26875316979E+03  0.27333183845E+03  0.00000000000E+00 0. -1.
        -12    1    4    4    0    0  0.12617157611E+02  0.21496683173E+02  0.14739081058E+02  0.28957564884E+02  0.00000000000E+00 0.  1.
        -11    1    3    3    0    0 -0.18627232837E+02  0.29814135113E+02 -0.32762120144E+01  0.35307081739E+02  0.00000000000E+00 0. -1.
         11    1    3    3    0    0 -0.28270347953E+02 -0.59067691625E+02 -0.59510649582E+02  0.88485717384E+02  0.00000000000E+00 0.  1.
         21    1    1    2  502  501  0.38025216029E+02 -0.41922137981E+02  0.13524132850E+02  0.58191793891E+02  0.00000000000E+00 0.  1.
<scales pt_clust_5="13000.00000" pt_clust_6="13000.00000" pt_clust_7="13000.00000" pt_clust_8="13000.00000" pt_clust_9="56.59843"></scales>
<clustering>
<clus scale="   56.598">  2  9  1 -1</clus>
<clus scale="   76.592">  5  6 -1 -1</clus>
<clus scale="   91.254">  7  8 -1 -1</clus>
<clus scale="  102.730">  1  5  2 -1</clus>
<clus scale="  102.730">  1  5  2 -1</clus>
</clustering>
</event>
<event>
 9    1  0.2374319E-005  0.2050371E+03  0.7546771E-02  0.1145660E+00
         -2   -1    0    0    0  501 -0.00000000000E+00  0.00000000000E+00  0.20462382931E+03  0.20462382931E+03  0.00000000000E+00 0.  1.
          1   -1    0    0  502    0  0.00000000000E+00 -0.00000000000E+00 -0.29422290380E+03  0.29422290380E+03  0.00000000000E+00 0. -1.
         23    2    1    2    0    0 -0.67060770998E+02  0.18840624879E+03  0.68691405667E+02  0.22713598132E+03  0.82934813019E+02 0.  0.
        -24    2    1    2    0    0  0.46902181228E+02 -0.15382221911E+03 -0.12270385254E+03  0.21814927389E+03  0.81680968244E+02 0.  0.
         11    1    4    4    0    0 -0.80514026236E+01 -0.83606727201E+02 -0.90185947137E+02  0.12324128764E+03  0.00000000000E+00 0. -1.
        -12    1    4    4    0    0  0.54953583852E+02 -0.70215491914E+02 -0.32517905404E+02  0.94907986254E+02  0.00000000000E+00 0.  1.
        -13    1    3    3    0    0 -0.54392683014E+02  0.10596983390E+03  0.79245924263E+02  0.14306671931E+03  0.00000000000E+00 0.  1.
         13    1    3    3    0    0 -0.12668087984E+02  0.82436414885E+02 -0.10554518596E+02  0.84069262010E+02  0.00000000000E+00 0. -1.
         21    1    1    2  502  501  0.20158589770E+02 -0.34584029672E+02 -0.35586627613E+02  0.53561477899E+02  0.00000000000E+00 0. -1.
<scales pt_clust_5="13000.00000" pt_clust_6="13000.00000" pt_clust_7="13000.00000" pt_clust_8="13000.00000" pt_clust_9="40.03029"></scales>
<clustering>
<clus scale="   40.030">  2  9  1 -1</clus>
<clus scale="   81.681">  5  6 -1 -1</clus>
<clus scale="   82.935">  7  8 -1 -1</clus>
<clus scale="  204.533">  2  5  1 -1</clus>
<clus scale="   40.030">  2  5  1 -1</clus>
</clustering>
</event>
<event>
 9    1  0.2374319E-005  0.1066877E+03  0.7546771E-02  0.1271164E+00
          1   -1    0    0  502    0  0.00000000000E+00  0.00000000000E+00  0.48969733745E+03  0.48969733745E+03  0.00000000000E+00 0. -1.
         -2   -1    0    0    0  501 -0.00000000000E+00 -0.00000000000E+00 -0.17462983779E+03  0.17462983779E+03  0.00000000000E+00 0.  1.
         23    2    1    2    0    0 -0.29947718113E+02  0.39439665922E+02 -0.14366004373E+03  0.17842073536E+03  0.93506136560E+02 0.  0.
        -24    2    1    2    0    0  0.55753920935E+02 -0.68005186895E+02  0.33255107086E+03  0.35398808896E+03  0.83571210674E+02 0.  0.
         13    1    4    4    0    0  0.63425580987E+02 -0.13755136096E+02  0.20872171968E+03  0.21857896596E+03  0.00000000000E+00 0. -1.
        -14    1    4    4    0    0 -0.76716600522E+01 -0.54250050800E+02  0.12382935118E+03  0.13540912300E+03  0.00000000000E+00 0.  1.
        -13    1    3    3    0    0 -0.11534914936E+02  0.53684349171E+02 -0.30339991164E+02  0.62734190616E+02  0.00000000000E+00 0. -1.
         13    1    3    3    0    0 -0.18412803177E+02 -0.14244683248E+02 -0.11332005256E+03  0.11568654474E+03  0.00000000000E+00 0.  1.
         21    1    1    2  502  501 -0.25806202822E+02  0.28565520973E+02  0.12617647252E+03  0.13191835092E+03  0.00000000000E+00 0.  1.
<scales pt_clust_5="13000.00000" pt_clust_6="13000.00000" pt_clust_7="13000.00000" pt_clust_8="13000.00000" pt_clust_9="38.49609"></scales>
<clustering>
<clus scale="   38.496">  1  9  2 -1</clus>
<clus scale="   83.571">  5  6 -1 -1</clus>
<clus scale="   93.506">  7  8 -1 -1</clus>
<clus scale="   98.097">  1  5  2 -1</clus>
<clus scale="   38.496">  1  5  2 -1</clus>
</clustering>
</event>
<event>
 9    1  0.2374319E-005  0.2931415E+03  0.7546771E-02  0.1089306E+00
          1   -1    0    0  502    0  0.00000000000E+00  0.00000000000E+00  0.72429444349E+03  0.72429444349E+03  0.00000000000E+00 0. -1.
         -2   -1    0    0    0  501 -0.00000000000E+00 -0.00000000000E+00 -0.20073069322E+03  0.20073069322E+03  0.00000000000E+00 0.  1.
         23    2    1    2    0    0 -0.23691683131E+03  0.15523698526E+03 -0.28180341957E+02  0.29938514624E+03  0.92785923320E+02 0.  0.
        -24    2    1    2    0    0  0.21566112953E+03 -0.14137785572E+03  0.49492352643E+03  0.56341092147E+03  0.77363741769E+02 0.  0.
         11    1    4    4    0    0  0.15402243301E+03 -0.11431210681E+03  0.42536525323E+03  0.46661093674E+03  0.00000000000E+00 0. -1.
        -12    1    4    4    0    0  0.61638696518E+02 -0.27065748911E+02  0.69558273202E+02  0.96799984728E+02  0.00000000000E+00 0.  1.
        -11    1    3    3    0    0 -0.14360329567E+03  0.39958212095E+02 -0.39866090266E+01  0.14911223388E+03  0.00000000000E+00 0. -1.
         11    1    3    3    0    0 -0.93313535638E+02  0.11527877317E+03 -0.24193732931E+02  0.15027291236E+03  0.00000000000E+00 0.  1.
         21    1    1    2  502  501  0.21255701782E+02 -0.13859129540E+02  0.56820565800E+02  0.62229068992E+02  0.00000000000E+00 0. -1.
<scales pt_clust_5="13000.00000" pt_clust_6="13000.00000" pt_clust_7="13000.00000" pt_clust_8="13000.00000" pt_clust_9="25.37480"></scales>
<clustering>
<clus scale="   25.375">  1  9  2 -1</clus>
<clus scale="   77.364">  5  6 -1 -1</clus>
<clus scale="   92.786">  7  8 -1 -1</clus>
<clus scale="  288.631">  1  5  2 -1</clus>
<clus scale="   25.375">  1  5  2 -1</clus>
</clustering>
</event>
<event>
 9    1  0.2374319E-005  0.1037334E+03  0.7546771E-02  0.1278240E+00
         -2   -1    0    0    0  501 -0.00000000000E+00  0.00000000000E+00  0.67689976382E+03  0.67689976382E+03  0.00000000000E+00 0.  1.
          1   -1    0    0  502    0  0.00000000000E+00 -0.00000000000E+00 -0.14671572239E+03  0.14671572239E+03  0.00000000000E+00 0. -1.
        -24    2    1    2    0    0 -0.57786133484E+01  0.48252385151E+02  0.64148611337E+03  0.64826593133E+03  0.79891169929E+02 0.  0.
         23    2    1    2    0    0 -0.24682043011E+02 -0.29683093694E+02 -0.84144376170E+02  0.13051418256E+03  0.91996665753E+02 0.  0.
         11    1    3    3    0    0  0.25629402520E+02 -0.84512010849E+01  0.13702095501E+03  0.13965325340E+03  0.00000000000E+00 0. -1.
        -12    1    3    3    0    0 -0.31408015869E+02  0.56703586236E+02  0.50446515836E+03  0.50861267794E+03  0.00000000000E+00 0.  1.
        -13    1    4    4    0    0 -0.59890617624E+02 -0.16316655288E+02 -0.50706700338E+02  0.80151661108E+02  0.00000000000E+00 0. -1.
         13    1    4    4    0    0  0.35208574613E+02 -0.13366438407E+02 -0.33437675832E+02  0.50362521452E+02  0.00000000000E+00 0.  1.
         21    1    1    2  502  501  0.30460656360E+02 -0.18569291457E+02 -0.27157695769E+02  0.44835372314E+02  0.00000000000E+00 0.  1.
<scales pt_clust_5="13000.00000" pt_clust_6="13000.00000" pt_clust_7="13000.00000" pt_clust_8="13000.00000" pt_clust_9="35.67450"></scales>
<clustering>
<clus scale="   35.675">  2  9  1 -1</clus>
<clus scale="   79.891">  5  6 -1 -1</clus>
<clus scale="   91.997">  7  8 -1 -1</clus>
<clus scale="   93.166">  1  5  2 -1</clus>
<clus scale="   35.675">  2  5  1 -1</clus>
</clustering>
</event>
<event>
 9    1  0.2374319E-005  0.5103542E+03  0.7546771E-02  0.1011111E+00
         -2   -1    0    0    0  501 -0.00000000000E+00  0.00000000000E+00  0.40989355660E+03  0.40989355660E+03  0.00000000000E+00 0.  1.
          1   -1    0    0  502    0  0.00000000000E+00 -0.00000000000E+00 -0.12398924983E+04  0.12398924983E+04  0.00000000000E+00 0. -1.
        -24    2    1    2    0    0 -0.21993989424E+03  0.94590483497E+02 -0.68927221009E+03  0.73405933403E+03  0.80162395380E+02 0.  0.
         23    2    1    2    0    0 -0.20806740118E+03 -0.78568348726E+02 -0.36133309833E+03  0.43394448505E+03  0.91000985179E+02 0.  0.
         11    1    3    3    0    0 -0.22176452477E+03  0.10249879596E+03 -0.66976942488E+03  0.71293519350E+03  0.00000000000E+00 0. -1.
        -12    1    3    3    0    0  0.18246305271E+01 -0.79083124633E+01 -0.19502785205E+02  0.21124140535E+02  0.00000000000E+00 0.  1.
        -11    1    4    4    0    0 -0.18557884997E+03 -0.52673549129E+02 -0.34649312340E+03  0.39657470532E+03  0.00000000000E+00 0. -1.
         11    1    4    4    0    0 -0.22488551203E+02 -0.25894799598E+02 -0.14839974934E+02  0.37369779735E+02  0.00000000000E+00 0.  1.
         21    1    1    2  502  501  0.42800729542E+03 -0.16022134771E+02  0.22060636670E+03  0.48178223583E+03  0.00000000000E+00 0.  1.
<scales pt_clust_5="13000.00000" pt_clust_6="13000.00000" pt_clust_7="13000.00000" pt_clust_8="13000.00000" pt_clust_9="428.30708"></scales>
<clustering>
<clus scale="   80.162">  5  6 -1 -1</clus>
<clus scale="   91.001">  7  8 -1 -1</clus>
<clus scale="  224.324">  5  7 -1 -1</clus>
<clus scale="  428.307">  1  9  2 -1</clus>
<clus scale="  510.354">  2  5  1 -1</clus>
</clustering>
</event>
<event>
 9    1  0.2374319E-005  0.1890354E+03  0.7546771E-02  0.1190281E+00
          1   -1    0    0  502    0  0.00000000000E+00  0.00000000000E+00  0.42576040673E+03  0.42576040673E+03  0.00000000000E+00 0. -1.
         -2   -1    0    0    0  501 -0.00000000000E+00 -0.00000000000E+00 -0.14548864111E+03  0.14548864111E+03  0.00000000000E+00 0.  1.
        -24    2    1    2    0    0  0.31803763950E+02  0.37209890459E+02  0.74896402029E+01  0.93977486284E+02  0.79872510093E+02 0.  0.
         23    2    1    2    0    0  0.14178392251E+03 -0.12746674787E+02  0.20716245444E+02  0.17024006210E+03  0.91034924713E+02 0.  0.
         13    1    3    3    0    0 -0.58813101868E+01  0.19390479981E+02  0.37492235180E+02  0.42617463817E+02  0.00000000000E+00 0. -1.
        -14    1    3    3    0    0  0.37685074137E+02  0.17819410478E+02 -0.30002594977E+02  0.51360022467E+02  0.00000000000E+00 0.  1.
        -11    1    4    4    0    0  0.81143213036E+02 -0.49936888852E+02 -0.27943793804E+01  0.95319056049E+02  0.00000000000E+00 0. -1.
         11    1    4    4    0    0  0.60640709471E+02  0.37190214065E+02  0.23510624824E+02  0.74921006046E+02  0.00000000000E+00 0.  1.
         21    1    1    2  502  501 -0.17358768646E+03 -0.24463215671E+02  0.25206587997E+03  0.30703149945E+03  0.00000000000E+00 0. -1.
<scales pt_clust_5="13000.00000" pt_clust_6="13000.00000" pt_clust_7="13000.00000" pt_clust_8="13000.00000" pt_clust_9="165.67138"></scales>
<clustering>
<clus scale="   79.873">  5  6 -1 -1</clus>
<clus scale="   91.035">  7  8 -1 -1</clus>
<clus scale="   93.679">  2  5  1 -1</clus>
<clus scale="  165.671">  1  9  2 -1</clus>
<clus scale="  165.671">  1  5  2 -1</clus>
</clustering>
</event>
<event>
 9    1  0.2374319E-005  0.9736952E+02  0.7546771E-02  0.1293307E+00
          1   -1    0    0  502    0  0.00000000000E+00  0.00000000000E+00  0.13998274675E+03  0.13998274675E+03  0.00000000000E+00 0. -1.
         -2   -1    0    0    0  501 -0.00000000000E+00 -0.00000000000E+00 -0.11868388119E+03  0.11868388119E+03  0.00000000000E+00 0.  1.
         23    2    1    2    0    0 -0.27963276578E+02 -0.58775929822E+01 -0.69064578545E+02  0.12045157715E+03  0.94457268072E+02 0.  0.
        -24    2    1    2    0    0  0.52002034456E+01  0.60435862835E+01  0.70735844368E+02  0.10815797636E+03  0.81431082027E+02 0.  0.
         11    1    4    4    0    0  0.34982483591E+02  0.27890233754E+02  0.35533030522E+02  0.57133488911E+02  0.00000000000E+00 0. -1.
        -12    1    4    4    0    0 -0.29782280146E+02 -0.21846647471E+02  0.35202813846E+02  0.51024487445E+02  0.00000000000E+00 0.  1.
        -13    1    3    3    0    0 -0.28995610001E+02 -0.43691457594E+02 -0.63281430425E+02  0.82184112228E+02  0.00000000000E+00 0.  1.
         13    1    3    3    0    0  0.10323334231E+01  0.37813864612E+02 -0.57831481200E+01  0.38267464920E+02  0.00000000000E+00 0. -1.
         21    1    1    2  502  501  0.22763073132E+02 -0.16599330123E+00  0.19627599738E+02  0.30057074437E+02  0.00000000000E+00 0. -1.
<scales pt_clust_5="13000.00000" pt_clust_6="13000.00000" pt_clust_7="13000.00000" pt_clust_8="13000.00000" pt_clust_9="22.76368"></scales>
<clustering>
<clus scale="   22.764">  1  9  2 -1</clus>
<clus scale="   81.431">  5  6 -1 -1</clus>
<clus scale="   84.792">  1  5  2 -1</clus>
<clus scale="   94.457">  7  8 -1 -1</clus>
<clus scale="   22.764">  1  5  2 -1</clus>
</clustering>
</event>
<event>
 9    1  0.2374319E-005  0.1666781E+03  0.7546771E-02  0.1182765E+00
         -2   -1    0    0    0  501 -0.00000000000E+00  0.00000000000E+00  0.61544023404E+03  0.61544023404E+03  0.00000000000E+00 0.  1.
          1   -1    0    0  502    0  0.00000000000E+00 -0.00000000000E+00 -0.59104795977E+02  0.59104795977E+02  0.00000000000E+00 0. -1.
         23    2    1    2    0    0 -0.12185734514E+03  0.42194457278E+02  0.26082872647E+03  0.30486187857E+03  0.90992063723E+02 0.  0.
        -24    2    1    2    0    0  0.15570286789E+03 -0.11549072510E+02  0.24446505024E+03  0.30120023233E+03  0.81127399965E+02 0.  0.
         13    1    4    4    0    0  0.12958966668E+03 -0.17921883728E+02  0.13306728725E+03  0.18660540872E+03  0.00000000000E+00 0. -1.
        -14    1    4    4    0    0  0.26113201205E+02  0.63728112177E+01  0.11139776299E+03  0.11459482362E+03  0.00000000000E+00 0.  1.
        -11    1    3    3    0    0 -0.77616065253E+02  0.45104295510E+02  0.85347497233E+02  0.12386624376E+03  0.00000000000E+00 0.  1.
         11    1    3    3    0    0 -0.44241279889E+02 -0.29098382327E+01  0.17548122924E+03  0.18099563481E+03  0.00000000000E+00 0. -1.
         21    1    1    2  502  501 -0.33845522744E+02 -0.30645384768E+02  0.51041661355E+02  0.68482919121E+02  0.00000000000E+00 0.  1.
<scales pt_clust_5="13000.00000" pt_clust_6="13000.00000" pt_clust_7="13000.00000" pt_clust_8="13000.00000" pt_clust_9="45.65807"></scales>
<clustering>
<clus scale="   45.658">  2  9  1 -1</clus>
<clus scale="   81.127">  5  6 -1 -1</clus>
<clus scale="   90.992">  7  8 -1 -1</clus>
<clus scale="  161.504">  2  5  1 -1</clus>
<clus scale="   45.658">  2  5  1 -1</clus>
</clustering>
</event>
<event>
 9    1  0.2374319E-005  0.1049531E+03  0.7546771E-02  0.1281714E+00
          1   -1    0    0  502    0  0.00000000000E+00  0.00000000000E+00  0.91733044610E+03  0.91733044610E+03  0.00000000000E+00 0. -1.
         -2   -1    0    0    0  501 -0.00000000000E+00 -0.00000000000E+00 -0.29535426879E+02  0.29535426879E+02  0.00000000000E+00 0.  1.
        -24    2    1    2    0    0  0.29664384212E+02 -0.27779037468E+02  0.79962647988E+02  0.11807330196E+03  0.76782999090E+02 0.  0.
         23    2    1    2    0    0  0.41156566512E+02  0.37224578582E+02  0.51370911106E+03  0.52611565171E+03  0.99101442818E+02 0.  0.
         13    1    3    3    0    0 -0.19531566545E+02 -0.23574472981E+02  0.54522296637E+02  0.62529342701E+02  0.00000000000E+00 0. -1.
        -14    1    3    3    0    0  0.49195950757E+02 -0.42045644871E+01  0.25440351351E+02  0.55543959260E+02  0.00000000000E+00 0.  1.
        -13    1    4    4    0    0  0.10550640309E+02  0.68683773301E+02  0.29941170463E+03  0.30736972134E+03  0.00000000000E+00 0.  1.
         13    1    4    4    0    0  0.30605926203E+02 -0.31459194718E+02  0.21429740643E+03  0.21874593037E+03  0.00000000000E+00 0. -1.
         21    1    1    2  502  501 -0.70820950724E+02 -0.94455411139E+01  0.29412326018E+03  0.30267691931E+03  0.00000000000E+00 0. -1.
<scales pt_clust_5="13000.00000" pt_clust_6="13000.00000" pt_clust_7="13000.00000" pt_clust_8="13000.00000" pt_clust_9="71.44806"></scales>
<clustering>
<clus scale="   71.448">  1  9  2 -1</clus>
<clus scale="   76.783">  5  6 -1 -1</clus>
<clus scale="   84.200">  2  5  1 -1</clus>
<clus scale="   99.101">  7  8 -1 -1</clus>
<clus scale="   71.448">  1  5  2 -1</clus>
</clustering>
</event>
<event>
 9    1  0.2374319E-005  0.1560976E+03  0.7546771E-02  0.1195280E+00
         -2   -1    0    0    0  501 -0.00000000000E+00  0.00000000000E+00  0.76954874226E+03  0.76954874226E+03  0.00000000000E+00 0.  1.
          1   -1    0    0  502    0  0.00000000000E+00 -0.00000000000E+00 -0.18424395937E+03  0.18424395937E+03  0.00000000000E+00 0. -1.
        -24    2    1    2    0    0  0.38215546733E+01  0.12712393351E+03  0.70559592625E+03  0.72129013218E+03  0.78859019063E+02 0.  0.
         23    2    1    2    0    0 -0.29778838686E+02 -0.11065163556E+03 -0.13419129442E+03  0.19876340241E+03  0.91482364165E+02 0.  0.
         13    1    3    3    0    0 -0.23084530905E+02  0.60796451392E+01  0.78380164670E+02  0.81934778122E+02  0.00000000000E+00 0. -1.
        -14    1    3    3    0    0  0.26906085578E+02  0.12104428837E+03  0.62721576158E+03  0.63935535406E+03  0.00000000000E+00 0.  1.
        -11    1    4    4    0    0 -0.13047078038E+02 -0.82726913119E+02 -0.28965317190E+02  0.88616917118E+02  0.00000000000E+00 0.  1.
         11    1    4    4    0    0 -0.16731760648E+02 -0.27924722443E+02 -0.10522597723E+03  0.11014648529E+03  0.00000000000E+00 0. -1.
         21    1    1    2  502  501  0.25957284013E+02 -0.16472297948E+02  0.13900151063E+02  0.33739167040E+02  0.00000000000E+00 0. -1.
<scales pt_clust_5="13000.00000" pt_clust_6="13000.00000" pt_clust_7="13000.00000" pt_clust_8="13000.00000" pt_clust_9="30.74276"></scales>
<clustering>
<clus scale="   30.743">  2  9  1 -1</clus>
<clus scale="   78.859">  5  6 -1 -1</clus>
<clus scale="   91.482">  7  8 -1 -1</clus>
<clus scale="  149.051">  1  5  2 -1</clus>
<clus scale="   30.743">  2  5  1 -1</clus>
</clustering>
</event>
<event>
 9    1  0.2374319E-005  0.1540491E+03  0.7546771E-02  0.1222561E+00
         -2   -1    0    0    0  501 -0.00000000000E+00  0.00000000000E+00  0.97397852178E+02  0.97397852178E+02  0.00000000000E+00 0.  1.
          1   -1    0    0  502    0  0.00000000000E+00 -0.00000000000E+00 -0.63933439365E+03  0.63933439365E+03  0.00000000000E+00 0. -1.
         23    2    1    2    0    0  0.46802390290E+02  0.10172884463E+03 -0.36569681089E+02  0.15176991706E+03  0.95695060384E+02 0.  0.
        -24    2    1    2    0    0  0.30335183642E+02  0.74176408975E+01 -0.41429476449E+03  0.42323018210E+03  0.80674595707E+02 0.  0.
         11    1    4    4    0    0  0.55603003304E+02 -0.71993724727E+01 -0.30464053842E+03  0.30975697344E+03  0.00000000000E+00 0. -1.
        -12    1    4    4    0    0 -0.25267819662E+02  0.14617013370E+02 -0.10965422607E+03  0.11347320867E+03  0.00000000000E+00 0.  1.
        -13    1    3    3    0    0  0.73054471311E+02  0.60625505009E+02 -0.39694813573E+02  0.10289842497E+03  0.00000000000E+00 0.  1.
         13    1    3    3    0    0 -0.26252081022E+02  0.41103339624E+02  0.31251324833E+01  0.48871492092E+02  0.00000000000E+00 0. -1.
         21    1    1    2  502  501 -0.77137573931E+02 -0.10914648553E+03 -0.91072095886E+02  0.16173214666E+03  0.00000000000E+00 0. -1.
<scales pt_clust_5="13000.00000" pt_clust_6="13000.00000" pt_clust_7="13000.00000" pt_clust_8="13000.00000" pt_clust_9="120.72113"></scales>
<clustering>
<clus scale="   80.675">  5  6 -1 -1</clus>
<clus scale="   86.508">  2  5  1 -1</clus>
<clus scale="   95.695">  7  8 -1 -1</clus>
<clus scale="  120.721">  2  9  1 -1</clus>
<clus scale="   86.508">  2  5  1 -1</clus>
</clustering>
</event>
<event>
 9    1  0.2374319E-005  0.1020790E+03  0.7546771E-02  0.1291345E+00
          1   -1    0    0  502    0  0.00000000000E+00  0.00000000000E+00  0.19475493951E+03  0.19475493951E+03  0.00000000000E+00 0. -1.
         -2   -1    0    0    0  501 -0.00000000000E+00 -0.00000000000E+00 -0.70757577281E+02  0.70757577281E+02  0.00000000000E+00 0.  1.
        -24    2    1    2    0    0 -0.50390077782E+02 -0.15042118931E+02  0.11138107690E+02  0.80792744226E+02  0.60315709362E+02 0.  0.
         23    2    1    2    0    0  0.16994157823E+02  0.43501401797E+02  0.84383221286E+02  0.13241200334E+03  0.90726166214E+02 0.  0.
         13    1    3    3    0    0 -0.29553214363E+02  0.14404303444E+02  0.25862813724E+02  0.41830151453E+02  0.00000000000E+00 0. -1.
        -14    1    3    3    0    0 -0.20836863419E+02 -0.29446422375E+02 -0.14724706034E+02  0.38962592773E+02  0.00000000000E+00 0.  1.
        -11    1    4    4    0    0  0.48270582111E+02  0.34254798203E+01  0.25774419471E+02  0.54827946418E+02  0.00000000000E+00 0.  1.
         11    1    4    4    0    0 -0.31276424288E+02  0.40075921976E+02  0.58608801815E+02  0.77584056923E+02  0.00000000000E+00 0. -1.
         21    1    1    2  502  501  0.33395919958E+02 -0.28459282866E+02  0.28476033250E+02  0.52307769220E+02  0.00000000000E+00 0.  1.
<scales pt_clust_5="13000.00000" pt_clust_6="13000.00000" pt_clust_7="13000.00000" pt_clust_8="13000.00000" pt_clust_9="43.87731"></scales>
<clustering>
<clus scale="   43.877">  1  9  2 -1</clus>
<clus scale="   60.316">  5  6 -1 -1</clus>
<clus scale="   76.334">  2  5  1 -1</clus>
<clus scale="   90.726">  7  8 -1 -1</clus>
<clus scale="   43.877">  1  5  2 -1</clus>
</clustering>
</event>
<event>
 9    1  0.2374319E-005  0.9572214E+02  0.7546771E-02  0.1293571E+00
         -2   -1    0    0    0  501 -0.00000000000E+00  0.00000000000E+00  0.18638460467E+03  0.18638460467E+03  0.00000000000E+00 0.  1.
          1   -1    0    0  502    0  0.00000000000E+00 -0.00000000000E+00 -0.15131983678E+03  0.15131983678E+03  0.00000000000E+00 0. -1.
        -24    2    1    2    0    0  0.33298412533E+02  0.34399902614E+01  0.13723993586E+03  0.16308880152E+03  0.81501775306E+02 0.  0.
         23    2    1    2    0    0 -0.51325147336E+02  0.26985251524E+02 -0.78064632870E+02  0.13181404641E+03  0.88985287417E+02 0.  0.
         11    1    3    3    0    0 -0.26559651880E+02  0.16186938478E+01  0.57564593165E+02  0.63417013995E+02  0.00000000000E+00 0. -1.
        -12    1    3    3    0    0  0.59858064414E+02  0.18212964137E+01  0.79675342692E+02  0.99671787529E+02  0.00000000000E+00 0.  1.
        -11    1    4    4    0    0 -0.46542523280E+02 -0.49190045525E+00  0.24460658332E+01  0.46609351823E+02  0.00000000000E+00 0.  1.
         11    1    4    4    0    0 -0.47826240565E+01  0.27477151979E+02 -0.80510698704E+02  0.85204694586E+02  0.00000000000E+00 0. -1.
         21    1    1    2  502  501  0.18026734803E+02 -0.30425241785E+02 -0.24110535090E+02  0.42801593518E+02  0.00000000000E+00 0. -1.
<scales pt_clust_5="13000.00000" pt_clust_6="13000.00000" pt_clust_7="13000.00000" pt_clust_8="13000.00000" pt_clust_9="35.36465"></scales>
<clustering>
<clus scale="   35.365">  2  9  1 -1</clus>
<clus scale="   81.502">  5  6 -1 -1</clus>
<clus scale="   88.808">  1  5  2 -1</clus>
<clus scale="   88.985">  7  8 -1 -1</clus>
<clus scale="   35.365">  2  5  1 -1</clus>
</clustering>
</event>
<event>
 9    1  0.2374319E-005  0.1269049E+03  0.7546771E-02  0.1235080E+00
         -2   -1    0    0    0  501 -0.00000000000E+00  0.00000000000E+00  0.30235062384E+03  0.30235062384E+03  0.00000000000E+00 0.  1.
          1   -1    0    0  502    0  0.00000000000E+00 -0.00000000000E+00 -0.15450910590E+03  0.15450910590E+03  0.00000000000E+00 0. -1.
         23    2    1    2    0    0  0.75925006248E+02  0.23571653142E+02  0.22970057145E+03  0.25967309839E+03  0.91364851556E+02 0.  0.
        -24    2    1    2    0    0 -0.89403038481E+02  0.58911587162E+01 -0.10294572416E+03  0.15852964861E+03  0.80661132674E+02 0.  0.
         11    1    4    4    0    0 -0.10429055957E+03  0.10806909878E+02 -0.90710827803E+02  0.13864257787E+03  0.00000000000E+00 0. -1.
        -12    1    4    4    0    0  0.14887521092E+02 -0.49157511621E+01 -0.12234896356E+02  0.19887070740E+02  0.00000000000E+00 0.  1.
        -13    1    3    3    0    0  0.39511631092E+02 -0.32928305316E+02  0.12599664085E+03  0.13609039565E+03  0.00000000000E+00 0.  1.
         13    1    3    3    0    0  0.36413375156E+02  0.56499958458E+02  0.10370393060E+03  0.12358270274E+03  0.00000000000E+00 0. -1.
         21    1    1    2  502  501  0.13478032233E+02 -0.29462811858E+02  0.21086670654E+02  0.38656982742E+02  0.00000000000E+00 0. -1.
<scales pt_clust_5="13000.00000" pt_clust_6="13000.00000" pt_clust_7="13000.00000" pt_clust_8="13000.00000" pt_clust_9="32.39930"></scales>
<clustering>
<clus scale="   32.399">  1  9  2 -1</clus>
<clus scale="   80.661">  5  6 -1 -1</clus>
<clus scale="   91.365">  7  8 -1 -1</clus>
<clus scale="  119.430">  2  5  1 -1</clus>
<clus scale="  119.430">  2  5  1 -1</clus>
</clustering>
</event>
<event>
 9    1  0.2374319E-005  0.1135701E+03  0.7546771E-02  0.1258551E+00
          1   -1    0    0  502    0  0.00000000000E+00  0.00000000000E+00  0.49924644149E+02  0.49924644149E+02  0.00000000000E+00 0. -1.
         -2   -1    0    0    0  501 -0.00000000000E+00 -0.00000000000E+00 -0.37098097993E+03  0.37098097993E+03  0.00000000000E+00 0.  1.
        -24    2    1    2    0    0 -0.64893394851E+02 -0.15141223661E+02 -0.22671757243E+03  0.24945406957E+03  0.79912863948E+02 0.  0.
         23    2    1    2    0    0  0.69310103559E+02 -0.11786835652E+02 -0.78382092798E+02  0.13984074894E+03  0.92026423605E+02 0.  0.
         11    1    3    3    0    0 -0.20209207324E+02  0.15611174030E+02 -0.12417924016E+02  0.28395873857E+02  0.00000000000E+00 0. -1.
        -12    1    3    3    0    0 -0.44684187527E+02 -0.30752397691E+02 -0.21429964842E+03  0.22105819571E+03  0.00000000000E+00 0.  1.
        -11    1    4    4    0    0  0.46173627853E+02 -0.20532339553E+02  0.69386761285E+01  0.51007118160E+02  0.00000000000E+00 0.  1.
         11    1    4    4    0    0  0.23136475707E+02  0.87455039007E+01 -0.85320768927E+02  0.88833630776E+02  0.00000000000E+00 0. -1.
         21    1    1    2  502  501 -0.44167087082E+01  0.26928059313E+02 -0.15956670552E+02  0.31610805578E+02  0.00000000000E+00 0. -1.
<scales pt_clust_5="13000.00000" pt_clust_6="13000.00000" pt_clust_7="13000.00000" pt_clust_8="13000.00000" pt_clust_9="27.28787"></scales>
<clustering>
<clus scale="   27.288">  1  9  2 -1</clus>
<clus scale="   79.913">  5  6 -1 -1</clus>
<clus scale="   92.026">  7  8 -1 -1</clus>
<clus scale="  103.997">  2  5  1 -1</clus>
<clus scale="   27.288">  1  5  2 -1</clus>
</clustering>
</event>
<event>
 9    1  0.2374319E-005  0.1251650E+03  0.7546771E-02  0.1240692E+00
          1   -1    0    0  502    0  0.00000000000E+00  0.00000000000E+00  0.23579849591E+03  0.23579849591E+03  0.00000000000E+00 0. -1.
         -2   -1    0    0    0  501 -0.00000000000E+00 -0.00000000000E+00 -0.14989461084E+03  0.14989461084E+03  0.00000000000E+00 0.  1.
        -24    2    1    2    0    0 -0.74413686540E+02  0.27140513406E+02 -0.86641836988E+02  0.14236577116E+03  0.80543160281E+02 0.  0.
         23    2    1    2    0    0  0.49454212676E+02 -0.50404699888E+02  0.82503923797E+02  0.14703754828E+03  0.99130168160E+02 0.  0.
         13    1    3    3    0    0 -0.46802108470E+02 -0.16719347103E+02 -0.11379999036E+02  0.50985079218E+02  0.00000000000E+00 0. -1.
        -14    1    3    3    0    0 -0.27611578070E+02  0.43859860509E+02 -0.75261837951E+02  0.91380691939E+02  0.00000000000E+00 0.  1.
        -11    1    4    4    0    0 -0.14536237514E+02  0.21122771284E+02  0.15070859135E+02  0.29742300900E+02  0.00000000000E+00 0.  1.
         11    1    4    4    0    0  0.63990450190E+02 -0.71527471172E+02  0.67433064662E+02  0.11729524738E+03  0.00000000000E+00 0. -1.
         21    1    1    2  502  501  0.24959473863E+02  0.23264186482E+02  0.90041798262E+02  0.96289787322E+02  0.00000000000E+00 0. -1.
<scales pt_clust_5="13000.00000" pt_clust_6="13000.00000" pt_clust_7="13000.00000" pt_clust_8="13000.00000" pt_clust_9="34.12034"></scales>
<clustering>
<clus scale="   34.120">  1  9  2 -1</clus>
<clus scale="   80.543">  5  6 -1 -1</clus>
<clus scale="   99.130">  7  8 -1 -1</clus>
<clus scale="  111.026">  2  5  1 -1</clus>
<clus scale="   34.120">  1  5  2 -1</clus>
</clustering>
</event>
<event>
 9    1  0.2374319E-005  0.1054161E+03  0.7546771E-02  0.1273970E+00
         -2   -1    0    0    0  501 -0.00000000000E+00  0.00000000000E+00  0.51876647794E+03  0.51876647794E+03  0.00000000000E+00 0.  1.
          1   -1    0    0  502    0  0.00000000000E+00 -0.00000000000E+00 -0.39293194721E+02  0.39293194721E+02  0.00000000000E+00 0. -1.
         23    2    1    2    0    0 -0.28130887093E+02 -0.48075780030E+02  0.40836464097E+03  0.42220116481E+03  0.91594301862E+02 0.  0.
        -24    2    1    2    0    0  0.45105175836E+01  0.41804163690E+02  0.54033738209E+02  0.10604563521E+03  0.80982090686E+02 0.  0.
         13    1    4    4    0    0 -0.36743686796E+02  0.32032443388E+02  0.31435954357E+02  0.58003406582E+02  0.00000000000E+00 0. -1.
        -14    1    4    4    0    0  0.41254204380E+02  0.97717203022E+01  0.22597783851E+02  0.48042228629E+02  0.00000000000E+00 0.  1.
        -13    1    3    3    0    0 -0.49005850037E+02  0.57850342415E+01  0.19681524279E+03  0.20290707172E+03  0.00000000000E+00 0. -1.
         13    1    3    3    0    0  0.20874962945E+02 -0.53860814272E+02  0.21154939818E+03  0.21929409309E+03  0.00000000000E+00 0.  1.
         21    1    1    2  502  501  0.23620369509E+02  0.62716163402E+01  0.17074904035E+02  0.29812872640E+02  0.00000000000E+00 0.  1.
<scales pt_clust_5="13000.00000" pt_clust_6="13000.00000" pt_clust_7="13000.00000" pt_clust_8="13000.00000" pt_clust_9="24.43880"></scales>
<clustering>
<clus scale="   24.439">  2  9  1 -1</clus>
<clus scale="   80.982">  5  6 -1 -1</clus>
<clus scale="   91.594">  7  8 -1 -1</clus>
<clus scale="   96.339">  2  5  1 -1</clus>
<clus scale="   24.439">  2  5  1 -1</clus>
</clustering>
</event>
<event>
 9    1  0.2374319E-005  0.1062373E+03  0.7546771E-02  0.1269936E+00
         -2   -1    0    0    0  501 -0.00000000000E+00  0.00000000000E+00  0.66274404993E+02  0.66274404993E+02  0.00000000000E+00 0.  1.
          1   -1    0    0  502    0  0.00000000000E+00 -0.00000000000E+00 -0.25193828272E+03  0.25193828272E+03  0.00000000000E+00 0. -1.
         23    2    1    2    0    0  0.52117706695E+02  0.21254920420E+02 -0.15894794474E+02  0.10928537729E+03  0.92318049183E+02 0.  0.
        -24    2    1    2    0    0 -0.32352886130E+02 -0.33215821511E+02 -0.13790363310E+03  0.16956847152E+03  0.87097959040E+02 0.  0.
         11    1    4    4    0    0  0.28614683331E+02 -0.22022914143E+02 -0.42141266401E+02  0.55495001427E+02  0.00000000000E+00 0. -1.
        -12    1    4    4    0    0 -0.60967569461E+02 -0.11192907368E+02 -0.95762366704E+02  0.11407347009E+03  0.00000000000E+00 0.  1.
        -11    1    3    3    0    0 -0.84641027202E+01 -0.26437050812E+02  0.74238817293E+01  0.28734521232E+02  0.00000000000E+00 0.  1.
         11    1    3    3    0    0  0.60581809415E+02  0.47691971231E+02 -0.23318676204E+02  0.80550856059E+02  0.00000000000E+00 0. -1.
         21    1    1    2  502  501 -0.19764820564E+02  0.11960901091E+02 -0.31865450144E+02  0.39358838902E+02  0.00000000000E+00 0.  1.
<scales pt_clust_5="13000.00000" pt_clust_6="13000.00000" pt_clust_7="13000.00000" pt_clust_8="13000.00000" pt_clust_9="23.10219"></scales>
<clustering>
<clus scale="   23.102">  2  9  1 -1</clus>
<clus scale="   87.098">  5  6 -1 -1</clus>
<clus scale="   92.318">  7  8 -1 -1</clus>
<clus scale="  101.734">  2  5  1 -1</clus>
<clus scale="   23.102">  2  5  1 -1</clus>
</clustering>
</event>
<event>
 9    1  0.2374319E-005  0.9102474E+02  0.7546771E-02  0.1304179E+00
         -2   -1    0    0    0  501 -0.00000000000E+00  0.00000000000E+00  0.27808153784E+03  0.27808153784E+03  0.00000000000E+00 0.  1.
          1   -1    0    0  502    0  0.00000000000E+00 -0.00000000000E+00 -0.65017163893E+02  0.65017163893E+02  0.00000000000E+00 0. -1.
        -24    2    1    2    0    0  0.32389396314E+02 -0.46509245176E+01  0.17507227315E+03  0.19515443314E+03  0.79776236146E+02 0.  0.
         23    2    1    2    0    0 -0.13772461561E+02 -0.34271050589E+02  0.56216348352E+01  0.94005808549E+02  0.86262991235E+02 0.  0.
         13    1    3    3    0    0  0.55754576554E+02 -0.23414342909E+01  0.15327416033E+03  0.16311659433E+03  0.00000000000E+00 0. -1.
        -14    1    3    3    0    0 -0.23365180240E+02 -0.23094902267E+01  0.21798112824E+02  0.32037838807E+02  0.00000000000E+00 0.  1.
        -11    1    4    4    0    0  0.27664912821E+02 -0.40454687530E+02  0.14641162110E+02  0.51149709407E+02  0.00000000000E+00 0. -1.
         11    1    4    4    0    0 -0.41437374382E+02  0.61836369406E+01 -0.90195272743E+01  0.42856099142E+02  0.00000000000E+00 0.  1.
         21    1    1    2  502  501 -0.18616934753E+02  0.38921975106E+02  0.32370465958E+02  0.53938460046E+02  0.00000000000E+00 0.  1.
<scales pt_clust_5="13000.00000" pt_clust_6="13000.00000" pt_clust_7="13000.00000" pt_clust_8="13000.00000" pt_clust_9="43.14522"></scales>
<clustering>
<clus scale="   43.145">  2  9  1 -1</clus>
<clus scale="   79.776">  5  6 -1 -1</clus>
<clus scale="   84.903">  1  5  2 -1</clus>
<clus scale="   86.263">  7  8 -1 -1</clus>
<clus scale="   43.145">  2  5  1 -1</clus>
</clustering>
</event>
<event>
 9    1  0.2374319E-005  0.1260549E+03  0.7546771E-02  0.1236654E+00
         -2   -1    0    0    0  501 -0.00000000000E+00  0.00000000000E+00  0.42149472364E+03  0.42149472364E+03  0.00000000000E+00 0.  1.
          1   -1    0    0  502    0  0.00000000000E+00 -0.00000000000E+00 -0.59823938361E+02  0.59823938361E+02  0.00000000000E+00 0. -1.
         23    2    1    2    0    0  0.15863117577E+02  0.84141061442E+02  0.18641420197E+03  0.22461299197E+03  0.91484341521E+02 0.  0.
        -24    2    1    2    0    0 -0.69068454256E+02 -0.68255105058E+02  0.14976358526E+03  0.19560686145E+03  0.80023134374E+02 0.  0.
         11    1    4    4    0    0 -0.45023713871E+01 -0.34685667317E+02  0.10380159946E+03  0.10953601652E+03  0.00000000000E+00 0. -1.
        -12    1    4    4    0    0 -0.64566082869E+02 -0.33569437741E+02  0.45961985802E+02  0.86070844925E+02  0.00000000000E+00 0.  1.
        -13    1    3    3    0    0 -0.37842488834E+02  0.27559689400E+02  0.79571290049E+02  0.92321073656E+02  0.00000000000E+00 0.  1.
         13    1    3    3    0    0  0.53705606411E+02  0.56581372042E+02  0.10684291192E+03  0.13229191831E+03  0.00000000000E+00 0. -1.
         21    1    1    2  502  501  0.53205336679E+02 -0.15885956385E+02  0.25492998047E+02  0.61098808587E+02  0.00000000000E+00 0. -1.
<scales pt_clust_5="13000.00000" pt_clust_6="13000.00000" pt_clust_7="13000.00000" pt_clust_8="13000.00000" pt_clust_9="55.52631"></scales>
<clustering>
<clus scale="   55.526">  2  9  1 -1</clus>
<clus scale="   80.023">  5  6 -1 -1</clus>
<clus scale="   91.484">  7  8 -1 -1</clus>
<clus scale="  118.001">  2  5  1 -1</clus>
<clus scale="   55.526">  2  5  1 -1</clus>
</clustering>
</event>
<event>
 9    1  0.2374319E-005  0.1866449E+03  0.7546771E-02  0.1162510E+00
          1   -1    0    0  502    0  0.00000000000E+00  0.00000000000E+00  0.36439518279E+03  0.36439518279E+03  0.00000000000E+00 0. -1.
         -2   -1    0    0    0  501 -0.00000000000E+00 -0.00000000000E+00 -0.15765018098E+03  0.15765018098E+03  0.00000000000E+00 0.  1.
         23    2    1    2    0    0 -0.11276061982E+03 -0.10965182333E+03  0.16755944456E+02  0.18206124936E+03  0.90150191907E+02 0.  0.
        -24    2    1    2    0    0  0.16271978205E+03  0.72997604262E+02  0.75758096273E+02  0.21002965263E+03  0.81035721352E+02 0.  0.
         11    1    4    4    0    0  0.10242575093E+03  0.32311528097E+02  0.84650417191E+02  0.13675073101E+03  0.00000000000E+00 0. -1.
        -12    1    4    4    0    0  0.60294031119E+02  0.40686076165E+02 -0.88923209182E+01  0.73278921619E+02  0.00000000000E+00 0.  1.
        -13    1    3    3    0    0 -0.10855275867E+03 -0.64239456819E+02 -0.14211270946E+02  0.12693450850E+03  0.00000000000E+00 0. -1.
         13    1    3    3    0    0 -0.42078611553E+01 -0.45412366516E+02  0.30967215402E+02  0.55126740860E+02  0.00000000000E+00 0.  1.
         21    1    1    2  502  501 -0.49959162226E+02  0.36654219073E+02  0.11423096109E+03  0.12995446178E+03  0.00000000000E+00 0. -1.
<scales pt_clust_5="13000.00000" pt_clust_6="13000.00000" pt_clust_7="13000.00000" pt_clust_8="13000.00000" pt_clust_9="61.96329"></scales>
<clustering>
<clus scale="   61.963">  1  9  2 -1</clus>
<clus scale="   81.036">  5  6 -1 -1</clus>
<clus scale="   90.150">  7  8 -1 -1</clus>
<clus scale="  182.417">  1  5  2 -1</clus>
<clus scale="   61.963">  1  5  2 -1</clus>
</clustering>
</event>
<event>
 9    1  0.2374319E-005  0.1000815E+03  0.7546771E-02  0.1284696E+00
          1   -1    0    0  502    0  0.00000000000E+00  0.00000000000E+00  0.92018550966E+02  0.92018550966E+02  0.00000000000E+00 0. -1.
         -2   -1    0    0    0  501 -0.00000000000E+00 -0.00000000000E+00 -0.26301043908E+03  0.26301043908E+03  0.00000000000E+00 0.  1.
         23    2    1    2    0    0 -0.49100248710E+02  0.25845611697E+01 -0.19545378920E+03  0.22088219892E+03  0.90383890733E+02 0.  0.
        -24    2    1    2    0    0  0.25890098707E+02 -0.16934144569E+01 -0.16815925848E+02  0.86782625319E+02  0.81088123862E+02 0.  0.
         13    1    4    4    0    0 -0.24486596720E+02  0.10138671269E+02 -0.22444908616E+02  0.34729814235E+02  0.00000000000E+00 0. -1.
        -14    1    4    4    0    0  0.50376695427E+02 -0.11832085726E+02  0.56289827677E+01  0.52052811084E+02  0.00000000000E+00 0.  1.
        -11    1    3    3    0    0 -0.44839195150E+02 -0.18105763684E+02 -0.19374517989E+03  0.19968867477E+03  0.00000000000E+00 0.  1.
         11    1    3    3    0    0 -0.42610535597E+01  0.20690324853E+02 -0.17086093129E+01  0.21193524147E+02  0.00000000000E+00 0. -1.
         21    1    1    2  502  501  0.23210150003E+02 -0.89114671275E+00  0.41277826941E+02  0.47364165807E+02  0.00000000000E+00 0. -1.
<scales pt_clust_5="13000.00000" pt_clust_6="13000.00000" pt_clust_7="13000.00000" pt_clust_8="13000.00000" pt_clust_9="23.22725"></scales>
<clustering>
<clus scale="   23.227">  1  9  2 -1</clus>
<clus scale="   81.088">  5  6 -1 -1</clus>
<clus scale="   90.384">  7  8 -1 -1</clus>
<clus scale="   91.773">  1  5  2 -1</clus>
<clus scale="   23.227">  1  5  2 -1</clus>
</clustering>
</event>
<event>
 9    1  0.2374319E-005  0.2034472E+03  0.7546771E-02  0.1148407E+00
          1   -1    0    0  502    0  0.00000000000E+00  0.00000000000E+00  0.66551671109E+02  0.66551671109E+02  0.00000000000E+00 0. -1.
         -2   -1    0    0    0  501 -0.00000000000E+00 -0.00000000000E+00 -0.10618071503E+04  0.10618071503E+04  0.00000000000E+00 0.  1.
        -24    2    1    2    0    0  0.17057353872E+03 -0.67540087662E+02 -0.71534898892E+03  0.74598561544E+03  0.10541995519E+03 0.  0.
         23    2    1    2    0    0 -0.15100769593E+03  0.47817734762E+02 -0.29787690390E+03  0.34928651413E+03  0.90446443198E+02 0.  0.
         11    1    3    3    0    0  0.85501168808E+01 -0.45150908510E+02 -0.20411814863E+03  0.20922697636E+03  0.00000000000E+00 0. -1.
        -12    1    3    3    0    0  0.16202342184E+03 -0.22389179151E+02 -0.51123084029E+03  0.53675863908E+03  0.00000000000E+00 0.  1.
        -13    1    4    4    0    0 -0.47677874894E+02 -0.22861260150E+02 -0.12604609911E+03  0.13668736617E+03  0.00000000000E+00 0.  1.
         13    1    4    4    0    0 -0.10332982104E+03  0.70678994912E+02 -0.17183080479E+03  0.21259914796E+03  0.00000000000E+00 0. -1.
         21    1    1    2  502  501 -0.19565842785E+02  0.19722352899E+02  0.17970413654E+02  0.33086691806E+02  0.00000000000E+00 0.  1.
<scales pt_clust_5="13000.00000" pt_clust_6="13000.00000" pt_clust_7="13000.00000" pt_clust_8="13000.00000" pt_clust_9="27.78117"></scales>
<clustering>
<clus scale="   27.781">  1  9  2 -1</clus>
<clus scale="   90.446">  7  8 -1 -1</clus>
<clus scale="  105.420">  5  6 -1 -1</clus>
<clus scale="  196.107">  1  7  2 -1</clus>
<clus scale="   27.781">  1  5  2 -1</clus>
</clustering>
</event>
<event>
 9    1  0.2374319E-005  0.9587319E+02  0.7546771E-02  0.1292555E+00
         -2   -1    0    0    0  501 -0.00000000000E+00  0.00000000000E+00  0.11099958620E+03  0.11099958620E+03  0.00000000000E+00 0.  1.
          1   -1    0    0  502    0  0.00000000000E+00 -0.00000000000E+00 -0.24797908151E+03  0.24797908151E+03  0.00000000000E+00 0. -1.
        -24    2    1    2    0    0 -0.16932514467E+02  0.15653056082E+02  0.71995130370E+02  0.11561016645E+03  0.87468186092E+02 0.  0.
         23    2    1    2    0    0 -0.85267566777E+01 -0.19314720182E+02 -0.18441705016E+03  0.20780648802E+03  0.93424429764E+02 0.  0.
         11    1    3    3    0    0  0.25562564797E+02  0.32484767129E+02  0.50034481229E+02  0.64901110362E+02  0.00000000000E+00 0. -1.
        -12    1    3    3    0    0 -0.42495079264E+02 -0.16831711047E+02  0.21960649141E+02  0.50709056086E+02  0.00000000000E+00 0.  1.
        -13    1    4    4    0    0  0.24201144992E+02 -0.23717814440E+02 -0.16713392245E+03  0.17053439000E+03  0.00000000000E+00 0. -1.
         13    1    4    4    0    0 -0.32727901669E+02  0.44030942584E+01 -0.17283127709E+02  0.37272098011E+02  0.00000000000E+00 0.  1.
         21    1    1    2  502  501  0.25459271145E+02  0.36616640999E+01 -0.24557575519E+02  0.35562013252E+02  0.00000000000E+00 0.  1.
<scales pt_clust_5="13000.00000" pt_clust_6="13000.00000" pt_clust_7="13000.00000" pt_clust_8="13000.00000" pt_clust_9="25.72124"></scales>
<clustering>
<clus scale="   25.721">  2  9  1 -1</clus>
<clus scale="   87.468">  5  6 -1 -1</clus>
<clus scale="   90.079">  1  5  2 -1</clus>
<clus scale="   93.424">  7  8 -1 -1</clus>
<clus scale="   25.721">  2  5  1 -1</clus>
</clustering>
</event>
<event>
 9    1  0.2374319E-005  0.1418807E+03  0.7546771E-02  0.1213060E+00
         -2   -1    0    0    0  501 -0.00000000000E+00  0.00000000000E+00  0.33614546935E+02  0.33614546935E+02  0.00000000000E+00 0.  1.
          1   -1    0    0  502    0  0.00000000000E+00 -0.00000000000E+00 -0.81849808532E+03  0.81849808532E+03  0.00000000000E+00 0. -1.
         23    2    1    2    0    0 -0.24385515637E+02 -0.10438658327E+03 -0.20399977777E+03  0.24766112337E+03  0.90713342801E+02 0.  0.
        -24    2    1    2    0    0  0.19596122758E+00  0.11537768504E+03 -0.49819656978E+03  0.51760042720E+03  0.79989571152E+02 0.  0.
         13    1    4    4    0    0 -0.13157064716E+02  0.79199243822E+02 -0.44330547399E+03  0.45051678309E+03  0.00000000000E+00 0. -1.
        -14    1    4    4    0    0  0.13353025944E+02  0.36178441217E+02 -0.54891095796E+02  0.67083644120E+02  0.00000000000E+00 0.  1.
        -13    1    3    3    0    0  0.16727283898E+02 -0.41313750923E+02 -0.19998749473E+02  0.48852615308E+02  0.00000000000E+00 0.  1.
         13    1    3    3    0    0 -0.41112799535E+02 -0.63072832343E+02 -0.18400102830E+03  0.19880850807E+03  0.00000000000E+00 0. -1.
         21    1    1    2  502  501  0.24189554409E+02 -0.10991101772E+02 -0.82687190836E+02  0.86851081680E+02  0.00000000000E+00 0. -1.
<scales pt_clust_5="13000.00000" pt_clust_6="13000.00000" pt_clust_7="13000.00000" pt_clust_8="13000.00000" pt_clust_9="26.56951"></scales>
<clustering>
<clus scale="   26.570">  2  9  1 -1</clus>
<clus scale="   79.990">  5  6 -1 -1</clus>
<clus scale="   90.713">  7  8 -1 -1</clus>
<clus scale="  135.276">  2  5  1 -1</clus>
<clus scale="   26.570">  2  5  1 -1</clus>
</clustering>
</event>
<event>
 9    1  0.2374319E-005  0.1040544E+03  0.7546771E-02  0.1276103E+00
          1   -1    0    0  502    0  0.00000000000E+00  0.00000000000E+00  0.22098744966E+03  0.22098744966E+03  0.00000000000E+00 0. -1.
         -2   -1    0    0    0  501 -0.00000000000E+00 -0.00000000000E+00 -0.17182986350E+03  0.17182986350E+03  0.00000000000E+00 0.  1.
         23    2    1    2    0    0  0.17568327938E+02 -0.44117707237E+02 -0.11966136544E+03  0.15755728332E+03  0.90831915710E+02 0.  0.
        -24    2    1    2    0    0 -0.33848392950E+02  0.56864520445E+02  0.53200740500E+02  0.11780751816E+03  0.81663977086E+02 0.  0.
         13    1    4    4    0    0 -0.48431168832E+02  0.12230900573E+02  0.50103811955E+02  0.70750017779E+02  0.00000000000E+00 0. -1.
        -14    1    4    4    0    0  0.14582775882E+02  0.44633619872E+02  0.30969285445E+01  0.47057500376E+02  0.00000000000E+00 0.  1.
        -13    1    3    3    0    0  0.34858930903E+02  0.11718050619E+02 -0.19596134027E+02  0.41670928029E+02  0.00000000000E+00 0.  1.
         13    1    3    3    0    0 -0.17290602964E+02 -0.55835757857E+02 -0.10006523141E+03  0.11588635530E+03  0.00000000000E+00 0. -1.
         21    1    1    2  502  501  0.16280065012E+02 -0.12746813207E+02  0.11561821110E+03  0.11745251169E+03  0.00000000000E+00 0. -1.
<scales pt_clust_5="13000.00000" pt_clust_6="13000.00000" pt_clust_7="13000.00000" pt_clust_8="13000.00000" pt_clust_9="20.67660"></scales>
<clustering>
<clus scale="   20.677">  1  9  2 -1</clus>
<clus scale="   81.664">  5  6 -1 -1</clus>
<clus scale="   90.832">  7  8 -1 -1</clus>
<clus scale="   96.156">  1  5  2 -1</clus>
<clus scale="   20.677">  1  5  2 -1</clus>
</clustering>
</event>
<event>
 9    1  0.2374319E-005  0.1075193E+03  0.7546771E-02  0.1267329E+00
          1   -1    0    0  502    0  0.00000000000E+00  0.00000000000E+00  0.71626974783E+03  0.71626974783E+03  0.00000000000E+00 0. -1.
         -2   -1    0    0    0  501 -0.00000000000E+00 -0.00000000000E+00 -0.31016246761E+02  0.31016246761E+02  0.00000000000E+00 0.  1.
        -24    2    1    2    0    0  0.46396651895E+02 -0.85929119730E+01  0.12651466904E+03  0.16410114927E+03  0.93256304158E+02 0.  0.
         23    2    1    2    0    0 -0.75726637726E+02 -0.26080096629E+02  0.44576223000E+03  0.46142205052E+03  0.88270311561E+02 0.  0.
         11    1    3    3    0    0 -0.13009936882E+02 -0.36481843999E+02  0.42689569068E+02  0.57641848569E+02  0.00000000000E+00 0. -1.
        -12    1    3    3    0    0  0.59406588777E+02  0.27888932026E+02  0.83825099973E+02  0.10645930070E+03  0.00000000000E+00 0.  1.
        -11    1    4    4    0    0 -0.28744980790E+01 -0.39809942663E+02  0.22586228566E+03  0.22936186771E+03  0.00000000000E+00 0. -1.
         11    1    4    4    0    0 -0.72852139647E+02  0.13729846035E+02  0.21989994434E+03  0.23206018281E+03  0.00000000000E+00 0.  1.
         21    1    1    2  502  501  0.29329985832E+02  0.34673008602E+02  0.11297660202E+03  0.12176279480E+03  0.00000000000E+00 0.  1.
<scales pt_clust_5="13000.00000" pt_clust_6="13000.00000" pt_clust_7="13000.00000" pt_clust_8="13000.00000" pt_clust_9="45.41438"></scales>
<clustering>
<clus scale="   45.414">  1  9  2 -1</clus>
<clus scale="   88.270">  7  8 -1 -1</clus>
<clus scale="   93.256">  5  6 -1 -1</clus>
<clus scale="  103.225">  1  7  2 -1</clus>
<clus scale="   45.414">  1  5  2 -1</clus>
</clustering>
</event>
<event>
 9    1  0.2374319E-005  0.1034716E+03  0.7546771E-02  0.1278922E+00
         -4   -1    0    0    0  501 -0.00000000000E+00  0.00000000000E+00  0.31155475124E+03  0.31155475124E+03  0.00000000000E+00 0.  1.
          3   -1    0    0  502    0  0.00000000000E+00 -0.00000000000E+00 -0.45317896462E+02  0.45317896462E+02  0.00000000000E+00 0. -1.
        -24    2    1    2    0    0  0.96377755690E+01 -0.54820000364E+02  0.18679571595E+03  0.21043929654E+03  0.79334348649E+02 0.  0.
         23    2    1    2    0    0 -0.98491669831E+01  0.30473708609E+02  0.72147246904E+02  0.12101706764E+03  0.91729234258E+02 0.  0.
         11    1    3    3    0    0  0.34978728830E+02  0.71775871082E+00  0.54880448723E+02  0.65083717627E+02  0.00000000000E+00 0. -1.
        -12    1    3    3    0    0 -0.25340953261E+02 -0.55537759075E+02  0.13191526722E+03  0.14535557892E+03  0.00000000000E+00 0.  1.
        -13    1    4    4    0    0  0.98645748067E+01 -0.29684469959E+02  0.37557002895E+02  0.48877459624E+02  0.00000000000E+00 0.  1.
         13    1    4    4    0    0 -0.19713741790E+02  0.60158178568E+02  0.34590244009E+02  0.72139608016E+02  0.00000000000E+00 0. -1.
         21    1    1    2  502  501  0.21139141415E+00  0.24346291755E+02  0.72938919275E+01  0.25416283520E+02  0.00000000000E+00 0.  1.
<scales pt_clust_5="13000.00000" pt_clust_6="13000.00000" pt_clust_7="13000.00000" pt_clust_8="13000.00000" pt_clust_9="24.34721"></scales>
<clustering>
<clus scale="   24.347">  2  9  1 -1</clus>
<clus scale="   79.334">  5  6 -1 -1</clus>
<clus scale="   91.729">  7  8 -1 -1</clus>
<clus scale="   92.661">  1  5  2 -1</clus>
<clus scale="   24.347">  2  5  1 -1</clus>
</clustering>
</event>
<event>
 9    1  0.2374319E-005  0.1291475E+03  0.7546771E-02  0.1230463E+00
          1   -1    0    0  502    0  0.00000000000E+00  0.00000000000E+00  0.43838455483E+03  0.43838455483E+03  0.00000000000E+00 0. -1.
         -2   -1    0    0    0  501 -0.00000000000E+00 -0.00000000000E+00 -0.15799406853E+03  0.15799406853E+03  0.00000000000E+00 0.  1.
         23    2    1    2    0    0  0.95582525579E+02 -0.31243872773E+01 -0.11425257436E+03  0.17484552337E+03  0.91496039827E+02 0.  0.
        -24    2    1    2    0    0 -0.56065491134E+02  0.95621269637E+01  0.22352924969E+03  0.24579756912E+03  0.84949078590E+02 0.  0.
         13    1    4    4    0    0 -0.11089801317E+01  0.38688239763E+02  0.10563716805E+03  0.11250431550E+03  0.00000000000E+00 0. -1.
        -14    1    4    4    0    0 -0.54956511002E+02 -0.29126112800E+02  0.11789208164E+03  0.13329325362E+03  0.00000000000E+00 0.  1.
        -11    1    3    3    0    0  0.67340941256E+02  0.35775356869E+02 -0.97849908325E+02  0.12405354927E+03  0.00000000000E+00 0.  1.
         11    1    3    3    0    0  0.28241584324E+02 -0.38899744146E+02 -0.16402666030E+02  0.50791974097E+02  0.00000000000E+00 0. -1.
         21    1    1    2  502  501 -0.39517034446E+02 -0.64377396863E+01  0.17111381097E+03  0.17573553087E+03  0.00000000000E+00 0. -1.
<scales pt_clust_5="13000.00000" pt_clust_6="13000.00000" pt_clust_7="13000.00000" pt_clust_8="13000.00000" pt_clust_9="40.03799"></scales>
<clustering>
<clus scale="   40.038">  1  9  2 -1</clus>
<clus scale="   84.949">  5  6 -1 -1</clus>
<clus scale="   91.496">  7  8 -1 -1</clus>
<clus scale="  124.595">  1  5  2 -1</clus>
<clus scale="   40.038">  1  5  2 -1</clus>
</clustering>
</event>
<event>
 9    1  0.2374319E-005  0.1519359E+03  0.7546771E-02  0.1199643E+00
         -2   -1    0    0    0  501 -0.00000000000E+00  0.00000000000E+00  0.49897157260E+02  0.49897157260E+02  0.00000000000E+00 0.  1.
          1   -1    0    0  502    0  0.00000000000E+00 -0.00000000000E+00 -0.95003638293E+03  0.95003638293E+03  0.00000000000E+00 0. -1.
        -24    2    1    2    0    0 -0.33687054738E+02 -0.10677464291E+03 -0.11283912684E+03  0.18002712961E+03  0.84507140676E+02 0.  0.
         23    2    1    2    0    0  0.66077312822E+02  0.13915868423E+03 -0.56531745087E+03  0.59324774441E+03  0.92885495781E+02 0.  0.
         11    1    3    3    0    0 -0.37352585983E+02 -0.80777710173E+01 -0.50131352009E+02  0.63036644251E+02  0.00000000000E+00 0. -1.
        -12    1    3    3    0    0  0.36655312443E+01 -0.98696871896E+02 -0.62707774827E+02  0.11699048536E+03  0.00000000000E+00 0.  1.
        -11    1    4    4    0    0  0.41092413097E+02  0.48370970443E+02 -0.99581458929E+02  0.11808812031E+03  0.00000000000E+00 0.  1.
         11    1    4    4    0    0  0.24984899724E+02  0.90787713786E+02 -0.46573599194E+03  0.47515962410E+03  0.00000000000E+00 0. -1.
         21    1    1    2  502  501 -0.32390258083E+02 -0.32384041317E+02 -0.22198264797E+03  0.22665866617E+03  0.00000000000E+00 0. -1.
<scales pt_clust_5="13000.00000" pt_clust_6="13000.00000" pt_clust_7="13000.00000" pt_clust_8="13000.00000" pt_clust_9="45.80235"></scales>
<clustering>
<clus scale="   45.802">  2  9  1 -1</clus>
<clus scale="   84.507">  5  6 -1 -1</clus>
<clus scale="   92.885">  7  8 -1 -1</clus>
<clus scale="  146.963">  1  5  2 -1</clus>
<clus scale="   45.802">  2  5  1 -1</clus>
</clustering>
</event>
<event>
 9    1  0.2374319E-005  0.1662190E+03  0.7546771E-02  0.1183871E+00
          1   -1    0    0  502    0  0.00000000000E+00  0.00000000000E+00  0.44195216648E+03  0.44195216648E+03  0.00000000000E+00 0. -1.
         -2   -1    0    0    0  501 -0.00000000000E+00 -0.00000000000E+00 -0.14235927724E+03  0.14235927724E+03  0.00000000000E+00 0.  1.
         23    2    1    2    0    0 -0.22215328706E+02  0.13578447302E+03 -0.60196275677E+02  0.17482097150E+03  0.89486515897E+02 0.  0.
        -24    2    1    2    0    0  0.14520928082E+02 -0.15517262434E+03  0.33568419887E+03  0.37761330798E+03  0.74956842902E+02 0.  0.
         13    1    4    4    0    0  0.35979328487E+02 -0.41235504260E+02  0.80674558998E+02  0.97484682692E+02  0.00000000000E+00 0. -1.
        -14    1    4    4    0    0 -0.21458400405E+02 -0.11393712008E+03  0.25500963987E+03  0.28012862529E+03  0.00000000000E+00 0.  1.
        -11    1    3    3    0    0  0.23686146067E+02  0.36776946224E+02 -0.48108644157E+02  0.65023218405E+02  0.00000000000E+00 0.  1.
         11    1    3    3    0    0 -0.45901474773E+02  0.99007526794E+02 -0.12087631519E+02  0.10979775309E+03  0.00000000000E+00 0. -1.
         21    1    1    2  502  501  0.76944006240E+01  0.19388151320E+02  0.24104966052E+02  0.31877164255E+02  0.00000000000E+00 0.  1.
<scales pt_clust_5="13000.00000" pt_clust_6="13000.00000" pt_clust_7="13000.00000" pt_clust_8="13000.00000" pt_clust_9="20.85915"></scales>
<clustering>
<clus scale="   20.859">  1  9  2 -1</clus>
<clus scale="   74.957">  5  6 -1 -1</clus>
<clus scale="   89.487">  7  8 -1 -1</clus>
<clus scale="  158.869">  1  5  2 -1</clus>
<clus scale="   20.859">  1  5  2 -1</clus>
</clustering>
</event>
<event>
 9    1  0.2374319E-005  0.1565052E+03  0.7546771E-02  0.1194455E+00
         -4   -1    0    0    0  501 -0.00000000000E+00  0.00000000000E+00  0.37831947558E+03  0.37831947558E+03  0.00000000000E+00 0.  1.
          3   -1    0    0  502    0  0.00000000000E+00 -0.00000000000E+00 -0.85587580032E+02  0.85587580032E+02  0.00000000000E+00 0. -1.
        -24    2    1    2    0    0 -0.13687852800E+03 -0.16819352744E+02  0.17350623116E+03  0.23530285976E+03  0.79021525573E+02 0.  0.
         23    2    1    2    0    0  0.11754333508E+03 -0.20780306910E+02  0.10954538593E+03  0.18523033411E+03  0.89787684670E+02 0.  0.
         11    1    3    3    0    0 -0.83958663846E+02 -0.89922450859E+01  0.44070034116E+02  0.95247496626E+02  0.00000000000E+00 0. -1.
        -12    1    3    3    0    0 -0.52919864157E+02 -0.78271076582E+01  0.12943619705E+03  0.14005536314E+03  0.00000000000E+00 0.  1.
        -11    1    4    4    0    0  0.73748752486E+02 -0.23341564617E+02  0.12007294703E+02  0.78280791118E+02  0.00000000000E+00 0. -1.
         11    1    4    4    0    0  0.43794582596E+02  0.25612577066E+01  0.97538091228E+02  0.10694954299E+03  0.00000000000E+00 0.  1.
         21    1    1    2  502  501  0.19335192920E+02  0.37599659654E+02  0.96802784530E+01  0.43373861740E+02  0.00000000000E+00 0.  1.
<scales pt_clust_5="13000.00000" pt_clust_6="13000.00000" pt_clust_7="13000.00000" pt_clust_8="13000.00000" pt_clust_9="42.27983"></scales>
<clustering>
<clus scale="   42.280">  2  9  1 -1</clus>
<clus scale="   79.022">  5  6 -1 -1</clus>
<clus scale="   89.788">  7  8 -1 -1</clus>
<clus scale="  150.587">  1  5  2 -1</clus>
<clus scale="   42.280">  2  5  1 -1</clus>
</clustering>
</event>
<event>
 9    1  0.2374319E-005  0.8491751E+02  0.7546771E-02  0.1316566E+00
          1   -1    0    0  502    0  0.00000000000E+00  0.00000000000E+00  0.52579075098E+03  0.52579075098E+03  0.00000000000E+00 0. -1.
         -2   -1    0    0    0  501 -0.00000000000E+00 -0.00000000000E+00 -0.69780548335E+02  0.69780548335E+02  0.00000000000E+00 0.  1.
        -24    2    1    2    0    0 -0.31388611386E+02  0.62735596729E+01 -0.32903311766E+02  0.90942078124E+02  0.78506249258E+02 0.  0.
         23    2    1    2    0    0  0.41096437437E+00  0.13128955041E+02  0.24672520986E+03  0.25969811444E+03  0.79982767601E+02 0.  0.
         11    1    3    3    0    0 -0.25362642773E+02 -0.34699347187E+02 -0.12414727813E+02  0.44737387164E+02  0.00000000000E+00 0. -1.
        -12    1    3    3    0    0 -0.60259686134E+01  0.40972906860E+02 -0.20488583953E+02  0.46204690960E+02  0.00000000000E+00 0.  1.
        -11    1    4    4    0    0 -0.32039006542E+02  0.26482287955E+02  0.90632971634E+02  0.99710305700E+02  0.00000000000E+00 0.  1.
         11    1    4    4    0    0  0.32449970916E+02 -0.13353332915E+02  0.15609223823E+03  0.15998780874E+03  0.00000000000E+00 0. -1.
         21    1    1    2  502  501  0.30977647012E+02 -0.19402514714E+02  0.24218830456E+03  0.24493110675E+03  0.00000000000E+00 0.  1.
<scales pt_clust_5="13000.00000" pt_clust_6="13000.00000" pt_clust_7="13000.00000" pt_clust_8="13000.00000" pt_clust_9="36.55232"></scales>
<clustering>
<clus scale="   36.552">  1  9  2 -1</clus>
<clus scale="   78.506">  5  6 -1 -1</clus>
<clus scale="   79.983">  7  8 -1 -1</clus>
<clus scale="   83.528">  2  5  1 -1</clus>
<clus scale="   36.552">  1  5  2 -1</clus>
</clustering>
</event>
<event>
 9    1  0.2374319E-005  0.1560708E+03  0.7546771E-02  0.1194967E+00
          1   -1    0    0  502    0  0.00000000000E+00  0.00000000000E+00  0.32046467036E+03  0.32046467036E+03  0.00000000000E+00 0. -1.
         -2   -1    0    0    0  501 -0.00000000000E+00 -0.00000000000E+00 -0.10852402835E+03  0.10852402835E+03  0.00000000000E+00 0.  1.
         23    2    1    2    0    0 -0.13412955149E+03  0.17157071439E+02  0.15819750859E+02  0.16472056968E+03  0.92722704207E+02 0.  0.
        -24    2    1    2    0    0  0.10948534426E+03  0.10270229230E+02  0.13335153263E+03  0.19146987259E+03  0.82374526649E+02 0.  0.
         13    1    4    4    0    0  0.35044046565E+02  0.42879932791E+01  0.10635011456E+03  0.11205721285E+03  0.00000000000E+00 0. -1.
        -14    1    4    4    0    0  0.74441297692E+02  0.59822359508E+01  0.27001418073E+02  0.79412659740E+02  0.00000000000E+00 0.  1.
        -13    1    3    3    0    0 -0.81362542336E+02 -0.34498278634E+02 -0.33266950886E+01  0.88436765117E+02  0.00000000000E+00 0.  1.
         13    1    3    3    0    0 -0.52767009150E+02  0.51655350074E+02  0.19146445948E+02  0.76283804561E+02  0.00000000000E+00 0. -1.
         21    1    1    2  502  501  0.24644207228E+02 -0.27427300669E+02  0.62769358514E+02  0.72798256436E+02  0.00000000000E+00 0.  1.
<scales pt_clust_5="13000.00000" pt_clust_6="13000.00000" pt_clust_7="13000.00000" pt_clust_8="13000.00000" pt_clust_9="36.87267"></scales>
<clustering>
<clus scale="   36.873">  1  9  2 -1</clus>
<clus scale="   82.375">  5  6 -1 -1</clus>
<clus scale="   92.723">  7  8 -1 -1</clus>
<clus scale="  150.154">  1  5  2 -1</clus>
<clus scale="   36.873">  1  5  2 -1</clus>
</clustering>
</event>
<event>
 9    1  0.2374319E-005  0.1213092E+03  0.7546771E-02  0.1245293E+00
         -2   -1    0    0    0  501 -0.00000000000E+00  0.00000000000E+00  0.13161444767E+03  0.13161444767E+03  0.00000000000E+00 0.  1.
          1   -1    0    0  502    0  0.00000000000E+00 -0.00000000000E+00 -0.46683308770E+03  0.46683308770E+03  0.00000000000E+00 0. -1.
         23    2    1    2    0    0  0.62329741585E+01  0.76583299851E+02  0.89266853321E+02  0.15021152717E+03  0.93225962104E+02 0.  0.
        -24    2    1    2    0    0  0.14490921585E+02 -0.88452200012E+02 -0.36357747344E+03  0.38281324812E+03  0.79521225148E+02 0.  0.
         11    1    4    4    0    0  0.13583915242E+02 -0.73773942562E+02 -0.35992667596E+03  0.36766061718E+03  0.00000000000E+00 0. -1.
        -12    1    4    4    0    0  0.90700634357E+00 -0.14678257449E+02 -0.36507974764E+01  0.15152630942E+02  0.00000000000E+00 0.  1.
        -11    1    3    3    0    0  0.37417757204E+02  0.28606412382E+02  0.79148332448E+02  0.92102518493E+02  0.00000000000E+00 0.  1.
         11    1    3    3    0    0 -0.31184783046E+02  0.47976887469E+02  0.10118520873E+02  0.58109008678E+02  0.00000000000E+00 0. -1.
         21    1    1    2  502  501 -0.20723895744E+02  0.11868900160E+02 -0.60908019916E+02  0.65422760075E+02  0.00000000000E+00 0. -1.
<scales pt_clust_5="13000.00000" pt_clust_6="13000.00000" pt_clust_7="13000.00000" pt_clust_8="13000.00000" pt_clust_9="23.88202"></scales>
<clustering>
<clus scale="   23.882">  2  9  1 -1</clus>
<clus scale="   79.521">  5  6 -1 -1</clus>
<clus scale="   93.226">  7  8 -1 -1</clus>
<clus scale="  111.124">  2  5  1 -1</clus>
<clus scale="   23.882">  2  5  1 -1</clus>
</clustering>
</event>
<event>
 9    1  0.2374319E-005  0.9775240E+02  0.7546771E-02  0.1296034E+00
          1   -1    0    0  502    0  0.00000000000E+00  0.00000000000E+00  0.36296999630E+03  0.36296999630E+03  0.00000000000E+00 0. -1.
         -2   -1    0    0    0  501 -0.00000000000E+00 -0.00000000000E+00 -0.12918664013E+03  0.12918664013E+03  0.00000000000E+00 0.  1.
         23    2    1    2    0    0  0.11307783804E+02 -0.50749490858E+01 -0.97760461695E+02  0.13799109344E+03  0.96596133027E+02 0.  0.
        -24    2    1    2    0    0 -0.33725124857E+02  0.25884307264E+02  0.19697197012E+03  0.21616138082E+03  0.78233011805E+02 0.  0.
         13    1    4    4    0    0 -0.48685366737E+01  0.46620809225E+02  0.69505296611E+02  0.83834293455E+02  0.00000000000E+00 0. -1.
        -14    1    4    4    0    0 -0.28856588183E+02 -0.20736501961E+02  0.12746667351E+03  0.13232708736E+03  0.00000000000E+00 0.  1.
        -11    1    3    3    0    0 -0.21522182018E+02  0.45765836556E+01 -0.10123244993E+03  0.10359613098E+03  0.00000000000E+00 0.  1.
         11    1    3    3    0    0  0.32829965822E+02 -0.96515327414E+01  0.34719882321E+01  0.34394962457E+02  0.00000000000E+00 0. -1.
         21    1    1    2  502  501  0.22417341053E+02 -0.20809358178E+02  0.13457184775E+03  0.13800416216E+03  0.00000000000E+00 0. -1.
<scales pt_clust_5="13000.00000" pt_clust_6="13000.00000" pt_clust_7="13000.00000" pt_clust_8="13000.00000" pt_clust_9="30.58703"></scales>
<clustering>
<clus scale="   30.587">  1  9  2 -1</clus>
<clus scale="   78.233">  5  6 -1 -1</clus>
<clus scale="   79.656">  1  5  2 -1</clus>
<clus scale="   96.596">  7  8 -1 -1</clus>
<clus scale="   30.587">  1  5  2 -1</clus>
</clustering>
</event>
<event>
 9    1  0.2374319E-005  0.1023220E+03  0.7546771E-02  0.1280167E+00
          1   -1    0    0  502    0  0.00000000000E+00  0.00000000000E+00  0.23009703900E+03  0.23009703900E+03  0.00000000000E+00 0. -1.
         -2   -1    0    0    0  501 -0.00000000000E+00 -0.00000000000E+00 -0.90818221019E+02  0.90818221019E+02  0.00000000000E+00 0.  1.
        -24    2    1    2    0    0 -0.43659608934E+02 -0.25310692860E+02 -0.42677795214E+02  0.10418468386E+03  0.80537329992E+02 0.  0.
         23    2    1    2    0    0  0.33677835456E+02  0.71241654347E+01  0.14595243774E+03  0.17517716195E+03  0.90553705906E+02 0.  0.
         11    1    3    3    0    0 -0.24480859316E+02 -0.22748287872E+01  0.21940555155E+02  0.32952621737E+02  0.00000000000E+00 0. -1.
        -12    1    3    3    0    0 -0.19178749619E+02 -0.23035864073E+02 -0.64618350369E+02  0.71232062128E+02  0.00000000000E+00 0.  1.
        -11    1    4    4    0    0  0.49034544255E+02 -0.17639179192E+02  0.41149344666E+02  0.66398763085E+02  0.00000000000E+00 0. -1.
         11    1    4    4    0    0 -0.15356708799E+02  0.24763344626E+02  0.10480309307E+03  0.10877839887E+03  0.00000000000E+00 0.  1.
         21    1    1    2  502  501  0.99817734780E+01  0.18186527426E+02  0.36004175451E+02  0.41553414197E+02  0.00000000000E+00 0. -1.
<scales pt_clust_5="13000.00000" pt_clust_6="13000.00000" pt_clust_7="13000.00000" pt_clust_8="13000.00000" pt_clust_9="20.74574"></scales>
<clustering>
<clus scale="   20.746">  1  9  2 -1</clus>
<clus scale="   80.537">  5  6 -1 -1</clus>
<clus scale="   90.554">  7  8 -1 -1</clus>
<clus scale="   93.574">  2  5  1 -1</clus>
<clus scale="   20.746">  1  5  2 -1</clus>
</clustering>
</event>
<event>
 9    1  0.2374319E-005  0.1168303E+03  0.7546771E-02  0.1253642E+00
         -2   -1    0    0    0  501 -0.00000000000E+00  0.00000000000E+00  0.54575274293E+02  0.54575274293E+02  0.00000000000E+00 0.  1.
          1   -1    0    0  502    0  0.00000000000E+00 -0.00000000000E+00 -0.63750745972E+03  0.63750745972E+03  0.00000000000E+00 0. -1.
        -24    2    1    2    0    0 -0.62825325588E+02  0.25814126355E+02 -0.20941155159E+02  0.10727822248E+03  0.80353558624E+02 0.  0.
         23    2    1    2    0    0  0.50937191098E+02 -0.54828891085E+02 -0.50955519776E+03  0.52370867825E+03  0.94991975332E+02 0.  0.
         13    1    3    3    0    0 -0.22022215774E+02 -0.15137808332E+02 -0.38495693807E+02  0.46862028022E+02  0.00000000000E+00 0. -1.
        -14    1    3    3    0    0 -0.40803109814E+02  0.40951934687E+02  0.17554538648E+02  0.60416194454E+02  0.00000000000E+00 0.  1.
        -11    1    4    4    0    0 -0.21572789356E+02 -0.40601649813E+02 -0.23016287615E+03  0.23471009515E+03  0.00000000000E+00 0.  1.
         11    1    4    4    0    0  0.72509980454E+02 -0.14227241273E+02 -0.27939232161E+03  0.28899858310E+03  0.00000000000E+00 0. -1.
         21    1    1    2  502  501  0.11888134489E+02  0.29014764730E+02 -0.52435832506E+02  0.61095833283E+02  0.00000000000E+00 0.  1.
<scales pt_clust_5="13000.00000" pt_clust_6="13000.00000" pt_clust_7="13000.00000" pt_clust_8="13000.00000" pt_clust_9="31.35577"></scales>
<clustering>
<clus scale="   31.356">  2  9  1 -1</clus>
<clus scale="   80.354">  5  6 -1 -1</clus>
<clus scale="   94.992">  7  8 -1 -1</clus>
<clus scale="  105.274">  1  5  2 -1</clus>
<clus scale="   31.356">  2  5  1 -1</clus>
</clustering>
</event>
<event>
 9    1  0.2374319E-005  0.1797084E+03  0.7546771E-02  0.1169629E+00
         -2   -1    0    0    0  501 -0.00000000000E+00  0.00000000000E+00  0.93988471940E+02  0.93988471940E+02  0.00000000000E+00 0.  1.
          1   -1    0    0  502    0  0.00000000000E+00 -0.00000000000E+00 -0.42202251851E+03  0.42202251851E+03  0.00000000000E+00 0. -1.
        -24    2    1    2    0    0 -0.72315225368E+02 -0.15647020962E+03 -0.11411386630E+03  0.21983315130E+03  0.74781158123E+02 0.  0.
         23    2    1    2    0    0  0.57773624090E+02  0.12669593542E+03 -0.14445612726E+03  0.21921537926E+03  0.88307180398E+02 0.  0.
         13    1    3    3    0    0 -0.70165985121E+02 -0.11663518848E+03 -0.11747582147E+03  0.17979878000E+03  0.00000000000E+00 0. -1.
        -14    1    3    3    0    0 -0.21492402469E+01 -0.39835021139E+02  0.33619551697E+01  0.40034371299E+02  0.00000000000E+00 0.  1.
        -11    1    4    4    0    0  0.71266434330E+02  0.11165456238E+03 -0.87423186380E+02  0.15870872528E+03  0.00000000000E+00 0.  1.
         11    1    4    4    0    0 -0.13492810240E+02  0.15041373043E+02 -0.57032940882E+02  0.60506653989E+02  0.00000000000E+00 0. -1.
         21    1    1    2  502  501  0.14541601278E+02  0.29774274195E+02 -0.69464053011E+02  0.76962459890E+02  0.00000000000E+00 0.  1.
<scales pt_clust_5="13000.00000" pt_clust_6="13000.00000" pt_clust_7="13000.00000" pt_clust_8="13000.00000" pt_clust_9="33.13556"></scales>
<clustering>
<clus scale="   33.136">  2  9  1 -1</clus>
<clus scale="   74.781">  5  6 -1 -1</clus>
<clus scale="   88.307">  7  8 -1 -1</clus>
<clus scale="  173.462">  1  5  2 -1</clus>
<clus scale="   33.136">  2  5  1 -1</clus>
</clustering>
</event>
<event>
 9    1  0.2374319E-005  0.1131569E+03  0.7546771E-02  0.1258946E+00
         -2   -1    0    0    0  501 -0.00000000000E+00  0.00000000000E+00  0.23475217245E+03  0.23475217245E+03  0.00000000000E+00 0.  1.
          1   -1    0    0  502    0  0.00000000000E+00 -0.00000000000E+00 -0.26839026266E+03  0.26839026266E+03  0.00000000000E+00 0. -1.
         23    2    1    2    0    0 -0.76372995343E+02 -0.90872517834E+01  0.18949873297E+03  0.22393364214E+03  0.91220029180E+02 0.  0.
        -24    2    1    2    0    0  0.51381572109E+01  0.31885376282E+02 -0.79757986382E+02  0.11749408280E+03  0.80002782580E+02 0.  0.
         13    1    4    4    0    0 -0.71649316138E+01  0.40648139501E+02 -0.90156954159E+02  0.99155856474E+02  0.00000000000E+00 0. -1.
        -14    1    4    4    0    0  0.12303088825E+02 -0.87627632192E+01  0.10398967777E+02  0.18338226323E+02  0.00000000000E+00 0.  1.
        -13    1    3    3    0    0 -0.92058635146E+02 -0.23745322324E+02  0.13293683772E+03  0.16343449899E+03  0.00000000000E+00 0.  1.
         13    1    3    3    0    0  0.15685639804E+02  0.14658070540E+02  0.56561895243E+02  0.60499143147E+02  0.00000000000E+00 0. -1.
         21    1    1    2  502  501  0.71234838132E+02 -0.22798124499E+02 -0.14337883679E+03  0.16171471017E+03  0.00000000000E+00 0. -1.
<scales pt_clust_5="13000.00000" pt_clust_6="13000.00000" pt_clust_7="13000.00000" pt_clust_8="13000.00000" pt_clust_9="74.79409"></scales>
<clustering>
<clus scale="   74.794">  2  9  1 -1</clus>
<clus scale="   80.003">  5  6 -1 -1</clus>
<clus scale="   91.220">  7  8 -1 -1</clus>
<clus scale="  104.326">  2  5  1 -1</clus>
<clus scale="   74.794">  2  5  1 -1</clus>
</clustering>
</event>
<event>
 9    1  0.2374319E-005  0.1216043E+03  0.7546771E-02  0.1244282E+00
          3   -1    0    0  502    0  0.00000000000E+00  0.00000000000E+00  0.13904479136E+03  0.13904479136E+03  0.00000000000E+00 0. -1.
         -4   -1    0    0    0  501 -0.00000000000E+00 -0.00000000000E+00 -0.26345683494E+03  0.26345683494E+03  0.00000000000E+00 0.  1.
        -24    2    1    2    0    0  0.28334491404E+02 -0.79261961207E+02 -0.19574951907E+03  0.22838533968E+03  0.82199070943E+02 0.  0.
         23    2    1    2    0    0 -0.40980634267E+02  0.29397337863E+02  0.41208457239E+02  0.11449948252E+03  0.94172069587E+02 0.  0.
         11    1    3    3    0    0  0.28422278011E+02  0.82333545925E+01 -0.40198036270E+02  0.49914888913E+02  0.00000000000E+00 0. -1.
        -12    1    3    3    0    0 -0.87786607476E-01 -0.87495315800E+02 -0.15555148280E+03  0.17847045076E+03  0.00000000000E+00 0.  1.
        -13    1    4    4    0    0  0.26469181115E+02  0.27393444265E+02  0.65902543652E+01  0.38658114157E+02  0.00000000000E+00 0. -1.
         13    1    4    4    0    0 -0.67449815381E+02  0.20038935984E+01  0.34618202874E+02  0.75841368360E+02  0.00000000000E+00 0.  1.
         21    1    1    2  502  501  0.12646142863E+02  0.49864623344E+02  0.30129018263E+02  0.59616804108E+02  0.00000000000E+00 0. -1.
<scales pt_clust_5="13000.00000" pt_clust_6="13000.00000" pt_clust_7="13000.00000" pt_clust_8="13000.00000" pt_clust_9="51.44323"></scales>
<clustering>
<clus scale="   51.443">  1  9  2 -1</clus>
<clus scale="   82.199">  5  6 -1 -1</clus>
<clus scale="   94.172">  7  8 -1 -1</clus>
<clus scale="  112.587">  2  5  1 -1</clus>
<clus scale="   51.443">  1  5  2 -1</clus>
</clustering>
</event>
<event>
 9    1  0.2374319E-005  0.1079876E+03  0.7546771E-02  0.1270014E+00
          1   -1    0    0  502    0  0.00000000000E+00  0.00000000000E+00  0.17316746666E+03  0.17316746666E+03  0.00000000000E+00 0. -1.
         -2   -1    0    0    0  501 -0.00000000000E+00 -0.00000000000E+00 -0.29605340550E+03  0.29605340550E+03  0.00000000000E+00 0.  1.
        -24    2    1    2    0    0 -0.37208218914E+02 -0.44496755471E+02 -0.26168519855E+03  0.27935533713E+03  0.78713711890E+02 0.  0.
         23    2    1    2    0    0  0.98506820687E+01  0.29696941640E+02  0.11509943782E+03  0.15076117634E+03  0.92206872968E+02 0.  0.
         13    1    3    3    0    0 -0.28843238722E+01  0.20440574832E+02 -0.30878586552E+02  0.37143283796E+02  0.00000000000E+00 0. -1.
        -14    1    3    3    0    0 -0.34323895042E+02 -0.64937330303E+02 -0.23080661200E+03  0.24221205333E+03  0.00000000000E+00 0.  1.
        -13    1    4    4    0    0 -0.46844134951E+01 -0.26198554432E+02  0.59461406196E+01  0.27270214015E+02  0.00000000000E+00 0.  1.
         13    1    4    4    0    0  0.14535095564E+02  0.55895496072E+02  0.10915329721E+03  0.12349096232E+03  0.00000000000E+00 0. -1.
         21    1    1    2  502  501  0.27357536845E+02  0.14799813831E+02  0.23699821881E+02  0.39104358694E+02  0.00000000000E+00 0. -1.
<scales pt_clust_5="13000.00000" pt_clust_6="13000.00000" pt_clust_7="13000.00000" pt_clust_8="13000.00000" pt_clust_9="31.10417"></scales>
<clustering>
<clus scale="   31.104">  1  9  2 -1</clus>
<clus scale="   78.714">  5  6 -1 -1</clus>
<clus scale="   92.207">  7  8 -1 -1</clus>
<clus scale="   96.722">  2  5  1 -1</clus>
<clus scale="   31.104">  1  5  2 -1</clus>
</clustering>
</event>
<event>
 9    1  0.2374319E-005  0.1016046E+03  0.7546771E-02  0.1285177E+00
          1   -1    0    0  502    0  0.00000000000E+00  0.00000000000E+00  0.18641133775E+03  0.18641133775E+03  0.00000000000E+00 0. -1.
         -2   -1    0    0    0  501 -0.00000000000E+00 -0.00000000000E+00 -0.26133053650E+03  0.26133053650E+03  0.00000000000E+00 0.  1.
         23    2    1    2    0    0 -0.88791090596E+01  0.33616243076E+02 -0.21704568236E+03  0.23980364430E+03  0.95854416759E+02 0.  0.
        -24    2    1    2    0    0  0.35231867880E+02 -0.89711540551E+01  0.14721343290E+03  0.17150026399E+03  0.80117286542E+02 0.  0.
         13    1    4    4    0    0  0.11662166059E+02 -0.26634252350E+02  0.13741831336E+03  0.14046060787E+03  0.00000000000E+00 0. -1.
        -14    1    4    4    0    0  0.23569701821E+02  0.17663098295E+02  0.97951195362E+01  0.31039656120E+02  0.00000000000E+00 0.  1.
        -11    1    3    3    0    0  0.31719787413E+02 -0.15841548982E+02 -0.53460057655E+02  0.64148868674E+02  0.00000000000E+00 0. -1.
         11    1    3    3    0    0 -0.40598896473E+02  0.49457792058E+02 -0.16358562470E+03  0.17565477562E+03  0.00000000000E+00 0.  1.
         21    1    1    2  502  501 -0.26352758820E+02 -0.24645089021E+02 -0.50869492990E+01  0.36437965962E+02  0.00000000000E+00 0. -1.
<scales pt_clust_5="13000.00000" pt_clust_6="13000.00000" pt_clust_7="13000.00000" pt_clust_8="13000.00000" pt_clust_9="36.08114"></scales>
<clustering>
<clus scale="   36.081">  1  9  2 -1</clus>
<clus scale="   80.117">  5  6 -1 -1</clus>
<clus scale="   86.915">  1  5  2 -1</clus>
<clus scale="   95.854">  7  8 -1 -1</clus>
<clus scale="   36.081">  1  5  2 -1</clus>
</clustering>
</event>
<event>
 9    1  0.2374319E-005  0.3463232E+03  0.7546771E-02  0.1088039E+00
         -2   -1    0    0    0  501 -0.00000000000E+00  0.00000000000E+00  0.75722916695E+03  0.75722916695E+03  0.00000000000E+00 0.  1.
          1   -1    0    0  502    0  0.00000000000E+00 -0.00000000000E+00 -0.10202714168E+04  0.10202714168E+04  0.00000000000E+00 0. -1.
        -24    2    1    2    0    0 -0.30378797292E+03  0.88041150864E+02  0.50241312884E+03  0.59911142472E+03  0.80480870202E+02 0.  0.
         23    2    1    2    0    0 -0.10456432295E+03  0.11548434760E+03 -0.69319808041E+03  0.71644182087E+03  0.92168171461E+02 0.  0.
         13    1    3    3    0    0 -0.14802299661E+03  0.54514287225E+02  0.17904494575E+03  0.23862042586E+03  0.00000000000E+00 0. -1.
        -14    1    3    3    0    0 -0.15576497631E+03  0.33526863639E+02  0.32336818309E+03  0.36049099887E+03  0.00000000000E+00 0.  1.
        -13    1    4    4    0    0  0.14197698254E+02  0.23581361018E+02 -0.65855464145E+02  0.71376448363E+02  0.00000000000E+00 0.  1.
         13    1    4    4    0    0 -0.11876202120E+03  0.91902986580E+02 -0.62734261627E+03  0.64506537251E+03  0.00000000000E+00 0. -1.
         21    1    1    2  502  501  0.40835229587E+03 -0.20352549846E+03 -0.72257298262E+02  0.46194733814E+03  0.00000000000E+00 0.  1.
<scales pt_clust_5="13000.00000" pt_clust_6="13000.00000" pt_clust_7="13000.00000" pt_clust_8="13000.00000" pt_clust_9="336.84205"></scales>
<clustering>
<clus scale="   80.481">  5  6 -1 -1</clus>
<clus scale="   92.168">  7  8 -1 -1</clus>
<clus scale="  181.012">  2  7  1 -1</clus>
<clus scale="  336.842">  2  9  1 -1</clus>
<clus scale="  181.012">  2  5  1 -1</clus>
</clustering>
</event>
<event>
 9    1  0.2374319E-005  0.1088854E+03  0.7546771E-02  0.1264344E+00
          1   -1    0    0  502    0  0.00000000000E+00  0.00000000000E+00  0.47542342037E+02  0.47542342037E+02  0.00000000000E+00 0. -1.
         -2   -1    0    0    0  501 -0.00000000000E+00 -0.00000000000E+00 -0.14094887614E+04  0.14094887614E+04  0.00000000000E+00 0.  1.
        -24    2    1    2    0    0 -0.51801773110E+02 -0.33730756477E+02 -0.12263684427E+04  0.12309409985E+04  0.86110377533E+02 0.  0.
         23    2    1    2    0    0  0.70119710456E+02 -0.24376088362E+02 -0.10797990200E+03  0.15920508434E+03  0.90419202412E+02 0.  0.
         13    1    3    3    0    0 -0.32348394770E+02 -0.25409413147E+02 -0.19203578618E+03  0.19639195527E+03  0.00000000000E+00 0. -1.
        -14    1    3    3    0    0 -0.19453378340E+02 -0.83213433292E+01 -0.10343326565E+04  0.10345490433E+04  0.00000000000E+00 0.  1.
        -11    1    4    4    0    0 -0.21493160671E+02 -0.48638740970E+01 -0.11992032937E+02  0.25088285730E+02  0.00000000000E+00 0. -1.
         11    1    4    4    0    0  0.91612871127E+02 -0.19512214265E+02 -0.95987869063E+02  0.13411679861E+03  0.00000000000E+00 0.  1.
         21    1    1    2  502  501 -0.18317937346E+02  0.58106844839E+02 -0.27598074686E+02  0.66885020536E+02  0.00000000000E+00 0. -1.
<scales pt_clust_5="13000.00000" pt_clust_6="13000.00000" pt_clust_7="13000.00000" pt_clust_8="13000.00000" pt_clust_9="60.92579"></scales>
<clustering>
<clus scale="   60.926">  1  9  2 -1</clus>
<clus scale="   86.110">  5  6 -1 -1</clus>
<clus scale="   90.419">  7  8 -1 -1</clus>
<clus scale="  105.335">  2  5  1 -1</clus>
<clus scale="   60.926">  1  5  2 -1</clus>
</clustering>
</event>
<event>
 9    1  0.2374319E-005  0.9709001E+02  0.7546771E-02  0.1291517E+00
          1   -1    0    0  502    0  0.00000000000E+00  0.00000000000E+00  0.21391229521E+03  0.21391229521E+03  0.00000000000E+00 0. -1.
         -2   -1    0    0    0  501 -0.00000000000E+00 -0.00000000000E+00 -0.99693406541E+02  0.99693406541E+02  0.00000000000E+00 0.  1.
         23    2    1    2    0    0  0.16339630512E+02  0.17820664582E+02 -0.36702609300E+02  0.10158953593E+03  0.91590352492E+02 0.  0.
        -24    2    1    2    0    0 -0.18789188131E+02 -0.58838050370E+02  0.81306682776E+02  0.13117899143E+03  0.82354121732E+02 0.  0.
         11    1    4    4    0    0 -0.87710653172E+01 -0.68333861455E+02  0.25135233799E+02  0.73336404237E+02  0.00000000000E+00 0. -1.
        -12    1    4    4    0    0 -0.10018122814E+02  0.94958110854E+01  0.56171448977E+02  0.57842587192E+02  0.00000000000E+00 0.  1.
        -11    1    3    3    0    0  0.52142485924E+02 -0.43585257987E+01 -0.16392146555E+02  0.54831907263E+02  0.00000000000E+00 0.  1.
         11    1    3    3    0    0 -0.35802855412E+02  0.22179190381E+02 -0.20310462745E+02  0.46757628666E+02  0.00000000000E+00 0. -1.
         21    1    1    2  502  501  0.24495576195E+01  0.41017385788E+02  0.69614815194E+02  0.80837174393E+02  0.00000000000E+00 0.  1.
<scales pt_clust_5="13000.00000" pt_clust_6="13000.00000" pt_clust_7="13000.00000" pt_clust_8="13000.00000" pt_clust_9="41.09046"></scales>
<clustering>
<clus scale="   41.090">  1  9  2 -1</clus>
<clus scale="   82.354">  5  6 -1 -1</clus>
<clus scale="   88.430">  1  5  2 -1</clus>
<clus scale="   91.590">  7  8 -1 -1</clus>
<clus scale="   41.090">  1  5  2 -1</clus>
</clustering>
</event>
<event>
 9    1  0.2374319E-005  0.2130127E+03  0.7546771E-02  0.1166306E+00
         -2   -1    0    0    0  501 -0.00000000000E+00  0.00000000000E+00  0.82983244415E+02  0.82983244415E+02  0.00000000000E+00 0.  1.
          1   -1    0    0  502    0  0.00000000000E+00 -0.00000000000E+00 -0.17554064084E+04  0.17554064084E+04  0.00000000000E+00 0. -1.
        -24    2    1    2    0    0 -0.41587384949E+02 -0.67518238950E+02 -0.20116218022E+02  0.11420036878E+03  0.79679601051E+02 0.  0.
         23    2    1    2    0    0  0.19874234073E+03 -0.44830218170E+02 -0.40790022846E+03  0.46487679919E+03  0.90661875025E+02 0.  0.
         11    1    3    3    0    0 -0.60109730435E+02 -0.23398911816E+02 -0.13416572238E+02  0.65883937176E+02  0.00000000000E+00 0. -1.
        -12    1    3    3    0    0  0.18522345487E+02 -0.44119327134E+02 -0.66996457841E+01  0.48316431601E+02  0.00000000000E+00 0.  1.
        -13    1    4    4    0    0  0.84033529675E+02  0.26191097398E+02 -0.16641380479E+03  0.18825823254E+03  0.00000000000E+00 0. -1.
         13    1    4    4    0    0  0.11470881105E+03 -0.71021315568E+02 -0.24148642367E+03  0.27661856665E+03  0.00000000000E+00 0.  1.
         21    1    1    2  502  501 -0.15715495578E+03  0.11234845712E+03 -0.12444067175E+04  0.12593124849E+04  0.00000000000E+00 0. -1.
<scales pt_clust_5="13000.00000" pt_clust_6="13000.00000" pt_clust_7="13000.00000" pt_clust_8="13000.00000" pt_clust_9="192.75586"></scales>
<clustering>
<clus scale="   79.680">  5  6 -1 -1</clus>
<clus scale="   90.662">  7  8 -1 -1</clus>
<clus scale="  112.415">  1  5  2 -1</clus>
<clus scale="  192.756">  2  9  1 -1</clus>
<clus scale="  192.756">  2  5  1 -1</clus>
</clustering>
</event>
<event>
 9    1  0.2374319E-005  0.1029409E+03  0.7546771E-02  0.1280407E+00
          1   -1    0    0  502    0  0.00000000000E+00  0.00000000000E+00  0.45683699891E+03  0.45683699891E+03  0.00000000000E+00 0. -1.
         -2   -1    0    0    0  501 -0.00000000000E+00 -0.00000000000E+00 -0.12396558295E+03  0.12396558295E+03  0.00000000000E+00 0.  1.
        -24    2    1    2    0    0  0.29330757089E+02  0.31114058490E+02 -0.88901545578E+02  0.12713019369E+03  0.80188673724E+02 0.  0.
         23    2    1    2    0    0 -0.65754263572E+02 -0.18512881712E+02  0.22202903739E+03  0.25024403048E+03  0.93052841873E+02 0.  0.
         13    1    3    3    0    0 -0.23904509076E+02  0.14728124731E+02 -0.85304871067E+01  0.29344717114E+02  0.00000000000E+00 0. -1.
        -14    1    3    3    0    0  0.53235266165E+02  0.16385933760E+02 -0.80371058472E+02  0.97785476573E+02  0.00000000000E+00 0.  1.
        -11    1    4    4    0    0  0.18739364563E+02 -0.92349495407E+01  0.13032359527E+02  0.24622966354E+02  0.00000000000E+00 0.  1.
         11    1    4    4    0    0 -0.84493628135E+02 -0.92779321712E+01  0.20899667786E+03  0.22562106413E+03  0.00000000000E+00 0. -1.
         21    1    1    2  502  501  0.36423506483E+02 -0.12601176778E+02  0.19974392415E+03  0.20342835770E+03  0.00000000000E+00 0. -1.
<scales pt_clust_5="13000.00000" pt_clust_6="13000.00000" pt_clust_7="13000.00000" pt_clust_8="13000.00000" pt_clust_9="38.54168"></scales>
<clustering>
<clus scale="   38.542">  1  9  2 -1</clus>
<clus scale="   80.189">  5  6 -1 -1</clus>
<clus scale="   91.478">  2  5  1 -1</clus>
<clus scale="   93.053">  7  8 -1 -1</clus>
<clus scale="   38.542">  1  5  2 -1</clus>
</clustering>
</event>
<event>
 9    1  0.2374319E-005  0.1484157E+03  0.7546771E-02  0.1204095E+00
          1   -1    0    0  502    0  0.00000000000E+00  0.00000000000E+00  0.52987928758E+03  0.52987928758E+03  0.00000000000E+00 0. -1.
         -2   -1    0    0    0  501 -0.00000000000E+00 -0.00000000000E+00 -0.10110561269E+03  0.10110561269E+03  0.00000000000E+00 0.  1.
        -24    2    1    2    0    0  0.54548999650E+02 -0.10608213892E+03 -0.19511143652E+02  0.14584233442E+03  0.81610588914E+02 0.  0.
         23    2    1    2    0    0 -0.78448304546E+02  0.81817532403E+02  0.30303240733E+03  0.33595070659E+03  0.90476473578E+02 0.  0.
         11    1    3    3    0    0  0.34086406968E+02 -0.95760840445E+02  0.16678868594E+02  0.10300585595E+03  0.00000000000E+00 0. -1.
        -12    1    3    3    0    0  0.20462592681E+02 -0.10321298472E+02 -0.36190012246E+02  0.42836478470E+02  0.00000000000E+00 0.  1.
        -11    1    4    4    0    0 -0.60468130933E+02  0.68015791692E+02  0.29948564281E+03  0.31300829547E+03  0.00000000000E+00 0. -1.
         11    1    4    4    0    0 -0.17980173613E+02  0.13801740711E+02  0.35467645198E+01  0.22942411128E+02  0.00000000000E+00 0.  1.
         21    1    1    2  502  501  0.23899304897E+02  0.24264606515E+02  0.14525241122E+03  0.14919185925E+03  0.00000000000E+00 0.  1.
<scales pt_clust_5="13000.00000" pt_clust_6="13000.00000" pt_clust_7="13000.00000" pt_clust_8="13000.00000" pt_clust_9="34.05801"></scales>
<clustering>
<clus scale="   34.058">  1  9  2 -1</clus>
<clus scale="   81.611">  5  6 -1 -1</clus>
<clus scale="   90.476">  7  8 -1 -1</clus>
<clus scale="  143.183">  2  5  1 -1</clus>
<clus scale="   34.058">  1  5  2 -1</clus>
</clustering>
</event>
<event>
 9    1  0.2374319E-005  0.1067179E+03  0.7546771E-02  0.1271788E+00
         -2   -1    0    0    0  501 -0.00000000000E+00  0.00000000000E+00  0.13293711175E+03  0.13293711175E+03  0.00000000000E+00 0.  1.
          1   -1    0    0  502    0  0.00000000000E+00 -0.00000000000E+00 -0.31539024667E+03  0.31539024667E+03  0.00000000000E+00 0. -1.
         23    2    1    2    0    0 -0.55878558231E+02 -0.51426089846E+01  0.92464445890E+02  0.14141754911E+03  0.91106474777E+02 0.  0.
        -24    2    1    2    0    0  0.48512322879E+02  0.30798220826E+02 -0.14977689359E+03  0.17895410041E+03  0.79306218701E+02 0.  0.
         11    1    4    4    0    0  0.25522619715E+02  0.41882504097E+02 -0.14489256241E+03  0.15296863374E+03  0.00000000000E+00 0. -1.
        -12    1    4    4    0    0  0.22989703164E+02 -0.11084283271E+02 -0.48843311786E+01  0.25985466674E+02  0.00000000000E+00 0.  1.
        -13    1    3    3    0    0 -0.48472098093E+02  0.14289884142E+02  0.41691653706E+01  0.50706281881E+02  0.00000000000E+00 0. -1.
         13    1    3    3    0    0 -0.74064601382E+01 -0.19432493127E+02  0.88295280520E+02  0.90711267233E+02  0.00000000000E+00 0.  1.
         21    1    1    2  502  501  0.73662353522E+01 -0.25655611842E+02 -0.12514068722E+03  0.12795570890E+03  0.00000000000E+00 0. -1.
<scales pt_clust_5="13000.00000" pt_clust_6="13000.00000" pt_clust_7="13000.00000" pt_clust_8="13000.00000" pt_clust_9="26.69217"></scales>
<clustering>
<clus scale="   26.692">  2  9  1 -1</clus>
<clus scale="   79.306">  5  6 -1 -1</clus>
<clus scale="   91.106">  7  8 -1 -1</clus>
<clus scale="   96.839">  2  5  1 -1</clus>
<clus scale="   26.692">  2  5  1 -1</clus>
</clustering>
</event>
<event>
 9    1  0.2374319E-005  0.1434624E+03  0.7546771E-02  0.1211236E+00
          1   -1    0    0  502    0  0.00000000000E+00  0.00000000000E+00  0.91504831953E+03  0.91504831953E+03  0.00000000000E+00 0. -1.
         -2   -1    0    0    0  501 -0.00000000000E+00 -0.00000000000E+00 -0.58108951069E+02  0.58108951069E+02  0.00000000000E+00 0.  1.
         23    2    1    2    0    0  0.18073632340E+02 -0.10982318331E+03  0.52759340225E+02  0.15364797239E+03  0.91849679687E+02 0.  0.
        -24    2    1    2    0    0 -0.40396650992E+02  0.97303743407E+02  0.68024328291E+03  0.69295744963E+03  0.79744561955E+02 0.  0.
         11    1    4    4    0    0 -0.11825187096E+02  0.81531271485E+02  0.29360977434E+03  0.30494898404E+03  0.00000000000E+00 0. -1.
        -12    1    4    4    0    0 -0.28571463896E+02  0.15772471922E+02  0.38663350856E+03  0.38800846558E+03  0.00000000000E+00 0.  1.
        -11    1    3    3    0    0 -0.26846853765E+02 -0.50932877067E+01  0.23384925570E+02  0.35965954466E+02  0.00000000000E+00 0. -1.
         11    1    3    3    0    0  0.44920486105E+02 -0.10472989561E+03  0.29374414655E+02  0.11768201792E+03  0.00000000000E+00 0.  1.
         21    1    1    2  502  501  0.22323018652E+02  0.12519439907E+02  0.12393674533E+03  0.12655184859E+03  0.00000000000E+00 0.  1.
<scales pt_clust_5="13000.00000" pt_clust_6="13000.00000" pt_clust_7="13000.00000" pt_clust_8="13000.00000" pt_clust_9="25.59401"></scales>
<clustering>
<clus scale="   25.594">  1  9  2 -1</clus>
<clus scale="   79.745">  5  6 -1 -1</clus>
<clus scale="   91.850">  7  8 -1 -1</clus>
<clus scale="  136.030">  1  5  2 -1</clus>
<clus scale="   25.594">  1  5  2 -1</clus>
</clustering>
</event>
<event>
 9    1  0.2374319E-005  0.1063615E+03  0.7546771E-02  0.1272333E+00
         -4   -1    0    0    0  501 -0.00000000000E+00  0.00000000000E+00  0.39898931884E+03  0.39898931884E+03  0.00000000000E+00 0.  1.
          3   -1    0    0  502    0  0.00000000000E+00 -0.00000000000E+00 -0.10422466410E+03  0.10422466410E+03  0.00000000000E+00 0. -1.
         23    2    1    2    0    0 -0.57911028467E+02  0.10322298111E+02  0.34873355521E+03  0.36502248450E+03  0.90366390869E+02 0.  0.
        -24    2    1    2    0    0  0.34882745693E+02  0.19297214538E+02 -0.46744259838E+02  0.99984002201E+02  0.78883372344E+02 0.  0.
         11    1    4    4    0    0  0.26348963070E+02 -0.10278867418E+02 -0.60104990623E+02  0.66426898679E+02  0.00000000000E+00 0. -1.
        -12    1    4    4    0    0  0.85337826223E+01  0.29576081956E+02  0.13360730785E+02  0.33557103522E+02  0.00000000000E+00 0.  1.
        -11    1    3    3    0    0 -0.63154886827E+02  0.31329062760E+02  0.32636159062E+03  0.33388910994E+03  0.00000000000E+00 0.  1.
         11    1    3    3    0    0  0.52438583606E+01 -0.21006764649E+02  0.22371964595E+02  0.31133374558E+02  0.00000000000E+00 0. -1.
         21    1    1    2  502  501  0.23028282774E+02 -0.29619512649E+02 -0.72246406298E+01  0.38207496245E+02  0.00000000000E+00 0. -1.
<scales pt_clust_5="13000.00000" pt_clust_6="13000.00000" pt_clust_7="13000.00000" pt_clust_8="13000.00000" pt_clust_9="37.51823"></scales>
<clustering>
<clus scale="   37.518">  2  9  1 -1</clus>
<clus scale="   78.883">  5  6 -1 -1</clus>
<clus scale="   90.366">  7  8 -1 -1</clus>
<clus scale="   96.795">  2  5  1 -1</clus>
<clus scale="   37.518">  2  5  1 -1</clus>
</clustering>
</event>
<event>
 9    1  0.2374319E-005  0.3250159E+03  0.7546771E-02  0.1073645E+00
         -2   -1    0    0    0  501 -0.00000000000E+00  0.00000000000E+00  0.37530289541E+03  0.37530289541E+03  0.00000000000E+00 0.  1.
          1   -1    0    0  502    0  0.00000000000E+00 -0.00000000000E+00 -0.70825379265E+03  0.70825379265E+03  0.00000000000E+00 0. -1.
         23    2    1    2    0    0 -0.22488974835E+03 -0.21616324458E+03  0.23569545512E+03  0.40113728658E+03  0.89759834571E+02 0.  0.
        -24    2    1    2    0    0  0.19466549751E+03  0.25197982539E+03 -0.51883911763E+03  0.61403012285E+03  0.80314839588E+02 0.  0.
         11    1    4    4    0    0  0.15539446186E+03  0.22352579375E+03 -0.38379313854E+03  0.47054053219E+03  0.00000000000E+00 0. -1.
        -12    1    4    4    0    0  0.39271035655E+02  0.28454031645E+02 -0.13504597910E+03  0.14348959066E+03  0.00000000000E+00 0.  1.
        -11    1    3    3    0    0 -0.17284447426E+03 -0.11345232451E+03  0.17556651915E+03  0.27123835434E+03  0.00000000000E+00 0.  1.
         11    1    3    3    0    0 -0.52045274086E+02 -0.10271092007E+03  0.60128935972E+02  0.12989893224E+03  0.00000000000E+00 0. -1.
         21    1    1    2  502  501  0.30224250832E+02 -0.35816580808E+02 -0.49807234728E+02  0.68389278622E+02  0.00000000000E+00 0. -1.
<scales pt_clust_5="13000.00000" pt_clust_6="13000.00000" pt_clust_7="13000.00000" pt_clust_8="13000.00000" pt_clust_9="46.86505"></scales>
<clustering>
<clus scale="   46.865">  2  9  1 -1</clus>
<clus scale="   80.315">  5  6 -1 -1</clus>
<clus scale="   89.760">  7  8 -1 -1</clus>
<clus scale="  322.535">  2  5  1 -1</clus>
<clus scale="   46.865">  2  5  1 -1</clus>
</clustering>
</event>
<event>
 9    1  0.2374319E-005  0.1889065E+03  0.7546771E-02  0.1160596E+00
         -2   -1    0    0    0  501 -0.00000000000E+00  0.00000000000E+00  0.10812260732E+04  0.10812260732E+04  0.00000000000E+00 0.  1.
          1   -1    0    0  502    0  0.00000000000E+00 -0.00000000000E+00 -0.43671360642E+02  0.43671360642E+02  0.00000000000E+00 0. -1.
         23    2    1    2    0    0 -0.14238464668E+03  0.43460468533E+02  0.71316430771E+03  0.73428226540E+03  0.91678326571E+02 0.  0.
        -24    2    1    2    0    0  0.16569537245E+03 -0.45065522489E+02  0.25861801345E+03  0.32081564405E+03  0.80953954916E+02 0.  0.
         11    1    4    4    0    0  0.17513370207E+02  0.16943041062E+02  0.13800877995E+02  0.28004446252E+02  0.00000000000E+00 0. -1.
        -12    1    4    4    0    0  0.14818200225E+03 -0.62008563551E+02  0.24481713546E+03  0.29281119780E+03  0.00000000000E+00 0.  1.
        -11    1    3    3    0    0 -0.72711720567E+01 -0.22074197268E+02  0.67642721956E+02  0.71523967743E+02  0.00000000000E+00 0.  1.
         11    1    3    3    0    0 -0.13511347462E+03  0.65534665802E+02  0.64552158575E+03  0.66275829766E+03  0.00000000000E+00 0. -1.
         21    1    1    2  502  501 -0.23310725775E+02  0.16050539556E+01  0.65772391360E+02  0.69799524351E+02  0.00000000000E+00 0.  1.
<scales pt_clust_5="13000.00000" pt_clust_6="13000.00000" pt_clust_7="13000.00000" pt_clust_8="13000.00000" pt_clust_9="23.36592"></scales>
<clustering>
<clus scale="   23.366">  1  9  2 -1</clus>
<clus scale="   80.954">  5  6 -1 -1</clus>
<clus scale="   91.678">  7  8 -1 -1</clus>
<clus scale="  183.941">  2  5  1 -1</clus>
<clus scale="  183.941">  2  5  1 -1</clus>
</clustering>
</event>
<event>
 9    1  0.2374319E-005  0.9781670E+02  0.7546771E-02  0.1289746E+00
         -2   -1    0    0    0  501 -0.00000000000E+00  0.00000000000E+00  0.43550237142E+03  0.43550237142E+03  0.00000000000E+00 0.  1.
          1   -1    0    0  502    0  0.00000000000E+00 -0.00000000000E+00 -0.37154941426E+03  0.37154941426E+03  0.00000000000E+00 0. -1.
        -24    2    1    2    0    0  0.56439944649E+01  0.47760543757E+02  0.36014119159E+03  0.37206201543E+03  0.80097073824E+02 0.  0.
         23    2    1    2    0    0 -0.11104027905E+02  0.45702559164E+01  0.37124614924E+02  0.97549730980E+02  0.89406522728E+02 0.  0.
         13    1    3    3    0    0 -0.11873573880E+02 -0.19509670894E+02  0.66779792876E+02  0.70577260869E+02  0.00000000000E+00 0. -1.
        -14    1    3    3    0    0  0.17517568345E+02  0.67270214651E+02  0.29336139871E+03  0.30148475457E+03  0.00000000000E+00 0.  1.
        -13    1    4    4    0    0 -0.18222988891E+02  0.29060793202E+02  0.56103543874E+02  0.65758761096E+02  0.00000000000E+00 0.  1.
         13    1    4    4    0    0  0.71189609863E+01 -0.24490537286E+02 -0.18978928951E+02  0.31790969884E+02  0.00000000000E+00 0. -1.
         21    1    1    2  502  501  0.54600334399E+01 -0.52330799674E+02 -0.33331284935E+03  0.33744003927E+03  0.00000000000E+00 0. -1.
<scales pt_clust_5="13000.00000" pt_clust_6="13000.00000" pt_clust_7="13000.00000" pt_clust_8="13000.00000" pt_clust_9="52.61487"></scales>
<clustering>
<clus scale="   52.615">  2  9  1 -1</clus>
<clus scale="   80.097">  5  6 -1 -1</clus>
<clus scale="   89.387">  1  5  2 -1</clus>
<clus scale="   89.407">  7  8 -1 -1</clus>
<clus scale="   52.615">  2  5  1 -1</clus>
</clustering>
</event>
<event>
 9    1  0.2374319E-005  0.1582713E+03  0.7546771E-02  0.1192456E+00
         -2   -1    0    0    0  501 -0.00000000000E+00  0.00000000000E+00  0.52497019602E+03  0.52497019602E+03  0.00000000000E+00 0.  1.
          1   -1    0    0  502    0  0.00000000000E+00 -0.00000000000E+00 -0.64722891527E+02  0.64722891527E+02  0.00000000000E+00 0. -1.
        -24    2    1    2    0    0  0.79786881983E+02 -0.93255201407E+02  0.28814688795E+03  0.32591496670E+03  0.90163503477E+02 0.  0.
         23    2    1    2    0    0 -0.94767018843E+02  0.78904207540E+02  0.18132135675E+03  0.24107611073E+03  0.10016783377E+03 0.  0.
         13    1    3    3    0    0  0.99053459752E+02 -0.87183399229E+02  0.25431260450E+03  0.28650904662E+03  0.00000000000E+00 0. -1.
        -14    1    3    3    0    0 -0.19266577769E+02 -0.60718021784E+01  0.33834283451E+02  0.39405920079E+02  0.00000000000E+00 0.  1.
        -13    1    4    4    0    0  0.24793598683E+01  0.40112981000E+02  0.11899053621E+02  0.41914030433E+02  0.00000000000E+00 0. -1.
         13    1    4    4    0    0 -0.97246378711E+02  0.38791226540E+02  0.16942230313E+03  0.19916208029E+03  0.00000000000E+00 0.  1.
         21    1    1    2  502  501  0.14980136860E+02  0.14350993867E+02 -0.92209402032E+01  0.22702010122E+02  0.00000000000E+00 0.  1.
<scales pt_clust_5="13000.00000" pt_clust_6="13000.00000" pt_clust_7="13000.00000" pt_clust_8="13000.00000" pt_clust_9="20.74501"></scales>
<clustering>
<clus scale="   20.745">  2  9  1 -1</clus>
<clus scale="   90.164">  5  6 -1 -1</clus>
<clus scale="  100.168">  7  8 -1 -1</clus>
<clus scale="  152.137">  1  5  2 -1</clus>
<clus scale="   20.745">  2  5  1 -1</clus>
</clustering>
</event>
<event>
 9    1  0.2374319E-005  0.9380614E+02  0.7546771E-02  0.1300391E+00
         -2   -1    0    0    0  501 -0.00000000000E+00  0.00000000000E+00  0.14733218947E+03  0.14733218947E+03  0.00000000000E+00 0.  1.
          1   -1    0    0  502    0  0.00000000000E+00 -0.00000000000E+00 -0.15584608180E+03  0.15584608180E+03  0.00000000000E+00 0. -1.
        -24    2    1    2    0    0 -0.14003789430E+02  0.20498869673E+02  0.91877929627E+02  0.12436630657E+03  0.80056945242E+02 0.  0.
         23    2    1    2    0    0 -0.20877710313E+02 -0.24785688563E+02 -0.31825253338E+02  0.10176347235E+03  0.91064528824E+02 0.  0.
         13    1    3    3    0    0 -0.30041671424E+02 -0.19968124206E+02  0.22661475413E+02  0.42600122936E+02  0.00000000000E+00 0. -1.
        -14    1    3    3    0    0  0.16037881994E+02  0.40466993879E+02  0.69216454214E+02  0.81766183636E+02  0.00000000000E+00 0.  1.
        -11    1    4    4    0    0  0.29990669073E+02 -0.33145301241E+02 -0.10127140023E+02  0.45832414193E+02  0.00000000000E+00 0.  1.
         11    1    4    4    0    0 -0.50868379386E+02  0.83596126780E+01 -0.21698113316E+02  0.55931058160E+02  0.00000000000E+00 0. -1.
         21    1    1    2  502  501  0.34881499743E+02  0.42868188895E+01 -0.68566568622E+02  0.77048492348E+02  0.00000000000E+00 0.  1.
<scales pt_clust_5="13000.00000" pt_clust_6="13000.00000" pt_clust_7="13000.00000" pt_clust_8="13000.00000" pt_clust_9="35.14393"></scales>
<clustering>
<clus scale="   35.144">  2  9  1 -1</clus>
<clus scale="   80.057">  5  6 -1 -1</clus>
<clus scale="   83.162">  1  5  2 -1</clus>
<clus scale="   91.065">  7  8 -1 -1</clus>
<clus scale="   35.144">  2  5  1 -1</clus>
</clustering>
</event>
<event>
 9    1  0.2374319E-005  0.1066746E+03  0.7546771E-02  0.1269039E+00
         -2   -1    0    0    0  501 -0.00000000000E+00  0.00000000000E+00  0.20084112465E+03  0.20084112465E+03  0.00000000000E+00 0.  1.
          1   -1    0    0  502    0  0.00000000000E+00 -0.00000000000E+00 -0.28784340575E+03  0.28784340575E+03  0.00000000000E+00 0. -1.
        -24    2    1    2    0    0  0.57659544782E+02  0.53576327596E+02  0.14559139066E+03  0.18713689874E+03  0.87340253334E+02 0.  0.
         23    2    1    2    0    0 -0.50218210354E+02 -0.13478473621E+02 -0.23783802013E+03  0.26042933231E+03  0.92482297782E+02 0.  0.
         11    1    3    3    0    0 -0.11729628055E+02  0.21853807678E+02  0.24398308178E+01  0.24922396730E+02  0.00000000000E+00 0. -1.
        -12    1    3    3    0    0  0.69389172837E+02  0.31722519918E+02  0.14315155985E+03  0.16221450201E+03  0.00000000000E+00 0.  1.
        -13    1    4    4    0    0 -0.42846604603E+02 -0.47760691779E+02 -0.19374247963E+03  0.20409082198E+03  0.00000000000E+00 0. -1.
         13    1    4    4    0    0 -0.73716057515E+01  0.34282218158E+02 -0.44095540507E+02  0.56338510327E+02  0.00000000000E+00 0.  1.
         21    1    1    2  502  501 -0.74413344278E+01 -0.40097853975E+02  0.52443483701E+01  0.41118299349E+02  0.00000000000E+00 0. -1.
<scales pt_clust_5="13000.00000" pt_clust_6="13000.00000" pt_clust_7="13000.00000" pt_clust_8="13000.00000" pt_clust_9="40.78249"></scales>
<clustering>
<clus scale="   40.782">  1  9  2 -1</clus>
<clus scale="   87.340">  5  6 -1 -1</clus>
<clus scale="   92.482">  7  8 -1 -1</clus>
<clus scale="  102.249">  1  5  2 -1</clus>
<clus scale="  106.675">  2  5  1 -1</clus>
</clustering>
</event>
<event>
 9    1  0.2374319E-005  0.1282354E+03  0.7546771E-02  0.1233035E+00
         -2   -1    0    0    0  501 -0.00000000000E+00  0.00000000000E+00  0.12857820987E+03  0.12857820987E+03  0.00000000000E+00 0.  1.
          1   -1    0    0  502    0  0.00000000000E+00 -0.00000000000E+00 -0.25764022792E+03  0.25764022792E+03  0.00000000000E+00 0. -1.
         23    2    1    2    0    0  0.95266992162E+02  0.15279162264E+02  0.62836715754E+02  0.14636455032E+03  0.90359704230E+02 0.  0.
        -24    2    1    2    0    0 -0.63148679334E+02 -0.26189095176E+02 -0.16940009569E+03  0.19915006245E+03  0.79314125768E+02 0.  0.
         11    1    4    4    0    0 -0.28425389414E+02 -0.13013465721E+02 -0.15686919541E+03  0.15995404816E+03  0.00000000000E+00 0. -1.
        -12    1    4    4    0    0 -0.34723289920E+02 -0.13175629455E+02 -0.12530900276E+02  0.39196014289E+02  0.00000000000E+00 0.  1.
        -13    1    3    3    0    0  0.41596610316E+02  0.90028737802E+01 -0.20344821081E+02  0.47172465178E+02  0.00000000000E+00 0. -1.
         13    1    3    3    0    0  0.53670381845E+02  0.62762884837E+01  0.83181536835E+02  0.99192085142E+02  0.00000000000E+00 0.  1.
         21    1    1    2  502  501 -0.32118312828E+02  0.10909932912E+02 -0.22498638114E+02  0.40703825029E+02  0.00000000000E+00 0.  1.
<scales pt_clust_5="13000.00000" pt_clust_6="13000.00000" pt_clust_7="13000.00000" pt_clust_8="13000.00000" pt_clust_9="33.92068"></scales>
<clustering>
<clus scale="   33.921">  2  9  1 -1</clus>
<clus scale="   79.314">  5  6 -1 -1</clus>
<clus scale="   90.360">  7  8 -1 -1</clus>
<clus scale="  120.707">  2  5  1 -1</clus>
<clus scale="   33.921">  2  5  1 -1</clus>
</clustering>
</event>
<event>
 9    1  0.2374319E-005  0.1001918E+03  0.7546771E-02  0.1291338E+00
         -2   -1    0    0    0  501 -0.00000000000E+00  0.00000000000E+00  0.72281550173E+03  0.72281550173E+03  0.00000000000E+00 0.  1.
          1   -1    0    0  502    0  0.00000000000E+00 -0.00000000000E+00 -0.37196274676E+02  0.37196274676E+02  0.00000000000E+00 0. -1.
         23    2    1    2    0    0  0.16582650171E+02 -0.73605194356E+02  0.47230706384E+03  0.48841806411E+03  0.98921857389E+02 0.  0.
        -24    2    1    2    0    0  0.13591645837E+01  0.73443473043E+01  0.48691580306E+02  0.93233557317E+02  0.79157055602E+02 0.  0.
         11    1    4    4    0    0 -0.10541361531E+02  0.33710880916E+02 -0.14449775761E+01  0.35350130909E+02  0.00000000000E+00 0. -1.
        -12    1    4    4    0    0  0.11900526115E+02 -0.26366533612E+02  0.50136557882E+02  0.57883426408E+02  0.00000000000E+00 0.  1.
        -13    1    3    3    0    0  0.28852753071E+02 -0.93714640573E+02  0.41563403036E+03  0.42704398182E+03  0.00000000000E+00 0.  1.
         13    1    3    3    0    0 -0.12270102899E+02  0.20109446218E+02  0.56673033481E+02  0.61374082284E+02  0.00000000000E+00 0. -1.
         21    1    1    2  502  501 -0.17941814755E+02  0.66260847051E+02  0.16462058291E+03  0.17836015498E+03  0.00000000000E+00 0. -1.
<scales pt_clust_5="13000.00000" pt_clust_6="13000.00000" pt_clust_7="13000.00000" pt_clust_8="13000.00000" pt_clust_9="68.64699"></scales>
<clustering>
<clus scale="   68.647">  1  9  2 -1</clus>
<clus scale="   79.157">  5  6 -1 -1</clus>
<clus scale="   80.738">  2  5  1 -1</clus>
<clus scale="   98.922">  7  8 -1 -1</clus>
<clus scale="   80.738">  2  5  1 -1</clus>
</clustering>
</event>
<event>
 9    1  0.2374319E-005  0.1473867E+03  0.7546771E-02  0.1205910E+00
         -4   -1    0    0    0  501 -0.00000000000E+00  0.00000000000E+00  0.39170588656E+03  0.39170588656E+03  0.00000000000E+00 0.  1.
          3   -1    0    0  502    0  0.00000000000E+00 -0.00000000000E+00 -0.95761767083E+02  0.95761767083E+02  0.00000000000E+00 0. -1.
        -24    2    1    2    0    0 -0.85939974687E+02  0.91012869082E+02  0.27432009071E+03  0.31243817772E+03  0.81835696019E+02 0.  0.
         23    2    1    2    0    0  0.52719271941E+02 -0.69681958001E+02  0.36663319051E+02  0.13278254573E+03  0.93016711306E+02 0.  0.
         13    1    3    3    0    0 -0.15478930606E+02 -0.15357035942E+02  0.35166633393E+02  0.41377867874E+02  0.00000000000E+00 0. -1.
        -14    1    3    3    0    0 -0.70461044081E+02  0.10636990502E+03  0.23915345731E+03  0.27106030984E+03  0.00000000000E+00 0.  1.
        -11    1    4    4    0    0  0.51129481625E+02  0.59770096544E+01  0.92955985875E+01  0.52310196795E+02  0.00000000000E+00 0.  1.
         11    1    4    4    0    0  0.15897903164E+01 -0.75658967655E+02  0.27367720464E+02  0.80472348936E+02  0.00000000000E+00 0. -1.
         21    1    1    2  502  501  0.33220702745E+02 -0.21330911081E+02 -0.15039290283E+02  0.42246930192E+02  0.00000000000E+00 0. -1.
<scales pt_clust_5="13000.00000" pt_clust_6="13000.00000" pt_clust_7="13000.00000" pt_clust_8="13000.00000" pt_clust_9="39.47940"></scales>
<clustering>
<clus scale="   39.479">  2  9  1 -1</clus>
<clus scale="   81.836">  5  6 -1 -1</clus>
<clus scale="   93.017">  7  8 -1 -1</clus>
<clus scale="  140.598">  1  5  2 -1</clus>
<clus scale="   39.479">  2  5  1 -1</clus>
</clustering>
</event>
<event>
 9    1  0.2374319E-005  0.1221077E+03  0.7546771E-02  0.1244667E+00
          1   -1    0    0  502    0  0.00000000000E+00  0.00000000000E+00  0.58834044502E+03  0.58834044502E+03  0.00000000000E+00 0. -1.
         -2   -1    0    0    0  501 -0.00000000000E+00 -0.00000000000E+00 -0.12598101266E+03  0.12598101266E+03  0.00000000000E+00 0.  1.
        -24    2    1    2    0    0  0.35787905585E+00 -0.73064397885E+02 -0.57923924572E+02  0.11957463186E+03  0.74862388628E+02 0.  0.
         23    2    1    2    0    0 -0.46971357816E+02  0.14305725493E+03  0.21406651905E+03  0.27719278594E+03  0.91321844907E+02 0.  0.
         13    1    3    3    0    0  0.10754685393E+02 -0.50776098943E+02  0.48755554443E+01  0.52131051425E+02  0.00000000000E+00 0. -1.
        -14    1    3    3    0    0 -0.10396806337E+02 -0.22288298942E+02 -0.62799480016E+02  0.67443580436E+02  0.00000000000E+00 0.  1.
        -13    1    4    4    0    0 -0.56197796445E+02  0.12411105870E+03  0.21668510067E+03  0.25595737940E+03  0.00000000000E+00 0. -1.
         13    1    4    4    0    0  0.92264386289E+01  0.18946196225E+02 -0.26185816213E+01  0.21235406539E+02  0.00000000000E+00 0.  1.
         21    1    1    2  502  501  0.46613478760E+02 -0.69992857042E+02  0.30621683788E+03  0.31755403987E+03  0.00000000000E+00 0. -1.
<scales pt_clust_5="13000.00000" pt_clust_6="13000.00000" pt_clust_7="13000.00000" pt_clust_8="13000.00000" pt_clust_9="84.09409"></scales>
<clustering>
<clus scale="   74.862">  5  6 -1 -1</clus>
<clus scale="   84.094">  1  9  2 -1</clus>
<clus scale="   91.322">  7  8 -1 -1</clus>
<clus scale="  110.340">  2  5  1 -1</clus>
<clus scale="   84.094">  1  5  2 -1</clus>
</clustering>
</event>
<event>
 9    1  0.2374319E-005  0.1042795E+03  0.7546771E-02  0.1275260E+00
          1   -1    0    0  502    0  0.00000000000E+00  0.00000000000E+00  0.31130265730E+03  0.31130265730E+03  0.00000000000E+00 0. -1.
         -2   -1    0    0    0  501 -0.00000000000E+00 -0.00000000000E+00 -0.10390399653E+03  0.10390399653E+03  0.00000000000E+00 0.  1.
         23    2    1    2    0    0 -0.27470925281E+02  0.20842200309E+01  0.13818059666E+02  0.95299917266E+02  0.90178377392E+02 0.  0.
        -24    2    1    2    0    0  0.73827124391E+02 -0.19344510466E+02 -0.82075179188E+01  0.11214422839E+03  0.81757631026E+02 0.  0.
         11    1    4    4    0    0  0.62750469246E+02 -0.14992666396E+02  0.30706335830E+02  0.71451245590E+02  0.00000000000E+00 0. -1.
        -12    1    4    4    0    0  0.11076655145E+02 -0.43518440691E+01 -0.38913853749E+02  0.40692982805E+02  0.00000000000E+00 0.  1.
        -13    1    3    3    0    0  0.26336630028E+02 -0.56692223505E+00 -0.18762436678E+02  0.32341436458E+02  0.00000000000E+00 0.  1.
         13    1    3    3    0    0 -0.53807555309E+02  0.26511422660E+01  0.32580496345E+02  0.62958480808E+02  0.00000000000E+00 0. -1.
         21    1    1    2  502  501 -0.46356199109E+02  0.17260290435E+02  0.20178811902E+03  0.20776250817E+03  0.00000000000E+00 0. -1.
<scales pt_clust_5="13000.00000" pt_clust_6="13000.00000" pt_clust_7="13000.00000" pt_clust_8="13000.00000" pt_clust_9="49.46529"></scales>
<clustering>
<clus scale="   49.465">  1  9  2 -1</clus>
<clus scale="   81.758">  5  6 -1 -1</clus>
<clus scale="   90.178">  7  8 -1 -1</clus>
<clus scale="   97.090">  1  5  2 -1</clus>
<clus scale="   49.465">  1  5  2 -1</clus>
</clustering>
</event>
<event>
 9    1  0.2374319E-005  0.3902639E+03  0.7546771E-02  0.1072434E+00
         -2   -1    0    0    0  501 -0.00000000000E+00  0.00000000000E+00  0.66490573718E+03  0.66490573718E+03  0.00000000000E+00 0.  1.
          1   -1    0    0  502    0  0.00000000000E+00 -0.00000000000E+00 -0.50054831456E+03  0.50054831456E+03  0.00000000000E+00 0. -1.
        -24    2    1    2    0    0  0.24956132299E+03  0.34898910651E+03  0.43585318077E+03  0.61691833196E+03  0.80907247716E+02 0.  0.
         23    2    1    2    0    0 -0.42875837615E+02 -0.16321958234E+03 -0.15505453680E+03  0.24722564028E+03  0.92734234877E+02 0.  0.
         13    1    3    3    0    0 -0.43052737583E+00  0.34186564906E+02  0.27222785319E+02  0.43703393626E+02  0.00000000000E+00 0. -1.
        -14    1    3    3    0    0  0.24999185037E+03  0.31480254160E+03  0.40863039545E+03  0.57321493834E+03  0.00000000000E+00 0.  1.
        -11    1    4    4    0    0  0.12417136509E+02 -0.79450891662E+02 -0.27656707858E+02  0.85038361664E+02  0.00000000000E+00 0.  1.
         11    1    4    4    0    0 -0.55292974124E+02 -0.83768690680E+02 -0.12739782894E+03  0.16218727861E+03  0.00000000000E+00 0. -1.
         21    1    1    2  502  501 -0.20668548538E+03 -0.18576952417E+03 -0.11644122135E+03  0.30131007949E+03  0.00000000000E+00 0. -1.
<scales pt_clust_5="13000.00000" pt_clust_6="13000.00000" pt_clust_7="13000.00000" pt_clust_8="13000.00000" pt_clust_9="381.78514"></scales>
<clustering>
<clus scale="   80.907">  5  6 -1 -1</clus>
<clus scale="   92.734">  7  8 -1 -1</clus>
<clus scale="  192.558">  2  7  1 -1</clus>
<clus scale="  381.785">  2  9  1 -1</clus>
<clus scale="  192.558">  2  5  1 -1</clus>
</clustering>
</event>
<event>
 9    1  0.2374319E-005  0.1219219E+03  0.7546771E-02  0.1243049E+00
         -2   -1    0    0    0  501 -0.00000000000E+00  0.00000000000E+00  0.13224916476E+03  0.13224916476E+03  0.00000000000E+00 0.  1.
          1   -1    0    0  502    0  0.00000000000E+00 -0.00000000000E+00 -0.18172519138E+03  0.18172519138E+03  0.00000000000E+00 0. -1.
        -24    2    1    2    0    0  0.51426351524E+02  0.78078768228E+02  0.49421315611E+02  0.13264022323E+03  0.80062467495E+02 0.  0.
         23    2    1    2    0    0 -0.24130330778E+02 -0.75237648640E+02 -0.96109559917E+02  0.15374941905E+03  0.90326406517E+02 0.  0.
         11    1    3    3    0    0 -0.73104043065E+01  0.59297534162E+02  0.35237451654E+02  0.69363661725E+02  0.00000000000E+00 0. -1.
        -12    1    3    3    0    0  0.58736755831E+02  0.18781234066E+02  0.14183863957E+02  0.63276561500E+02  0.00000000000E+00 0.  1.
        -13    1    4    4    0    0  0.25889556924E+02 -0.44633431442E+02 -0.75793734752E+02  0.91690253504E+02  0.00000000000E+00 0. -1.
         13    1    4    4    0    0 -0.50019887702E+02 -0.30604217197E+02 -0.20315825165E+02  0.62059165545E+02  0.00000000000E+00 0.  1.
         21    1    1    2  502  501 -0.27296020746E+02 -0.28411195887E+01 -0.27877823145E+01  0.27584713871E+02  0.00000000000E+00 0. -1.
<scales pt_clust_5="13000.00000" pt_clust_6="13000.00000" pt_clust_7="13000.00000" pt_clust_8="13000.00000" pt_clust_9="27.44348"></scales>
<clustering>
<clus scale="   27.443">  1  9  2 -1</clus>
<clus scale="   80.062">  5  6 -1 -1</clus>
<clus scale="   90.326">  7  8 -1 -1</clus>
<clus scale="  114.526">  1  5  2 -1</clus>
<clus scale="  121.922">  2  5  1 -1</clus>
</clustering>
</event>
<event>
 9    1  0.2374319E-005  0.1008863E+03  0.7546771E-02  0.1285141E+00
          1   -1    0    0  502    0  0.00000000000E+00  0.00000000000E+00  0.61410444388E+02  0.61410444388E+02  0.00000000000E+00 0. -1.
         -2   -1    0    0    0  501 -0.00000000000E+00 -0.00000000000E+00 -0.24374073652E+03  0.24374073652E+03  0.00000000000E+00 0.  1.
        -24    2    1    2    0    0  0.30810405257E+02  0.17546299143E+02 -0.12268228264E+03  0.15145430946E+03  0.81426725935E+02 0.  0.
         23    2    1    2    0    0 -0.17367589487E+02 -0.36273815172E+02 -0.74015812984E+02  0.12653323897E+03  0.94418733098E+02 0.  0.
         13    1    3    3    0    0  0.23392710079E+02  0.43507867345E+02 -0.37283201103E+02  0.61888532785E+02  0.00000000000E+00 0. -1.
        -14    1    3    3    0    0  0.74176951773E+01 -0.25961568202E+02 -0.85399081535E+02  0.89565776680E+02  0.00000000000E+00 0.  1.
        -11    1    4    4    0    0  0.25349307149E+02 -0.51224550450E+02 -0.45361128625E+02  0.72966937252E+02  0.00000000000E+00 0.  1.
         11    1    4    4    0    0 -0.42716896636E+02  0.14950735279E+02 -0.28654684358E+02  0.53566301713E+02  0.00000000000E+00 0. -1.
         21    1    1    2  502  501 -0.13442815770E+02  0.18727516028E+02  0.14367803488E+02  0.27163632480E+02  0.00000000000E+00 0.  1.
<scales pt_clust_5="13000.00000" pt_clust_6="13000.00000" pt_clust_7="13000.00000" pt_clust_8="13000.00000" pt_clust_9="23.05275"></scales>
<clustering>
<clus scale="   23.053">  1  9  2 -1</clus>
<clus scale="   81.427">  5  6 -1 -1</clus>
<clus scale="   88.845">  2  5  1 -1</clus>
<clus scale="   94.419">  7  8 -1 -1</clus>
<clus scale="   23.053">  1  5  2 -1</clus>
</clustering>
</event>
<event>
 9    1  0.2374319E-005  0.1002097E+03  0.7546771E-02  0.1283850E+00
         -4   -1    0    0    0  501 -0.00000000000E+00  0.00000000000E+00  0.77625037841E+02  0.77625037841E+02  0.00000000000E+00 0.  1.
          3   -1    0    0  502    0  0.00000000000E+00 -0.00000000000E+00 -0.17442051209E+03  0.17442051209E+03  0.00000000000E+00 0. -1.
        -24    2    1    2    0    0 -0.30984505881E+02  0.46613265922E+02 -0.15409025393E+02  0.99576739521E+02  0.80902736823E+02 0.  0.
         23    2    1    2    0    0  0.35005803686E+02 -0.22314227507E+02 -0.81617703365E+02  0.12783818754E+03  0.89206623360E+02 0.  0.
         13    1    3    3    0    0 -0.19766474249E+02  0.67893332626E+02 -0.22988316543E+02  0.74355099467E+02  0.00000000000E+00 0. -1.
        -14    1    3    3    0    0 -0.11218031632E+02 -0.21280066705E+02  0.75792911500E+01  0.25221640054E+02  0.00000000000E+00 0.  1.
        -11    1    4    4    0    0  0.43512527363E+02 -0.48634512766E+02 -0.36108280855E+02  0.74581926871E+02  0.00000000000E+00 0. -1.
         11    1    4    4    0    0 -0.85067236772E+01  0.26320285259E+02 -0.45509422509E+02  0.53256260674E+02  0.00000000000E+00 0.  1.
         21    1    1    2  502  501 -0.40212978053E+01 -0.24299038415E+02  0.23125451270E+00  0.24630622862E+02  0.00000000000E+00 0. -1.
<scales pt_clust_5="13000.00000" pt_clust_6="13000.00000" pt_clust_7="13000.00000" pt_clust_8="13000.00000" pt_clust_9="24.62954"></scales>
<clustering>
<clus scale="   24.630">  1  9  2 -1</clus>
<clus scale="   80.903">  5  6 -1 -1</clus>
<clus scale="   89.207">  7  8 -1 -1</clus>
<clus scale="   92.895">  1  5  2 -1</clus>
<clus scale="  100.210">  2  5  1 -1</clus>
</clustering>
</event>
<event>
 9    1  0.2374319E-005  0.1832137E+03  0.7546771E-02  0.1165404E+00
         -2   -1    0    0    0  501 -0.00000000000E+00  0.00000000000E+00  0.28644052608E+03  0.28644052608E+03  0.00000000000E+00 0.  1.
          1   -1    0    0  502    0  0.00000000000E+00 -0.00000000000E+00 -0.70181382039E+03  0.70181382039E+03  0.00000000000E+00 0. -1.
        -24    2    1    2    0    0  0.18605832896E+02 -0.16093394792E+03  0.23803677465E+03  0.29873744692E+03  0.79603036992E+02 0.  0.
         23    2    1    2    0    0  0.57042911939E+01  0.16128068716E+03 -0.46648469361E+03  0.50101703666E+03  0.85826002255E+02 0.  0.
         11    1    3    3    0    0 -0.27584753181E+02 -0.27940590994E+02  0.43466167483E+02  0.58573910138E+02  0.00000000000E+00 0. -1.
        -12    1    3    3    0    0  0.46190586077E+02 -0.13299335692E+03  0.19457060716E+03  0.24016353678E+03  0.00000000000E+00 0.  1.
        -11    1    4    4    0    0 -0.33082146318E+02  0.10823342249E+03 -0.34218076600E+03  0.36041167957E+03  0.00000000000E+00 0. -1.
         11    1    4    4    0    0  0.38786437512E+02  0.53047264673E+02 -0.12430392761E+03  0.14060535710E+03  0.00000000000E+00 0.  1.
         21    1    1    2  502  501 -0.24310124090E+02 -0.34673924422E+00 -0.18692537534E+03  0.18849986289E+03  0.00000000000E+00 0. -1.
<scales pt_clust_5="13000.00000" pt_clust_6="13000.00000" pt_clust_7="13000.00000" pt_clust_8="13000.00000" pt_clust_9="24.31260"></scales>
<clustering>
<clus scale="   24.313">  2  9  1 -1</clus>
<clus scale="   79.603">  5  6 -1 -1</clus>
<clus scale="   85.826">  7  8 -1 -1</clus>
<clus scale="  180.382">  1  5  2 -1</clus>
<clus scale="   24.313">  2  5  1 -1</clus>
</clustering>
</event>
<event>
 9    1  0.2374319E-005  0.1278362E+03  0.7546771E-02  0.1232996E+00
         -2   -1    0    0    0  501 -0.00000000000E+00  0.00000000000E+00  0.62114717493E+03  0.62114717493E+03  0.00000000000E+00 0.  1.
          1   -1    0    0  502    0  0.00000000000E+00 -0.00000000000E+00 -0.10722516529E+03  0.10722516529E+03  0.00000000000E+00 0. -1.
        -24    2    1    2    0    0  0.81383734432E+02  0.40932722107E+02  0.53996172353E+03  0.55393735465E+03  0.83601016928E+02 0.  0.
         23    2    1    2    0    0 -0.38496060623E+02 -0.68658749963E+02 -0.13286014384E+02  0.12179714712E+03  0.91989435472E+02 0.  0.
         13    1    3    3    0    0  0.27867609901E+02 -0.10571436183E+02  0.48731404311E+02  0.57123626554E+02  0.00000000000E+00 0. -1.
        -14    1    3    3    0    0  0.53516124532E+02  0.51504158290E+02  0.49123031922E+03  0.49681372810E+03  0.00000000000E+00 0.  1.
        -13    1    4    4    0    0 -0.68396882915E+01 -0.77381334557E+02 -0.31985022010E+02  0.84010082173E+02  0.00000000000E+00 0. -1.
         13    1    4    4    0    0 -0.31656372331E+02  0.87225845935E+01  0.18699007626E+02  0.37787064947E+02  0.00000000000E+00 0.  1.
         21    1    1    2  502  501 -0.42887673810E+02  0.27726027856E+02 -0.12753699509E+02  0.52637838450E+02  0.00000000000E+00 0.  1.
<scales pt_clust_5="13000.00000" pt_clust_6="13000.00000" pt_clust_7="13000.00000" pt_clust_8="13000.00000" pt_clust_9="51.06942"></scales>
<clustering>
<clus scale="   51.069">  2  9  1 -1</clus>
<clus scale="   83.601">  5  6 -1 -1</clus>
<clus scale="   91.989">  7  8 -1 -1</clus>
<clus scale="  121.939">  1  5  2 -1</clus>
<clus scale="   51.069">  2  5  1 -1</clus>
</clustering>
</event>
<event>
 9    1  0.2374319E-005  0.9959549E+02  0.7546771E-02  0.1287465E+00
         -4   -1    0    0    0  501 -0.00000000000E+00  0.00000000000E+00  0.48106161318E+03  0.48106161318E+03  0.00000000000E+00 0.  1.
          3   -1    0    0  502    0  0.00000000000E+00 -0.00000000000E+00 -0.10952502225E+03  0.10952502225E+03  0.00000000000E+00 0. -1.
        -24    2    1    2    0    0  0.35150199600E+02  0.31562373864E+01  0.43678330239E+03  0.44562867809E+03  0.80992389282E+02 0.  0.
         23    2    1    2    0    0 -0.38681074022E+02  0.20456088933E+02 -0.40440411585E+02  0.11052887746E+03  0.93094193165E+02 0.  0.
         11    1    3    3    0    0  0.24881947998E+02  0.11777419798E+02  0.39651972925E+02  0.48271087724E+02  0.00000000000E+00 0. -1.
        -12    1    3    3    0    0  0.10268251602E+02 -0.86211824113E+01  0.39713132947E+03  0.39735759037E+03  0.00000000000E+00 0.  1.
        -11    1    4    4    0    0 -0.18480021876E+02 -0.23572092297E+02  0.17748009636E+02  0.34815895649E+02  0.00000000000E+00 0.  1.
         11    1    4    4    0    0 -0.20201052146E+02  0.44028181230E+02 -0.58188421221E+02  0.75712981809E+02  0.00000000000E+00 0. -1.
         21    1    1    2  502  501  0.35308744229E+01 -0.23612326319E+02 -0.24806299871E+02  0.34429079885E+02  0.00000000000E+00 0.  1.
<scales pt_clust_5="13000.00000" pt_clust_6="13000.00000" pt_clust_7="13000.00000" pt_clust_8="13000.00000" pt_clust_9="23.87486"></scales>
<clustering>
<clus scale="   23.875">  2  9  1 -1</clus>
<clus scale="   80.992">  5  6 -1 -1</clus>
<clus scale="   88.388">  1  5  2 -1</clus>
<clus scale="   93.094">  7  8 -1 -1</clus>
<clus scale="   23.875">  2  5  1 -1</clus>
</clustering>
</event>
<event>
 9    1  0.2374319E-005  0.9299875E+02  0.7546771E-02  0.1302887E+00
          1   -1    0    0  502    0  0.00000000000E+00  0.00000000000E+00  0.20125934987E+03  0.20125934987E+03  0.00000000000E+00 0. -1.
         -2   -1    0    0    0  501 -0.00000000000E+00 -0.00000000000E+00 -0.15421732575E+03  0.15421732575E+03  0.00000000000E+00 0.  1.
        -24    2    1    2    0    0 -0.52382697053E+01  0.11759171302E+02 -0.12152685368E+03  0.14624007658E+03  0.80322264989E+02 0.  0.
         23    2    1    2    0    0 -0.97555288222E+01 -0.30378534592E+02  0.11556302933E+03  0.15108924608E+03  0.91951730969E+02 0.  0.
         11    1    3    3    0    0  0.28515365483E+02 -0.20055275817E+02 -0.48549843822E+02  0.59769787450E+02  0.00000000000E+00 0. -1.
        -12    1    3    3    0    0 -0.33753635188E+02  0.31814447119E+02 -0.72977009860E+02  0.86470289129E+02  0.00000000000E+00 0.  1.
        -13    1    4    4    0    0  0.34764764116E+02 -0.12788238360E+01  0.79642201872E+02  0.86908598731E+02  0.00000000000E+00 0. -1.
         13    1    4    4    0    0 -0.44520292939E+02 -0.29099710756E+02  0.35920827456E+02  0.64180647352E+02  0.00000000000E+00 0.  1.
         21    1    1    2  502  501  0.14993798527E+02  0.18619363290E+02  0.53005848474E+02  0.58147352959E+02  0.00000000000E+00 0.  1.
<scales pt_clust_5="13000.00000" pt_clust_6="13000.00000" pt_clust_7="13000.00000" pt_clust_8="13000.00000" pt_clust_9="23.90595"></scales>
<clustering>
<clus scale="   23.906">  1  9  2 -1</clus>
<clus scale="   80.322">  5  6 -1 -1</clus>
<clus scale="   81.519">  2  5  1 -1</clus>
<clus scale="   91.952">  7  8 -1 -1</clus>
<clus scale="   23.906">  1  5  2 -1</clus>
</clustering>
</event>
<event>
 9    1  0.2374319E-005  0.1171511E+03  0.7546771E-02  0.1252181E+00
         -4   -1    0    0    0  501 -0.00000000000E+00  0.00000000000E+00  0.23529313963E+03  0.23529313963E+03  0.00000000000E+00 0.  1.
          3   -1    0    0  502    0  0.00000000000E+00 -0.00000000000E+00 -0.13084363739E+03  0.13084363739E+03  0.00000000000E+00 0. -1.
        -24    2    1    2    0    0 -0.55648137129E+02  0.48783530320E+02  0.18028287864E+03  0.21033416444E+03  0.79132777039E+02 0.  0.
         23    2    1    2    0    0  0.60885678539E+02 -0.27567462965E+02 -0.69060777638E+02  0.13292420687E+03  0.91828224949E+02 0.  0.
         11    1    3    3    0    0 -0.84635777526E+01 -0.18202329878E+02  0.70772258879E+02  0.73564050923E+02  0.00000000000E+00 0. -1.
        -12    1    3    3    0    0 -0.47184559376E+02  0.66985860198E+02  0.10951061976E+03  0.13677011351E+03  0.00000000000E+00 0.  1.
        -11    1    4    4    0    0 -0.17940375996E+02  0.15527803206E+02 -0.15199654973E+02  0.28177992735E+02  0.00000000000E+00 0.  1.
         11    1    4    4    0    0  0.78826054535E+02 -0.43095266171E+02 -0.53861122665E+02  0.10474621413E+03  0.00000000000E+00 0. -1.
         21    1    1    2  502  501 -0.52375414105E+01 -0.21216067355E+02 -0.67725987685E+01  0.22878405716E+02  0.00000000000E+00 0.  1.
<scales pt_clust_5="13000.00000" pt_clust_6="13000.00000" pt_clust_7="13000.00000" pt_clust_8="13000.00000" pt_clust_9="21.85299"></scales>
<clustering>
<clus scale="   21.853">  2  9  1 -1</clus>
<clus scale="   79.133">  5  6 -1 -1</clus>
<clus scale="   91.828">  7  8 -1 -1</clus>
<clus scale="  107.489">  1  5  2 -1</clus>
<clus scale="   21.853">  2  5  1 -1</clus>
</clustering>
</event>
<event>
 9    1  0.2374319E-005  0.9789463E+02  0.7546771E-02  0.1290108E+00
          1   -1    0    0  502    0  0.00000000000E+00  0.00000000000E+00  0.19433296974E+03  0.19433296974E+03  0.00000000000E+00 0. -1.
         -2   -1    0    0    0  501 -0.00000000000E+00 -0.00000000000E+00 -0.19922917765E+03  0.19922917765E+03  0.00000000000E+00 0.  1.
         23    2    1    2    0    0  0.15239815014E+02 -0.27870361715E+02 -0.14242052617E+03  0.17267779608E+03  0.92330958840E+02 0.  0.
        -24    2    1    2    0    0 -0.24377577363E+02 -0.26544590016E+02  0.13915967417E+03  0.16568326382E+03  0.82381111039E+02 0.  0.
         11    1    4    4    0    0 -0.27223859143E+02 -0.19054224986E+02  0.14918965678E+03  0.15284552884E+03  0.00000000000E+00 0. -1.
        -12    1    4    4    0    0  0.28462817805E+01 -0.74903650301E+01 -0.10029982606E+02  0.12837734977E+02  0.00000000000E+00 0.  1.
        -13    1    3    3    0    0 -0.76879865071E+01 -0.55802895562E+02 -0.11229124889E+03  0.12562799396E+03  0.00000000000E+00 0.  1.
         13    1    3    3    0    0  0.22927801521E+02  0.27932533848E+02 -0.30129277277E+02  0.47049802114E+02  0.00000000000E+00 0. -1.
         21    1    1    2  502  501  0.91377623488E+01  0.54414951731E+02 -0.16353559210E+01  0.55201087504E+02  0.00000000000E+00 0. -1.
<scales pt_clust_5="13000.00000" pt_clust_6="13000.00000" pt_clust_7="13000.00000" pt_clust_8="13000.00000" pt_clust_9="55.17686"></scales>
<clustering>
<clus scale="   55.177">  2  9  1 -1</clus>
<clus scale="   82.381">  5  6 -1 -1</clus>
<clus scale="   88.572">  1  5  2 -1</clus>
<clus scale="   92.331">  7  8 -1 -1</clus>
<clus scale="   88.572">  1  5  2 -1</clus>
</clustering>
</event>
<event>
 9    1  0.2374319E-005  0.1013513E+03  0.7546771E-02  0.1281835E+00
          1   -1    0    0  502    0  0.00000000000E+00  0.00000000000E+00  0.25997834387E+03  0.25997834387E+03  0.00000000000E+00 0. -1.
         -2   -1    0    0    0  501 -0.00000000000E+00 -0.00000000000E+00 -0.11342108161E+03  0.11342108161E+03  0.00000000000E+00 0.  1.
        -24    2    1    2    0    0 -0.45967363858E+02  0.13457843241E+02 -0.51406098289E+02  0.10795937985E+03  0.81966631447E+02 0.  0.
         23    2    1    2    0    0  0.36691913505E+02  0.51747712872E+02  0.12320226766E+03  0.16580561615E+03  0.91041645887E+02 0.  0.
         13    1    3    3    0    0 -0.29057465720E+02 -0.49069868964E+01  0.17773119730E+02  0.34413640019E+02  0.00000000000E+00 0. -1.
        -14    1    3    3    0    0 -0.16909898139E+02  0.18364830138E+02 -0.69179218019E+02  0.73545739827E+02  0.00000000000E+00 0.  1.
        -13    1    4    4    0    0  0.52250843775E+02 -0.13376166117E+01  0.80246111208E+02  0.95767313094E+02  0.00000000000E+00 0.  1.
         13    1    4    4    0    0 -0.15558930270E+02  0.53085329484E+02  0.42956156448E+02  0.70038303051E+02  0.00000000000E+00 0. -1.
         21    1    1    2  502  501  0.92754503536E+01 -0.65205556113E+02  0.74761092898E+02  0.99634429484E+02  0.00000000000E+00 0. -1.
<scales pt_clust_5="13000.00000" pt_clust_6="13000.00000" pt_clust_7="13000.00000" pt_clust_8="13000.00000" pt_clust_9="65.86197"></scales>
<clustering>
<clus scale="   65.862">  1  9  2 -1</clus>
<clus scale="   81.967">  5  6 -1 -1</clus>
<clus scale="   91.042">  7  8 -1 -1</clus>
<clus scale="   93.285">  2  5  1 -1</clus>
<clus scale="   65.862">  1  5  2 -1</clus>
</clustering>
</event>
<event>
 9    1  0.2374319E-005  0.1160892E+03  0.7546771E-02  0.1253461E+00
          1   -1    0    0  502    0  0.00000000000E+00  0.00000000000E+00  0.31297032028E+03  0.31297032028E+03  0.00000000000E+00 0. -1.
         -2   -1    0    0    0  501 -0.00000000000E+00 -0.00000000000E+00 -0.16924266938E+03  0.16924266938E+03  0.00000000000E+00 0.  1.
        -24    2    1    2    0    0 -0.16841203921E+02 -0.53498362716E+02 -0.12609956606E+03  0.17102150606E+03  0.10100274260E+03 0.  0.
         23    2    1    2    0    0 -0.12278300318E+02  0.73669913818E+02  0.18640790676E+03  0.22056246883E+03  0.91224350330E+02 0.  0.
         13    1    3    3    0    0  0.41193736271E+02 -0.13530439034E+02 -0.62703260881E+02  0.76234477853E+02  0.00000000000E+00 0. -1.
        -14    1    3    3    0    0 -0.58034940192E+02 -0.39967923682E+02 -0.63396305182E+02  0.94787028212E+02  0.00000000000E+00 0.  1.
        -11    1    4    4    0    0 -0.44636653710E+02  0.15664552695E+02  0.49935006080E+02  0.68784546940E+02  0.00000000000E+00 0.  1.
         11    1    4    4    0    0  0.32358353392E+02  0.58005361123E+02  0.13647290068E+03  0.15177792189E+03  0.00000000000E+00 0. -1.
         21    1    1    2  502  501  0.29119504239E+02 -0.20171551102E+02  0.83419310208E+02  0.90629014761E+02  0.00000000000E+00 0. -1.
<scales pt_clust_5="13000.00000" pt_clust_6="13000.00000" pt_clust_7="13000.00000" pt_clust_8="13000.00000" pt_clust_9="35.42368"></scales>
<clustering>
<clus scale="   35.424">  1  9  2 -1</clus>
<clus scale="   91.224">  7  8 -1 -1</clus>
<clus scale="  101.003">  5  6 -1 -1</clus>
<clus scale="  107.690">  1  7  2 -1</clus>
<clus scale="   35.424">  1  5  2 -1</clus>
</clustering>
</event>
<event>
 9    1  0.2374319E-005  0.1064146E+03  0.7546771E-02  0.1271951E+00
          1   -1    0    0  502    0  0.00000000000E+00  0.00000000000E+00  0.70917438581E+03  0.70917438581E+03  0.00000000000E+00 0. -1.
         -2   -1    0    0    0  501 -0.00000000000E+00 -0.00000000000E+00 -0.49073445508E+02  0.49073445508E+02  0.00000000000E+00 0.  1.
        -24    2    1    2    0    0 -0.31117720676E+02  0.62863541302E+02  0.36708678923E+02  0.11168069225E+03  0.78771267278E+02 0.  0.
         23    2    1    2    0    0 -0.49938297889E+01  0.80200897249E+01  0.37733845901E+03  0.38797284894E+03  0.89718218286E+02 0.  0.
         11    1    3    3    0    0 -0.39872966554E+02  0.32237449486E+02  0.54800820654E+02  0.75048228197E+02  0.00000000000E+00 0. -1.
        -12    1    3    3    0    0  0.87552458780E+01  0.30626091815E+02 -0.18092141731E+02  0.36632464054E+02  0.00000000000E+00 0.  1.
        -11    1    4    4    0    0  0.28590841799E+02  0.34565174163E+02  0.14706359285E+03  0.15375268401E+03  0.00000000000E+00 0. -1.
         11    1    4    4    0    0 -0.33584671587E+02 -0.26545084438E+02  0.23027486616E+03  0.23422016493E+03  0.00000000000E+00 0.  1.
         21    1    1    2  502  501  0.36111550465E+02 -0.70883631026E+02  0.24605380238E+03  0.25859429013E+03  0.00000000000E+00 0. -1.
<scales pt_clust_5="13000.00000" pt_clust_6="13000.00000" pt_clust_7="13000.00000" pt_clust_8="13000.00000" pt_clust_9="79.55208"></scales>
<clustering>
<clus scale="   78.771">  5  6 -1 -1</clus>
<clus scale="   79.552">  1  9  2 -1</clus>
<clus scale="   89.718">  7  8 -1 -1</clus>
<clus scale="   97.363">  2  5  1 -1</clus>
<clus scale="   79.552">  1  5  2 -1</clus>
</clustering>
</event>
<event>
 9    1  0.2374319E-005  0.9419163E+02  0.7546771E-02  0.1299958E+00
          1   -1    0    0  502    0  0.00000000000E+00  0.00000000000E+00  0.68872191346E+03  0.68872191346E+03  0.00000000000E+00 0. -1.
         -2   -1    0    0    0  501 -0.00000000000E+00 -0.00000000000E+00 -0.25023261564E+02  0.25023261564E+02  0.00000000000E+00 0.  1.
        -24    2    1    2    0    0 -0.54896743752E+01 -0.12042325081E+02  0.92313450707E+02  0.12298205971E+03  0.80172686809E+02 0.  0.
         23    2    1    2    0    0  0.12034725249E+02  0.52278074714E+02  0.46021551189E+03  0.47235512125E+03  0.91886949465E+02 0.  0.
         13    1    3    3    0    0 -0.31044294735E+02  0.22297983627E+02  0.48177031209E+02  0.61497761305E+02  0.00000000000E+00 0. -1.
        -14    1    3    3    0    0  0.25554620360E+02 -0.34340308708E+02  0.44136419499E+02  0.61484298402E+02  0.00000000000E+00 0.  1.
        -11    1    4    4    0    0  0.76394460266E+01  0.76351299396E+02  0.40111849169E+03  0.40839187851E+03  0.00000000000E+00 0. -1.
         11    1    4    4    0    0  0.43952792226E+01 -0.24073224682E+02  0.59097020203E+02  0.63963242749E+02  0.00000000000E+00 0.  1.
         21    1    1    2  502  501 -0.65450508740E+01 -0.40235749633E+02  0.11116968930E+03  0.11840799406E+03  0.00000000000E+00 0. -1.
<scales pt_clust_5="13000.00000" pt_clust_6="13000.00000" pt_clust_7="13000.00000" pt_clust_8="13000.00000" pt_clust_9="40.76461"></scales>
<clustering>
<clus scale="   40.765">  1  9  2 -1</clus>
<clus scale="   80.173">  5  6 -1 -1</clus>
<clus scale="   82.804">  2  5  1 -1</clus>
<clus scale="   91.887">  7  8 -1 -1</clus>
<clus scale="   40.765">  1  5  2 -1</clus>
</clustering>
</event>
<event>
 9    1  0.2374319E-005  0.1730361E+03  0.7546771E-02  0.1176469E+00
          1   -1    0    0  502    0  0.00000000000E+00  0.00000000000E+00  0.75115176509E+03  0.75115176509E+03  0.00000000000E+00 0. -1.
         -2   -1    0    0    0  501 -0.00000000000E+00 -0.00000000000E+00 -0.94685711934E+02  0.94685711934E+02  0.00000000000E+00 0.  1.
        -24    2    1    2    0    0 -0.63223202642E+02  0.16205599660E+03  0.77224827998E+02  0.20596539912E+03  0.78732154739E+02 0.  0.
         23    2    1    2    0    0 -0.13583359084E+02 -0.11355743579E+03  0.18976524770E+03  0.23994346510E+03  0.92098959507E+02 0.  0.
         13    1    3    3    0    0 -0.22143180146E+02  0.51719109882E+01 -0.62322050599E+01  0.23577732507E+02  0.00000000000E+00 0. -1.
        -14    1    3    3    0    0 -0.41080022496E+02  0.15688408561E+03  0.83457033058E+02  0.18238766661E+03  0.00000000000E+00 0.  1.
        -11    1    4    4    0    0  0.29183013694E+02 -0.94561300221E+02  0.11474955454E+03  0.15152870373E+03  0.00000000000E+00 0.  1.
         11    1    4    4    0    0 -0.42766372778E+02 -0.18996135566E+02  0.75015693167E+02  0.88414761371E+02  0.00000000000E+00 0. -1.
         21    1    1    2  502  501  0.76806561726E+02 -0.48498560811E+02  0.38947597745E+03  0.39992861280E+03  0.00000000000E+00 0. -1.
<scales pt_clust_5="13000.00000" pt_clust_6="13000.00000" pt_clust_7="13000.00000" pt_clust_8="13000.00000" pt_clust_9="90.83699"></scales>
<clustering>
<clus scale="   78.732">  5  6 -1 -1</clus>
<clus scale="   90.837">  1  9  2 -1</clus>
<clus scale="   92.099">  7  8 -1 -1</clus>
<clus scale="  166.307">  2  5  1 -1</clus>
<clus scale="   90.837">  1  5  2 -1</clus>
</clustering>
</event>
<event>
 9    1  0.2374319E-005  0.1044799E+03  0.7546771E-02  0.1276041E+00
          3   -1    0    0  502    0  0.00000000000E+00  0.00000000000E+00  0.73765433577E+02  0.73765433577E+02  0.00000000000E+00 0. -1.
         -4   -1    0    0    0  501 -0.00000000000E+00 -0.00000000000E+00 -0.26980651665E+03  0.26980651665E+03  0.00000000000E+00 0.  1.
        -24    2    1    2    0    0 -0.39518046755E+02 -0.38536151003E+02 -0.19322935949E+03  0.21618920832E+03  0.79708703879E+02 0.  0.
         23    2    1    2    0    0  0.12256148566E+02  0.39691512680E+02  0.14378040975E+01  0.99767448335E+02  0.90696455885E+02 0.  0.
         13    1    3    3    0    0 -0.27951089389E+02 -0.30184045286E+02 -0.26685262181E+02  0.49035122163E+02  0.00000000000E+00 0. -1.
        -14    1    3    3    0    0 -0.11566957366E+02 -0.83521057171E+01 -0.16654409731E+03  0.16715408616E+03  0.00000000000E+00 0.  1.
        -13    1    4    4    0    0 -0.76796891606E+01  0.29543831840E+02 -0.41402029113E+02  0.51438736766E+02  0.00000000000E+00 0.  1.
         13    1    4    4    0    0  0.19935837727E+02  0.10147680840E+02  0.42839833211E+02  0.48328711568E+02  0.00000000000E+00 0. -1.
         21    1    1    2  502  501  0.27261898188E+02 -0.11553616773E+01 -0.42495276851E+01  0.27615293571E+02  0.00000000000E+00 0. -1.
<scales pt_clust_5="13000.00000" pt_clust_6="13000.00000" pt_clust_7="13000.00000" pt_clust_8="13000.00000" pt_clust_9="27.28637"></scales>
<clustering>
<clus scale="   27.286">  1  9  2 -1</clus>
<clus scale="   79.709">  5  6 -1 -1</clus>
<clus scale="   90.696">  7  8 -1 -1</clus>
<clus scale="   95.098">  2  5  1 -1</clus>
<clus scale="   27.286">  1  5  2 -1</clus>
</clustering>
</event>
<event>
 9    1  0.2374319E-005  0.1213739E+03  0.7546771E-02  0.1252045E+00
          1   -1    0    0  502    0  0.00000000000E+00  0.00000000000E+00  0.21917936966E+03  0.21917936966E+03  0.00000000000E+00 0. -1.
         -2   -1    0    0    0  501 -0.00000000000E+00 -0.00000000000E+00 -0.28441204374E+03  0.28441204374E+03  0.00000000000E+00 0.  1.
         23    2    1    2    0    0 -0.27248422887E+02 -0.60400091211E+02 -0.24727696386E+03  0.27556622835E+03  0.10198137961E+03 0.  0.
        -24    2    1    2    0    0  0.51984318672E+02  0.41911581333E+02  0.16759644528E+03  0.19393076104E+03  0.71145074105E+02 0.  0.
         13    1    4    4    0    0  0.42426754727E+02  0.61865734679E+02  0.12135787904E+03  0.14267141777E+03  0.00000000000E+00 0. -1.
        -14    1    4    4    0    0  0.95575639451E+01 -0.19954153346E+02  0.46238566234E+02  0.51259343263E+02  0.00000000000E+00 0.  1.
        -11    1    3    3    0    0  0.38057791933E+02 -0.10648664496E+02 -0.80324723557E+02  0.89520113923E+02  0.00000000000E+00 0. -1.
         11    1    3    3    0    0 -0.65306214820E+02 -0.49751426715E+02 -0.16695224030E+03  0.18604611443E+03  0.00000000000E+00 0.  1.
         21    1    1    2  502  501 -0.24735895786E+02  0.18488509878E+02  0.14447844499E+02  0.34094424009E+02  0.00000000000E+00 0.  1.
<scales pt_clust_5="13000.00000" pt_clust_6="13000.00000" pt_clust_7="13000.00000" pt_clust_8="13000.00000" pt_clust_9="30.88186"></scales>
<clustering>
<clus scale="   30.882">  1  9  2 -1</clus>
<clus scale="   71.145">  5  6 -1 -1</clus>
<clus scale="   96.918">  1  5  2 -1</clus>
<clus scale="  101.981">  7  8 -1 -1</clus>
<clus scale="   30.882">  1  5  2 -1</clus>
</clustering>
</event>
<event>
 9    1  0.2374319E-005  0.1006374E+03  0.7546771E-02  0.1285883E+00
          1   -1    0    0  502    0  0.00000000000E+00  0.00000000000E+00  0.76531646677E+03  0.76531646677E+03  0.00000000000E+00 0. -1.
         -2   -1    0    0    0  501 -0.00000000000E+00 -0.00000000000E+00 -0.25161205571E+02  0.25161205571E+02  0.00000000000E+00 0.  1.
         23    2    1    2    0    0  0.25698230198E+02  0.20389135116E+02  0.10671318444E+03  0.14657300738E+03  0.94972769222E+02 0.  0.
        -24    2    1    2    0    0 -0.11314420667E+02 -0.39439363000E+02  0.48359630407E+03  0.49216949846E+03  0.81743198108E+02 0.  0.
         11    1    4    4    0    0 -0.42171485602E+02 -0.39064126917E+02  0.24882742975E+03  0.25538114654E+03  0.00000000000E+00 0. -1.
        -12    1    4    4    0    0  0.30857064935E+02 -0.37523608300E+00  0.23476887432E+03  0.23678835192E+03  0.00000000000E+00 0.  1.
        -13    1    3    3    0    0  0.28598110084E+02 -0.47597802361E+01 -0.72070085025E+01  0.29873874536E+02  0.00000000000E+00 0.  1.
         13    1    3    3    0    0 -0.28998798853E+01  0.25148915352E+02  0.11392019295E+03  0.11669913285E+03  0.00000000000E+00 0. -1.
         21    1    1    2  502  501 -0.14383809532E+02  0.19050227884E+02  0.14984577268E+03  0.15173516649E+03  0.00000000000E+00 0.  1.
<scales pt_clust_5="13000.00000" pt_clust_6="13000.00000" pt_clust_7="13000.00000" pt_clust_8="13000.00000" pt_clust_9="23.87059"></scales>
<clustering>
<clus scale="   23.871">  1  9  2 -1</clus>
<clus scale="   81.743">  5  6 -1 -1</clus>
<clus scale="   88.261">  1  5  2 -1</clus>
<clus scale="   94.973">  7  8 -1 -1</clus>
<clus scale="   23.871">  1  5  2 -1</clus>
</clustering>
</event>
<event>
 9    1  0.2374319E-005  0.9934433E+02  0.7546771E-02  0.1288123E+00
         -4   -1    0    0    0  501 -0.00000000000E+00  0.00000000000E+00  0.22934169657E+03  0.22934169657E+03  0.00000000000E+00 0.  1.
          3   -1    0    0  502    0  0.00000000000E+00 -0.00000000000E+00 -0.60857004926E+02  0.60857004926E+02  0.00000000000E+00 0. -1.
        -24    2    1    2    0    0  0.90448984436E+01 -0.31373667193E+02  0.12721659762E+03  0.15383704730E+03  0.80097797918E+02 0.  0.
         23    2    1    2    0    0 -0.31272314812E+02  0.37391872322E+02  0.43542632422E+02  0.11322185393E+03  0.92450622389E+02 0.  0.
         13    1    3    3    0    0  0.41384335237E+02 -0.18439404840E+02  0.42008031998E+02  0.61784703659E+02  0.00000000000E+00 0. -1.
        -14    1    3    3    0    0 -0.32339436793E+02 -0.12934262353E+02  0.85208565621E+02  0.92052343641E+02  0.00000000000E+00 0.  1.
        -11    1    4    4    0    0 -0.56527396163E+02  0.37809252169E+02  0.53031948441E+02  0.86239629069E+02  0.00000000000E+00 0.  1.
         11    1    4    4    0    0  0.25255081352E+02 -0.41737984719E+00 -0.94893160195E+01  0.26982224862E+02  0.00000000000E+00 0. -1.
         21    1    1    2  502  501  0.22227416368E+02 -0.60182051288E+01 -0.22745383964E+01  0.23139800265E+02  0.00000000000E+00 0. -1.
<scales pt_clust_5="13000.00000" pt_clust_6="13000.00000" pt_clust_7="13000.00000" pt_clust_8="13000.00000" pt_clust_9="23.02774"></scales>
<clustering>
<clus scale="   23.028">  2  9  1 -1</clus>
<clus scale="   80.098">  5  6 -1 -1</clus>
<clus scale="   87.965">  1  5  2 -1</clus>
<clus scale="   92.451">  7  8 -1 -1</clus>
<clus scale="   23.028">  2  5  1 -1</clus>
</clustering>
</event>
<event>
 9    1  0.2374319E-005  0.1074908E+03  0.7546771E-02  0.1267214E+00
         -2   -1    0    0    0  501 -0.00000000000E+00  0.00000000000E+00  0.15466816811E+03  0.15466816811E+03  0.00000000000E+00 0.  1.
          1   -1    0    0  502    0  0.00000000000E+00 -0.00000000000E+00 -0.26682237182E+03  0.26682237182E+03  0.00000000000E+00 0. -1.
        -24    2    1    2    0    0  0.59366650329E+02  0.13002002608E+02  0.11556134508E+03  0.15574821273E+03  0.84909540394E+02 0.  0.
         23    2    1    2    0    0 -0.37555607269E+02 -0.37353083857E+02 -0.16823241013E+03  0.19786788030E+03  0.89687667618E+02 0.  0.
         13    1    3    3    0    0  0.60091740415E+02  0.33686240744E+02  0.45171554052E+02  0.82378694922E+02  0.00000000000E+00 0. -1.
        -14    1    3    3    0    0 -0.72509008625E+00 -0.20684238137E+02  0.70389791029E+02  0.73369517812E+02  0.00000000000E+00 0.  1.
        -11    1    4    4    0    0  0.22647182032E+02  0.11739470331E+02 -0.30714898265E+02  0.39926369645E+02  0.00000000000E+00 0.  1.
         11    1    4    4    0    0 -0.60202789301E+02 -0.49092554188E+02 -0.13751751187E+03  0.15794151065E+03  0.00000000000E+00 0. -1.
         21    1    1    2  502  501 -0.21811043060E+02  0.24351081249E+02 -0.59483138661E+02  0.67874446902E+02  0.00000000000E+00 0. -1.
<scales pt_clust_5="13000.00000" pt_clust_6="13000.00000" pt_clust_7="13000.00000" pt_clust_8="13000.00000" pt_clust_9="32.69093"></scales>
<clustering>
<clus scale="   32.691">  2  9  1 -1</clus>
<clus scale="   84.910">  5  6 -1 -1</clus>
<clus scale="   89.688">  7  8 -1 -1</clus>
<clus scale="  103.538">  1  5  2 -1</clus>
<clus scale="   32.691">  2  5  1 -1</clus>
</clustering>
</event>
<event>
 9    1  0.1076966E-004  0.2279063E+03  0.7546771E-02  0.1129114E+00
         -2   -1    0    0    0  501 -0.00000000000E+00  0.00000000000E+00  0.72837090918E+03  0.72837090918E+03  0.00000000000E+00 0.  1.
          1   -1    0    0  502    0  0.00000000000E+00 -0.00000000000E+00 -0.68692210167E+03  0.68692210167E+03  0.00000000000E+00 0. -1.
        -24    2    1    2    0    0 -0.52787787338E+02  0.20004306724E+03  0.68324463178E+03  0.71845635338E+03  0.80947672036E+02 0.  0.
         23    2    1    2    0    0  0.77286810860E+02 -0.20385067597E+03 -0.61917539066E+03  0.66327501188E+03  0.95011724304E+02 0.  0.
         11    1    3    3    0    0  0.18953996224E+02  0.28018343181E+02  0.14361987649E+03  0.14754982362E+03  0.00000000000E+00 0. -1.
        -12    1    3    3    0    0 -0.71741783562E+02  0.17202472406E+03  0.53962475529E+03  0.57090652976E+03  0.00000000000E+00 0.  1.
        -13    1    4    4    0    0  0.27931353664E+02 -0.10952606401E+03 -0.18987484577E+03  0.22097189022E+03  0.00000000000E+00 0.  1.
         13    1    4    4    0    0  0.49355457196E+02 -0.94324611957E+02 -0.42930054490E+03  0.44230312166E+03  0.00000000000E+00 0. -1.
         21    1    1    2  502  501 -0.24499023522E+02  0.38076087281E+01 -0.22620433609E+02  0.33561645586E+02  0.00000000000E+00 0. -1.
<scales pt_clust_5="13000.00000" pt_clust_6="13000.00000" pt_clust_7="13000.00000" pt_clust_8="13000.00000" pt_clust_9="24.79314"></scales>
<clustering>
<clus scale="   24.793">  2  9  1 -1</clus>
<clus scale="   80.948">  5  6 -1 -1</clus>
<clus scale="   95.012">  7  8 -1 -1</clus>
<clus scale="  222.411">  1  5  2 -1</clus>
<clus scale="   24.793">  2  5  1 -1</clus>
</clustering>
</event>
<event>
 9    1  0.2374319E-005  0.1234387E+03  0.7546771E-02  0.1240150E+00
         -2   -1    0    0    0  501 -0.00000000000E+00  0.00000000000E+00  0.66270071259E+02  0.66270071259E+02  0.00000000000E+00 0.  1.
          1   -1    0    0  502    0  0.00000000000E+00 -0.00000000000E+00 -0.59774196127E+03  0.59774196127E+03  0.00000000000E+00 0. -1.
        -24    2    1    2    0    0  0.85981091287E+02 -0.55146270737E+02 -0.34363066790E+02  0.13418487325E+03  0.79943108616E+02 0.  0.
         23    2    1    2    0    0 -0.48795755733E+02  0.12321754038E+02 -0.17453075640E+03  0.20230113343E+03  0.89061283726E+02 0.  0.
         11    1    3    3    0    0  0.42330345652E+02 -0.52203598534E+02 -0.54014351018E+02  0.86224265603E+02  0.00000000000E+00 0. -1.
        -12    1    3    3    0    0  0.43650745636E+02 -0.29426722029E+01  0.19651284228E+02  0.47960607649E+02  0.00000000000E+00 0.  1.
        -13    1    4    4    0    0  0.20617921847E+02  0.12311851968E+02 -0.88813789391E+02  0.92003095525E+02  0.00000000000E+00 0.  1.
         13    1    4    4    0    0 -0.69413677581E+02  0.99020697548E-02 -0.85716967008E+02  0.11029803791E+03  0.00000000000E+00 0. -1.
         21    1    1    2  502  501 -0.37185335554E+02  0.42824516700E+02 -0.32257806682E+03  0.32752602584E+03  0.00000000000E+00 0. -1.
<scales pt_clust_5="13000.00000" pt_clust_6="13000.00000" pt_clust_7="13000.00000" pt_clust_8="13000.00000" pt_clust_9="56.71586"></scales>
<clustering>
<clus scale="   56.716">  2  9  1 -1</clus>
<clus scale="   79.943">  5  6 -1 -1</clus>
<clus scale="   89.061">  7  8 -1 -1</clus>
<clus scale="  117.030">  1  5  2 -1</clus>
<clus scale="   56.716">  2  5  1 -1</clus>
</clustering>
</event>
<event>
 9    1  0.2374319E-005  0.1163618E+03  0.7546771E-02  0.1252342E+00
         -2   -1    0    0    0  501 -0.00000000000E+00  0.00000000000E+00  0.18295351500E+03  0.18295351500E+03  0.00000000000E+00 0.  1.
          1   -1    0    0  502    0  0.00000000000E+00 -0.00000000000E+00 -0.30239544786E+03  0.30239544786E+03  0.00000000000E+00 0. -1.
        -24    2    1    2    0    0 -0.46255293682E+02  0.54952586560E+02  0.14075862866E+03  0.17798643791E+03  0.81895308632E+02 0.  0.
         23    2    1    2    0    0  0.26872346341E+02 -0.79053984667E+02 -0.15790015586E+03  0.20048900607E+03  0.91058919634E+02 0.  0.
         11    1    3    3    0    0 -0.32227543736E+02  0.57393398592E+02  0.41722313941E+02  0.77931818006E+02  0.00000000000E+00 0. -1.
        -12    1    3    3    0    0 -0.14027749947E+02 -0.24408120314E+01  0.99036314717E+02  0.10005461991E+03  0.00000000000E+00 0.  1.
        -13    1    4    4    0    0  0.54321194525E+01 -0.27690909678E+02  0.47173406924E+01  0.28610272696E+02  0.00000000000E+00 0.  1.
         13    1    4    4    0    0  0.21440226888E+02 -0.51363074989E+02 -0.16261749656E+03  0.17187873338E+03  0.00000000000E+00 0. -1.
         21    1    1    2  502  501  0.19382947342E+02  0.24101398106E+02 -0.10230040566E+03  0.10687351887E+03  0.00000000000E+00 0. -1.
<scales pt_clust_5="13000.00000" pt_clust_6="13000.00000" pt_clust_7="13000.00000" pt_clust_8="13000.00000" pt_clust_9="30.92856"></scales>
<clustering>
<clus scale="   30.929">  2  9  1 -1</clus>
<clus scale="   81.895">  5  6 -1 -1</clus>
<clus scale="   91.059">  7  8 -1 -1</clus>
<clus scale="  109.340">  1  5  2 -1</clus>
<clus scale="   30.929">  2  5  1 -1</clus>
</clustering>
</event>
<event>
 9    1  0.2374319E-005  0.1852943E+03  0.7546771E-02  0.1163810E+00
          1   -1    0    0  502    0  0.00000000000E+00  0.00000000000E+00  0.60244329062E+03  0.60244329062E+03  0.00000000000E+00 0. -1.
         -2   -1    0    0    0  501 -0.00000000000E+00 -0.00000000000E+00 -0.16316901761E+03  0.16316901761E+03  0.00000000000E+00 0.  1.
         23    2    1    2    0    0 -0.71836033357E+02  0.14473908971E+03 -0.70141116616E+02  0.19856920793E+03  0.91652246657E+02 0.  0.
        -24    2    1    2    0    0  0.24948984357E+02 -0.16181381290E+03  0.46652148529E+03  0.50124166745E+03  0.82430280147E+02 0.  0.
         13    1    4    4    0    0  0.54592826846E+02 -0.85886898607E+02  0.25469504049E+03  0.27427449708E+03  0.00000000000E+00 0. -1.
        -14    1    4    4    0    0 -0.29643842488E+02 -0.75926914297E+02  0.21182644480E+03  0.22696717037E+03  0.00000000000E+00 0.  1.
        -11    1    3    3    0    0  0.21417892215E+02  0.40971916841E+02 -0.18816860664E+02  0.49914910816E+02  0.00000000000E+00 0. -1.
         11    1    3    3    0    0 -0.93253925572E+02  0.10376717287E+03 -0.51324255952E+02  0.14865429711E+03  0.00000000000E+00 0.  1.
         21    1    1    2  502  501  0.46887049000E+02  0.17074723192E+02  0.42893904337E+02  0.65801432851E+02  0.00000000000E+00 0. -1.
<scales pt_clust_5="13000.00000" pt_clust_6="13000.00000" pt_clust_7="13000.00000" pt_clust_8="13000.00000" pt_clust_9="49.89931"></scales>
<clustering>
<clus scale="   49.899">  1  9  2 -1</clus>
<clus scale="   82.430">  5  6 -1 -1</clus>
<clus scale="   91.652">  7  8 -1 -1</clus>
<clus scale="  180.911">  1  5  2 -1</clus>
<clus scale="   49.899">  1  5  2 -1</clus>
</clustering>
</event>
<event>
 9    1  0.2374319E-005  0.4095846E+03  0.7546771E-02  0.1098009E+00
         -2   -1    0    0    0  501 -0.00000000000E+00  0.00000000000E+00  0.89985921151E+03  0.89985921151E+03  0.00000000000E+00 0.  1.
          1   -1    0    0  502    0  0.00000000000E+00 -0.00000000000E+00 -0.39936082741E+03  0.39936082741E+03  0.00000000000E+00 0. -1.
        -24    2    1    2    0    0  0.40802044836E+02 -0.19536066461E+02  0.26095286104E+03  0.27420002233E+03  0.71012617211E+02 0.  0.
         23    2    1    2    0    0  0.36121327209E+03 -0.49981767320E+02  0.43297107309E+03  0.57350867933E+03  0.92060035488E+02 0.  0.
         11    1    3    3    0    0 -0.12002910628E+02 -0.27092218745E+02  0.71927888589E+02  0.77792540369E+02  0.00000000000E+00 0. -1.
        -12    1    3    3    0    0  0.52804955464E+02  0.75561522835E+01  0.18902497245E+03  0.19640748196E+03  0.00000000000E+00 0.  1.
        -11    1    4    4    0    0  0.25223644713E+03 -0.74079551038E+02  0.32736251201E+03  0.41985380720E+03  0.00000000000E+00 0.  1.
         11    1    4    4    0    0  0.10897682496E+03  0.24097783718E+02  0.10560856108E+03  0.15365487214E+03  0.00000000000E+00 0. -1.
         21    1    1    2  502  501 -0.40201531693E+03  0.69517833782E+02 -0.19342555004E+03  0.45151133725E+03  0.00000000000E+00 0. -1.
<scales pt_clust_5="13000.00000" pt_clust_6="13000.00000" pt_clust_7="13000.00000" pt_clust_8="13000.00000" pt_clust_9="399.10465"></scales>
<clustering>
<clus scale="   71.013">  5  6 -1 -1</clus>
<clus scale="   84.198">  1  5  2 -1</clus>
<clus scale="   92.060">  7  8 -1 -1</clus>
<clus scale="  399.105">  2  9  1 -1</clus>
<clus scale="  399.105">  2  5  1 -1</clus>
</clustering>
</event>
<event>
 9    1  0.2374319E-005  0.1233645E+03  0.7546771E-02  0.1241397E+00
          1   -1    0    0  502    0  0.00000000000E+00  0.00000000000E+00  0.15959469760E+03  0.15959469760E+03  0.00000000000E+00 0. -1.
         -2   -1    0    0    0  501 -0.00000000000E+00 -0.00000000000E+00 -0.18931769557E+03  0.18931769557E+03  0.00000000000E+00 0.  1.
         23    2    1    2    0    0 -0.55839195108E+02 -0.70725029519E+02 -0.12829059809E+03  0.18110273695E+03  0.90662441305E+02 0.  0.
        -24    2    1    2    0    0  0.28379016838E+02  0.57293374978E+02  0.55661954901E+02  0.11512792194E+03  0.77899202658E+02 0.  0.
         11    1    4    4    0    0  0.44467404561E+02  0.37426942100E+01  0.28649636014E+02  0.53029797964E+02  0.00000000000E+00 0. -1.
        -12    1    4    4    0    0 -0.16088387723E+02  0.53550680769E+02  0.27012318887E+02  0.62098123981E+02  0.00000000000E+00 0.  1.
        -11    1    3    3    0    0 -0.21272753525E+02 -0.35111099705E+02 -0.12476691917E+03  0.13134726295E+03  0.00000000000E+00 0.  1.
         11    1    3    3    0    0 -0.34566441583E+02 -0.35613929814E+02 -0.35236789217E+01  0.49755474007E+02  0.00000000000E+00 0. -1.
         21    1    1    2  502  501  0.27460178270E+02  0.13431654541E+02  0.42905645221E+02  0.52681734274E+02  0.00000000000E+00 0.  1.
<scales pt_clust_5="13000.00000" pt_clust_6="13000.00000" pt_clust_7="13000.00000" pt_clust_8="13000.00000" pt_clust_9="30.56911"></scales>
<clustering>
<clus scale="   30.569">  1  9  2 -1</clus>
<clus scale="   77.899">  5  6 -1 -1</clus>
<clus scale="   90.662">  7  8 -1 -1</clus>
<clus scale="  114.313">  1  5  2 -1</clus>
<clus scale="   30.569">  1  5  2 -1</clus>
</clustering>
</event>
<event>
 9    1  0.2374319E-005  0.1277551E+03  0.7546771E-02  0.1236155E+00
          1   -1    0    0  502    0  0.00000000000E+00  0.00000000000E+00  0.54462477043E+02  0.54462477043E+02  0.00000000000E+00 0. -1.
         -2   -1    0    0    0  501 -0.00000000000E+00 -0.00000000000E+00 -0.39453960358E+03  0.39453960358E+03  0.00000000000E+00 0.  1.
         23    2    1    2    0    0  0.26394140723E+02 -0.58478894280E+02 -0.23242113930E+03  0.25771822053E+03  0.91009139420E+02 0.  0.
        -24    2    1    2    0    0 -0.28820996523E+02  0.79180514703E+02 -0.99962561680E+02  0.16906595034E+03  0.10719411400E+03 0.  0.
         13    1    4    4    0    0 -0.43175934427E+02  0.54703146681E+02 -0.49030642472E+01  0.69861545999E+02  0.00000000000E+00 0. -1.
        -14    1    4    4    0    0  0.14354937904E+02  0.24477368022E+02 -0.95059497433E+02  0.99204404336E+02  0.00000000000E+00 0.  1.
        -11    1    3    3    0    0 -0.22767181196E+02 -0.26628818050E+02 -0.16375729960E+03  0.16746310537E+03  0.00000000000E+00 0.  1.
         11    1    3    3    0    0  0.49161321919E+02 -0.31850076229E+02 -0.68663839702E+02  0.90255115153E+02  0.00000000000E+00 0. -1.
         21    1    1    2  502  501  0.24268557994E+01 -0.20701620423E+02 -0.76934255546E+01  0.22217909757E+02  0.00000000000E+00 0. -1.
<scales pt_clust_5="13000.00000" pt_clust_6="13000.00000" pt_clust_7="13000.00000" pt_clust_8="13000.00000" pt_clust_9="20.84339"></scales>
<clustering>
<clus scale="   20.843">  1  9  2 -1</clus>
<clus scale="   91.009">  7  8 -1 -1</clus>
<clus scale="  107.194">  5  6 -1 -1</clus>
<clus scale="  114.514">  2  7  1 -1</clus>
<clus scale="   20.843">  1  5  2 -1</clus>
</clustering>
</event>
<event>
 9    1  0.2374319E-005  0.3137700E+03  0.7546771E-02  0.1078954E+00
          1   -1    0    0  502    0  0.00000000000E+00  0.00000000000E+00  0.68444530404E+03  0.68444530404E+03  0.00000000000E+00 0. -1.
         -2   -1    0    0    0  501 -0.00000000000E+00 -0.00000000000E+00 -0.15699892285E+03  0.15699892285E+03  0.00000000000E+00 0.  1.
         23    2    1    2    0    0 -0.30082772302E+03 -0.28861374100E+02  0.22799808665E+03  0.38944542713E+03  0.91401943864E+02 0.  0.
        -24    2    1    2    0    0  0.29844088788E+03  0.51459396420E+01  0.25068271432E+03  0.39771988464E+03  0.79030621429E+02 0.  0.
         13    1    4    4    0    0  0.22369922632E+03  0.11090168893E+02  0.22747599947E+03  0.31923293382E+03  0.00000000000E+00 0. -1.
        -14    1    4    4    0    0  0.74741661563E+02 -0.59442292513E+01  0.23206714855E+02  0.78486950819E+02  0.00000000000E+00 0.  1.
        -13    1    3    3    0    0 -0.12186998683E+03  0.23050783315E+02  0.56850560457E+02  0.13643906525E+03  0.00000000000E+00 0.  1.
         13    1    3    3    0    0 -0.17895773619E+03 -0.51912157415E+02  0.17114752619E+03  0.25300636188E+03  0.00000000000E+00 0. -1.
         21    1    1    2  502  501  0.23868351426E+01  0.23715434458E+02  0.48765580216E+02  0.54278915126E+02  0.00000000000E+00 0.  1.
<scales pt_clust_5="13000.00000" pt_clust_6="13000.00000" pt_clust_7="13000.00000" pt_clust_8="13000.00000" pt_clust_9="23.83524"></scales>
<clustering>
<clus scale="   23.835">  1  9  2 -1</clus>
<clus scale="   79.031">  5  6 -1 -1</clus>
<clus scale="   91.402">  7  8 -1 -1</clus>
<clus scale="  310.392">  1  5  2 -1</clus>
<clus scale="   23.835">  1  5  2 -1</clus>
</clustering>
</event>
<event>
 9    1  0.2374319E-005  0.1525628E+03  0.7546771E-02  0.1200985E+00
         -2   -1    0    0    0  501 -0.00000000000E+00  0.00000000000E+00  0.73690303859E+03  0.73690303859E+03  0.00000000000E+00 0.  1.
          1   -1    0    0  502    0  0.00000000000E+00 -0.00000000000E+00 -0.42061979725E+02  0.42061979725E+02  0.00000000000E+00 0. -1.
         23    2    1    2    0    0 -0.65142142388E+02 -0.92729159001E+02  0.35631026649E+03  0.38686107135E+03  0.99309047296E+02 0.  0.
        -24    2    1    2    0    0  0.42729808754E+02  0.11219546705E+03  0.33146175923E+03  0.36158803181E+03  0.80407384827E+02 0.  0.
         11    1    4    4    0    0  0.64737180889E+02  0.70205171464E+02  0.19505114801E+03  0.21717416751E+03  0.00000000000E+00 0. -1.
        -12    1    4    4    0    0 -0.22007372135E+02  0.41990295587E+02  0.13641061121E+03  0.14441386431E+03  0.00000000000E+00 0.  1.
        -11    1    3    3    0    0 -0.74551159377E+02 -0.46736750349E+02  0.13878182657E+03  0.16432466213E+03  0.00000000000E+00 0.  1.
         11    1    3    3    0    0  0.94090169889E+01 -0.45992408652E+02  0.21752843992E+03  0.22253640922E+03  0.00000000000E+00 0. -1.
         21    1    1    2  502  501  0.22412333634E+02 -0.19466308050E+02  0.70690331418E+01  0.30515915152E+02  0.00000000000E+00 0. -1.
<scales pt_clust_5="13000.00000" pt_clust_6="13000.00000" pt_clust_7="13000.00000" pt_clust_8="13000.00000" pt_clust_9="29.68585"></scales>
<clustering>
<clus scale="   29.686">  2  9  1 -1</clus>
<clus scale="   80.407">  5  6 -1 -1</clus>
<clus scale="   99.309">  7  8 -1 -1</clus>
<clus scale="  140.991">  2  5  1 -1</clus>
<clus scale="   29.686">  2  5  1 -1</clus>
</clustering>
</event>
<event>
 9    1  0.2374319E-005  0.9702200E+02  0.7546771E-02  0.1289410E+00
          1   -1    0    0  502    0  0.00000000000E+00  0.00000000000E+00  0.13733683042E+03  0.13733683042E+03  0.00000000000E+00 0. -1.
         -2   -1    0    0    0  501 -0.00000000000E+00 -0.00000000000E+00 -0.13308768365E+03  0.13308768365E+03  0.00000000000E+00 0.  1.
         23    2    1    2    0    0 -0.42329575454E+02 -0.21504489699E+02 -0.45225342765E+02  0.11176630651E+03  0.90510439215E+02 0.  0.
        -24    2    1    2    0    0  0.24036244608E+02 -0.23684373392E+02  0.37355853385E+01  0.91809672372E+02  0.85301645620E+02 0.  0.
         13    1    4    4    0    0  0.70549099441E+01 -0.29646879109E+02  0.40612739976E+02  0.50775031695E+02  0.00000000000E+00 0. -1.
        -14    1    4    4    0    0  0.16981334664E+02  0.59625057172E+01 -0.36877154637E+02  0.41034640678E+02  0.00000000000E+00 0.  1.
        -13    1    3    3    0    0 -0.51484199637E+02  0.57929439050E+01 -0.60108864141E+02  0.79355255401E+02  0.00000000000E+00 0.  1.
         13    1    3    3    0    0  0.91546241837E+01 -0.27297433604E+02  0.14883521376E+02  0.32411051107E+02  0.00000000000E+00 0. -1.
         21    1    1    2  502  501  0.18293330846E+02  0.45188863091E+02  0.45738904196E+02  0.66848535197E+02  0.00000000000E+00 0. -1.
<scales pt_clust_5="13000.00000" pt_clust_6="13000.00000" pt_clust_7="13000.00000" pt_clust_8="13000.00000" pt_clust_9="48.75120"></scales>
<clustering>
<clus scale="   48.751">  1  9  2 -1</clus>
<clus scale="   85.302">  5  6 -1 -1</clus>
<clus scale="   90.510">  7  8 -1 -1</clus>
<clus scale="   92.182">  1  5  2 -1</clus>
<clus scale="   48.751">  1  5  2 -1</clus>
</clustering>
</event>
<event>
 9    1  0.2374319E-005  0.1370374E+03  0.7546771E-02  0.1218728E+00
          1   -1    0    0  502    0  0.00000000000E+00  0.00000000000E+00  0.24054779424E+03  0.24054779424E+03  0.00000000000E+00 0. -1.
         -2   -1    0    0    0  501 -0.00000000000E+00 -0.00000000000E+00 -0.10844316252E+03  0.10844316252E+03  0.00000000000E+00 0.  1.
        -24    2    1    2    0    0  0.38199695061E+02  0.95778394633E+02  0.92380432457E+01  0.13450380606E+03  0.85867425845E+02 0.  0.
         23    2    1    2    0    0 -0.69581472712E+02 -0.76830739921E+02  0.88901897592E+02  0.16451285916E+03  0.91740882332E+02 0.  0.
         11    1    3    3    0    0  0.12991546123E+01  0.95584873916E+02  0.16186058766E+02  0.96954341948E+02  0.00000000000E+00 0. -1.
        -12    1    3    3    0    0  0.36900540449E+02  0.19352071720E+00 -0.69480155202E+01  0.37549464115E+02  0.00000000000E+00 0.  1.
        -11    1    4    4    0    0  0.25850121306E+01 -0.65010367663E+02  0.37100879485E+02  0.74896631766E+02  0.00000000000E+00 0.  1.
         11    1    4    4    0    0 -0.72166484843E+02 -0.11820372258E+02  0.51801018107E+02  0.89616227391E+02  0.00000000000E+00 0. -1.
         21    1    1    2  502  501  0.31381777651E+02 -0.18947654712E+02  0.33964690885E+02  0.49974291536E+02  0.00000000000E+00 0. -1.
<scales pt_clust_5="13000.00000" pt_clust_6="13000.00000" pt_clust_7="13000.00000" pt_clust_8="13000.00000" pt_clust_9="36.65828"></scales>
<clustering>
<clus scale="   36.658">  1  9  2 -1</clus>
<clus scale="   85.867">  5  6 -1 -1</clus>
<clus scale="   91.741">  7  8 -1 -1</clus>
<clus scale="  133.177">  2  5  1 -1</clus>
<clus scale="   36.658">  1  5  2 -1</clus>
</clustering>
</event>
<event>
 9    1  0.2374319E-005  0.4680891E+03  0.7546771E-02  0.1046456E+00
         -2   -1    0    0    0  501 -0.00000000000E+00  0.00000000000E+00  0.24070843493E+03  0.24070843493E+03  0.00000000000E+00 0.  1.
          1   -1    0    0  502    0  0.00000000000E+00 -0.00000000000E+00 -0.15913105873E+04  0.15913105873E+04  0.00000000000E+00 0. -1.
         23    2    1    2    0    0 -0.32196959174E+03 -0.29276420125E+03 -0.55813390656E+03  0.71355009255E+03  0.90911943041E+02 0.  0.
        -24    2    1    2    0    0 -0.15347845985E+03  0.15333066657E+03 -0.47990956284E+03  0.53264857270E+03  0.79595116372E+02 0.  0.
         11    1    4    4    0    0 -0.62322006891E+02  0.11619069473E+03 -0.29651849003E+03  0.32451120938E+03  0.00000000000E+00 0. -1.
        -12    1    4    4    0    0 -0.91156452961E+02  0.37139971837E+02 -0.18339107281E+03  0.20813736332E+03  0.00000000000E+00 0.  1.
        -13    1    3    3    0    0 -0.17727954760E+03 -0.12593627846E+03 -0.21723635708E+03  0.30737537160E+03  0.00000000000E+00 0.  1.
         13    1    3    3    0    0 -0.14469004413E+03 -0.16682792279E+03 -0.34089754948E+03  0.40617472095E+03  0.00000000000E+00 0. -1.
         21    1    1    2  502  501  0.47544805159E+03  0.13943353469E+03 -0.31255868300E+03  0.58582035700E+03  0.00000000000E+00 0.  1.
<scales pt_clust_5="13000.00000" pt_clust_6="13000.00000" pt_clust_7="13000.00000" pt_clust_8="13000.00000" pt_clust_9="459.17582"></scales>
<clustering>
<clus scale="   79.595">  5  6 -1 -1</clus>
<clus scale="   90.912">  7  8 -1 -1</clus>
<clus scale="  231.087">  2  5  1 -1</clus>
<clus scale="  459.176">  1  9  2 -1</clus>
<clus scale="  231.087">  2  5  1 -1</clus>
</clustering>
</event>
<event>
 9    1  0.2374319E-005  0.1070189E+03  0.7546771E-02  0.1270722E+00
          1   -1    0    0  502    0  0.00000000000E+00  0.00000000000E+00  0.46439072428E+03  0.46439072428E+03  0.00000000000E+00 0. -1.
         -2   -1    0    0    0  501 -0.00000000000E+00 -0.00000000000E+00 -0.66303860449E+02  0.66303860449E+02  0.00000000000E+00 0.  1.
        -24    2    1    2    0    0  0.46391608631E+02 -0.29718354476E+02  0.10113933709E+02  0.98047448303E+02  0.80471414300E+02 0.  0.
         23    2    1    2    0    0 -0.73461545094E+02 -0.16437578384E+02  0.16292601308E+03  0.20132643595E+03  0.91217627044E+02 0.  0.
         13    1    3    3    0    0  0.57984534758E+02 -0.27538129470E+02  0.33091275114E+02  0.72219023356E+02  0.00000000000E+00 0. -1.
        -14    1    3    3    0    0 -0.11592926126E+02 -0.21802250056E+01 -0.22977341404E+02  0.25828424947E+02  0.00000000000E+00 0.  1.
        -11    1    4    4    0    0 -0.61521640032E+02  0.28291111594E+02  0.12201310539E+03  0.13954388942E+03  0.00000000000E+00 0.  1.
         11    1    4    4    0    0 -0.11939905062E+02 -0.44728689979E+02  0.40912907688E+02  0.61782546529E+02  0.00000000000E+00 0. -1.
         21    1    1    2  502  501  0.27069936462E+02  0.46155932860E+02  0.22504691704E+03  0.23132070047E+03  0.00000000000E+00 0. -1.
<scales pt_clust_5="13000.00000" pt_clust_6="13000.00000" pt_clust_7="13000.00000" pt_clust_8="13000.00000" pt_clust_9="53.50843"></scales>
<clustering>
<clus scale="   53.508">  1  9  2 -1</clus>
<clus scale="   80.471">  5  6 -1 -1</clus>
<clus scale="   91.218">  7  8 -1 -1</clus>
<clus scale="   98.021">  2  5  1 -1</clus>
<clus scale="   53.508">  1  5  2 -1</clus>
</clustering>
</event>
<event>
 9    1  0.2374319E-005  0.1995644E+03  0.7546771E-02  0.1151674E+00
          1   -1    0    0  502    0  0.00000000000E+00  0.00000000000E+00  0.89335913399E+03  0.89335913399E+03  0.00000000000E+00 0. -1.
         -2   -1    0    0    0  501 -0.00000000000E+00 -0.00000000000E+00 -0.49244698306E+02  0.49244698306E+02  0.00000000000E+00 0.  1.
        -24    2    1    2    0    0  0.18242649882E+03 -0.11964310899E+01  0.34484677421E+03  0.39717643704E+03  0.74491378926E+02 0.  0.
         23    2    1    2    0    0 -0.17038183192E+03 -0.20725713025E+02  0.44475559833E+03  0.48545057114E+03  0.91625274600E+02 0.  0.
         13    1    3    3    0    0  0.10380704892E+03 -0.80753063449E+01  0.26585055425E+03  0.28551292646E+03  0.00000000000E+00 0. -1.
        -14    1    3    3    0    0  0.78619449897E+02  0.68788752550E+01  0.78996219960E+02  0.11166351058E+03  0.00000000000E+00 0.  1.
        -13    1    4    4    0    0 -0.12311778042E+03  0.70967566097E+00  0.19693309587E+03  0.23225231052E+03  0.00000000000E+00 0.  1.
         13    1    4    4    0    0 -0.47264051498E+02 -0.21435388686E+02  0.24782250247E+03  0.25319826062E+03  0.00000000000E+00 0. -1.
         21    1    1    2  502  501 -0.12044666898E+02  0.21922144115E+02  0.54512063140E+02  0.59976824117E+02  0.00000000000E+00 0. -1.
<scales pt_clust_5="13000.00000" pt_clust_6="13000.00000" pt_clust_7="13000.00000" pt_clust_8="13000.00000" pt_clust_9="25.01308"></scales>
<clustering>
<clus scale="   25.013">  1  9  2 -1</clus>
<clus scale="   74.491">  5  6 -1 -1</clus>
<clus scale="   91.625">  7  8 -1 -1</clus>
<clus scale="  192.301">  2  5  1 -1</clus>
<clus scale="   25.013">  1  5  2 -1</clus>
</clustering>
</event>
<event>
 9    1  0.2374319E-005  0.1790421E+03  0.7546771E-02  0.1170549E+00
         -2   -1    0    0    0  501 -0.00000000000E+00  0.00000000000E+00  0.37233447267E+02  0.37233447267E+02  0.00000000000E+00 0.  1.
          1   -1    0    0  502    0  0.00000000000E+00 -0.00000000000E+00 -0.10897258132E+04  0.10897258132E+04  0.00000000000E+00 0. -1.
        -24    2    1    2    0    0  0.15308900281E+03  0.65451791449E+02 -0.35589270536E+03  0.40048282858E+03  0.77502893331E+02 0.  0.
         23    2    1    2    0    0 -0.12051874316E+03 -0.63581954554E+02 -0.48095275191E+03  0.50837575027E+03  0.92536055126E+02 0.  0.
         11    1    3    3    0    0  0.91088759910E+02  0.56565624308E+02 -0.14405178268E+03  0.17957658012E+03  0.00000000000E+00 0. -1.
        -12    1    3    3    0    0  0.62000242905E+02  0.88861671417E+01 -0.21184092268E+03  0.22090624846E+03  0.00000000000E+00 0.  1.
        -13    1    4    4    0    0 -0.84878733931E+02 -0.87407356046E+02 -0.35404423802E+03  0.37442191154E+03  0.00000000000E+00 0.  1.
         13    1    4    4    0    0 -0.35640009224E+02  0.23825401492E+02 -0.12690851389E+03  0.13395383873E+03  0.00000000000E+00 0. -1.
         21    1    1    2  502  501 -0.32570259660E+02 -0.18698368952E+01 -0.21564690870E+03  0.21810068165E+03  0.00000000000E+00 0. -1.
<scales pt_clust_5="13000.00000" pt_clust_6="13000.00000" pt_clust_7="13000.00000" pt_clust_8="13000.00000" pt_clust_9="32.62389"></scales>
<clustering>
<clus scale="   32.624">  2  9  1 -1</clus>
<clus scale="   77.503">  5  6 -1 -1</clus>
<clus scale="   92.536">  7  8 -1 -1</clus>
<clus scale="  171.755">  1  5  2 -1</clus>
<clus scale="   32.624">  2  5  1 -1</clus>
</clustering>
</event>
<event>
 9    1  0.2374319E-005  0.1971933E+03  0.7546771E-02  0.1153759E+00
         -2   -1    0    0    0  501 -0.00000000000E+00  0.00000000000E+00  0.29125355125E+03  0.29125355125E+03  0.00000000000E+00 0.  1.
          1   -1    0    0  502    0  0.00000000000E+00 -0.00000000000E+00 -0.22046613731E+03  0.22046613731E+03  0.00000000000E+00 0. -1.
         23    2    1    2    0    0 -0.14793705647E+03  0.95419199094E+02  0.18845254626E+03  0.27390832025E+03  0.92310397450E+02 0.  0.
        -24    2    1    2    0    0  0.12971194094E+03 -0.10742097831E+03 -0.10971499790E+03  0.21458633489E+03  0.75136277206E+02 0.  0.
         11    1    4    4    0    0  0.10896227595E+03 -0.87658096797E+02 -0.50289468944E+02  0.14861275249E+03  0.00000000000E+00 0. -1.
        -12    1    4    4    0    0  0.20749664985E+02 -0.19762881511E+02 -0.59425528958E+02  0.65973582400E+02  0.00000000000E+00 0.  1.
        -13    1    3    3    0    0 -0.12547037498E+03  0.10119460943E+03  0.19172354488E+03  0.25048169921E+03  0.00000000000E+00 0.  1.
         13    1    3    3    0    0 -0.22466681488E+02 -0.57754103368E+01 -0.32709986173E+01  0.23426621046E+02  0.00000000000E+00 0. -1.
         21    1    1    2  502  501  0.18225115536E+02  0.12001779215E+02 -0.79501344177E+01  0.23225033431E+02  0.00000000000E+00 0.  1.
<scales pt_clust_5="13000.00000" pt_clust_6="13000.00000" pt_clust_7="13000.00000" pt_clust_8="13000.00000" pt_clust_9="21.82195"></scales>
<clustering>
<clus scale="   21.822">  2  9  1 -1</clus>
<clus scale="   75.136">  5  6 -1 -1</clus>
<clus scale="   92.310">  7  8 -1 -1</clus>
<clus scale="  189.762">  2  5  1 -1</clus>
<clus scale="   21.822">  2  5  1 -1</clus>
</clustering>
</event>
<event>
 9    1  0.2374319E-005  0.1163393E+03  0.7546771E-02  0.1254127E+00
          1   -1    0    0  502    0  0.00000000000E+00  0.00000000000E+00  0.34152434330E+02  0.34152434330E+02  0.00000000000E+00 0. -1.
         -2   -1    0    0    0  501 -0.00000000000E+00 -0.00000000000E+00 -0.84292743141E+03  0.84292743141E+03  0.00000000000E+00 0.  1.
        -24    2    1    2    0    0  0.63744370170E+02 -0.27320187497E+02 -0.57062039317E+03  0.58059580375E+03  0.81695268268E+02 0.  0.
         23    2    1    2    0    0 -0.28816002328E+02  0.68741104827E+02 -0.18162994021E+03  0.21818514196E+03  0.95182033527E+02 0.  0.
         13    1    3    3    0    0  0.32739227471E+02  0.28433797456E+02 -0.22824510472E+03  0.23232771182E+03  0.00000000000E+00 0. -1.
        -14    1    3    3    0    0  0.31005142699E+02 -0.55753984953E+02 -0.34237528845E+03  0.34826809192E+03  0.00000000000E+00 0.  1.
        -13    1    4    4    0    0 -0.21292469193E+02 -0.19326484443E+02 -0.70860707852E+02  0.76473015911E+02  0.00000000000E+00 0.  1.
         13    1    4    4    0    0 -0.75235331344E+01  0.88067589270E+02 -0.11076923236E+03  0.14171212604E+03  0.00000000000E+00 0. -1.
         21    1    1    2  502  501 -0.34928367842E+02 -0.41420917330E+02 -0.56524663705E+02  0.78298920041E+02  0.00000000000E+00 0. -1.
<scales pt_clust_5="13000.00000" pt_clust_6="13000.00000" pt_clust_7="13000.00000" pt_clust_8="13000.00000" pt_clust_9="54.18195"></scales>
<clustering>
<clus scale="   54.182">  1  9  2 -1</clus>
<clus scale="   81.695">  5  6 -1 -1</clus>
<clus scale="   95.182">  7  8 -1 -1</clus>
<clus scale="  105.590">  2  5  1 -1</clus>
<clus scale="   54.182">  1  5  2 -1</clus>
</clustering>
</event>
<event>
 9    1  0.2374319E-005  0.1075941E+03  0.7546771E-02  0.1269511E+00
          1   -1    0    0  502    0  0.00000000000E+00  0.00000000000E+00  0.41016401801E+03  0.41016401801E+03  0.00000000000E+00 0. -1.
         -2   -1    0    0    0  501 -0.00000000000E+00 -0.00000000000E+00 -0.57194961016E+02  0.57194961016E+02  0.00000000000E+00 0.  1.
         23    2    1    2    0    0  0.42265397587E+02  0.70345045384E+00  0.29327775471E+02  0.10504846303E+03  0.91587130623E+02 0.  0.
        -24    2    1    2    0    0 -0.38383119750E+02 -0.50712287322E+02  0.26948339176E+03  0.28849295121E+03  0.81005459695E+02 0.  0.
         11    1    4    4    0    0 -0.44524432851E+02 -0.55786708679E+02  0.27112171763E+03  0.28035971137E+03  0.00000000000E+00 0. -1.
        -12    1    4    4    0    0  0.61413131008E+01  0.50744213576E+01 -0.16383258764E+01  0.81332398461E+01  0.00000000000E+00 0.  1.
        -13    1    3    3    0    0  0.69939727446E+02  0.12032794599E+02  0.20456912683E+02  0.73856881179E+02  0.00000000000E+00 0.  1.
         13    1    3    3    0    0 -0.27674329859E+02 -0.11329344145E+02  0.88708627880E+01  0.31191581853E+02  0.00000000000E+00 0. -1.
         21    1    1    2  502  501 -0.38822778367E+01  0.50008836868E+02  0.54157889767E+02  0.73817564780E+02  0.00000000000E+00 0. -1.
<scales pt_clust_5="13000.00000" pt_clust_6="13000.00000" pt_clust_7="13000.00000" pt_clust_8="13000.00000" pt_clust_9="50.15930"></scales>
<clustering>
<clus scale="   50.159">  2  9  1 -1</clus>
<clus scale="   81.005">  5  6 -1 -1</clus>
<clus scale="   91.587">  7  8 -1 -1</clus>
<clus scale="   98.743">  1  5  2 -1</clus>
<clus scale="   98.743">  1  5  2 -1</clus>
</clustering>
</event>
<event>
 9    1  0.2374319E-005  0.1613669E+03  0.7546771E-02  0.1188832E+00
         -2   -1    0    0    0  501 -0.00000000000E+00  0.00000000000E+00  0.22103123330E+03  0.22103123330E+03  0.00000000000E+00 0.  1.
          1   -1    0    0  502    0  0.00000000000E+00 -0.00000000000E+00 -0.19406209483E+03  0.19406209483E+03  0.00000000000E+00 0. -1.
        -24    2    1    2    0    0  0.13112144295E+03 -0.41592625595E+02  0.13525415391E+03  0.20942907191E+03  0.81511169207E+02 0.  0.
         23    2    1    2    0    0 -0.11305124524E+03  0.24020677101E+02 -0.81259758020E+02  0.16870928418E+03  0.92206818171E+02 0.  0.
         11    1    3    3    0    0  0.71089125434E+02 -0.64160987182E+02  0.81232403414E+02  0.12557467657E+03  0.00000000000E+00 0. -1.
        -12    1    3    3    0    0  0.60032317515E+02  0.22568361587E+02  0.54021750497E+02  0.83854395339E+02  0.00000000000E+00 0.  1.
        -13    1    4    4    0    0 -0.17637126678E+02  0.46224379308E+02 -0.21398834793E+02  0.53904281930E+02  0.00000000000E+00 0.  1.
         13    1    4    4    0    0 -0.95414118563E+02 -0.22203702207E+02 -0.59860923227E+02  0.11480500225E+03  0.00000000000E+00 0. -1.
         21    1    1    2  502  501 -0.18070197708E+02  0.17571948494E+02 -0.27025257428E+02  0.36954972035E+02  0.00000000000E+00 0.  1.
<scales pt_clust_5="13000.00000" pt_clust_6="13000.00000" pt_clust_7="13000.00000" pt_clust_8="13000.00000" pt_clust_9="25.20527"></scales>
<clustering>
<clus scale="   25.205">  2  9  1 -1</clus>
<clus scale="   81.511">  5  6 -1 -1</clus>
<clus scale="   92.207">  7  8 -1 -1</clus>
<clus scale="  155.503">  1  5  2 -1</clus>
<clus scale="   25.205">  2  5  1 -1</clus>
</clustering>
</event>
<event>
 9    1  0.2374319E-005  0.2115473E+03  0.7546771E-02  0.1142167E+00
          1   -1    0    0  502    0  0.00000000000E+00  0.00000000000E+00  0.28574164775E+03  0.28574164775E+03  0.00000000000E+00 0. -1.
         -2   -1    0    0    0  501 -0.00000000000E+00 -0.00000000000E+00 -0.31427681558E+03  0.31427681558E+03  0.00000000000E+00 0.  1.
         23    2    1    2    0    0  0.85868919544E+02 -0.16934091143E+03 -0.20591655312E+03  0.29440873561E+03  0.90692122763E+02 0.  0.
        -24    2    1    2    0    0 -0.58863044828E+02  0.19085065687E+03  0.16911609861E+03  0.27010900403E+03  0.66856472975E+02 0.  0.
         13    1    4    4    0    0 -0.10829301587E+02  0.11802635011E+03  0.68320529101E+02  0.13680346410E+03  0.00000000000E+00 0. -1.
        -14    1    4    4    0    0 -0.48033743242E+02  0.72824306753E+02  0.10079556951E+03  0.13330553993E+03  0.00000000000E+00 0.  1.
        -13    1    3    3    0    0  0.78640602068E+02 -0.11637172292E+03 -0.19422107010E+03  0.23968426369E+03  0.00000000000E+00 0.  1.
         13    1    3    3    0    0  0.72283174752E+01 -0.52969188504E+02 -0.11695483018E+02  0.54724471923E+02  0.00000000000E+00 0. -1.
         21    1    1    2  502  501 -0.27005874716E+02 -0.21509745441E+02  0.82652866850E+01  0.35500723684E+02  0.00000000000E+00 0. -1.
<scales pt_clust_5="13000.00000" pt_clust_6="13000.00000" pt_clust_7="13000.00000" pt_clust_8="13000.00000" pt_clust_9="34.52516"></scales>
<clustering>
<clus scale="   34.525">  1  9  2 -1</clus>
<clus scale="   66.856">  5  6 -1 -1</clus>
<clus scale="   90.692">  7  8 -1 -1</clus>
<clus scale="  202.477">  1  5  2 -1</clus>
<clus scale="   34.525">  1  5  2 -1</clus>
</clustering>
</event>
<event>
 9    1  0.2374319E-005  0.1382987E+03  0.7546771E-02  0.1216459E+00
          1   -1    0    0  502    0  0.00000000000E+00  0.00000000000E+00  0.24884788722E+03  0.24884788722E+03  0.00000000000E+00 0. -1.
         -2   -1    0    0    0  501 -0.00000000000E+00 -0.00000000000E+00 -0.20811367408E+03  0.20811367408E+03  0.00000000000E+00 0.  1.
         23    2    1    2    0    0  0.59404039376E+02  0.77062204999E+02 -0.14053763697E+03  0.19351191608E+03  0.90711691243E+02 0.  0.
        -24    2    1    2    0    0 -0.73992293910E+02 -0.10521347437E+03  0.15047156919E+03  0.21924592997E+03  0.94246219676E+02 0.  0.
         11    1    4    4    0    0 -0.60876431065E+02 -0.16805994776E+02  0.94932490397E+02  0.11401999409E+03  0.00000000000E+00 0. -1.
        -12    1    4    4    0    0 -0.13115862845E+02 -0.88407479599E+02  0.55539078795E+02  0.10522593587E+03  0.00000000000E+00 0.  1.
        -11    1    3    3    0    0  0.44731316827E+02  0.93910693861E+02 -0.87381937584E+02  0.13585180213E+03  0.00000000000E+00 0.  1.
         11    1    3    3    0    0  0.14672722548E+02 -0.16848488862E+02 -0.53155699382E+02  0.57660113950E+02  0.00000000000E+00 0. -1.
         21    1    1    2  502  501  0.14588254535E+02  0.28151269376E+02  0.30800280918E+02  0.44203715256E+02  0.00000000000E+00 0. -1.
<scales pt_clust_5="13000.00000" pt_clust_6="13000.00000" pt_clust_7="13000.00000" pt_clust_8="13000.00000" pt_clust_9="31.70664"></scales>
<clustering>
<clus scale="   31.707">  1  9  2 -1</clus>
<clus scale="   90.712">  7  8 -1 -1</clus>
<clus scale="   94.246">  5  6 -1 -1</clus>
<clus scale="  135.915">  2  7  1 -1</clus>
<clus scale="   31.707">  1  5  2 -1</clus>
</clustering>
</event>
<event>
 9    1  0.2374319E-005  0.1176645E+03  0.7546771E-02  0.1249856E+00
         -2   -1    0    0    0  501 -0.00000000000E+00  0.00000000000E+00  0.37019021607E+03  0.37019021607E+03  0.00000000000E+00 0.  1.
          1   -1    0    0  502    0  0.00000000000E+00 -0.00000000000E+00 -0.12011520009E+03  0.12011520009E+03  0.00000000000E+00 0. -1.
         23    2    1    2    0    0  0.15310111063E+02 -0.75076636410E+02  0.30729720650E+03  0.32922687378E+03  0.89932532826E+02 0.  0.
        -24    2    1    2    0    0  0.22264473826E+02  0.75074255462E+02 -0.46480699436E+02  0.12199876415E+03  0.81187390684E+02 0.  0.
         13    1    4    4    0    0 -0.15289778071E+02  0.55546019927E+02 -0.54052377484E+02  0.78998716159E+02  0.00000000000E+00 0. -1.
        -14    1    4    4    0    0  0.37554251897E+02  0.19528235535E+02  0.75716780479E+01  0.43000047990E+02  0.00000000000E+00 0.  1.
        -13    1    3    3    0    0  0.38052054512E+01 -0.94918677356E+02  0.23930240716E+03  0.25746781735E+03  0.00000000000E+00 0. -1.
         13    1    3    3    0    0  0.11504905612E+02  0.19842040946E+02  0.67994799347E+02  0.71759056434E+02  0.00000000000E+00 0.  1.
         21    1    1    2  502  501 -0.37574584890E+02  0.23809475510E-02 -0.10741491093E+02  0.39079778226E+02  0.00000000000E+00 0.  1.
<scales pt_clust_5="13000.00000" pt_clust_6="13000.00000" pt_clust_7="13000.00000" pt_clust_8="13000.00000" pt_clust_9="37.57458"></scales>
<clustering>
<clus scale="   37.575">  2  9  1 -1</clus>
<clus scale="   81.187">  5  6 -1 -1</clus>
<clus scale="   89.933">  7  8 -1 -1</clus>
<clus scale="  111.124">  2  5  1 -1</clus>
<clus scale="   37.575">  2  5  1 -1</clus>
</clustering>
</event>
<event>
 9    1  0.2374319E-005  0.9373878E+02  0.7546771E-02  0.1298813E+00
         -2   -1    0    0    0  501 -0.00000000000E+00  0.00000000000E+00  0.52820014736E+03  0.52820014736E+03  0.00000000000E+00 0.  1.
          1   -1    0    0  502    0  0.00000000000E+00 -0.00000000000E+00 -0.27681880672E+03  0.27681880672E+03  0.00000000000E+00 0. -1.
        -24    2    1    2    0    0 -0.22717293132E+02 -0.12452100160E+02  0.50221757693E+03  0.50950609239E+03  0.81870833632E+02 0.  0.
         23    2    1    2    0    0  0.30095632794E+01  0.32858829776E+02 -0.88025051060E+02  0.13024849389E+03  0.90152650437E+02 0.  0.
         13    1    3    3    0    0  0.13734211260E+02  0.24790254782E+02  0.10039802832E+03  0.10432137548E+03  0.00000000000E+00 0. -1.
        -14    1    3    3    0    0 -0.36451504392E+02 -0.37242354942E+02  0.40181954861E+03  0.40518471691E+03  0.00000000000E+00 0.  1.
        -13    1    4    4    0    0  0.46467896395E+02  0.13276708331E+02 -0.43498045271E+02  0.65020122438E+02  0.00000000000E+00 0. -1.
         13    1    4    4    0    0 -0.43458333116E+02  0.19582121445E+02 -0.44527005789E+02  0.65228371450E+02  0.00000000000E+00 0.  1.
         21    1    1    2  502  501  0.19707729853E+02 -0.20406729616E+02 -0.16281118523E+03  0.16526436780E+03  0.00000000000E+00 0. -1.
<scales pt_clust_5="13000.00000" pt_clust_6="13000.00000" pt_clust_7="13000.00000" pt_clust_8="13000.00000" pt_clust_9="28.36951"></scales>
<clustering>
<clus scale="   28.370">  2  9  1 -1</clus>
<clus scale="   81.871">  5  6 -1 -1</clus>
<clus scale="   85.804">  1  5  2 -1</clus>
<clus scale="   90.153">  7  8 -1 -1</clus>
<clus scale="   28.370">  2  5  1 -1</clus>
</clustering>
</event>
<event>
 9    1  0.2374319E-005  0.2648827E+03  0.7546771E-02  0.1127123E+00
         -2   -1    0    0    0  501 -0.00000000000E+00  0.00000000000E+00  0.16405237645E+03  0.16405237645E+03  0.00000000000E+00 0.  1.
          1   -1    0    0  502    0  0.00000000000E+00 -0.00000000000E+00 -0.18256273497E+04  0.18256273497E+04  0.00000000000E+00 0. -1.
        -24    2    1    2    0    0 -0.10078851893E+03  0.69781295017E+02 -0.21315611736E+00  0.14878835622E+03  0.84321852620E+02 0.  0.
         23    2    1    2    0    0  0.29904041850E+03 -0.19551429592E+03 -0.34857596000E+03  0.50727999105E+03  0.90425536352E+02 0.  0.
         13    1    3    3    0    0 -0.10742986399E+03  0.38040437664E+02  0.10953941815E+02  0.11449121982E+03  0.00000000000E+00 0. -1.
        -14    1    3    3    0    0  0.66413450510E+01  0.31740857354E+02 -0.11167097933E+02  0.34297136409E+02  0.00000000000E+00 0.  1.
        -11    1    4    4    0    0  0.28081231500E+02 -0.14112560357E+02 -0.21042067870E+01  0.31498374698E+02  0.00000000000E+00 0. -1.
         11    1    4    4    0    0  0.27095918700E+03 -0.18140173557E+03 -0.34647175321E+03  0.47578161635E+03  0.00000000000E+00 0.  1.
         21    1    1    2  502  501 -0.19825189956E+03  0.12573300091E+03 -0.13127858571E+04  0.13336113788E+04  0.00000000000E+00 0. -1.
<scales pt_clust_5="13000.00000" pt_clust_6="13000.00000" pt_clust_7="13000.00000" pt_clust_8="13000.00000" pt_clust_9="248.97005"></scales>
<clustering>
<clus scale="   84.322">  5  6 -1 -1</clus>
<clus scale="   90.426">  7  8 -1 -1</clus>
<clus scale="  148.788">  1  5  2 -1</clus>
<clus scale="  248.970">  2  9  1 -1</clus>
<clus scale="  248.970">  2  5  1 -1</clus>
</clustering>
</event>
<event>
 9    1  0.2374319E-005  0.1086466E+03  0.7546771E-02  0.1268167E+00
          1   -1    0    0  502    0  0.00000000000E+00  0.00000000000E+00  0.29608454661E+02  0.29608454661E+02  0.00000000000E+00 0. -1.
         -2   -1    0    0    0  501 -0.00000000000E+00 -0.00000000000E+00 -0.56771860549E+03  0.56771860549E+03  0.00000000000E+00 0.  1.
         23    2    1    2    0    0 -0.67283361208E+02 -0.16588032086E+02 -0.37325250884E+03  0.39086430022E+03  0.93033608588E+02 0.  0.
        -24    2    1    2    0    0  0.36227347360E+02  0.14383410969E+01 -0.13039079198E+03  0.15765750527E+03  0.80868045680E+02 0.  0.
         11    1    4    4    0    0  0.54985956853E+02  0.70182802563E+01 -0.49121934954E+02  0.74065350890E+02  0.00000000000E+00 0. -1.
        -12    1    4    4    0    0 -0.18758609493E+02 -0.55799391594E+01 -0.81268857026E+02  0.83592154377E+02  0.00000000000E+00 0.  1.
        -11    1    3    3    0    0  0.13072730313E+02  0.20758270424E+02 -0.12205987699E+03  0.12450066522E+03  0.00000000000E+00 0. -1.
         11    1    3    3    0    0 -0.80356091521E+02 -0.37346302510E+02 -0.25119263185E+03  0.26636363500E+03  0.00000000000E+00 0.  1.
         21    1    1    2  502  501  0.31056013848E+02  0.15149690989E+02 -0.34466850006E+02  0.48805254661E+02  0.00000000000E+00 0. -1.
<scales pt_clust_5="13000.00000" pt_clust_6="13000.00000" pt_clust_7="13000.00000" pt_clust_8="13000.00000" pt_clust_9="34.55415"></scales>
<clustering>
<clus scale="   34.554">  1  9  2 -1</clus>
<clus scale="   80.868">  5  6 -1 -1</clus>
<clus scale="   93.034">  7  8 -1 -1</clus>
<clus scale="   98.430">  1  5  2 -1</clus>
<clus scale="   34.554">  1  5  2 -1</clus>
</clustering>
</event>
<event>
 9    1  0.2374319E-005  0.1464789E+03  0.7546771E-02  0.1206718E+00
         -2   -1    0    0    0  501 -0.00000000000E+00  0.00000000000E+00  0.35406320345E+02  0.35406320345E+02  0.00000000000E+00 0.  1.
          1   -1    0    0  502    0  0.00000000000E+00 -0.00000000000E+00 -0.10758773864E+04  0.10758773864E+04  0.00000000000E+00 0. -1.
        -24    2    1    2    0    0  0.12252228542E+03  0.30225655323E+02 -0.19154149779E+03  0.24336329009E+03  0.81315711414E+02 0.  0.
         23    2    1    2    0    0 -0.75313763036E+02 -0.49280531372E+02 -0.54877503866E+03  0.56347916694E+03  0.90851498874E+02 0.  0.
         13    1    3    3    0    0  0.44059278019E+02  0.52510491658E+02 -0.89041831985E+02  0.11237001182E+03  0.00000000000E+00 0. -1.
        -14    1    3    3    0    0  0.78463007396E+02 -0.22284836335E+02 -0.10249966581E+03  0.13099327827E+03  0.00000000000E+00 0.  1.
        -13    1    4    4    0    0 -0.28690153651E+02  0.25794825294E+02 -0.19956740561E+03  0.20326250837E+03  0.00000000000E+00 0.  1.
         13    1    4    4    0    0 -0.46623609385E+02 -0.75075356666E+02 -0.34920763305E+03  0.36021665857E+03  0.00000000000E+00 0. -1.
         21    1    1    2  502  501 -0.47208522380E+02  0.19054876049E+02 -0.30015452959E+03  0.30444124970E+03  0.00000000000E+00 0. -1.
<scales pt_clust_5="13000.00000" pt_clust_6="13000.00000" pt_clust_7="13000.00000" pt_clust_8="13000.00000" pt_clust_9="50.90906"></scales>
<clustering>
<clus scale="   50.909">  2  9  1 -1</clus>
<clus scale="   81.316">  5  6 -1 -1</clus>
<clus scale="   90.851">  7  8 -1 -1</clus>
<clus scale="  140.763">  1  5  2 -1</clus>
<clus scale="   50.909">  2  5  1 -1</clus>
</clustering>
</event>
<event>
 9    1  0.2374319E-005  0.9876666E+02  0.7546771E-02  0.1287917E+00
         -2   -1    0    0    0  501 -0.00000000000E+00  0.00000000000E+00  0.19635198805E+03  0.19635198805E+03  0.00000000000E+00 0.  1.
          1   -1    0    0  502    0  0.00000000000E+00 -0.00000000000E+00 -0.72546853454E+02  0.72546853454E+02  0.00000000000E+00 0. -1.
        -24    2    1    2    0    0  0.30928944096E+02 -0.34817062125E+02  0.11233662592E+03  0.14581329958E+03  0.80456034039E+02 0.  0.
         23    2    1    2    0    0 -0.22950726660E+02  0.83777098736E+01  0.97499657499E+00  0.93542266932E+02  0.90289995058E+02 0.  0.
         13    1    3    3    0    0  0.10406576777E+02 -0.21877256933E+02 -0.60467550988E+01  0.24969470526E+02  0.00000000000E+00 0. -1.
        -14    1    3    3    0    0  0.20522367319E+02 -0.12939805192E+02  0.11838338102E+03  0.12084382905E+03  0.00000000000E+00 0.  1.
        -11    1    4    4    0    0  0.31741245558E+02 -0.82229033229E+01 -0.12028705004E+02  0.34925814990E+02  0.00000000000E+00 0.  1.
         11    1    4    4    0    0 -0.54691972218E+02  0.16600613196E+02  0.13003701579E+02  0.58616451942E+02  0.00000000000E+00 0. -1.
         21    1    1    2  502  501 -0.79782174368E+01  0.26439352251E+02  0.10493512099E+02  0.29543274989E+02  0.00000000000E+00 0.  1.
<scales pt_clust_5="13000.00000" pt_clust_6="13000.00000" pt_clust_7="13000.00000" pt_clust_8="13000.00000" pt_clust_9="27.61687"></scales>
<clustering>
<clus scale="   27.617">  2  9  1 -1</clus>
<clus scale="   80.456">  5  6 -1 -1</clus>
<clus scale="   89.865">  1  5  2 -1</clus>
<clus scale="   90.290">  7  8 -1 -1</clus>
<clus scale="   27.617">  2  5  1 -1</clus>
</clustering>
</event>
<event>
 9    1  0.2374319E-005  0.9825888E+02  0.7546771E-02  0.1288661E+00
         -2   -1    0    0    0  501 -0.00000000000E+00  0.00000000000E+00  0.46566581593E+03  0.46566581593E+03  0.00000000000E+00 0.  1.
          1   -1    0    0  502    0  0.00000000000E+00 -0.00000000000E+00 -0.39305949050E+02  0.39305949050E+02  0.00000000000E+00 0. -1.
        -24    2    1    2    0    0 -0.10229047771E+02  0.33075876724E+02  0.33237427171E+03  0.34417125929E+03  0.82356251658E+02 0.  0.
         23    2    1    2    0    0 -0.87871693241E+01 -0.48166663373E+02  0.62345353780E+02  0.12092001886E+03  0.91309725763E+02 0.  0.
         11    1    3    3    0    0 -0.45533866912E+02  0.22725040109E+02  0.15935130350E+03  0.16728000003E+03  0.00000000000E+00 0. -1.
        -12    1    3    3    0    0  0.35304819142E+02  0.10350836615E+02  0.17302296821E+03  0.17689125926E+03  0.00000000000E+00 0.  1.
        -11    1    4    4    0    0  0.18077262147E+02 -0.93508037605E+01  0.70177413806E+02  0.73069106647E+02  0.00000000000E+00 0.  1.
         11    1    4    4    0    0 -0.26864431471E+02 -0.38815859612E+02 -0.78320600265E+01  0.47850912217E+02  0.00000000000E+00 0. -1.
         21    1    1    2  502  501  0.19016217095E+02  0.15090786649E+02  0.31640241386E+02  0.39880486823E+02  0.00000000000E+00 0.  1.
<scales pt_clust_5="13000.00000" pt_clust_6="13000.00000" pt_clust_7="13000.00000" pt_clust_8="13000.00000" pt_clust_9="24.27650"></scales>
<clustering>
<clus scale="   24.276">  2  9  1 -1</clus>
<clus scale="   82.356">  5  6 -1 -1</clus>
<clus scale="   89.999">  1  5  2 -1</clus>
<clus scale="   91.310">  7  8 -1 -1</clus>
<clus scale="   24.276">  2  5  1 -1</clus>
</clustering>
</event>
<event>
 9    1  0.2374319E-005  0.9800698E+02  0.7546771E-02  0.1290429E+00
         -2   -1    0    0    0  501 -0.00000000000E+00  0.00000000000E+00  0.67229427760E+02  0.67229427760E+02  0.00000000000E+00 0.  1.
          1   -1    0    0  502    0  0.00000000000E+00 -0.00000000000E+00 -0.51529565556E+03  0.51529565556E+03  0.00000000000E+00 0. -1.
        -24    2    1    2    0    0  0.38079127322E+02  0.92365930346E+00 -0.63982629742E+01  0.88886875236E+02  0.80056640799E+02 0.  0.
         23    2    1    2    0    0 -0.21675322969E+02  0.48287587274E+02 -0.91374786261E+02  0.13952503050E+03  0.91194143795E+02 0.  0.
         13    1    3    3    0    0  0.59009114868E+02 -0.12833709757E+02 -0.15315243440E+02  0.62300372593E+02  0.00000000000E+00 0. -1.
        -14    1    3    3    0    0 -0.20929987546E+02  0.13757369061E+02  0.89169804657E+01  0.26586502643E+02  0.00000000000E+00 0.  1.
        -13    1    4    4    0    0  0.29719376599E+02  0.34677307694E+02 -0.66884154442E+02  0.80989179090E+02  0.00000000000E+00 0.  1.
         13    1    4    4    0    0 -0.51394699568E+02  0.13610279581E+02 -0.24490631819E+02  0.58535851414E+02  0.00000000000E+00 0. -1.
         21    1    1    2  502  501 -0.16403804354E+02 -0.49211246578E+02 -0.35029317856E+03  0.35411317758E+03  0.00000000000E+00 0. -1.
<scales pt_clust_5="13000.00000" pt_clust_6="13000.00000" pt_clust_7="13000.00000" pt_clust_8="13000.00000" pt_clust_9="51.87323"></scales>
<clustering>
<clus scale="   51.873">  2  9  1 -1</clus>
<clus scale="   80.057">  5  6 -1 -1</clus>
<clus scale="   87.739">  1  5  2 -1</clus>
<clus scale="   91.194">  7  8 -1 -1</clus>
<clus scale="   51.873">  2  5  1 -1</clus>
</clustering>
</event>
<event>
 9    1  0.2374319E-005  0.9655703E+02  0.7546771E-02  0.1295133E+00
         -2   -1    0    0    0  501 -0.00000000000E+00  0.00000000000E+00  0.45160888191E+02  0.45160888191E+02  0.00000000000E+00 0.  1.
          1   -1    0    0  502    0  0.00000000000E+00 -0.00000000000E+00 -0.33890018310E+03  0.33890018310E+03  0.00000000000E+00 0. -1.
         23    2    1    2    0    0 -0.18241009694E+02 -0.19511481899E+02 -0.37105367195E+02  0.10457715778E+03  0.94053927584E+02 0.  0.
        -24    2    1    2    0    0  0.16158317380E+02 -0.74768554674E+01 -0.20467992850E+03  0.22090127107E+03  0.81157278427E+02 0.  0.
         13    1    4    4    0    0  0.16782813769E-01 -0.43194565861E+02 -0.12148409870E+03  0.12893470068E+03  0.00000000000E+00 0. -1.
        -14    1    4    4    0    0  0.16141534566E+02  0.35717710394E+02 -0.83195829795E+02  0.91966570389E+02  0.00000000000E+00 0.  1.
        -11    1    3    3    0    0 -0.66044957069E+01 -0.45497362049E+02  0.12267537099E+02  0.47582788731E+02  0.00000000000E+00 0. -1.
         11    1    3    3    0    0 -0.11636513988E+02  0.25985880149E+02 -0.49372904293E+02  0.56994369049E+02  0.00000000000E+00 0.  1.
         21    1    1    2  502  501  0.20826923149E+01  0.26988337367E+02 -0.51953999223E+02  0.58582642449E+02  0.00000000000E+00 0. -1.
<scales pt_clust_5="13000.00000" pt_clust_6="13000.00000" pt_clust_7="13000.00000" pt_clust_8="13000.00000" pt_clust_9="27.06858"></scales>
<clustering>
<clus scale="   27.069">  2  9  1 -1</clus>
<clus scale="   81.157">  5  6 -1 -1</clus>
<clus scale="   84.045">  2  5  1 -1</clus>
<clus scale="   94.054">  7  8 -1 -1</clus>
<clus scale="   27.069">  2  5  1 -1</clus>
</clustering>
</event>
<event>
 9    1  0.2374319E-005  0.1345493E+03  0.7546771E-02  0.1221043E+00
         -2   -1    0    0    0  501 -0.00000000000E+00  0.00000000000E+00  0.23209210337E+03  0.23209210337E+03  0.00000000000E+00 0.  1.
          1   -1    0    0  502    0  0.00000000000E+00 -0.00000000000E+00 -0.32009660736E+03  0.32009660736E+03  0.00000000000E+00 0. -1.
        -24    2    1    2    0    0  0.93808983207E+02  0.53410721660E+02  0.18938193840E+03  0.23257111820E+03  0.81061556305E+02 0.  0.
         23    2    1    2    0    0 -0.74927027692E+02 -0.72441222473E+02 -0.22059566053E+03  0.25681726523E+03  0.80192718377E+02 0.  0.
         11    1    3    3    0    0  0.23312302588E+02  0.58781277792E+02  0.74978305481E+02  0.98083884322E+02  0.00000000000E+00 0. -1.
        -12    1    3    3    0    0  0.70496680619E+02 -0.53705561316E+01  0.11440363292E+03  0.13448723388E+03  0.00000000000E+00 0.  1.
        -11    1    4    4    0    0 -0.17603882927E+01 -0.49500344491E+02 -0.53162631311E+02  0.72661189362E+02  0.00000000000E+00 0.  1.
         11    1    4    4    0    0 -0.73166639399E+02 -0.22940877982E+02 -0.16743302922E+03  0.18415607587E+03  0.00000000000E+00 0. -1.
         21    1    1    2  502  501 -0.18881955516E+02  0.19030500813E+02 -0.56790781853E+02  0.62800327298E+02  0.00000000000E+00 0.  1.
<scales pt_clust_5="13000.00000" pt_clust_6="13000.00000" pt_clust_7="13000.00000" pt_clust_8="13000.00000" pt_clust_9="26.80836"></scales>
<clustering>
<clus scale="   26.808">  2  9  1 -1</clus>
<clus scale="   80.193">  7  8 -1 -1</clus>
<clus scale="   81.062">  5  6 -1 -1</clus>
<clus scale="  134.028">  2  7  1 -1</clus>
<clus scale="   26.808">  2  5  1 -1</clus>
</clustering>
</event>
<event>
 9    1  0.2374319E-005  0.1411696E+03  0.7546771E-02  0.1212161E+00
          1   -1    0    0  502    0  0.00000000000E+00  0.00000000000E+00  0.35080035604E+03  0.35080035604E+03  0.00000000000E+00 0. -1.
         -2   -1    0    0    0  501 -0.00000000000E+00 -0.00000000000E+00 -0.12972017657E+03  0.12972017657E+03  0.00000000000E+00 0.  1.
        -24    2    1    2    0    0  0.84635451535E+02  0.88600314110E+02 -0.36616278223E+01  0.15337925795E+03  0.92187927266E+02 0.  0.
         23    2    1    2    0    0 -0.91583709145E+02 -0.26587453185E+02  0.48268636907E+02  0.13996047151E+03  0.90358197351E+02 0.  0.
         11    1    3    3    0    0  0.46162596819E+02 -0.59910367074E+01  0.16317984463E+02  0.49327015750E+02  0.00000000000E+00 0. -1.
        -12    1    3    3    0    0  0.38472854716E+02  0.94591350817E+02 -0.19979612285E+02  0.10405224220E+03  0.00000000000E+00 0.  1.
        -11    1    4    4    0    0 -0.65379464958E+02  0.27380350445E+02  0.20052637191E+02  0.73663194928E+02  0.00000000000E+00 0.  1.
         11    1    4    4    0    0 -0.26204244187E+02 -0.53967803630E+02  0.28215999716E+02  0.66297276581E+02  0.00000000000E+00 0. -1.
         21    1    1    2  502  501  0.69482576103E+01 -0.62012860924E+02  0.17647317039E+03  0.18718080316E+03  0.00000000000E+00 0. -1.
<scales pt_clust_5="13000.00000" pt_clust_6="13000.00000" pt_clust_7="13000.00000" pt_clust_8="13000.00000" pt_clust_9="62.40091"></scales>
<clustering>
<clus scale="   62.401">  1  9  2 -1</clus>
<clus scale="   90.358">  7  8 -1 -1</clus>
<clus scale="   92.188">  5  6 -1 -1</clus>
<clus scale="  139.982">  1  7  2 -1</clus>
<clus scale="   62.401">  1  5  2 -1</clus>
</clustering>
</event>
<event>
 9    1  0.2374319E-005  0.1298812E+03  0.7546771E-02  0.1246722E+00
          1   -1    0    0  502    0  0.00000000000E+00  0.00000000000E+00  0.30554057058E+03  0.30554057058E+03  0.00000000000E+00 0. -1.
         -2   -1    0    0    0  501 -0.00000000000E+00 -0.00000000000E+00 -0.15565435499E+03  0.15565435499E+03  0.00000000000E+00 0.  1.
        -24    2    1    2    0    0  0.25312629494E+02  0.23123945677E+02 -0.89439404329E+02  0.12545670752E+03  0.81021801630E+02 0.  0.
         23    2    1    2    0    0 -0.20199924028E+00 -0.11193614338E+03  0.12075663588E+03  0.18548258858E+03  0.85392532209E+02 0.  0.
         13    1    3    3    0    0  0.42996722630E+02 -0.98786941111E+01 -0.71317058601E+02  0.83859582647E+02  0.00000000000E+00 0. -1.
        -14    1    3    3    0    0 -0.17684093136E+02  0.33002639788E+02 -0.18122345728E+02  0.41597124873E+02  0.00000000000E+00 0.  1.
        -11    1    4    4    0    0  0.26439083840E+02 -0.10230831162E+03  0.11572663312E+03  0.15671205886E+03  0.00000000000E+00 0. -1.
         11    1    4    4    0    0 -0.26641083080E+02 -0.96278317602E+01  0.50300027637E+01  0.28770529712E+02  0.00000000000E+00 0.  1.
         21    1    1    2  502  501 -0.25110630254E+02  0.88812197704E+02  0.11856898405E+03  0.15025562948E+03  0.00000000000E+00 0.  1.
<scales pt_clust_5="13000.00000" pt_clust_6="13000.00000" pt_clust_7="13000.00000" pt_clust_8="13000.00000" pt_clust_9="97.86334"></scales>
<clustering>
<clus scale="   81.022">  5  6 -1 -1</clus>
<clus scale="   85.393">  7  8 -1 -1</clus>
<clus scale="   87.977">  2  5  1 -1</clus>
<clus scale="   97.863">  1  9  2 -1</clus>
<clus scale="   97.863">  1  5  2 -1</clus>
</clustering>
</event>
<event>
 9    1  0.2374319E-005  0.1332455E+03  0.7546771E-02  0.1226882E+00
         -2   -1    0    0    0  501 -0.00000000000E+00  0.00000000000E+00  0.29107114125E+02  0.29107114125E+02  0.00000000000E+00 0.  1.
          1   -1    0    0  502    0  0.00000000000E+00 -0.00000000000E+00 -0.66147961604E+03  0.66147961604E+03  0.00000000000E+00 0. -1.
        -24    2    1    2    0    0 -0.42490928000E+02  0.81155259898E+02 -0.26139661610E+03  0.28833016336E+03  0.80090180571E+02 0.  0.
         23    2    1    2    0    0  0.60731248242E+02 -0.71756205996E+02 -0.33234561425E+03  0.35851471753E+03  0.96135101610E+02 0.  0.
         13    1    3    3    0    0 -0.29494226198E+02 -0.59970262194E+01 -0.10018779759E+03  0.10461103425E+03  0.00000000000E+00 0. -1.
        -14    1    3    3    0    0 -0.12996701802E+02  0.87152286117E+02 -0.16120881851E+03  0.18371912910E+03  0.00000000000E+00 0.  1.
        -13    1    4    4    0    0  0.61087637188E+01 -0.35917670375E+02 -0.24718887731E+02  0.44027485165E+02  0.00000000000E+00 0.  1.
         13    1    4    4    0    0  0.54622484523E+02 -0.35838535621E+02 -0.30762672652E+03  0.31448723236E+03  0.00000000000E+00 0. -1.
         21    1    1    2  502  501 -0.18240320242E+02 -0.93990539021E+01 -0.38630271567E+02  0.43741849277E+02  0.00000000000E+00 0. -1.
<scales pt_clust_5="13000.00000" pt_clust_6="13000.00000" pt_clust_7="13000.00000" pt_clust_8="13000.00000" pt_clust_9="20.51954"></scales>
<clustering>
<clus scale="   20.520">  1  9  2 -1</clus>
<clus scale="   80.090">  5  6 -1 -1</clus>
<clus scale="   96.135">  7  8 -1 -1</clus>
<clus scale="  122.175">  1  5  2 -1</clus>
<clus scale="  133.246">  2  5  1 -1</clus>
</clustering>
</event>
<event>
 9    1  0.2374319E-005  0.1640081E+03  0.7546771E-02  0.1203763E+00
          1   -1    0    0  502    0  0.00000000000E+00  0.00000000000E+00  0.76583864450E+03  0.76583864450E+03  0.00000000000E+00 0. -1.
         -2   -1    0    0    0  501 -0.00000000000E+00 -0.00000000000E+00 -0.12909387821E+03  0.12909387821E+03  0.00000000000E+00 0.  1.
         23    2    1    2    0    0  0.53325495100E+02  0.16434747584E+02 -0.59055508609E+02  0.12209878544E+03  0.91141927526E+02 0.  0.
        -24    2    1    2    0    0 -0.80212274102E+02 -0.13412506396E+03  0.57793889757E+03  0.60411736664E+03  0.80751976192E+02 0.  0.
         13    1    4    4    0    0  0.84017542279E+01 -0.58861736918E+02  0.20901356272E+03  0.21730615027E+03  0.00000000000E+00 0. -1.
        -14    1    4    4    0    0 -0.88614028330E+02 -0.75263327039E+02  0.36892533486E+03  0.38681121637E+03  0.00000000000E+00 0.  1.
        -11    1    3    3    0    0  0.79218244793E+02  0.96223673485E+01 -0.48058631252E+02  0.93154453996E+02  0.00000000000E+00 0.  1.
         11    1    3    3    0    0 -0.25892749693E+02  0.68123802359E+01 -0.10996877357E+02  0.28944331444E+02  0.00000000000E+00 0. -1.
         21    1    1    2  502  501  0.26886779002E+02  0.11769031637E+03  0.11786137733E+03  0.16871637063E+03  0.00000000000E+00 0.  1.
<scales pt_clust_5="13000.00000" pt_clust_6="13000.00000" pt_clust_7="13000.00000" pt_clust_8="13000.00000" pt_clust_9="142.75072"></scales>
<clustering>
<clus scale="   80.752">  5  6 -1 -1</clus>
<clus scale="   91.142">  7  8 -1 -1</clus>
<clus scale="  106.867">  2  7  1 -1</clus>
<clus scale="  142.751">  2  9  1 -1</clus>
<clus scale="  164.008">  1  5  2 -1</clus>
</clustering>
</event>
<event>
 9    1  0.2374319E-005  0.1147016E+03  0.7546771E-02  0.1256343E+00
         -2   -1    0    0    0  501 -0.00000000000E+00  0.00000000000E+00  0.65055930902E+02  0.65055930902E+02  0.00000000000E+00 0.  1.
          1   -1    0    0  502    0  0.00000000000E+00 -0.00000000000E+00 -0.27985931003E+03  0.27985931003E+03  0.00000000000E+00 0. -1.
        -24    2    1    2    0    0 -0.36520174877E+02  0.67568927117E+02 -0.35599316851E+02  0.11663396407E+03  0.80230213317E+02 0.  0.
         23    2    1    2    0    0  0.11638981518E+02 -0.54140366252E+02 -0.11111536377E+03  0.15455563076E+03  0.92055275700E+02 0.  0.
         11    1    3    3    0    0 -0.30569027577E+01  0.70474532523E+02 -0.42484399106E+02  0.82346393705E+02  0.00000000000E+00 0. -1.
        -12    1    3    3    0    0 -0.33463272119E+02 -0.29056054062E+01  0.68850822546E+01  0.34287570362E+02  0.00000000000E+00 0.  1.
        -13    1    4    4    0    0 -0.14079009613E+02 -0.47005838400E+02 -0.10131012402E+02  0.50103939642E+02  0.00000000000E+00 0.  1.
         13    1    4    4    0    0  0.25717991131E+02 -0.71345278524E+01 -0.10098435137E+03  0.10445169112E+03  0.00000000000E+00 0. -1.
         21    1    1    2  502  501  0.24881193358E+02 -0.13428560865E+02 -0.68088698505E+02  0.73725646107E+02  0.00000000000E+00 0.  1.
<scales pt_clust_5="13000.00000" pt_clust_6="13000.00000" pt_clust_7="13000.00000" pt_clust_8="13000.00000" pt_clust_9="28.27366"></scales>
<clustering>
<clus scale="   28.274">  2  9  1 -1</clus>
<clus scale="   80.230">  5  6 -1 -1</clus>
<clus scale="   92.055">  7  8 -1 -1</clus>
<clus scale="  105.448">  1  5  2 -1</clus>
<clus scale="   28.274">  2  5  1 -1</clus>
</clustering>
</event>
<event>
 9    1  0.2374319E-005  0.2795042E+03  0.7546771E-02  0.1134298E+00
          3   -1    0    0  502    0  0.00000000000E+00  0.00000000000E+00  0.37940711236E+03  0.37940711236E+03  0.00000000000E+00 0. -1.
         -4   -1    0    0    0  501 -0.00000000000E+00 -0.00000000000E+00 -0.32817083261E+03  0.32817083261E+03  0.00000000000E+00 0.  1.
         23    2    1    2    0    0  0.30612891123E+02 -0.43782665290E+02 -0.12373062808E+02  0.10692035927E+03  0.91786707424E+02 0.  0.
        -24    2    1    2    0    0 -0.18860604108E+03 -0.17834485383E+03 -0.91887584027E+02  0.28683954231E+03  0.80339711902E+02 0.  0.
         11    1    4    4    0    0 -0.11207967606E+03 -0.83098058613E+02 -0.10263449044E+02  0.13990167804E+03  0.00000000000E+00 0. -1.
        -12    1    4    4    0    0 -0.76526365020E+02 -0.95246795222E+02 -0.81624134983E+02  0.14693786427E+03  0.00000000000E+00 0.  1.
        -13    1    3    3    0    0  0.45364171449E+02 -0.26758257496E+02 -0.43629948962E+02  0.68392140206E+02  0.00000000000E+00 0.  1.
         13    1    3    3    0    0 -0.14751280326E+02 -0.17024407794E+02  0.31256886154E+02  0.38528219062E+02  0.00000000000E+00 0. -1.
         21    1    1    2  502  501  0.15799314996E+03  0.22212751912E+03  0.15549692659E+03  0.31381804340E+03  0.00000000000E+00 0. -1.
<scales pt_clust_5="13000.00000" pt_clust_6="13000.00000" pt_clust_7="13000.00000" pt_clust_8="13000.00000" pt_clust_9="267.70905"></scales>
<clustering>
<clus scale="   80.340">  5  6 -1 -1</clus>
<clus scale="   91.787">  7  8 -1 -1</clus>
<clus scale="  106.202">  2  7  1 -1</clus>
<clus scale="  267.709">  1  9  2 -1</clus>
<clus scale="  267.709">  1  5  2 -1</clus>
</clustering>
</event>
<event>
 9    1  0.2374319E-005  0.9663555E+02  0.7546771E-02  0.1295021E+00
         -2   -1    0    0    0  501 -0.00000000000E+00  0.00000000000E+00  0.14487634099E+03  0.14487634099E+03  0.00000000000E+00 0.  1.
          1   -1    0    0  502    0  0.00000000000E+00 -0.00000000000E+00 -0.15429663765E+03  0.15429663765E+03  0.00000000000E+00 0. -1.
         23    2    1    2    0    0  0.21464024285E+02  0.21632249552E+02  0.10153778432E+03  0.14036339202E+03  0.91996204344E+02 0.  0.
        -24    2    1    2    0    0  0.26008394120E+01 -0.34885573217E+02 -0.86602094852E+02  0.12209470798E+03  0.78634771571E+02 0.  0.
         13    1    4    4    0    0 -0.19139815335E+02 -0.97346560624E+01 -0.86213603517E+02  0.88847518204E+02  0.00000000000E+00 0. -1.
        -14    1    4    4    0    0  0.21740654747E+02 -0.25150917155E+02 -0.38849133523E+00  0.33247189777E+02  0.00000000000E+00 0.  1.
        -13    1    3    3    0    0  0.26502340519E+02 -0.29790399065E+02  0.22064683102E+02  0.45570738087E+02  0.00000000000E+00 0. -1.
         13    1    3    3    0    0 -0.50383162342E+01  0.51422648616E+02  0.79473101220E+02  0.94792653928E+02  0.00000000000E+00 0.  1.
         21    1    1    2  502  501 -0.24064863697E+02  0.13253323666E+02 -0.24355986130E+02  0.36714878637E+02  0.00000000000E+00 0. -1.
<scales pt_clust_5="13000.00000" pt_clust_6="13000.00000" pt_clust_7="13000.00000" pt_clust_8="13000.00000" pt_clust_9="27.47305"></scales>
<clustering>
<clus scale="   27.473">  2  9  1 -1</clus>
<clus scale="   78.635">  5  6 -1 -1</clus>
<clus scale="   84.015">  2  5  1 -1</clus>
<clus scale="   91.996">  7  8 -1 -1</clus>
<clus scale="   27.473">  2  5  1 -1</clus>
</clustering>
</event>
<event>
 9    1  0.2374319E-005  0.1232441E+03  0.7546771E-02  0.1240761E+00
         -2   -1    0    0    0  501 -0.00000000000E+00  0.00000000000E+00  0.30193663608E+03  0.30193663608E+03  0.00000000000E+00 0.  1.
          1   -1    0    0  502    0  0.00000000000E+00 -0.00000000000E+00 -0.93457822770E+02  0.93457822770E+02  0.00000000000E+00 0. -1.
        -24    2    1    2    0    0  0.91032945005E+02  0.12218114170E+00  0.18906947794E+03  0.22494870900E+03  0.81040990788E+02 0.  0.
         23    2    1    2    0    0 -0.67703357449E+02  0.55157736961E+01  0.56091696903E+02  0.12660910037E+03  0.90936337439E+02 0.  0.
         13    1    3    3    0    0 -0.11065763356E+01 -0.25322379276E+02  0.29051733661E+02  0.38554515068E+02  0.00000000000E+00 0. -1.
        -14    1    3    3    0    0  0.92139521341E+02  0.25444560418E+02  0.16001774428E+03  0.18639419393E+03  0.00000000000E+00 0.  1.
        -11    1    4    4    0    0  0.16394877234E+02 -0.17380298781E+02  0.23620928532E+02  0.33597842936E+02  0.00000000000E+00 0.  1.
         11    1    4    4    0    0 -0.84098234683E+02  0.22896072477E+02  0.32470768371E+02  0.93011257438E+02  0.00000000000E+00 0. -1.
         21    1    1    2  502  501 -0.23329587556E+02 -0.56379548378E+01 -0.36682361529E+02  0.43836649480E+02  0.00000000000E+00 0. -1.
<scales pt_clust_5="13000.00000" pt_clust_6="13000.00000" pt_clust_7="13000.00000" pt_clust_8="13000.00000" pt_clust_9="24.00117"></scales>
<clustering>
<clus scale="   24.001">  2  9  1 -1</clus>
<clus scale="   81.041">  5  6 -1 -1</clus>
<clus scale="   90.936">  7  8 -1 -1</clus>
<clus scale="  116.135">  1  5  2 -1</clus>
<clus scale="   24.001">  2  5  1 -1</clus>
</clustering>
</event>
<event>
 9    1  0.2374319E-005  0.1388483E+03  0.7546771E-02  0.1216321E+00
         -2   -1    0    0    0  501 -0.00000000000E+00  0.00000000000E+00  0.60078600151E+02  0.60078600151E+02  0.00000000000E+00 0.  1.
          1   -1    0    0  502    0  0.00000000000E+00 -0.00000000000E+00 -0.48864528916E+03  0.48864528916E+03  0.00000000000E+00 0. -1.
         23    2    1    2    0    0 -0.11080340856E+03 -0.44770925164E+02 -0.78834852369E+02  0.16738398918E+03  0.86721593603E+02 0.  0.
        -24    2    1    2    0    0  0.77125901646E+02  0.30116299269E+02 -0.27352546557E+03  0.29674472578E+03  0.79911549721E+02 0.  0.
         13    1    4    4    0    0  0.10094908816E+02  0.22238379141E+02 -0.13096537865E+02  0.27712307642E+02  0.00000000000E+00 0. -1.
        -14    1    4    4    0    0  0.67030992829E+02  0.78779201281E+01 -0.26042892770E+03  0.26903241814E+03  0.00000000000E+00 0.  1.
        -13    1    3    3    0    0 -0.93206126540E+02 -0.10324952049E+02 -0.18298286174E+02  0.95544826842E+02  0.00000000000E+00 0.  1.
         13    1    3    3    0    0 -0.17597282015E+02 -0.34445973116E+02 -0.60536566195E+02  0.71839162334E+02  0.00000000000E+00 0. -1.
         21    1    1    2  502  501  0.33677506910E+02  0.14654625895E+02 -0.76206371078E+02  0.84595174358E+02  0.00000000000E+00 0. -1.
<scales pt_clust_5="13000.00000" pt_clust_6="13000.00000" pt_clust_7="13000.00000" pt_clust_8="13000.00000" pt_clust_9="36.72782"></scales>
<clustering>
<clus scale="   36.728">  2  9  1 -1</clus>
<clus scale="   79.912">  5  6 -1 -1</clus>
<clus scale="   86.722">  7  8 -1 -1</clus>
<clus scale="  134.700">  2  5  1 -1</clus>
<clus scale="   36.728">  2  5  1 -1</clus>
</clustering>
</event>
<event>
 9    1  0.2374319E-005  0.1036026E+03  0.7546771E-02  0.1273821E+00
          1   -1    0    0  502    0  0.00000000000E+00  0.00000000000E+00  0.69231663128E+02  0.69231663128E+02  0.00000000000E+00 0. -1.
         -2   -1    0    0    0  501 -0.00000000000E+00 -0.00000000000E+00 -0.68338201592E+03  0.68338201592E+03  0.00000000000E+00 0.  1.
        -24    2    1    2    0    0  0.38920235608E+02 -0.41113606250E+02 -0.53933447605E+03  0.55036570943E+03  0.93891552845E+02 0.  0.
         23    2    1    2    0    0  0.27576728978E+02 -0.19541285725E+02 -0.39369534688E+02  0.10551480373E+03  0.91875327018E+02 0.  0.
         11    1    3    3    0    0  0.18988457193E+02  0.17385554147E+02 -0.42408966581E+02  0.49611888152E+02  0.00000000000E+00 0. -1.
        -12    1    3    3    0    0  0.19931778415E+02 -0.58499160396E+02 -0.49692550947E+03  0.50075382127E+03  0.00000000000E+00 0.  1.
        -13    1    4    4    0    0  0.50816763573E+02 -0.26711261491E+02  0.20908692986E+01  0.57447425399E+02  0.00000000000E+00 0.  1.
         13    1    4    4    0    0 -0.23240034595E+02  0.71699757665E+01 -0.41460403986E+02  0.48067378326E+02  0.00000000000E+00 0. -1.
         21    1    1    2  502  501 -0.66496964586E+02  0.60654891975E+02 -0.35446342055E+02  0.96733165898E+02  0.00000000000E+00 0. -1.
<scales pt_clust_5="13000.00000" pt_clust_6="13000.00000" pt_clust_7="13000.00000" pt_clust_8="13000.00000" pt_clust_9="90.00479"></scales>
<clustering>
<clus scale="   90.005">  1  9  2 -1</clus>
<clus scale="   91.875">  7  8 -1 -1</clus>
<clus scale="   93.892">  5  6 -1 -1</clus>
<clus scale="  101.779">  1  7  2 -1</clus>
<clus scale="   90.005">  1  5  2 -1</clus>
</clustering>
</event>
<event>
 9    1  0.2374319E-005  0.1033174E+03  0.7546771E-02  0.1280264E+00
         -2   -1    0    0    0  501 -0.00000000000E+00  0.00000000000E+00  0.44296675517E+02  0.44296675517E+02  0.00000000000E+00 0.  1.
          1   -1    0    0  502    0  0.00000000000E+00 -0.00000000000E+00 -0.38200819940E+03  0.38200819940E+03  0.00000000000E+00 0. -1.
         23    2    1    2    0    0 -0.28842986855E+02 -0.31135349741E+02 -0.45538521467E+02  0.11306923281E+03  0.94390500460E+02 0.  0.
        -24    2    1    2    0    0  0.11617011288E+02  0.42972532610E+02 -0.24317590134E+03  0.25996680463E+03  0.80415340608E+02 0.  0.
         11    1    4    4    0    0  0.19831240855E+02  0.47324537465E+02 -0.24515102774E+03  0.25046340324E+03  0.00000000000E+00 0. -1.
        -12    1    4    4    0    0 -0.82142295671E+01 -0.43520048552E+01  0.19751263998E+01  0.95034013877E+01  0.00000000000E+00 0.  1.
        -11    1    3    3    0    0 -0.44216940772E+02 -0.71609978760E+01  0.14116155533E+02  0.46964705778E+02  0.00000000000E+00 0.  1.
         11    1    3    3    0    0  0.15373953917E+02 -0.23974351865E+02 -0.59654677000E+02  0.66104527034E+02  0.00000000000E+00 0. -1.
         21    1    1    2  502  501  0.17225975567E+02 -0.11837182869E+02 -0.48997101075E+02  0.53268837478E+02  0.00000000000E+00 0. -1.
<scales pt_clust_5="13000.00000" pt_clust_6="13000.00000" pt_clust_7="13000.00000" pt_clust_8="13000.00000" pt_clust_9="20.90103"></scales>
<clustering>
<clus scale="   20.901">  2  9  1 -1</clus>
<clus scale="   80.415">  5  6 -1 -1</clus>
<clus scale="   90.728">  2  5  1 -1</clus>
<clus scale="   94.391">  7  8 -1 -1</clus>
<clus scale="   20.901">  2  5  1 -1</clus>
</clustering>
</event>
<event>
 9    1  0.2374319E-005  0.9404098E+02  0.7546771E-02  0.1300877E+00
          1   -1    0    0  502    0  0.00000000000E+00  0.00000000000E+00  0.22686643216E+03  0.22686643216E+03  0.00000000000E+00 0. -1.
         -2   -1    0    0    0  501 -0.00000000000E+00 -0.00000000000E+00 -0.11827124476E+03  0.11827124476E+03  0.00000000000E+00 0.  1.
        -24    2    1    2    0    0 -0.63680268475E+01 -0.21668864144E+02 -0.81376255127E+02  0.11576191230E+03  0.79174705567E+02 0.  0.
         23    2    1    2    0    0 -0.19180662668E+02  0.10098387410E+02  0.11138039201E+03  0.14593018542E+03  0.91761386457E+02 0.  0.
         11    1    3    3    0    0 -0.28615912009E+02  0.20003212732E+02 -0.38390372869E+02  0.51892385459E+02  0.00000000000E+00 0. -1.
        -12    1    3    3    0    0  0.22247885161E+02 -0.41672076876E+02 -0.42985882258E+02  0.63869526840E+02  0.00000000000E+00 0.  1.
        -11    1    4    4    0    0  0.16483269576E+02  0.12835568447E+02  0.10799993685E+03  0.11000198340E+03  0.00000000000E+00 0. -1.
         11    1    4    4    0    0 -0.35663932244E+02 -0.27371810372E+01  0.33804551599E+01  0.35928202018E+02  0.00000000000E+00 0.  1.
         21    1    1    2  502  501  0.25548689516E+02  0.11570476734E+02  0.78591050515E+02  0.83445579205E+02  0.00000000000E+00 0. -1.
<scales pt_clust_5="13000.00000" pt_clust_6="13000.00000" pt_clust_7="13000.00000" pt_clust_8="13000.00000" pt_clust_9="28.04659"></scales>
<clustering>
<clus scale="   28.047">  1  9  2 -1</clus>
<clus scale="   79.175">  5  6 -1 -1</clus>
<clus scale="   81.806">  2  5  1 -1</clus>
<clus scale="   91.761">  7  8 -1 -1</clus>
<clus scale="   28.047">  1  5  2 -1</clus>
</clustering>
</event>
<event>
 9    1  0.2374319E-005  0.9814294E+02  0.7546771E-02  0.1289085E+00
         -2   -1    0    0    0  501 -0.00000000000E+00  0.00000000000E+00  0.30057086548E+03  0.30057086548E+03  0.00000000000E+00 0.  1.
          1   -1    0    0  502    0  0.00000000000E+00 -0.00000000000E+00 -0.31357640280E+03  0.31357640280E+03  0.00000000000E+00 0. -1.
        -24    2    1    2    0    0 -0.38302466091E+02  0.14029977469E+02  0.25784428122E+03  0.27358717855E+03  0.81867891936E+02 0.  0.
         23    2    1    2    0    0 -0.28972663840E+01  0.50551307807E+02 -0.69945431448E+02  0.12554675732E+03  0.91136140031E+02 0.  0.
         13    1    3    3    0    0  0.14997029322E+02 -0.22325556618E+02  0.80224375730E+02  0.84612598518E+02  0.00000000000E+00 0. -1.
        -14    1    3    3    0    0 -0.53299495413E+02  0.36355534087E+02  0.17761990549E+03  0.18897458003E+03  0.00000000000E+00 0.  1.
        -11    1    4    4    0    0 -0.70974857635E+01  0.20060987066E+02 -0.87543515925E+02  0.90092645020E+02  0.00000000000E+00 0. -1.
         11    1    4    4    0    0  0.42002193794E+01  0.30490320741E+02  0.17598084478E+02  0.35454112300E+02  0.00000000000E+00 0.  1.
         21    1    1    2  502  501  0.41199732475E+02 -0.64581285276E+02 -0.20090438710E+03  0.21501333242E+03  0.00000000000E+00 0. -1.
<scales pt_clust_5="13000.00000" pt_clust_6="13000.00000" pt_clust_7="13000.00000" pt_clust_8="13000.00000" pt_clust_9="76.60392"></scales>
<clustering>
<clus scale="   76.604">  2  9  1 -1</clus>
<clus scale="   81.868">  5  6 -1 -1</clus>
<clus scale="   89.602">  1  5  2 -1</clus>
<clus scale="   91.136">  7  8 -1 -1</clus>
<clus scale="   76.604">  2  5  1 -1</clus>
</clustering>
</event>
<event>
 9    1  0.2374319E-005  0.5402241E+03  0.7546771E-02  0.1003782E+00
          1   -1    0    0  502    0  0.00000000000E+00  0.00000000000E+00  0.86593150902E+03  0.86593150902E+03  0.00000000000E+00 0. -1.
         -2   -1    0    0    0  501 -0.00000000000E+00 -0.00000000000E+00 -0.41519460272E+03  0.41519460272E+03  0.00000000000E+00 0.  1.
        -24    2    1    2    0    0 -0.27046319383E+02  0.11891534382E+03  0.21668996152E+03  0.26201958997E+03  0.82627862820E+02 0.  0.
         23    2    1    2    0    0 -0.16306722148E+03  0.33665714614E+03  0.34055135925E+03  0.51409895517E+03  0.91616344876E+02 0.  0.
         13    1    3    3    0    0  0.29496803328E+02  0.40653077735E+02  0.63852462709E+02  0.81239590902E+02  0.00000000000E+00 0. -1.
        -14    1    3    3    0    0 -0.56543122711E+02  0.78262266086E+02  0.15283749881E+03  0.18077999907E+03  0.00000000000E+00 0.  1.
        -11    1    4    4    0    0 -0.77986878344E+02  0.93085429181E+02  0.15193604321E+03  0.19450298596E+03  0.00000000000E+00 0. -1.
         11    1    4    4    0    0 -0.85080343132E+02  0.24357171696E+03  0.18861531604E+03  0.31959596921E+03  0.00000000000E+00 0.  1.
         21    1    1    2  502  501  0.19011354086E+03 -0.45557248997E+03 -0.10650441447E+03  0.50500756661E+03  0.00000000000E+00 0.  1.
<scales pt_clust_5="13000.00000" pt_clust_6="13000.00000" pt_clust_7="13000.00000" pt_clust_8="13000.00000" pt_clust_9="493.64912"></scales>
<clustering>
<clus scale="   82.628">  5  6 -1 -1</clus>
<clus scale="   91.616">  7  8 -1 -1</clus>
<clus scale="  113.995">  5  7 -1 -1</clus>
<clus scale="  493.649">  2  9  1 -1</clus>
<clus scale="  540.224">  1  5  2 -1</clus>
</clustering>
</event>
<event>
 9    1  0.2374319E-005  0.9528149E+02  0.7546771E-02  0.1299547E+00
          1   -1    0    0  502    0  0.00000000000E+00  0.00000000000E+00  0.19567163115E+03  0.19567163115E+03  0.00000000000E+00 0. -1.
         -2   -1    0    0    0  501 -0.00000000000E+00 -0.00000000000E+00 -0.13265249409E+03  0.13265249409E+03  0.00000000000E+00 0.  1.
         23    2    1    2    0    0 -0.63239465079E+01 -0.90007152990E+01 -0.89217251818E+02  0.13016212632E+03  0.94135306506E+02 0.  0.
        -24    2    1    2    0    0 -0.21901108105E+01  0.44026612718E+02  0.11289926693E+03  0.14480741313E+03  0.79245209392E+02 0.  0.
         13    1    4    4    0    0 -0.33206454714E+02  0.25784454720E+02  0.96506005962E+02  0.10526592956E+03  0.00000000000E+00 0. -1.
        -14    1    4    4    0    0  0.31016343903E+02  0.18242157998E+02  0.16393260964E+02  0.39541483566E+02  0.00000000000E+00 0.  1.
        -11    1    3    3    0    0  0.33057334795E+02 -0.25903575178E+02 -0.73237001258E+02  0.84424172747E+02  0.00000000000E+00 0.  1.
         11    1    3    3    0    0 -0.39381281303E+02  0.16902859879E+02 -0.15980250561E+02  0.45737953574E+02  0.00000000000E+00 0. -1.
         21    1    1    2  502  501  0.85140573184E+01 -0.35025897419E+02  0.39337121948E+02  0.53354585793E+02  0.00000000000E+00 0.  1.
<scales pt_clust_5="13000.00000" pt_clust_6="13000.00000" pt_clust_7="13000.00000" pt_clust_8="13000.00000" pt_clust_9="36.04584"></scales>
<clustering>
<clus scale="   36.046">  1  9  2 -1</clus>
<clus scale="   79.245">  5  6 -1 -1</clus>
<clus scale="   80.603">  1  5  2 -1</clus>
<clus scale="   94.135">  7  8 -1 -1</clus>
<clus scale="   36.046">  1  5  2 -1</clus>
</clustering>
</event>
<event>
 9    1  0.2374319E-005  0.1258204E+03  0.7546771E-02  0.1239409E+00
          1   -1    0    0  502    0  0.00000000000E+00  0.00000000000E+00  0.19837848316E+03  0.19837848316E+03  0.00000000000E+00 0. -1.
         -2   -1    0    0    0  501 -0.00000000000E+00 -0.00000000000E+00 -0.21140398285E+03  0.21140398285E+03  0.00000000000E+00 0.  1.
        -24    2    1    2    0    0 -0.50972080120E+02  0.70391795463E+02 -0.15968584572E+03  0.19598567687E+03  0.73196027162E+02 0.  0.
         23    2    1    2    0    0  0.18873972187E+02 -0.74338550649E+02  0.97211380833E+02  0.15471154929E+03  0.92753242434E+02 0.  0.
         13    1    3    3    0    0 -0.19282371259E+02  0.56102009951E+02 -0.40489599967E+02  0.71823763946E+02  0.00000000000E+00 0. -1.
        -14    1    3    3    0    0 -0.31689708861E+02  0.14289785512E+02 -0.11919624576E+03  0.12416191292E+03  0.00000000000E+00 0.  1.
        -11    1    4    4    0    0 -0.35685019195E+02 -0.46795999089E+02  0.41475067633E+02  0.71996301022E+02  0.00000000000E+00 0.  1.
         11    1    4    4    0    0  0.54558991383E+02 -0.27542551559E+02  0.55736313201E+02  0.82715248269E+02  0.00000000000E+00 0. -1.
         21    1    1    2  502  501  0.32098107932E+02  0.39467551854E+01  0.49448965202E+02  0.59085239856E+02  0.00000000000E+00 0. -1.
<scales pt_clust_5="13000.00000" pt_clust_6="13000.00000" pt_clust_7="13000.00000" pt_clust_8="13000.00000" pt_clust_9="32.33984"></scales>
<clustering>
<clus scale="   32.340">  1  9  2 -1</clus>
<clus scale="   73.196">  5  6 -1 -1</clus>
<clus scale="   92.753">  7  8 -1 -1</clus>
<clus scale="  112.184">  2  5  1 -1</clus>
<clus scale="   32.340">  1  5  2 -1</clus>
</clustering>
</event>
<event>
 9    1  0.2374319E-005  0.1538685E+03  0.7546771E-02  0.1197444E+00
         -4   -1    0    0    0  501 -0.00000000000E+00  0.00000000000E+00  0.82682918025E+03  0.82682918025E+03  0.00000000000E+00 0.  1.
          3   -1    0    0  502    0  0.00000000000E+00 -0.00000000000E+00 -0.86360954897E+02  0.86360954897E+02  0.00000000000E+00 0. -1.
        -24    2    1    2    0    0 -0.69131231064E+02  0.10981270049E+03  0.69669457494E+03  0.71345043983E+03  0.82402931053E+02 0.  0.
         23    2    1    2    0    0  0.42497683742E+02 -0.84878556974E+02  0.74856262968E+02  0.15181072539E+03  0.91829263751E+02 0.  0.
         11    1    3    3    0    0 -0.20860527553E+02 -0.84423815960E+01  0.60249950964E+02  0.64315565829E+02  0.00000000000E+00 0. -1.
        -12    1    3    3    0    0 -0.48270703511E+02  0.11825508208E+03  0.63644462398E+03  0.64913487400E+03  0.00000000000E+00 0.  1.
        -11    1    4    4    0    0  0.59282772087E+02 -0.27627320126E+02  0.63341394314E+02  0.91048603050E+02  0.00000000000E+00 0.  1.
         11    1    4    4    0    0 -0.16785088345E+02 -0.57251236847E+02  0.11514868653E+02  0.60762122341E+02  0.00000000000E+00 0. -1.
         21    1    1    2  502  501  0.26633547322E+02 -0.24934143513E+02 -0.31082612550E+02  0.47928969930E+02  0.00000000000E+00 0. -1.
<scales pt_clust_5="13000.00000" pt_clust_6="13000.00000" pt_clust_7="13000.00000" pt_clust_8="13000.00000" pt_clust_9="36.48366"></scales>
<clustering>
<clus scale="   36.484">  2  9  1 -1</clus>
<clus scale="   82.403">  5  6 -1 -1</clus>
<clus scale="   91.829">  7  8 -1 -1</clus>
<clus scale="  148.436">  1  5  2 -1</clus>
<clus scale="   36.484">  2  5  1 -1</clus>
</clustering>
</event>
<event>
 9    1  0.2374319E-005  0.1144759E+03  0.7546771E-02  0.1260437E+00
         -2   -1    0    0    0  501 -0.00000000000E+00  0.00000000000E+00  0.83201637798E+03  0.83201637798E+03  0.00000000000E+00 0.  1.
          1   -1    0    0  502    0  0.00000000000E+00 -0.00000000000E+00 -0.71333333007E+02  0.71333333007E+02  0.00000000000E+00 0. -1.
        -24    2    1    2    0    0  0.53829281258E+02  0.54148256519E+02  0.65918573805E+03  0.66859348090E+03  0.81619729599E+02 0.  0.
         23    2    1    2    0    0 -0.56701895007E+00  0.31397204962E+02  0.95070269754E+01  0.98311713256E+02  0.92675257817E+02 0.  0.
         11    1    3    3    0    0  0.31229358799E+02  0.37342832470E+02  0.13257062804E+03  0.14122581707E+03  0.00000000000E+00 0. -1.
        -12    1    3    3    0    0  0.22599922459E+02  0.16805424049E+02  0.52661511001E+03  0.52736766384E+03  0.00000000000E+00 0.  1.
        -13    1    4    4    0    0  0.31493988754E+02 -0.17298792320E+02 -0.91820785858E+01  0.37086791591E+02  0.00000000000E+00 0.  1.
         13    1    4    4    0    0 -0.32061007704E+02  0.48695997282E+02  0.18689105561E+02  0.61224921665E+02  0.00000000000E+00 0. -1.
         21    1    1    2  502  501 -0.53262262308E+02 -0.85545461481E+02  0.91990279948E+02  0.13644451682E+03  0.00000000000E+00 0. -1.
<scales pt_clust_5="13000.00000" pt_clust_6="13000.00000" pt_clust_7="13000.00000" pt_clust_8="13000.00000" pt_clust_9="80.26793"></scales>
<clustering>
<clus scale="   81.620">  5  6 -1 -1</clus>
<clus scale="   92.675">  7  8 -1 -1</clus>
<clus scale="   97.851">  2  7  1 -1</clus>
<clus scale="   80.268">  2  9  1 -1</clus>
<clus scale="   97.851">  2  5  1 -1</clus>
</clustering>
</event>
<event>
 9    1  0.2374319E-005  0.1000894E+03  0.7546771E-02  0.1290608E+00
         -2   -1    0    0    0  501 -0.00000000000E+00  0.00000000000E+00  0.88727847299E+02  0.88727847299E+02  0.00000000000E+00 0.  1.
          1   -1    0    0  502    0  0.00000000000E+00 -0.00000000000E+00 -0.32692365223E+03  0.32692365223E+03  0.00000000000E+00 0. -1.
         23    2    1    2    0    0 -0.83392523931E+01  0.18951076731E+02  0.25431456292E+02  0.10414190355E+03  0.98843768980E+02 0.  0.
        -24    2    1    2    0    0 -0.54121738445E+02  0.12004300718E+01 -0.18639017230E+03  0.21015365630E+03  0.80577039670E+02 0.  0.
         13    1    4    4    0    0 -0.64793029323E+02 -0.24333427753E+02 -0.13890014477E+03  0.15518860323E+03  0.00000000000E+00 0. -1.
        -14    1    4    4    0    0  0.10671290878E+02  0.25533857824E+02 -0.47490027527E+02  0.54965053070E+02  0.00000000000E+00 0.  1.
        -11    1    3    3    0    0 -0.66441918876E+01  0.41875805292E+02 -0.24644656174E+02  0.49041690761E+02  0.00000000000E+00 0.  1.
         11    1    3    3    0    0 -0.16950605055E+01 -0.22924728562E+02  0.50076112466E+02  0.55100212789E+02  0.00000000000E+00 0. -1.
         21    1    1    2  502  501  0.62460990838E+02 -0.20151506802E+02 -0.77237088929E+02  0.10135593968E+03  0.00000000000E+00 0. -1.
<scales pt_clust_5="13000.00000" pt_clust_6="13000.00000" pt_clust_7="13000.00000" pt_clust_8="13000.00000" pt_clust_9="65.63123"></scales>
<clustering>
<clus scale="   65.631">  2  9  1 -1</clus>
<clus scale="   80.577">  5  6 -1 -1</clus>
<clus scale="   82.100">  2  5  1 -1</clus>
<clus scale="   98.844">  7  8 -1 -1</clus>
<clus scale="   65.631">  2  5  1 -1</clus>
</clustering>
</event>
<event>
 9    1  0.2374319E-005  0.8756231E+02  0.7546771E-02  0.1310656E+00
          1   -1    0    0  502    0  0.00000000000E+00  0.00000000000E+00  0.70180129531E+02  0.70180129531E+02  0.00000000000E+00 0. -1.
         -2   -1    0    0    0  501 -0.00000000000E+00 -0.00000000000E+00 -0.28609390060E+03  0.28609390060E+03  0.00000000000E+00 0.  1.
        -24    2    1    2    0    0 -0.34753920150E+01 -0.11429795942E+02 -0.22065692364E+03  0.23638171384E+03  0.83929244624E+02 0.  0.
         23    2    1    2    0    0 -0.22753586765E+02  0.14623215861E+02  0.13889536436E+02  0.91931386466E+02  0.86757688088E+02 0.  0.
         13    1    3    3    0    0  0.70587005153E+01 -0.27327853640E+02 -0.19460305995E+02  0.34283237113E+02  0.00000000000E+00 0. -1.
        -14    1    3    3    0    0 -0.10534092530E+02  0.15898057698E+02 -0.20119661764E+03  0.20209847673E+03  0.00000000000E+00 0.  1.
        -13    1    4    4    0    0 -0.21879980745E+00 -0.35333659844E+02  0.11177339999E+02  0.37060063691E+02  0.00000000000E+00 0.  1.
         13    1    4    4    0    0 -0.22534786958E+02  0.49956875706E+02  0.27121964366E+01  0.54871322774E+02  0.00000000000E+00 0. -1.
         21    1    1    2  502  501  0.26228978780E+02 -0.31934199195E+01 -0.91463838606E+01  0.27960929819E+02  0.00000000000E+00 0.  1.
<scales pt_clust_5="13000.00000" pt_clust_6="13000.00000" pt_clust_7="13000.00000" pt_clust_8="13000.00000" pt_clust_9="26.42267"></scales>
<clustering>
<clus scale="   26.423">  1  9  2 -1</clus>
<clus scale="   83.929">  5  6 -1 -1</clus>
<clus scale="   84.761">  2  5  1 -1</clus>
<clus scale="   86.758">  7  8 -1 -1</clus>
<clus scale="   26.423">  1  5  2 -1</clus>
</clustering>
</event>
<event>
 9    1  0.2374319E-005  0.1016587E+03  0.7546771E-02  0.1280138E+00
         -2   -1    0    0    0  501 -0.00000000000E+00  0.00000000000E+00  0.10874081909E+03  0.10874081909E+03  0.00000000000E+00 0.  1.
          1   -1    0    0  502    0  0.00000000000E+00 -0.00000000000E+00 -0.27538331468E+03  0.27538331468E+03  0.00000000000E+00 0. -1.
        -24    2    1    2    0    0 -0.36652260377E+02 -0.40971152936E+02  0.61960989594E+02  0.11635962040E+03  0.81721315854E+02 0.  0.
         23    2    1    2    0    0  0.29032089677E+02 -0.31180100945E+01 -0.13803678421E+03  0.16674843235E+03  0.88872389843E+02 0.  0.
         13    1    3    3    0    0  0.96373069336E+01 -0.18686053631E+02 -0.13561802103E+02  0.25019367728E+02  0.00000000000E+00 0. -1.
        -14    1    3    3    0    0 -0.46289567311E+02 -0.22285099305E+02  0.75522791697E+02  0.91340252674E+02  0.00000000000E+00 0.  1.
        -13    1    4    4    0    0  0.14414795673E+02 -0.38597451970E+02 -0.11460781213E+03  0.12178875249E+03  0.00000000000E+00 0. -1.
         13    1    4    4    0    0  0.14617294004E+02  0.35479441875E+02 -0.23428972086E+02  0.44959679856E+02  0.00000000000E+00 0.  1.
         21    1    1    2  502  501  0.76201707002E+01  0.44089163031E+02 -0.90566700974E+02  0.10101608101E+03  0.00000000000E+00 0. -1.
<scales pt_clust_5="13000.00000" pt_clust_6="13000.00000" pt_clust_7="13000.00000" pt_clust_8="13000.00000" pt_clust_9="44.74284"></scales>
<clustering>
<clus scale="   44.743">  2  9  1 -1</clus>
<clus scale="   81.721">  5  6 -1 -1</clus>
<clus scale="   88.872">  7  8 -1 -1</clus>
<clus scale="   95.470">  1  5  2 -1</clus>
<clus scale="   44.743">  2  5  1 -1</clus>
</clustering>
</event>
<event>
 9    1  0.2374319E-005  0.1376355E+03  0.7546771E-02  0.1219305E+00
          1   -1    0    0  502    0  0.00000000000E+00  0.00000000000E+00  0.29052017428E+03  0.29052017428E+03  0.00000000000E+00 0. -1.
         -2   -1    0    0    0  501 -0.00000000000E+00 -0.00000000000E+00 -0.23814515986E+03  0.23814515986E+03  0.00000000000E+00 0.  1.
        -24    2    1    2    0    0  0.62519036366E+02  0.87396398961E+02 -0.14751153019E+03  0.19915991941E+03  0.79738707671E+02 0.  0.
         23    2    1    2    0    0  0.39014199950E+02 -0.10158797714E+03  0.17191946580E+03  0.22323897381E+03  0.91853752291E+02 0.  0.
         11    1    3    3    0    0  0.56563301485E+02  0.82795422720E+02 -0.72413947234E+02  0.12368617082E+03  0.00000000000E+00 0. -1.
        -12    1    3    3    0    0  0.59557348810E+01  0.46009762414E+01 -0.75097582957E+02  0.75473748591E+02  0.00000000000E+00 0.  1.
        -11    1    4    4    0    0 -0.12212709755E+02 -0.88760848230E+02  0.10813824613E+03  0.14043332487E+03  0.00000000000E+00 0.  1.
         11    1    4    4    0    0  0.51226909705E+02 -0.12827128912E+02  0.63781219674E+02  0.82805648944E+02  0.00000000000E+00 0. -1.
         21    1    1    2  502  501 -0.10153323632E+03  0.14191578181E+02  0.27967078810E+02  0.10626644092E+03  0.00000000000E+00 0.  1.
<scales pt_clust_5="13000.00000" pt_clust_6="13000.00000" pt_clust_7="13000.00000" pt_clust_8="13000.00000" pt_clust_9="102.52024"></scales>
<clustering>
<clus scale="   79.739">  5  6 -1 -1</clus>
<clus scale="   91.854">  7  8 -1 -1</clus>
<clus scale="  102.520">  1  9  2 -1</clus>
<clus scale="  129.864">  2  5  1 -1</clus>
<clus scale="  102.520">  1  5  2 -1</clus>
</clustering>
</event>
<event>
 9    1  0.2374319E-005  0.1231913E+03  0.7546771E-02  0.1240890E+00
          1   -1    0    0  502    0  0.00000000000E+00  0.00000000000E+00  0.39557780762E+03  0.39557780762E+03  0.00000000000E+00 0. -1.
         -2   -1    0    0    0  501 -0.00000000000E+00 -0.00000000000E+00 -0.32687774137E+03  0.32687774137E+03  0.00000000000E+00 0.  1.
         23    2    1    2    0    0 -0.17166161165E+01  0.77926403034E+02 -0.29140912049E+03  0.31644701459E+03  0.95624089414E+02 0.  0.
        -24    2    1    2    0    0 -0.56574130673E+02 -0.71528053403E+02  0.27917018491E+03  0.30605918694E+03  0.86135585464E+02 0.  0.
         11    1    4    4    0    0 -0.55730738393E+02 -0.27763576813E+02  0.23785004601E+03  0.24586454764E+03  0.00000000000E+00 0. -1.
        -12    1    4    4    0    0 -0.84339228095E+00 -0.43764476590E+02  0.41320138897E+02  0.60194639298E+02  0.00000000000E+00 0.  1.
        -11    1    3    3    0    0 -0.22546350066E+02  0.94245201344E+02 -0.22824459191E+03  0.24796388772E+03  0.00000000000E+00 0. -1.
         11    1    3    3    0    0  0.20829733949E+02 -0.16318798310E+02 -0.63164528583E+02  0.68483126869E+02  0.00000000000E+00 0.  1.
         21    1    1    2  502  501  0.58290746790E+02 -0.63983496306E+01  0.80939001833E+02  0.99949347457E+02  0.00000000000E+00 0.  1.
<scales pt_clust_5="13000.00000" pt_clust_6="13000.00000" pt_clust_7="13000.00000" pt_clust_8="13000.00000" pt_clust_9="58.64086"></scales>
<clustering>
<clus scale="   58.641">  1  9  2 -1</clus>
<clus scale="   86.136">  5  6 -1 -1</clus>
<clus scale="   95.624">  7  8 -1 -1</clus>
<clus scale="  115.980">  1  5  2 -1</clus>
<clus scale="   58.641">  1  5  2 -1</clus>
</clustering>
</event>
<event>
 9    1  0.2374319E-005  0.8910719E+02  0.7546771E-02  0.1307259E+00
          3   -1    0    0  502    0  0.00000000000E+00  0.00000000000E+00  0.12434036008E+03  0.12434036008E+03  0.00000000000E+00 0. -1.
         -4   -1    0    0    0  501 -0.00000000000E+00 -0.00000000000E+00 -0.21350564778E+03  0.21350564778E+03  0.00000000000E+00 0.  1.
        -24    2    1    2    0    0  0.45604306776E+01  0.13999703255E+02 -0.17131534510E+03  0.19159412791E+03  0.84513745412E+02 0.  0.
         23    2    1    2    0    0  0.23077259010E+02 -0.54614720210E+01  0.69395447704E+02  0.11463822227E+03  0.88112463838E+02 0.  0.
         11    1    3    3    0    0 -0.25763974832E+02  0.16670185117E+02 -0.18620354928E+02  0.35894220825E+02  0.00000000000E+00 0. -1.
        -12    1    3    3    0    0  0.30324405509E+02 -0.26704818621E+01 -0.15269499017E+03  0.15569990708E+03  0.00000000000E+00 0.  1.
        -11    1    4    4    0    0  0.13584408061E+02  0.36000300566E+02  0.69775711979E+01  0.39105553097E+02  0.00000000000E+00 0.  1.
         11    1    4    4    0    0  0.94928509489E+01 -0.41461772587E+02  0.62417876506E+02  0.75532669175E+02  0.00000000000E+00 0. -1.
         21    1    1    2  502  501 -0.27637689687E+02 -0.85382312338E+01  0.12754609690E+02  0.31613657685E+02  0.00000000000E+00 0. -1.
<scales pt_clust_5="13000.00000" pt_clust_6="13000.00000" pt_clust_7="13000.00000" pt_clust_8="13000.00000" pt_clust_9="28.92652"></scales>
<clustering>
<clus scale="   28.927">  1  9  2 -1</clus>
<clus scale="   84.514">  5  6 -1 -1</clus>
<clus scale="   85.550">  2  5  1 -1</clus>
<clus scale="   88.112">  7  8 -1 -1</clus>
<clus scale="   28.927">  1  5  2 -1</clus>
</clustering>
</event>
<event>
 9    1  0.2374319E-005  0.1203296E+03  0.7546771E-02  0.1245847E+00
         -2   -1    0    0    0  501 -0.00000000000E+00  0.00000000000E+00  0.10575475555E+03  0.10575475555E+03  0.00000000000E+00 0.  1.
          1   -1    0    0  502    0  0.00000000000E+00 -0.00000000000E+00 -0.43659724551E+03  0.43659724551E+03  0.00000000000E+00 0. -1.
        -24    2    1    2    0    0  0.58501978054E+02  0.44411912764E+02  0.31418083396E+02  0.11313296090E+03  0.80106625475E+02 0.  0.
         23    2    1    2    0    0 -0.12727689615E+03 -0.22530614447E+02 -0.25597104079E+03  0.30074240685E+03  0.90651997629E+02 0.  0.
         13    1    3    3    0    0 -0.16027889372E+02  0.13180240407E+02 -0.91891564778E+01  0.22694769699E+02  0.00000000000E+00 0. -1.
        -14    1    3    3    0    0  0.74529867426E+02  0.31231672357E+02  0.40607239874E+02  0.90438191197E+02  0.00000000000E+00 0.  1.
        -13    1    4    4    0    0 -0.62553894755E+02  0.32223931813E+02 -0.14424746869E+03  0.16049518296E+03  0.00000000000E+00 0.  1.
         13    1    4    4    0    0 -0.64723001397E+02 -0.54754546260E+02 -0.11172357211E+03  0.14024722390E+03  0.00000000000E+00 0. -1.
         21    1    1    2  502  501  0.68774918099E+02 -0.21881298317E+02 -0.10628953256E+03  0.12847663331E+03  0.00000000000E+00 0. -1.
<scales pt_clust_5="13000.00000" pt_clust_6="13000.00000" pt_clust_7="13000.00000" pt_clust_8="13000.00000" pt_clust_9="72.17188"></scales>
<clustering>
<clus scale="   72.172">  2  9  1 -1</clus>
<clus scale="   80.107">  5  6 -1 -1</clus>
<clus scale="   90.652">  7  8 -1 -1</clus>
<clus scale="  112.599">  1  5  2 -1</clus>
<clus scale="   72.172">  2  5  1 -1</clus>
</clustering>
</event>
<event>
 9    1  0.2374319E-005  0.1061930E+03  0.7546771E-02  0.1273064E+00
          1   -1    0    0  502    0  0.00000000000E+00  0.00000000000E+00  0.69797252323E+03  0.69797252323E+03  0.00000000000E+00 0. -1.
         -2   -1    0    0    0  501 -0.00000000000E+00 -0.00000000000E+00 -0.12783845863E+03  0.12783845863E+03  0.00000000000E+00 0.  1.
         23    2    1    2    0    0  0.52585126207E+02  0.25999128295E+00 -0.98417579795E+02  0.14447293463E+03  0.91766800827E+02 0.  0.
        -24    2    1    2    0    0 -0.74652618471E+02 -0.13147904579E+01  0.56692037287E+03  0.57733322924E+03  0.79625412320E+02 0.  0.
         11    1    4    4    0    0 -0.42694998217E+02 -0.32923666520E+02  0.18260053454E+03  0.19039376540E+03  0.00000000000E+00 0. -1.
        -12    1    4    4    0    0 -0.31957620253E+02  0.31608876062E+02  0.38431983833E+03  0.38693946384E+03  0.00000000000E+00 0.  1.
        -11    1    3    3    0    0  0.59963454494E+02 -0.29672167784E+02 -0.38757914187E+02  0.77319010133E+02  0.00000000000E+00 0.  1.
         11    1    3    3    0    0 -0.73783282878E+01  0.29932159067E+02 -0.59659665608E+02  0.67153924496E+02  0.00000000000E+00 0. -1.
         21    1    1    2  502  501  0.22067492264E+02  0.10547991750E+01  0.10163127151E+03  0.10400481799E+03  0.00000000000E+00 0. -1.
<scales pt_clust_5="13000.00000" pt_clust_6="13000.00000" pt_clust_7="13000.00000" pt_clust_8="13000.00000" pt_clust_9="22.09269"></scales>
<clustering>
<clus scale="   22.093">  1  9  2 -1</clus>
<clus scale="   79.625">  5  6 -1 -1</clus>
<clus scale="   91.767">  7  8 -1 -1</clus>
<clus scale="   95.896">  1  5  2 -1</clus>
<clus scale="   22.093">  1  5  2 -1</clus>
</clustering>
</event>
<event>
 9    1  0.2374319E-005  0.1466316E+03  0.7546771E-02  0.1207770E+00
          1   -1    0    0  502    0  0.00000000000E+00  0.00000000000E+00  0.57834457352E+03  0.57834457352E+03  0.00000000000E+00 0. -1.
         -2   -1    0    0    0  501 -0.00000000000E+00 -0.00000000000E+00 -0.51197993210E+02  0.51197993210E+02  0.00000000000E+00 0.  1.
         23    2    1    2    0    0 -0.83938067815E+02 -0.78250376915E+02  0.11608993027E+03  0.18929618678E+03  0.95851206060E+02 0.  0.
        -24    2    1    2    0    0  0.89453813042E+02  0.52738295222E+02  0.34637160195E+03  0.37049363660E+03  0.80677975168E+02 0.  0.
         11    1    4    4    0    0  0.64798297017E+01 -0.19746788653E+02  0.43626521273E+02  0.48323878295E+02  0.00000000000E+00 0. -1.
        -12    1    4    4    0    0  0.82973983340E+02  0.72485083876E+02  0.30274508067E+03  0.32216975831E+03  0.00000000000E+00 0.  1.
        -13    1    3    3    0    0 -0.44461302771E+02 -0.15257259794E+02 -0.49327195479E+01  0.47264396142E+02  0.00000000000E+00 0.  1.
         13    1    3    3    0    0 -0.39476765045E+02 -0.62993117121E+02  0.12102264981E+03  0.14203179064E+03  0.00000000000E+00 0. -1.
         21    1    1    2  502  501 -0.55157452265E+01  0.25512081693E+02  0.64685048099E+02  0.69752743353E+02  0.00000000000E+00 0. -1.
<scales pt_clust_5="13000.00000" pt_clust_6="13000.00000" pt_clust_7="13000.00000" pt_clust_8="13000.00000" pt_clust_9="26.10153"></scales>
<clustering>
<clus scale="   26.102">  1  9  2 -1</clus>
<clus scale="   80.678">  5  6 -1 -1</clus>
<clus scale="   95.851">  7  8 -1 -1</clus>
<clus scale="  137.194">  1  5  2 -1</clus>
<clus scale="   26.102">  1  5  2 -1</clus>
</clustering>
</event>
<event>
 9    1  0.2374319E-005  0.1260862E+03  0.7546771E-02  0.1236767E+00
          1   -1    0    0  502    0  0.00000000000E+00  0.00000000000E+00  0.21944891407E+03  0.21944891407E+03  0.00000000000E+00 0. -1.
         -2   -1    0    0    0  501 -0.00000000000E+00 -0.00000000000E+00 -0.30498600438E+03  0.30498600438E+03  0.00000000000E+00 0.  1.
         23    2    1    2    0    0 -0.78595313496E+02 -0.47495253787E+02 -0.25099399655E+03  0.28270423812E+03  0.92144872401E+02 0.  0.
        -24    2    1    2    0    0  0.16857807706E+02  0.23717332198E+02  0.15186659066E+03  0.17419101899E+03  0.80201946429E+02 0.  0.
         11    1    4    4    0    0  0.10989058613E+02  0.51567456322E+02  0.12214797502E+03  0.13304168431E+03  0.00000000000E+00 0. -1.
        -12    1    4    4    0    0  0.58687490935E+01 -0.27850124123E+02  0.29718615635E+02  0.41149334683E+02  0.00000000000E+00 0.  1.
        -13    1    3    3    0    0 -0.50237024043E+02 -0.30307679671E+02 -0.24104639029E+03  0.24808401058E+03  0.00000000000E+00 0.  1.
         13    1    3    3    0    0 -0.28358289453E+02 -0.17187574116E+02 -0.99476062593E+01  0.34620227541E+02  0.00000000000E+00 0. -1.
         21    1    1    2  502  501  0.61737505789E+02  0.23777921589E+02  0.13590315581E+02  0.67539661339E+02  0.00000000000E+00 0. -1.
<scales pt_clust_5="13000.00000" pt_clust_6="13000.00000" pt_clust_7="13000.00000" pt_clust_8="13000.00000" pt_clust_9="66.15821"></scales>
<clustering>
<clus scale="   66.158">  1  9  2 -1</clus>
<clus scale="   80.202">  5  6 -1 -1</clus>
<clus scale="   92.145">  7  8 -1 -1</clus>
<clus scale="  117.641">  1  5  2 -1</clus>
<clus scale="   66.158">  1  5  2 -1</clus>
</clustering>
</event>
<event>
 9    1  0.2374319E-005  0.9908872E+02  0.7546771E-02  0.1288423E+00
         -2   -1    0    0    0  501 -0.00000000000E+00  0.00000000000E+00  0.13901411357E+03  0.13901411357E+03  0.00000000000E+00 0.  1.
          1   -1    0    0  502    0  0.00000000000E+00 -0.00000000000E+00 -0.16562414377E+03  0.16562414377E+03  0.00000000000E+00 0. -1.
         23    2    1    2    0    0 -0.32183887398E+02 -0.17556323888E+01  0.17693662078E+02  0.99803893947E+02  0.92783978768E+02 0.  0.
        -24    2    1    2    0    0 -0.24797858331E+02 -0.48313868138E+02 -0.74979552076E+02  0.12301210113E+03  0.80999260253E+02 0.  0.
         11    1    4    4    0    0 -0.53967045908E+02 -0.34934445807E+02 -0.58576831176E+02  0.86971850035E+02  0.00000000000E+00 0. -1.
        -12    1    4    4    0    0  0.29169187576E+02 -0.13379422331E+02 -0.16402720900E+02  0.36040251091E+02  0.00000000000E+00 0.  1.
        -13    1    3    3    0    0  0.21610535844E+02  0.56720394914E+01 -0.22907661146E+02  0.31999191093E+02  0.00000000000E+00 0.  1.
         13    1    3    3    0    0 -0.53794423242E+02 -0.74276718802E+01  0.40601323224E+02  0.67804702853E+02  0.00000000000E+00 0. -1.
         21    1    1    2  502  501  0.56981745730E+02  0.50069500527E+02  0.30675859796E+02  0.81822262274E+02  0.00000000000E+00 0.  1.
<scales pt_clust_5="13000.00000" pt_clust_6="13000.00000" pt_clust_7="13000.00000" pt_clust_8="13000.00000" pt_clust_9="75.85430"></scales>
<clustering>
<clus scale="   75.854">  1  9  2 -1</clus>
<clus scale="   80.999">  5  6 -1 -1</clus>
<clus scale="   88.151">  2  5  1 -1</clus>
<clus scale="   92.784">  7  8 -1 -1</clus>
<clus scale="   88.151">  2  5  1 -1</clus>
</clustering>
</event>
<event>
 9    1  0.2374319E-005  0.9861718E+02  0.7546771E-02  0.1291591E+00
         -2   -1    0    0    0  501 -0.00000000000E+00  0.00000000000E+00  0.70446145872E+02  0.70446145872E+02  0.00000000000E+00 0.  1.
          1   -1    0    0  502    0  0.00000000000E+00 -0.00000000000E+00 -0.33593125503E+03  0.33593125503E+03  0.00000000000E+00 0. -1.
        -24    2    1    2    0    0 -0.21101314119E+02  0.18339422444E+02  0.20465247880E+02  0.88439816213E+02  0.81370601865E+02 0.  0.
         23    2    1    2    0    0 -0.61051362858E+01  0.80304308011E+01 -0.16551167716E+03  0.19167977022E+03  0.96152267404E+02 0.  0.
         11    1    3    3    0    0  0.18436857110E+02 -0.21927075757E+02  0.73554810292E+00  0.28657553670E+02  0.00000000000E+00 0. -1.
        -12    1    3    3    0    0 -0.39538171229E+02  0.40266498201E+02  0.19729699778E+02  0.59782262544E+02  0.00000000000E+00 0.  1.
        -13    1    4    4    0    0 -0.46360426782E+02  0.14450232998E+02 -0.12546988024E+03  0.13453917367E+03  0.00000000000E+00 0.  1.
         13    1    4    4    0    0  0.40255290496E+02 -0.64198021964E+01 -0.40041796924E+02  0.57140596549E+02  0.00000000000E+00 0. -1.
         21    1    1    2  502  501  0.27206450405E+02 -0.26369853245E+02 -0.12043867987E+03  0.12625781447E+03  0.00000000000E+00 0. -1.
<scales pt_clust_5="13000.00000" pt_clust_6="13000.00000" pt_clust_7="13000.00000" pt_clust_8="13000.00000" pt_clust_9="37.88879"></scales>
<clustering>
<clus scale="   37.889">  2  9  1 -1</clus>
<clus scale="   81.371">  5  6 -1 -1</clus>
<clus scale="   84.269">  1  5  2 -1</clus>
<clus scale="   96.152">  7  8 -1 -1</clus>
<clus scale="   37.889">  2  5  1 -1</clus>
</clustering>
</event>
<event>
 9    1  0.2374319E-005  0.1503163E+03  0.7546771E-02  0.1202083E+00
          1   -1    0    0  502    0  0.00000000000E+00  0.00000000000E+00  0.12681445034E+03  0.12681445034E+03  0.00000000000E+00 0. -1.
         -2   -1    0    0    0  501 -0.00000000000E+00 -0.00000000000E+00 -0.82937908256E+03  0.82937908256E+03  0.00000000000E+00 0.  1.
        -24    2    1    2    0    0 -0.11484418281E+03 -0.32433029800E+02 -0.76348472834E+03  0.77712097592E+03  0.82261735067E+02 0.  0.
         23    2    1    2    0    0  0.90903569423E+02  0.39819850405E+02  0.69339726056E+02  0.15264135845E+03  0.92964010667E+02 0.  0.
         13    1    3    3    0    0 -0.90695927935E+01 -0.34936218141E+02 -0.13255552360E+03  0.13738181717E+03  0.00000000000E+00 0. -1.
        -14    1    3    3    0    0 -0.10577459001E+03  0.25031883407E+01 -0.63092920473E+03  0.63973915874E+03  0.00000000000E+00 0.  1.
        -13    1    4    4    0    0  0.33332920720E+02  0.70815590200E+01  0.78694439627E+02  0.85755739808E+02  0.00000000000E+00 0. -1.
         13    1    4    4    0    0  0.57570648702E+02  0.32738291385E+02 -0.93547135708E+01  0.66885618639E+02  0.00000000000E+00 0.  1.
         21    1    1    2  502  501  0.23940613385E+02 -0.73868206046E+01 -0.84196299340E+01  0.26431198538E+02  0.00000000000E+00 0. -1.
<scales pt_clust_5="13000.00000" pt_clust_6="13000.00000" pt_clust_7="13000.00000" pt_clust_8="13000.00000" pt_clust_9="25.05430"></scales>
<clustering>
<clus scale="   25.054">  1  9  2 -1</clus>
<clus scale="   82.262">  5  6 -1 -1</clus>
<clus scale="   92.964">  7  8 -1 -1</clus>
<clus scale="  143.943">  2  5  1 -1</clus>
<clus scale="   25.054">  1  5  2 -1</clus>
</clustering>
</event>
<event>
 9    1  0.2374319E-005  0.9684690E+02  0.7546771E-02  0.1292340E+00
         -2   -1    0    0    0  501 -0.00000000000E+00  0.00000000000E+00  0.10930438048E+03  0.10930438048E+03  0.00000000000E+00 0.  1.
          1   -1    0    0  502    0  0.00000000000E+00 -0.00000000000E+00 -0.13357470083E+03  0.13357470083E+03  0.00000000000E+00 0. -1.
         23    2    1    2    0    0  0.55716962990E+01 -0.13192334744E+02  0.37007551348E+02  0.99377886046E+02  0.91111601252E+02 0.  0.
        -24    2    1    2    0    0 -0.13912368557E+02  0.36045606578E+02 -0.73518855063E+02  0.11626738318E+03  0.81364873190E+02 0.  0.
         13    1    4    4    0    0 -0.45554334399E+02  0.36041127278E+02 -0.52357232208E+02  0.78201278778E+02  0.00000000000E+00 0. -1.
        -14    1    4    4    0    0  0.31641965843E+02  0.44792996003E-02 -0.21161622855E+02  0.38066104402E+02  0.00000000000E+00 0.  1.
        -11    1    3    3    0    0 -0.82488471272E+01 -0.51150255723E+02  0.19683436892E+02  0.55424090677E+02  0.00000000000E+00 0.  1.
         11    1    3    3    0    0  0.13820543426E+02  0.37957920980E+02  0.17324114456E+02  0.43953795369E+02  0.00000000000E+00 0. -1.
         21    1    1    2  502  501  0.83406722575E+01 -0.22853271834E+02  0.12240983358E+02  0.27233812087E+02  0.00000000000E+00 0.  1.
<scales pt_clust_5="13000.00000" pt_clust_6="13000.00000" pt_clust_7="13000.00000" pt_clust_8="13000.00000" pt_clust_9="24.32774"></scales>
<clustering>
<clus scale="   24.328">  1  9  2 -1</clus>
<clus scale="   81.365">  5  6 -1 -1</clus>
<clus scale="   87.740">  2  5  1 -1</clus>
<clus scale="   91.112">  7  8 -1 -1</clus>
<clus scale="   87.740">  2  5  1 -1</clus>
</clustering>
</event>
<event>
 9    1  0.4533139E-005  0.9139725E+02  0.7546771E-02  0.1301668E+00
         -2   -1    0    0    0  501 -0.00000000000E+00  0.00000000000E+00  0.61912174273E+03  0.61912174273E+03  0.00000000000E+00 0.  1.
          1   -1    0    0  502    0  0.00000000000E+00 -0.00000000000E+00 -0.16779044090E+03  0.16779044090E+03  0.00000000000E+00 0. -1.
        -24    2    1    2    0    0 -0.38691051516E+02  0.23518222085E+02  0.54311427220E+03  0.55191528972E+03  0.87104937455E+02 0.  0.
         23    2    1    2    0    0  0.93719965365E+01  0.56305768115E+01 -0.14267962931E+03  0.16942457235E+03  0.90706512342E+02 0.  0.
         13    1    3    3    0    0  0.21672634342E+02  0.68858623345E+01  0.51080641910E+02  0.55913774308E+02  0.00000000000E+00 0. -1.
        -14    1    3    3    0    0 -0.60363685858E+02  0.16632359750E+02  0.49203363029E+03  0.49600151541E+03  0.00000000000E+00 0.  1.
        -13    1    4    4    0    0 -0.39701570337E+02  0.12208593667E+02 -0.72126746933E+02  0.83231797227E+02  0.00000000000E+00 0.  1.
         13    1    4    4    0    0  0.49073566874E+02 -0.65780168555E+01 -0.70552882378E+02  0.86192775122E+02  0.00000000000E+00 0. -1.
         21    1    1    2  502  501  0.29319054980E+02 -0.29148798896E+02  0.50896658948E+02  0.65572321555E+02  0.00000000000E+00 0.  1.
<scales pt_clust_5="13000.00000" pt_clust_6="13000.00000" pt_clust_7="13000.00000" pt_clust_8="13000.00000" pt_clust_9="41.34319"></scales>
<clustering>
<clus scale="   41.343">  1  9  2 -1</clus>
<clus scale="   87.105">  5  6 -1 -1</clus>
<clus scale="   87.824">  1  5  2 -1</clus>
<clus scale="   90.707">  7  8 -1 -1</clus>
<clus scale="   91.397">  2  5  1 -1</clus>
</clustering>
</event>
<event>
 9    1  0.2374319E-005  0.9930784E+02  0.7546771E-02  0.1286970E+00
         -2   -1    0    0    0  501 -0.00000000000E+00  0.00000000000E+00  0.13988412861E+03  0.13988412861E+03  0.00000000000E+00 0.  1.
          1   -1    0    0  502    0  0.00000000000E+00 -0.00000000000E+00 -0.94365508881E+02  0.94365508881E+02  0.00000000000E+00 0. -1.
        -24    2    1    2    0    0  0.25527900089E+02  0.18049280678E+02  0.50350013030E+02  0.10053201009E+03  0.81204131818E+02 0.  0.
         23    2    1    2    0    0 -0.36779427794E+02 -0.41731843616E+02  0.23889618302E+00  0.10701241259E+03  0.91418413329E+02 0.  0.
         11    1    3    3    0    0  0.42209808231E+02 -0.77625029095E+01  0.16549806513E+01  0.42949543924E+02  0.00000000000E+00 0. -1.
        -12    1    3    3    0    0 -0.16681908142E+02  0.25811783587E+02  0.48695032379E+02  0.57582466164E+02  0.00000000000E+00 0.  1.
        -13    1    4    4    0    0 -0.46701384586E+01 -0.35168592095E+02  0.41319558793E+02  0.54460499465E+02  0.00000000000E+00 0.  1.
         13    1    4    4    0    0 -0.32109289335E+02 -0.65632515205E+01 -0.41080662610E+02  0.52551913120E+02  0.00000000000E+00 0. -1.
         21    1    1    2  502  501  0.11251527705E+02  0.23682562938E+02 -0.50702894831E+01  0.26705214818E+02  0.00000000000E+00 0.  1.
<scales pt_clust_5="13000.00000" pt_clust_6="13000.00000" pt_clust_7="13000.00000" pt_clust_8="13000.00000" pt_clust_9="26.21947"></scales>
<clustering>
<clus scale="   26.219">  2  9  1 -1</clus>
<clus scale="   81.204">  5  6 -1 -1</clus>
<clus scale="   89.994">  1  5  2 -1</clus>
<clus scale="   91.418">  7  8 -1 -1</clus>
<clus scale="   26.219">  2  5  1 -1</clus>
</clustering>
</event>
<event>
 9    1  0.2374319E-005  0.1063585E+03  0.7546771E-02  0.1273567E+00
         -2   -1    0    0    0  501 -0.00000000000E+00  0.00000000000E+00  0.22893583422E+03  0.22893583422E+03  0.00000000000E+00 0.  1.
          1   -1    0    0  502    0  0.00000000000E+00 -0.00000000000E+00 -0.65340674066E+02  0.65340674066E+02  0.00000000000E+00 0. -1.
        -24    2    1    2    0    0 -0.91696287168E+01 -0.51399106435E+02  0.11590655362E+03  0.14746769972E+03  0.74742511701E+02 0.  0.
         23    2    1    2    0    0  0.22537208608E+02  0.70020227402E+02  0.36255745688E+02  0.12119340997E+03  0.89233432677E+02 0.  0.
         11    1    3    3    0    0  0.29433679764E+02 -0.31173419319E+02  0.80938241851E+02  0.91592153432E+02  0.00000000000E+00 0. -1.
        -12    1    3    3    0    0 -0.38603308481E+02 -0.20225687116E+02  0.34968311774E+02  0.55875546291E+02  0.00000000000E+00 0.  1.
        -13    1    4    4    0    0  0.36433103793E+02  0.45957219885E+02 -0.17054367232E+02  0.61076088228E+02  0.00000000000E+00 0. -1.
         13    1    4    4    0    0 -0.13895895186E+02  0.24063007517E+02  0.53310112920E+02  0.60117321741E+02  0.00000000000E+00 0.  1.
         21    1    1    2  502  501 -0.13367579891E+02 -0.18621120967E+02  0.11432860843E+02  0.25615398597E+02  0.00000000000E+00 0.  1.
<scales pt_clust_5="13000.00000" pt_clust_6="13000.00000" pt_clust_7="13000.00000" pt_clust_8="13000.00000" pt_clust_9="22.92244"></scales>
<clustering>
<clus scale="   22.922">  2  9  1 -1</clus>
<clus scale="   74.743">  5  6 -1 -1</clus>
<clus scale="   89.233">  7  8 -1 -1</clus>
<clus scale="   94.530">  1  5  2 -1</clus>
<clus scale="   22.922">  2  5  1 -1</clus>
</clustering>
</event>
<event>
 9    1  0.2374319E-005  0.1798613E+03  0.7546771E-02  0.1200975E+00
          1   -1    0    0  502    0  0.00000000000E+00  0.00000000000E+00  0.45803470820E+03  0.45803470820E+03  0.00000000000E+00 0. -1.
         -2   -1    0    0    0  501 -0.00000000000E+00 -0.00000000000E+00 -0.10521361887E+03  0.10521361887E+03  0.00000000000E+00 0.  1.
         23    2    1    2    0    0 -0.35547575168E+00  0.29606954193E+02  0.54068427357E+02  0.10163916787E+03  0.80811060562E+02 0.  0.
        -24    2    1    2    0    0 -0.13553095568E+03  0.73900629569E+02  0.19587717389E+03  0.26220427412E+03  0.80952276811E+02 0.  0.
         13    1    4    4    0    0 -0.13161151797E+03  0.86433012529E+02  0.19240868390E+03  0.24862292524E+03  0.00000000000E+00 0. -1.
        -14    1    4    4    0    0 -0.39194377111E+01 -0.12532382960E+02  0.34684899873E+01  0.13581348880E+02  0.00000000000E+00 0.  1.
        -11    1    3    3    0    0  0.19007373766E+02 -0.20027911917E+02  0.28898984740E+01  0.27762367090E+02  0.00000000000E+00 0. -1.
         11    1    3    3    0    0 -0.19362849517E+02  0.49634866110E+02  0.51178528883E+02  0.73876800782E+02  0.00000000000E+00 0.  1.
         21    1    1    2  502  501  0.13588643143E+03 -0.10350758376E+03  0.10287548809E+03  0.19940488508E+03  0.00000000000E+00 0.  1.
<scales pt_clust_5="13000.00000" pt_clust_6="13000.00000" pt_clust_7="13000.00000" pt_clust_8="13000.00000" pt_clust_9="160.61386"></scales>
<clustering>
<clus scale="   80.811">  7  8 -1 -1</clus>
<clus scale="   80.952">  5  6 -1 -1</clus>
<clus scale="   86.065">  2  7  1 -1</clus>
<clus scale="  160.614">  2  9  1 -1</clus>
<clus scale="  179.861">  1  5  2 -1</clus>
</clustering>
</event>
<event>
 9    1  0.2374319E-005  0.1090997E+03  0.7546771E-02  0.1267706E+00
         -2   -1    0    0    0  501 -0.00000000000E+00  0.00000000000E+00  0.15074969905E+04  0.15074969905E+04  0.00000000000E+00 0.  1.
          1   -1    0    0  502    0  0.00000000000E+00 -0.00000000000E+00 -0.49278679460E+02  0.49278679460E+02  0.00000000000E+00 0. -1.
        -24    2    1    2    0    0 -0.44353490543E+02 -0.30168085651E+02  0.13432035390E+04  0.13467307872E+04  0.81306336544E+02 0.  0.
         23    2    1    2    0    0  0.66013101710E+02  0.27518570415E+02  0.13564092288E+03  0.18001828144E+03  0.94303342332E+02 0.  0.
         13    1    3    3    0    0 -0.18119743296E+02 -0.16653899712E+02  0.93678023465E+02  0.96856850832E+02  0.00000000000E+00 0. -1.
        -14    1    3    3    0    0 -0.26233747247E+02 -0.13514185939E+02  0.12495255155E+04  0.12498739363E+04  0.00000000000E+00 0.  1.
        -11    1    4    4    0    0  0.78361058242E+02 -0.98658782603E+01  0.91319388008E+02  0.12073533712E+03  0.00000000000E+00 0.  1.
         11    1    4    4    0    0 -0.12347956531E+02  0.37384448675E+02  0.44321534876E+02  0.59282944318E+02  0.00000000000E+00 0. -1.
         21    1    1    2  502  501 -0.21659611167E+02  0.26495152367E+01 -0.20626150889E+02  0.30026601330E+02  0.00000000000E+00 0. -1.
<scales pt_clust_5="13000.00000" pt_clust_6="13000.00000" pt_clust_7="13000.00000" pt_clust_8="13000.00000" pt_clust_9="21.82106"></scales>
<clustering>
<clus scale="   21.821">  2  9  1 -1</clus>
<clus scale="   81.306">  5  6 -1 -1</clus>
<clus scale="   94.303">  7  8 -1 -1</clus>
<clus scale="   98.083">  1  5  2 -1</clus>
<clus scale="   21.821">  2  5  1 -1</clus>
</clustering>
</event>
<event>
 9    1  0.2374319E-005  0.9588384E+02  0.7546771E-02  0.1295618E+00
          1   -1    0    0  502    0  0.00000000000E+00  0.00000000000E+00  0.14010045897E+03  0.14010045897E+03  0.00000000000E+00 0. -1.
         -2   -1    0    0    0  501 -0.00000000000E+00 -0.00000000000E+00 -0.17744326716E+03  0.17744326716E+03  0.00000000000E+00 0.  1.
        -24    2    1    2    0    0  0.20947172559E+02  0.18299085867E+02 -0.13863991856E+03  0.16272626814E+03  0.80530557811E+02 0.  0.
         23    2    1    2    0    0 -0.30186621951E+02 -0.28827848747E+00  0.81124263917E+02  0.12623948848E+03  0.91890951712E+02 0.  0.
         13    1    3    3    0    0  0.46135182299E+02  0.14522116013E+02 -0.46363644429E+02  0.66999510625E+02  0.00000000000E+00 0. -1.
        -14    1    3    3    0    0 -0.25188009740E+02  0.37769698537E+01 -0.92276274134E+02  0.95726757513E+02  0.00000000000E+00 0.  1.
        -11    1    4    4    0    0 -0.50657831813E+02  0.72576430793E+01  0.10393030840E+02  0.52219770175E+02  0.00000000000E+00 0.  1.
         11    1    4    4    0    0  0.20471209862E+02 -0.75459215668E+01  0.70731233077E+02  0.74019718306E+02  0.00000000000E+00 0. -1.
         21    1    1    2  502  501  0.92394493921E+01 -0.18010807379E+02  0.20172846457E+02  0.28577969517E+02  0.00000000000E+00 0.  1.
<scales pt_clust_5="13000.00000" pt_clust_6="13000.00000" pt_clust_7="13000.00000" pt_clust_8="13000.00000" pt_clust_9="20.24245"></scales>
<clustering>
<clus scale="   20.242">  1  9  2 -1</clus>
<clus scale="   80.531">  5  6 -1 -1</clus>
<clus scale="   85.058">  2  5  1 -1</clus>
<clus scale="   91.891">  7  8 -1 -1</clus>
<clus scale="   20.242">  1  5  2 -1</clus>
</clustering>
</event>
<event>
 9    1  0.2374319E-005  0.9835944E+02  0.7546771E-02  0.1290664E+00
          1   -1    0    0  502    0  0.00000000000E+00  0.00000000000E+00  0.17842910555E+03  0.17842910555E+03  0.00000000000E+00 0. -1.
         -2   -1    0    0    0  501 -0.00000000000E+00 -0.00000000000E+00 -0.56757836395E+03  0.56757836395E+03  0.00000000000E+00 0.  1.
        -24    2    1    2    0    0 -0.26714167181E+02  0.18844894016E+02 -0.52792332449E+03  0.53497339640E+03  0.80154360820E+02 0.  0.
         23    2    1    2    0    0  0.36114300324E+02  0.10584153982E+02  0.40658613156E+02  0.10816972808E+03  0.92904791298E+02 0.  0.
         13    1    3    3    0    0 -0.29861212593E+02  0.18440992708E+02 -0.83979482381E+02  0.91018216257E+02  0.00000000000E+00 0. -1.
        -14    1    3    3    0    0  0.31470454120E+01  0.40390130791E+00 -0.44394384211E+03  0.44395518015E+03  0.00000000000E+00 0.  1.
        -13    1    4    4    0    0 -0.17273496987E+02 -0.24297794040E+02 -0.43302097187E+01  0.30124860325E+02  0.00000000000E+00 0.  1.
         13    1    4    4    0    0  0.53387797312E+02  0.34881948022E+02  0.44988822875E+02  0.78044867757E+02  0.00000000000E+00 0. -1.
         21    1    1    2  502  501 -0.94001331436E+01 -0.29429047998E+02  0.98115452937E+02  0.10286434501E+03  0.00000000000E+00 0.  1.
<scales pt_clust_5="13000.00000" pt_clust_6="13000.00000" pt_clust_7="13000.00000" pt_clust_8="13000.00000" pt_clust_9="30.89387"></scales>
<clustering>
<clus scale="   30.894">  1  9  2 -1</clus>
<clus scale="   80.154">  5  6 -1 -1</clus>
<clus scale="   86.418">  2  5  1 -1</clus>
<clus scale="   92.905">  7  8 -1 -1</clus>
<clus scale="   30.894">  1  5  2 -1</clus>
</clustering>
</event>
<event>
 9    1  0.2374319E-005  0.1398720E+03  0.7546771E-02  0.1213909E+00
         -4   -1    0    0    0  501 -0.00000000000E+00  0.00000000000E+00  0.55543488635E+02  0.55543488635E+02  0.00000000000E+00 0.  1.
          3   -1    0    0  502    0  0.00000000000E+00 -0.00000000000E+00 -0.57096095312E+03  0.57096095312E+03  0.00000000000E+00 0. -1.
         23    2    1    2    0    0  0.84527721159E+02 -0.70198081003E+02 -0.14285496182E+03  0.19684461424E+03  0.79167896386E+02 0.  0.
        -24    2    1    2    0    0 -0.11957569093E+03  0.22545345224E+02 -0.31400955372E+03  0.34642767482E+03  0.81261895139E+02 0.  0.
         11    1    4    4    0    0 -0.11019906024E+03  0.36041902042E+02 -0.19949854947E+03  0.23074341339E+03  0.00000000000E+00 0. -1.
        -12    1    4    4    0    0 -0.93766306860E+01 -0.13496556817E+02 -0.11451100425E+03  0.11568426143E+03  0.00000000000E+00 0.  1.
        -11    1    3    3    0    0  0.74003219798E+02 -0.14606612675E+02 -0.59366122352E+02  0.95990448261E+02  0.00000000000E+00 0.  1.
         11    1    3    3    0    0  0.10524501361E+02 -0.55591468328E+02 -0.83488839464E+02  0.10085416598E+03  0.00000000000E+00 0. -1.
         21    1    1    2  502  501  0.35047969769E+02  0.47652735779E+02 -0.58552948952E+02  0.83232152700E+02  0.00000000000E+00 0. -1.
<scales pt_clust_5="13000.00000" pt_clust_6="13000.00000" pt_clust_7="13000.00000" pt_clust_8="13000.00000" pt_clust_9="59.15356"></scales>
<clustering>
<clus scale="   59.154">  1  9  2 -1</clus>
<clus scale="   79.168">  7  8 -1 -1</clus>
<clus scale="   81.262">  5  6 -1 -1</clus>
<clus scale="  138.666">  1  7  2 -1</clus>
<clus scale="  139.872">  2  5  1 -1</clus>
</clustering>
</event>
<event>
 9    1  0.2374319E-005  0.2008376E+03  0.7546771E-02  0.1150051E+00
          1   -1    0    0  502    0  0.00000000000E+00  0.00000000000E+00  0.50762266433E+03  0.50762266433E+03  0.00000000000E+00 0. -1.
         -2   -1    0    0    0  501 -0.00000000000E+00 -0.00000000000E+00 -0.14631750527E+03  0.14631750527E+03  0.00000000000E+00 0.  1.
        -24    2    1    2    0    0 -0.11012371169E+02  0.17279295143E+03 -0.31948807469E+01  0.19064474275E+03  0.79727876513E+02 0.  0.
         23    2    1    2    0    0  0.35329988834E+02 -0.19225274990E+03  0.19408407610E+03  0.29005677362E+03  0.90856895017E+02 0.  0.
         11    1    3    3    0    0  0.20378288860E+02  0.35740805306E+02 -0.25326261764E+02  0.48312517589E+02  0.00000000000E+00 0. -1.
        -12    1    3    3    0    0 -0.31390660029E+02  0.13705214612E+03  0.22131381017E+02  0.14233222516E+03  0.00000000000E+00 0.  1.
        -13    1    4    4    0    0  0.20488034559E+02 -0.97400235124E+02  0.37456368716E+02  0.10634634418E+03  0.00000000000E+00 0. -1.
         13    1    4    4    0    0  0.14841954275E+02 -0.94852514778E+02  0.15662770738E+03  0.18371042945E+03  0.00000000000E+00 0.  1.
         21    1    1    2  502  501 -0.24317617665E+02  0.19459798476E+02  0.17041596371E+03  0.17323865323E+03  0.00000000000E+00 0. -1.
<scales pt_clust_5="13000.00000" pt_clust_6="13000.00000" pt_clust_7="13000.00000" pt_clust_8="13000.00000" pt_clust_9="31.14531"></scales>
<clustering>
<clus scale="   31.145">  1  9  2 -1</clus>
<clus scale="   79.728">  5  6 -1 -1</clus>
<clus scale="   90.857">  7  8 -1 -1</clus>
<clus scale="  196.054">  2  5  1 -1</clus>
<clus scale="   31.145">  1  5  2 -1</clus>
</clustering>
</event>
<event>
 9    1  0.2374319E-005  0.1049664E+03  0.7546771E-02  0.1275104E+00
         -2   -1    0    0    0  501 -0.00000000000E+00  0.00000000000E+00  0.12967539109E+03  0.12967539109E+03  0.00000000000E+00 0.  1.
          1   -1    0    0  502    0  0.00000000000E+00 -0.00000000000E+00 -0.16760643785E+03  0.16760643785E+03  0.00000000000E+00 0. -1.
        -24    2    1    2    0    0 -0.46076974095E+02  0.24880230817E+02  0.60598285923E+02  0.11320535619E+03  0.80007418313E+02 0.  0.
         23    2    1    2    0    0  0.53441535122E+02  0.12524073356E+02 -0.99900849306E+02  0.14592939177E+03  0.91117273895E+02 0.  0.
         11    1    3    3    0    0 -0.38670190168E+02 -0.32091556649E+01 -0.71820938351E+01  0.39462194054E+02  0.00000000000E+00 0. -1.
        -12    1    3    3    0    0 -0.74067839271E+01  0.28089386481E+02  0.67780379758E+02  0.73743162132E+02  0.00000000000E+00 0.  1.
        -11    1    4    4    0    0 -0.17532053390E+02  0.15220213425E+02 -0.60289787940E+02  0.64605621448E+02  0.00000000000E+00 0.  1.
         11    1    4    4    0    0  0.70973588513E+02 -0.26961400695E+01 -0.39611061366E+02  0.81323770327E+02  0.00000000000E+00 0. -1.
         21    1    1    2  502  501 -0.73645610270E+01 -0.37404304172E+02  0.13715166268E+01  0.38147080984E+02  0.00000000000E+00 0. -1.
<scales pt_clust_5="13000.00000" pt_clust_6="13000.00000" pt_clust_7="13000.00000" pt_clust_8="13000.00000" pt_clust_9="38.12242"></scales>
<clustering>
<clus scale="   38.122">  1  9  2 -1</clus>
<clus scale="   80.007">  5  6 -1 -1</clus>
<clus scale="   91.117">  7  8 -1 -1</clus>
<clus scale="   95.482">  1  5  2 -1</clus>
<clus scale="  104.966">  2  5  1 -1</clus>
</clustering>
</event>
<event>
 9    1  0.2374319E-005  0.1254705E+03  0.7546771E-02  0.1244171E+00
          1   -1    0    0  502    0  0.00000000000E+00  0.00000000000E+00  0.24507918264E+03  0.24507918264E+03  0.00000000000E+00 0. -1.
         -2   -1    0    0    0  501 -0.00000000000E+00 -0.00000000000E+00 -0.22597211263E+03  0.22597211263E+03  0.00000000000E+00 0.  1.
        -24    2    1    2    0    0  0.35914813085E+02 -0.49894941994E+02 -0.18513764697E+03  0.21131441704E+03  0.81230877684E+02 0.  0.
         23    2    1    2    0    0 -0.44694374722E+02  0.69764476942E+02  0.15940231634E+03  0.20990997770E+03  0.10857454080E+03 0.  0.
         11    1    3    3    0    0 -0.18317298706E+02 -0.37413508367E+02 -0.11140100092E+03  0.11893475962E+03  0.00000000000E+00 0. -1.
        -12    1    3    3    0    0  0.54232111791E+02 -0.12481433627E+02 -0.73736646048E+02  0.92379657420E+02  0.00000000000E+00 0.  1.
        -11    1    4    4    0    0 -0.35215893618E+02  0.98630060217E+02  0.13548636773E+03  0.17124428102E+03  0.00000000000E+00 0. -1.
         11    1    4    4    0    0 -0.94784811042E+01 -0.28865583276E+02  0.23915948608E+02  0.38665696679E+02  0.00000000000E+00 0.  1.
         21    1    1    2  502  501  0.87795616368E+01 -0.19869534948E+02  0.44842400640E+02  0.49826900533E+02  0.00000000000E+00 0.  1.
<scales pt_clust_5="13000.00000" pt_clust_6="13000.00000" pt_clust_7="13000.00000" pt_clust_8="13000.00000" pt_clust_9="21.72278"></scales>
<clustering>
<clus scale="   21.723">  1  9  2 -1</clus>
<clus scale="   81.231">  5  6 -1 -1</clus>
<clus scale="  102.727">  2  5  1 -1</clus>
<clus scale="  108.575">  7  8 -1 -1</clus>
<clus scale="   21.723">  1  5  2 -1</clus>
</clustering>
</event>
<event>
 9    1  0.2374319E-005  0.1257871E+03  0.7546771E-02  0.1235361E+00
          1   -1    0    0  502    0  0.00000000000E+00  0.00000000000E+00  0.58727179077E+02  0.58727179077E+02  0.00000000000E+00 0. -1.
         -2   -1    0    0    0  501 -0.00000000000E+00 -0.00000000000E+00 -0.74491447980E+03  0.74491447980E+03  0.00000000000E+00 0.  1.
        -24    2    1    2    0    0 -0.68155844078E+02  0.66668409262E+02 -0.50265598101E+03  0.51787924519E+03  0.80286869855E+02 0.  0.
         23    2    1    2    0    0  0.93682964053E+02 -0.15882685213E+02 -0.18932062439E+03  0.22862801363E+03  0.86021580744E+02 0.  0.
         11    1    3    3    0    0  0.24753947672E+01  0.30001461540E+02 -0.50646616339E+02  0.58917697005E+02  0.00000000000E+00 0. -1.
        -12    1    3    3    0    0 -0.70631238845E+02  0.36666947723E+02 -0.45200936468E+03  0.45896154818E+03  0.00000000000E+00 0.  1.
        -13    1    4    4    0    0  0.94395892468E-01 -0.28657142546E+02 -0.75275824937E+02  0.80546201335E+02  0.00000000000E+00 0.  1.
         13    1    4    4    0    0  0.93588568161E+02  0.12774457333E+02 -0.11404479945E+03  0.14808181230E+03  0.00000000000E+00 0. -1.
         21    1    1    2  502  501 -0.25527119976E+02 -0.50785724049E+02  0.57893046811E+01  0.57134400059E+02  0.00000000000E+00 0. -1.
<scales pt_clust_5="13000.00000" pt_clust_6="13000.00000" pt_clust_7="13000.00000" pt_clust_8="13000.00000" pt_clust_9="56.84033"></scales>
<clustering>
<clus scale="   56.840">  1  9  2 -1</clus>
<clus scale="   80.287">  5  6 -1 -1</clus>
<clus scale="   86.022">  7  8 -1 -1</clus>
<clus scale="  121.937">  2  5  1 -1</clus>
<clus scale="   56.840">  1  5  2 -1</clus>
</clustering>
</event>
<event>
 9    1  0.2374319E-005  0.1091584E+03  0.7546771E-02  0.1262709E+00
         -2   -1    0    0    0  501 -0.00000000000E+00  0.00000000000E+00  0.16692436171E+03  0.16692436171E+03  0.00000000000E+00 0.  1.
          1   -1    0    0  502    0  0.00000000000E+00 -0.00000000000E+00 -0.15197849620E+03  0.15197849620E+03  0.00000000000E+00 0. -1.
        -24    2    1    2    0    0  0.82471470736E+02  0.21816741336E+02  0.10607464073E+03  0.15609187127E+03  0.76389326360E+02 0.  0.
         23    2    1    2    0    0 -0.38525891036E+02 -0.19294904050E+02 -0.72784123702E+02  0.11512346334E+03  0.78098306939E+02 0.  0.
         13    1    3    3    0    0  0.53543690119E+02  0.48036129228E+02  0.49366589422E+02  0.87243662314E+02  0.00000000000E+00 0. -1.
        -14    1    3    3    0    0  0.28927780617E+02 -0.26219387892E+02  0.56708051312E+02  0.68848208956E+02  0.00000000000E+00 0.  1.
        -11    1    4    4    0    0 -0.34099217838E+02  0.22649150318E+02 -0.56811136543E+02  0.70023181181E+02  0.00000000000E+00 0. -1.
         11    1    4    4    0    0 -0.44266731983E+01 -0.41944054368E+02 -0.15972987159E+02  0.45100282163E+02  0.00000000000E+00 0.  1.
         21    1    1    2  502  501 -0.43945579700E+02 -0.25218372859E+01 -0.18344651521E+02  0.47687523294E+02  0.00000000000E+00 0. -1.
<scales pt_clust_5="13000.00000" pt_clust_6="13000.00000" pt_clust_7="13000.00000" pt_clust_8="13000.00000" pt_clust_9="44.01788"></scales>
<clustering>
<clus scale="   44.018">  2  9  1 -1</clus>
<clus scale="   76.389">  5  6 -1 -1</clus>
<clus scale="   78.098">  7  8 -1 -1</clus>
<clus scale="  107.942">  1  5  2 -1</clus>
<clus scale="   44.018">  2  5  1 -1</clus>
</clustering>
</event>
<event>
 9    1  0.2374319E-005  0.1012377E+03  0.7546771E-02  0.1283184E+00
         -2   -1    0    0    0  501 -0.00000000000E+00  0.00000000000E+00  0.21411642464E+03  0.21411642464E+03  0.00000000000E+00 0.  1.
          1   -1    0    0  502    0  0.00000000000E+00 -0.00000000000E+00 -0.34914035201E+03  0.34914035201E+03  0.00000000000E+00 0. -1.
         23    2    1    2    0    0  0.42620061810E+02  0.74248106597E+01  0.18584718051E+03  0.21131485677E+03  0.90792051987E+02 0.  0.
        -24    2    1    2    0    0 -0.65058220573E+02 -0.23339031384E+02 -0.18123962965E+03  0.20962648466E+03  0.79486962860E+02 0.  0.
         13    1    4    4    0    0 -0.51138815903E+02  0.16974385269E+02 -0.14118504277E+03  0.15111758518E+03  0.00000000000E+00 0. -1.
        -14    1    4    4    0    0 -0.13919404671E+02 -0.40313416653E+02 -0.40054586877E+02  0.58508899481E+02  0.00000000000E+00 0.  1.
        -11    1    3    3    0    0  0.59714311807E+02 -0.21561558313E+02  0.93411756969E+02  0.11294448270E+03  0.00000000000E+00 0.  1.
         11    1    3    3    0    0 -0.17094249997E+02  0.28986368972E+02  0.92435423542E+02  0.98370374069E+02  0.00000000000E+00 0. -1.
         21    1    1    2  502  501  0.22438158764E+02  0.15914220724E+02 -0.13963147823E+03  0.14231543523E+03  0.00000000000E+00 0.  1.
<scales pt_clust_5="13000.00000" pt_clust_6="13000.00000" pt_clust_7="13000.00000" pt_clust_8="13000.00000" pt_clust_9="27.50879"></scales>
<clustering>
<clus scale="   27.509">  2  9  1 -1</clus>
<clus scale="   79.487">  5  6 -1 -1</clus>
<clus scale="   90.792">  7  8 -1 -1</clus>
<clus scale="   91.236">  2  5  1 -1</clus>
<clus scale="   27.509">  2  5  1 -1</clus>
</clustering>
</event>
<event>
 9    1  0.2374319E-005  0.1029939E+03  0.7546771E-02  0.1277479E+00
          1   -1    0    0  502    0  0.00000000000E+00  0.00000000000E+00  0.37929717340E+03  0.37929717340E+03  0.00000000000E+00 0. -1.
         -2   -1    0    0    0  501 -0.00000000000E+00 -0.00000000000E+00 -0.11375280765E+03  0.11375280765E+03  0.00000000000E+00 0.  1.
        -24    2    1    2    0    0 -0.94142952971E+01  0.56571328969E+02 -0.62640972179E+02  0.11950855039E+03  0.84080069006E+02 0.  0.
         23    2    1    2    0    0 -0.26963953560E+02 -0.81729273670E+01  0.10379777035E+03  0.14112894660E+03  0.91375877035E+02 0.  0.
         11    1    3    3    0    0 -0.40449871297E+02  0.48798936927E+02 -0.20537269989E+02  0.66628130634E+02  0.00000000000E+00 0. -1.
        -12    1    3    3    0    0  0.31035576000E+02  0.77723920423E+01 -0.42103702190E+02  0.52880419759E+02  0.00000000000E+00 0.  1.
        -13    1    4    4    0    0  0.24469927164E+02 -0.25150312864E+02  0.67047047269E+02  0.75674448264E+02  0.00000000000E+00 0. -1.
         13    1    4    4    0    0 -0.51433880724E+02  0.16977385497E+02  0.36750723082E+02  0.65454498331E+02  0.00000000000E+00 0.  1.
         21    1    1    2  502  501  0.36378248857E+02 -0.48398401602E+02  0.22438756758E+03  0.23241248407E+03  0.00000000000E+00 0. -1.
<scales pt_clust_5="13000.00000" pt_clust_6="13000.00000" pt_clust_7="13000.00000" pt_clust_8="13000.00000" pt_clust_9="60.54570"></scales>
<clustering>
<clus scale="   60.546">  1  9  2 -1</clus>
<clus scale="   84.080">  5  6 -1 -1</clus>
<clus scale="   91.376">  7  8 -1 -1</clus>
<clus scale="   96.580">  2  5  1 -1</clus>
<clus scale="   60.546">  1  5  2 -1</clus>
</clustering>
</event>
<event>
 9    1  0.2374319E-005  0.1147257E+03  0.7546771E-02  0.1255328E+00
         -2   -1    0    0    0  501 -0.00000000000E+00  0.00000000000E+00  0.19098385031E+03  0.19098385031E+03  0.00000000000E+00 0.  1.
          1   -1    0    0  502    0  0.00000000000E+00 -0.00000000000E+00 -0.12207546214E+03  0.12207546214E+03  0.00000000000E+00 0. -1.
         23    2    1    2    0    0  0.73807182232E+00 -0.64849038236E+02  0.11132407692E+03  0.15727691163E+03  0.90205511580E+02 0.  0.
        -24    2    1    2    0    0 -0.67880818653E+01  0.89812715673E+02 -0.22089472708E+02  0.12302659413E+03  0.80840559795E+02 0.  0.
         13    1    4    4    0    0  0.12202081147E+02  0.95322172001E+02 -0.31496406346E+02  0.10112977243E+03  0.00000000000E+00 0. -1.
        -14    1    4    4    0    0 -0.18990163012E+02 -0.55094563277E+01  0.94069336378E+01  0.21896821704E+02  0.00000000000E+00 0.  1.
        -11    1    3    3    0    0 -0.38228689991E+02 -0.34716346194E+01  0.37425224697E+02  0.53610935722E+02  0.00000000000E+00 0. -1.
         11    1    3    3    0    0  0.38966761813E+02 -0.61377403617E+02  0.73898852225E+02  0.10366597591E+03  0.00000000000E+00 0.  1.
         21    1    1    2  502  501  0.60500100430E+01 -0.24963677437E+02 -0.20326216051E+02  0.32755806686E+02  0.00000000000E+00 0. -1.
<scales pt_clust_5="13000.00000" pt_clust_6="13000.00000" pt_clust_7="13000.00000" pt_clust_8="13000.00000" pt_clust_9="25.68634"></scales>
<clustering>
<clus scale="   25.686">  2  9  1 -1</clus>
<clus scale="   80.841">  5  6 -1 -1</clus>
<clus scale="   90.206">  7  8 -1 -1</clus>
<clus scale="  107.518">  2  5  1 -1</clus>
<clus scale="   25.686">  2  5  1 -1</clus>
</clustering>
</event>
<event>
 9    1  0.2374319E-005  0.1114938E+03  0.7546771E-02  0.1262893E+00
         -2   -1    0    0    0  501 -0.00000000000E+00  0.00000000000E+00  0.14265978976E+03  0.14265978976E+03  0.00000000000E+00 0.  1.
          1   -1    0    0  502    0  0.00000000000E+00 -0.00000000000E+00 -0.47691392988E+03  0.47691392988E+03  0.00000000000E+00 0. -1.
        -24    2    1    2    0    0  0.37830588892E+02 -0.50712624720E+02  0.10787218951E+03  0.14708086631E+03  0.77417363705E+02 0.  0.
         23    2    1    2    0    0 -0.43864634903E+02  0.73796879624E+02 -0.25612449818E+03  0.28496692488E+03  0.90754085698E+02 0.  0.
         13    1    3    3    0    0  0.38346718735E+02 -0.69779991667E+02  0.76826403669E+02  0.11064363685E+03  0.00000000000E+00 0. -1.
        -14    1    3    3    0    0 -0.51612984245E+00  0.19067366946E+02  0.31045785841E+02  0.36437229461E+02  0.00000000000E+00 0.  1.
        -13    1    4    4    0    0 -0.44973756140E+02 -0.35310645573E+01 -0.68404551662E+02  0.81940770355E+02  0.00000000000E+00 0. -1.
         13    1    4    4    0    0  0.11091212368E+01  0.77327944181E+02 -0.18771994652E+03  0.20302615453E+03  0.00000000000E+00 0.  1.
         21    1    1    2  502  501  0.60340460107E+01 -0.23084254904E+02 -0.18600183145E+03  0.18752592844E+03  0.00000000000E+00 0. -1.
<scales pt_clust_5="13000.00000" pt_clust_6="13000.00000" pt_clust_7="13000.00000" pt_clust_8="13000.00000" pt_clust_9="23.85985"></scales>
<clustering>
<clus scale="   23.860">  2  9  1 -1</clus>
<clus scale="   77.417">  5  6 -1 -1</clus>
<clus scale="   90.754">  7  8 -1 -1</clus>
<clus scale="  100.936">  1  5  2 -1</clus>
<clus scale="   23.860">  2  5  1 -1</clus>
</clustering>
</event>
<event>
 9    1  0.2374319E-005  0.1021219E+03  0.7546771E-02  0.1284187E+00
         -2   -1    0    0    0  501 -0.00000000000E+00  0.00000000000E+00  0.88503438259E+02  0.88503438259E+02  0.00000000000E+00 0.  1.
          1   -1    0    0  502    0  0.00000000000E+00 -0.00000000000E+00 -0.44017362199E+03  0.44017362199E+03  0.00000000000E+00 0. -1.
         23    2    1    2    0    0  0.15665794816E+02 -0.34191336922E+02  0.49195316097E+02  0.11388253736E+03  0.95575041413E+02 0.  0.
        -24    2    1    2    0    0  0.51385322221E+01  0.24636411673E+02 -0.29977808095E+03  0.31114712604E+03  0.79449851658E+02 0.  0.
         11    1    4    4    0    0 -0.13057122350E+02 -0.21061441999E+02 -0.42393802438E+02  0.49105063571E+02  0.00000000000E+00 0. -1.
        -12    1    4    4    0    0  0.18195654572E+02  0.45697853672E+02 -0.25738427851E+03  0.26204206247E+03  0.00000000000E+00 0.  1.
        -13    1    3    3    0    0  0.30317072815E+02 -0.15702400143E+02  0.72863316115E+02  0.80465850580E+02  0.00000000000E+00 0.  1.
         13    1    3    3    0    0 -0.14651277999E+02 -0.18488936779E+02 -0.23668000018E+02  0.33416686776E+02  0.00000000000E+00 0. -1.
         21    1    1    2  502  501 -0.20804327038E+02  0.95549252488E+01 -0.10108741887E+03  0.10364739685E+03  0.00000000000E+00 0. -1.
<scales pt_clust_5="13000.00000" pt_clust_6="13000.00000" pt_clust_7="13000.00000" pt_clust_8="13000.00000" pt_clust_9="22.89359"></scales>
<clustering>
<clus scale="   22.894">  2  9  1 -1</clus>
<clus scale="   79.450">  5  6 -1 -1</clus>
<clus scale="   87.216">  2  5  1 -1</clus>
<clus scale="   95.575">  7  8 -1 -1</clus>
<clus scale="   22.894">  2  5  1 -1</clus>
</clustering>
</event>
<event>
 9    1  0.2374319E-005  0.1300113E+03  0.7546771E-02  0.1230071E+00
         -2   -1    0    0    0  501 -0.00000000000E+00  0.00000000000E+00  0.17500851200E+03  0.17500851200E+03  0.00000000000E+00 0.  1.
          1   -1    0    0  502    0  0.00000000000E+00 -0.00000000000E+00 -0.66377989509E+03  0.66377989509E+03  0.00000000000E+00 0. -1.
        -24    2    1    2    0    0  0.73054163879E+02 -0.57110639577E+02  0.13726444013E+03  0.18392540331E+03  0.79928039162E+02 0.  0.
         23    2    1    2    0    0 -0.74717747878E+02  0.92804965830E+02 -0.56206312324E+03  0.58158709517E+03  0.90183652841E+02 0.  0.
         11    1    3    3    0    0  0.68496349531E+01 -0.22852548833E+02  0.95593744813E+02  0.98525735392E+02  0.00000000000E+00 0. -1.
        -12    1    3    3    0    0  0.66204528926E+02 -0.34258090744E+02  0.41670695317E+02  0.85399667914E+02  0.00000000000E+00 0.  1.
        -13    1    4    4    0    0 -0.75827668967E+02  0.22912393187E+02 -0.31726764412E+03  0.32700698945E+03  0.00000000000E+00 0. -1.
         13    1    4    4    0    0  0.11099210886E+01  0.69892572643E+02 -0.24479547911E+03  0.25458010572E+03  0.00000000000E+00 0.  1.
         21    1    1    2  502  501  0.16635839996E+01 -0.35694326253E+02 -0.63972699991E+02  0.73275908609E+02  0.00000000000E+00 0.  1.
<scales pt_clust_5="13000.00000" pt_clust_6="13000.00000" pt_clust_7="13000.00000" pt_clust_8="13000.00000" pt_clust_9="35.73307"></scales>
<clustering>
<clus scale="   35.733">  2  9  1 -1</clus>
<clus scale="   79.928">  5  6 -1 -1</clus>
<clus scale="   90.184">  7  8 -1 -1</clus>
<clus scale="  123.119">  1  5  2 -1</clus>
<clus scale="   35.733">  2  5  1 -1</clus>
</clustering>
</event>
<event>
 9    1  0.2374319E-005  0.1254084E+03  0.7546771E-02  0.1240656E+00
          1   -1    0    0  502    0  0.00000000000E+00  0.00000000000E+00  0.32385990880E+03  0.32385990880E+03  0.00000000000E+00 0. -1.
         -2   -1    0    0    0  501 -0.00000000000E+00 -0.00000000000E+00 -0.53481982687E+02  0.53481982687E+02  0.00000000000E+00 0.  1.
         23    2    1    2    0    0  0.22148416815E+02  0.57425118539E+02  0.10713349644E+03  0.15909673384E+03  0.10022967650E+03 0.  0.
        -24    2    1    2    0    0 -0.33485486651E+02 -0.79917215826E+02  0.14455570453E+03  0.18688129245E+03  0.80747919819E+02 0.  0.
         11    1    4    4    0    0  0.15909438581E+02 -0.49511566979E+02  0.10346100245E+03  0.11579587440E+03  0.00000000000E+00 0. -1.
        -12    1    4    4    0    0 -0.49394925232E+02 -0.30405648848E+02  0.41094702081E+02  0.71085418052E+02  0.00000000000E+00 0.  1.
        -13    1    3    3    0    0 -0.30751532404E+02  0.10473324431E+01  0.52694349277E+01  0.31217312423E+02  0.00000000000E+00 0.  1.
         13    1    3    3    0    0  0.52899949219E+02  0.56377786096E+02  0.10186406152E+03  0.12787942141E+03  0.00000000000E+00 0. -1.
         21    1    1    2  502  501  0.11337069836E+02  0.22492097288E+02  0.18688725141E+02  0.31363865200E+02  0.00000000000E+00 0.  1.
<scales pt_clust_5="13000.00000" pt_clust_6="13000.00000" pt_clust_7="13000.00000" pt_clust_8="13000.00000" pt_clust_9="25.18777"></scales>
<clustering>
<clus scale="   25.188">  2  9  1 -1</clus>
<clus scale="   80.748">  5  6 -1 -1</clus>
<clus scale="  100.230">  7  8 -1 -1</clus>
<clus scale="  110.460">  1  5  2 -1</clus>
<clus scale="  110.460">  1  5  2 -1</clus>
</clustering>
</event>
<event>
 9    1  0.2374319E-005  0.1769231E+03  0.7546771E-02  0.1206198E+00
         -2   -1    0    0    0  501 -0.00000000000E+00  0.00000000000E+00  0.16348846853E+03  0.16348846853E+03  0.00000000000E+00 0.  1.
          1   -1    0    0  502    0  0.00000000000E+00 -0.00000000000E+00 -0.58920044722E+03  0.58920044722E+03  0.00000000000E+00 0. -1.
        -24    2    1    2    0    0  0.47714078152E+01 -0.12391534140E+02 -0.43965969627E+02  0.91970916946E+02  0.79682662028E+02 0.  0.
         23    2    1    2    0    0 -0.15239182833E+03  0.78414162853E+01 -0.46037851021E+03  0.49339925400E+03  0.90607361880E+02 0.  0.
         11    1    3    3    0    0  0.33719849929E+01  0.29615047524E+02 -0.39815984294E+02  0.49736645725E+02  0.00000000000E+00 0. -1.
        -12    1    3    3    0    0  0.13994228223E+01 -0.42006581664E+02 -0.41499853329E+01  0.42234271221E+02  0.00000000000E+00 0.  1.
        -13    1    4    4    0    0 -0.39679498081E+02  0.29211178099E+02 -0.64097873018E+02  0.80847342686E+02  0.00000000000E+00 0.  1.
         13    1    4    4    0    0 -0.11271233025E+03 -0.21369761814E+02 -0.39628063719E+03  0.41255191131E+03  0.00000000000E+00 0. -1.
         21    1    1    2  502  501  0.14762042051E+03  0.45501178544E+01  0.78632501147E+02  0.16731874480E+03  0.00000000000E+00 0.  1.
<scales pt_clust_5="13000.00000" pt_clust_6="13000.00000" pt_clust_7="13000.00000" pt_clust_8="13000.00000" pt_clust_9="151.96082"></scales>
<clustering>
<clus scale="   79.683">  5  6 -1 -1</clus>
<clus scale="   80.781">  1  5  2 -1</clus>
<clus scale="   90.607">  7  8 -1 -1</clus>
<clus scale="  151.961">  1  9  2 -1</clus>
<clus scale="  176.923">  2  5  1 -1</clus>
</clustering>
</event>
<event>
 9    1  0.2374319E-005  0.1130155E+03  0.7546771E-02  0.1258702E+00
          1   -1    0    0  502    0  0.00000000000E+00  0.00000000000E+00  0.46843974361E+03  0.46843974361E+03  0.00000000000E+00 0. -1.
         -2   -1    0    0    0  501 -0.00000000000E+00 -0.00000000000E+00 -0.21571602695E+03  0.21571602695E+03  0.00000000000E+00 0.  1.
        -24    2    1    2    0    0  0.18073608227E+00 -0.67434881926E+02 -0.18561720024E+03  0.21336505972E+03  0.80767615530E+02 0.  0.
         23    2    1    2    0    0 -0.41778263239E+02  0.67097669530E+02  0.38370560993E+03  0.40212132359E+03  0.90686510866E+02 0.  0.
         11    1    3    3    0    0 -0.25366461982E+02 -0.12251416364E+02 -0.12258926432E+03  0.12578426898E+03  0.00000000000E+00 0. -1.
        -12    1    3    3    0    0  0.25547198064E+02 -0.55183465562E+02 -0.63027935924E+02  0.87580790743E+02  0.00000000000E+00 0.  1.
        -11    1    4    4    0    0  0.19848819330E+01 -0.20945119004E+02  0.88783753328E+02  0.91242493507E+02  0.00000000000E+00 0.  1.
         11    1    4    4    0    0 -0.43763145172E+02  0.88042788533E+02  0.29492185661E+03  0.31087883008E+03  0.00000000000E+00 0. -1.
         21    1    1    2  502  501  0.41597527157E+02  0.33721239605E+00  0.54635306968E+02  0.68669387250E+02  0.00000000000E+00 0.  1.
<scales pt_clust_5="13000.00000" pt_clust_6="13000.00000" pt_clust_7="13000.00000" pt_clust_8="13000.00000" pt_clust_9="41.59889"></scales>
<clustering>
<clus scale="   41.599">  1  9  2 -1</clus>
<clus scale="   80.768">  5  6 -1 -1</clus>
<clus scale="   90.687">  7  8 -1 -1</clus>
<clus scale="  105.223">  2  5  1 -1</clus>
<clus scale="   41.599">  1  5  2 -1</clus>
</clustering>
</event>
<event>
 9    1  0.2374319E-005  0.1066196E+03  0.7546771E-02  0.1271765E+00
          1   -1    0    0  502    0  0.00000000000E+00  0.00000000000E+00  0.21654529809E+03  0.21654529809E+03  0.00000000000E+00 0. -1.
         -2   -1    0    0    0  501 -0.00000000000E+00 -0.00000000000E+00 -0.76549080792E+02  0.76549080792E+02  0.00000000000E+00 0.  1.
        -24    2    1    2    0    0  0.44233090045E+02 -0.14222035035E+02  0.94880333593E+01  0.92976783113E+02  0.79973913782E+02 0.  0.
         23    2    1    2    0    0 -0.76140490238E+02  0.12194574316E+02  0.97935513843E+02  0.15447582081E+03  0.91243259739E+02 0.  0.
         11    1    3    3    0    0  0.35618928740E+02  0.15124257680E+02  0.35735799051E+02  0.52673509364E+02  0.00000000000E+00 0. -1.
        -12    1    3    3    0    0  0.86141613042E+01 -0.29346292715E+02 -0.26247765691E+02  0.40303273749E+02  0.00000000000E+00 0.  1.
        -13    1    4    4    0    0 -0.40810989489E+02 -0.54245498856E+01 -0.75393251835E+01  0.41854558041E+02  0.00000000000E+00 0.  1.
         13    1    4    4    0    0 -0.35329500748E+02  0.17619124202E+02  0.10547483903E+03  0.11262126277E+03  0.00000000000E+00 0. -1.
         21    1    1    2  502  501  0.31907400193E+02  0.20274607194E+01  0.32572670099E+02  0.45641774959E+02  0.00000000000E+00 0.  1.
<scales pt_clust_5="13000.00000" pt_clust_6="13000.00000" pt_clust_7="13000.00000" pt_clust_8="13000.00000" pt_clust_9="31.97175"></scales>
<clustering>
<clus scale="   31.972">  1  9  2 -1</clus>
<clus scale="   79.974">  5  6 -1 -1</clus>
<clus scale="   91.243">  7  8 -1 -1</clus>
<clus scale="   97.151">  2  5  1 -1</clus>
<clus scale="   31.972">  1  5  2 -1</clus>
</clustering>
</event>
<event>
 9    1  0.2374319E-005  0.4297346E+03  0.7546771E-02  0.1050308E+00
          1   -1    0    0  502    0  0.00000000000E+00  0.00000000000E+00  0.13584314545E+04  0.13584314545E+04  0.00000000000E+00 0. -1.
         -2   -1    0    0    0  501 -0.00000000000E+00 -0.00000000000E+00 -0.29010294308E+03  0.29010294308E+03  0.00000000000E+00 0.  1.
        -24    2    1    2    0    0 -0.60128336301E+02  0.24795674348E+03  0.12398763505E+03  0.29481040113E+03  0.80263787033E+02 0.  0.
         23    2    1    2    0    0  0.41980482571E+03  0.76732500559E+01  0.16956984545E+03  0.46210523207E+03  0.92153906930E+02 0.  0.
         11    1    3    3    0    0  0.14644880921E+02  0.37101944383E+02  0.18710738082E+01  0.39931538054E+02  0.00000000000E+00 0. -1.
        -12    1    3    3    0    0 -0.74773217222E+02  0.21085479909E+03  0.12211656125E+03  0.25487886308E+03  0.00000000000E+00 0.  1.
        -11    1    4    4    0    0  0.15032601751E+02  0.15398386940E+02 -0.35272230404E+01  0.21806667286E+02  0.00000000000E+00 0. -1.
         11    1    4    4    0    0  0.40477222396E+03 -0.77251368840E+01  0.17309706849E+03  0.44029856478E+03  0.00000000000E+00 0.  1.
         21    1    1    2  502  501 -0.35967648941E+03 -0.25562999353E+03  0.77477103096E+03  0.89161876440E+03  0.00000000000E+00 0. -1.
<scales pt_clust_5="13000.00000" pt_clust_6="13000.00000" pt_clust_7="13000.00000" pt_clust_8="13000.00000" pt_clust_9="419.73740"></scales>
<clustering>
<clus scale="   80.264">  5  6 -1 -1</clus>
<clus scale="   92.154">  7  8 -1 -1</clus>
<clus scale="  267.470">  2  5  1 -1</clus>
<clus scale="  419.737">  1  9  2 -1</clus>
<clus scale="  419.737">  1  5  2 -1</clus>
</clustering>
</event>
<event>
 9    1  0.2374319E-005  0.1722797E+03  0.7546771E-02  0.1177135E+00
         -2   -1    0    0    0  501 -0.00000000000E+00  0.00000000000E+00  0.99453856223E+03  0.99453856223E+03  0.00000000000E+00 0.  1.
          1   -1    0    0  502    0  0.00000000000E+00 -0.00000000000E+00 -0.37998822710E+02  0.37998822710E+02  0.00000000000E+00 0. -1.
        -24    2    1    2    0    0  0.15804649070E+03 -0.18595366633E+02  0.61023319174E+03  0.63562612230E+03  0.79445189669E+02 0.  0.
         23    2    1    2    0    0 -0.12600044195E+03  0.92588141205E+00  0.29771562963E+03  0.33608168699E+03  0.91865856397E+02 0.  0.
         13    1    3    3    0    0  0.15357482870E+03 -0.37766083885E+02  0.54624301815E+03  0.56867648094E+03  0.00000000000E+00 0. -1.
        -14    1    3    3    0    0  0.44716619998E+01  0.19170717252E+02  0.63990173597E+02  0.66949641358E+02  0.00000000000E+00 0.  1.
        -11    1    4    4    0    0 -0.20847041806E+02  0.37380811176E+02  0.61108744992E+02  0.74606989691E+02  0.00000000000E+00 0.  1.
         11    1    4    4    0    0 -0.10515340015E+03 -0.36454929764E+02  0.23660688464E+03  0.26147469730E+03  0.00000000000E+00 0. -1.
         21    1    1    2  502  501 -0.32046048744E+02  0.17669485220E+02  0.48590918146E+02  0.60829575655E+02  0.00000000000E+00 0.  1.
<scales pt_clust_5="13000.00000" pt_clust_6="13000.00000" pt_clust_7="13000.00000" pt_clust_8="13000.00000" pt_clust_9="36.59453"></scales>
<clustering>
<clus scale="   36.595">  2  9  1 -1</clus>
<clus scale="   79.445">  5  6 -1 -1</clus>
<clus scale="   91.866">  7  8 -1 -1</clus>
<clus scale="  165.989">  1  5  2 -1</clus>
<clus scale="   36.595">  2  5  1 -1</clus>
</clustering>
</event>
<event>
 9    1  0.2374319E-005  0.1242945E+03  0.7546771E-02  0.1238989E+00
          1   -1    0    0  502    0  0.00000000000E+00  0.00000000000E+00  0.41591510849E+03  0.41591510849E+03  0.00000000000E+00 0. -1.
         -2   -1    0    0    0  501 -0.00000000000E+00 -0.00000000000E+00 -0.84250327985E+02  0.84250327985E+02  0.00000000000E+00 0.  1.
        -24    2    1    2    0    0 -0.81524317154E+02  0.28618371746E+01 -0.17039607603E+02  0.11709776510E+03  0.82262591531E+02 0.  0.
         23    2    1    2    0    0  0.94883702330E+02 -0.19599899307E+02  0.26594517940E+03  0.29758245323E+03  0.91877119019E+02 0.  0.
         13    1    3    3    0    0 -0.18513774061E+02 -0.35364099700E+02  0.48646264760E+01  0.40212485229E+02  0.00000000000E+00 0. -1.
        -14    1    3    3    0    0 -0.63010543092E+02  0.38225936874E+02 -0.21904234079E+02  0.76885279874E+02  0.00000000000E+00 0.  1.
        -11    1    4    4    0    0  0.60359162582E+02  0.18827915847E+02  0.67349202458E+02  0.92377670432E+02  0.00000000000E+00 0. -1.
         11    1    4    4    0    0  0.34524539748E+02 -0.38427815154E+02  0.19859597695E+03  0.20520478279E+03  0.00000000000E+00 0.  1.
         21    1    1    2  502  501 -0.13359385177E+02  0.16738062133E+02  0.82759208699E+02  0.85485218142E+02  0.00000000000E+00 0. -1.
<scales pt_clust_5="13000.00000" pt_clust_6="13000.00000" pt_clust_7="13000.00000" pt_clust_8="13000.00000" pt_clust_9="21.41579"></scales>
<clustering>
<clus scale="   21.416">  1  9  2 -1</clus>
<clus scale="   82.263">  5  6 -1 -1</clus>
<clus scale="   91.877">  7  8 -1 -1</clus>
<clus scale="  117.366">  2  5  1 -1</clus>
<clus scale="   21.416">  1  5  2 -1</clus>
</clustering>
</event>
<event>
 9    1  0.2374319E-005  0.1301186E+03  0.7546771E-02  0.1231069E+00
         -4   -1    0    0    0  501 -0.00000000000E+00  0.00000000000E+00  0.19384720726E+03  0.19384720726E+03  0.00000000000E+00 0.  1.
          3   -1    0    0  502    0  0.00000000000E+00 -0.00000000000E+00 -0.11452231616E+03  0.11452231616E+03  0.00000000000E+00 0. -1.
         23    2    1    2    0    0  0.88346132585E+02  0.50176214414E+01  0.69415752039E+02  0.14505096224E+03  0.91602507330E+02 0.  0.
        -24    2    1    2    0    0 -0.97329633918E+02  0.12882156976E+02  0.36503610956E+02  0.13002635038E+03  0.77041096658E+02 0.  0.
         11    1    4    4    0    0 -0.37337424642E+02 -0.21887052296E+02 -0.12581859922E+02  0.45071382675E+02  0.00000000000E+00 0. -1.
        -12    1    4    4    0    0 -0.59992209275E+02  0.34769209272E+02  0.49085470878E+02  0.84954967709E+02  0.00000000000E+00 0.  1.
        -13    1    3    3    0    0  0.47788499068E+02  0.33004126172E+02  0.75659928983E+02  0.95380489836E+02  0.00000000000E+00 0.  1.
         13    1    3    3    0    0  0.40557633517E+02 -0.27986504731E+02 -0.62441769441E+01  0.49670472408E+02  0.00000000000E+00 0. -1.
         21    1    1    2  502  501  0.89835013332E+01 -0.17899778417E+02 -0.26594471902E+02  0.33292210791E+02  0.00000000000E+00 0. -1.
<scales pt_clust_5="13000.00000" pt_clust_6="13000.00000" pt_clust_7="13000.00000" pt_clust_8="13000.00000" pt_clust_9="20.02762"></scales>
<clustering>
<clus scale="   20.028">  2  9  1 -1</clus>
<clus scale="   77.041">  5  6 -1 -1</clus>
<clus scale="   91.603">  7  8 -1 -1</clus>
<clus scale="  120.313">  2  5  1 -1</clus>
<clus scale="   20.028">  2  5  1 -1</clus>
</clustering>
</event>
<event>
 9    1  0.2374319E-005  0.1229495E+03  0.7546771E-02  0.1244028E+00
          1   -1    0    0  502    0  0.00000000000E+00  0.00000000000E+00  0.62825806645E+02  0.62825806645E+02  0.00000000000E+00 0. -1.
         -2   -1    0    0    0  501 -0.00000000000E+00 -0.00000000000E+00 -0.97611732942E+03  0.97611732942E+03  0.00000000000E+00 0.  1.
        -24    2    1    2    0    0 -0.17838686407E+02  0.31508959153E+02 -0.29490653000E+03  0.30758375862E+03  0.79541648763E+02 0.  0.
         23    2    1    2    0    0  0.91125715975E+02  0.14737368947E+02 -0.30994552159E+02  0.13761091110E+03  0.97236898525E+02 0.  0.
         11    1    3    3    0    0 -0.35692224746E+01  0.49290616250E+02 -0.10207449167E+03  0.11340858014E+03  0.00000000000E+00 0. -1.
        -12    1    3    3    0    0 -0.14269463933E+02 -0.17781657097E+02 -0.19283203833E+03  0.19417517848E+03  0.00000000000E+00 0.  1.
        -13    1    4    4    0    0  0.21640666477E+02 -0.53211059919E+00 -0.57695090258E+02  0.61622439315E+02  0.00000000000E+00 0.  1.
         13    1    4    4    0    0  0.69485049499E+02  0.15269479546E+02  0.26700538099E+02  0.75988471785E+02  0.00000000000E+00 0. -1.
         21    1    1    2  502  501 -0.73287029568E+02 -0.46246328100E+02 -0.58739044061E+03  0.59374846635E+03  0.00000000000E+00 0.  1.
<scales pt_clust_5="13000.00000" pt_clust_6="13000.00000" pt_clust_7="13000.00000" pt_clust_8="13000.00000" pt_clust_9="86.65859"></scales>
<clustering>
<clus scale="   79.542">  5  6 -1 -1</clus>
<clus scale="   86.659">  2  9  1 -1</clus>
<clus scale="   97.237">  7  8 -1 -1</clus>
<clus scale="  109.492">  2  5  1 -1</clus>
<clus scale="  122.949">  1  5  2 -1</clus>
</clustering>
</event>
<event>
 9    1  0.2374319E-005  0.9607754E+02  0.7546771E-02  0.1296204E+00
         -2   -1    0    0    0  501 -0.00000000000E+00  0.00000000000E+00  0.15653671220E+03  0.15653671220E+03  0.00000000000E+00 0.  1.
          1   -1    0    0  502    0  0.00000000000E+00 -0.00000000000E+00 -0.22108157191E+03  0.22108157191E+03  0.00000000000E+00 0. -1.
        -24    2    1    2    0    0 -0.21486674518E+02 -0.20622406734E+02  0.12249206870E+03  0.14814865025E+03  0.77825155547E+02 0.  0.
         23    2    1    2    0    0  0.47161717896E+02  0.77303085010E+01 -0.13150822235E+03  0.16694882736E+03  0.91068727378E+02 0.  0.
         11    1    3    3    0    0  0.13735387800E+02  0.22965776924E+02  0.47661953933E+02  0.54660311383E+02  0.00000000000E+00 0. -1.
        -12    1    3    3    0    0 -0.35222062318E+02 -0.43588183659E+02  0.74830114769E+02  0.93488338871E+02  0.00000000000E+00 0.  1.
        -13    1    4    4    0    0 -0.13180852730E+02 -0.28316821543E+02 -0.28758631022E+02  0.42457462468E+02  0.00000000000E+00 0.  1.
         13    1    4    4    0    0  0.60342570625E+02  0.36047130044E+02 -0.10274959133E+03  0.12449136489E+03  0.00000000000E+00 0. -1.
         21    1    1    2  502  501 -0.25675043378E+02  0.12892098234E+02 -0.55528706052E+02  0.62520806497E+02  0.00000000000E+00 0.  1.
<scales pt_clust_5="13000.00000" pt_clust_6="13000.00000" pt_clust_7="13000.00000" pt_clust_8="13000.00000" pt_clust_9="28.73002"></scales>
<clustering>
<clus scale="   28.730">  2  9  1 -1</clus>
<clus scale="   77.825">  5  6 -1 -1</clus>
<clus scale="   83.631">  1  5  2 -1</clus>
<clus scale="   91.069">  7  8 -1 -1</clus>
<clus scale="   28.730">  2  5  1 -1</clus>
</clustering>
</event>
<event>
 9    1  0.2374319E-005  0.1293552E+03  0.7546771E-02  0.1231676E+00
          1   -1    0    0  502    0  0.00000000000E+00  0.00000000000E+00  0.10493930529E+04  0.10493930529E+04  0.00000000000E+00 0. -1.
         -2   -1    0    0    0  501 -0.00000000000E+00 -0.00000000000E+00 -0.70984993718E+02  0.70984993718E+02  0.00000000000E+00 0.  1.
         23    2    1    2    0    0  0.68814260951E+02 -0.50247092785E+02  0.13483392275E+02  0.12635142462E+03  0.92318512725E+02 0.  0.
        -24    2    1    2    0    0 -0.11838973569E+03  0.92754976590E+02  0.76338849346E+03  0.78217413302E+03  0.80092241914E+02 0.  0.
         13    1    4    4    0    0 -0.81794822276E+02  0.15135748517E+02  0.42583969416E+03  0.43388815259E+03  0.00000000000E+00 0. -1.
        -14    1    4    4    0    0 -0.36594913419E+02  0.77619228072E+02  0.33754879930E+03  0.34828598043E+03  0.00000000000E+00 0.  1.
        -13    1    3    3    0    0  0.24986154070E+02 -0.57797859689E+02  0.39975507611E+02  0.74585130480E+02  0.00000000000E+00 0.  1.
         13    1    3    3    0    0  0.43828106880E+02  0.75507669041E+01 -0.26492115337E+02  0.51766294136E+02  0.00000000000E+00 0. -1.
         21    1    1    2  502  501  0.49575474744E+02 -0.42507883804E+02  0.20153617345E+03  0.21185248899E+03  0.00000000000E+00 0.  1.
<scales pt_clust_5="13000.00000" pt_clust_6="13000.00000" pt_clust_7="13000.00000" pt_clust_8="13000.00000" pt_clust_9="65.30427"></scales>
<clustering>
<clus scale="   65.304">  1  9  2 -1</clus>
<clus scale="   80.092">  5  6 -1 -1</clus>
<clus scale="   92.319">  7  8 -1 -1</clus>
<clus scale="  120.933">  1  5  2 -1</clus>
<clus scale="   65.304">  1  5  2 -1</clus>
</clustering>
</event>
<event>
 9    1  0.6483801E-005  0.9969808E+02  0.7546771E-02  0.1284545E+00
          1   -1    0    0  502    0  0.00000000000E+00  0.00000000000E+00  0.53257014335E+03  0.53257014335E+03  0.00000000000E+00 0. -1.
         -2   -1    0    0    0  501 -0.00000000000E+00 -0.00000000000E+00 -0.70942179337E+03  0.70942179337E+03  0.00000000000E+00 0.  1.
        -24    2    1    2    0    0 -0.46375406681E+02  0.84245927871E+01 -0.68094113168E+03  0.68724066466E+03  0.79982837186E+02 0.  0.
         23    2    1    2    0    0  0.11849467216E+03 -0.51784666398E+01  0.41297500346E+03  0.43850337346E+03  0.87573119220E+02 0.  0.
         11    1    3    3    0    0 -0.23588910303E+00 -0.27236570118E+02 -0.10970393771E+03  0.11303468647E+03  0.00000000000E+00 0. -1.
        -12    1    3    3    0    0 -0.46139517578E+02  0.35661162905E+02 -0.57123719396E+03  0.57420597819E+03  0.00000000000E+00 0.  1.
        -13    1    4    4    0    0  0.18714961159E+02  0.35096536270E+02  0.10605945135E+03  0.11327234371E+03  0.00000000000E+00 0.  1.
         13    1    4    4    0    0  0.99779711002E+02 -0.40275002910E+02  0.30691555211E+03  0.32523102975E+03  0.00000000000E+00 0. -1.
         21    1    1    2  502  501 -0.72119265480E+02 -0.32461261474E+01  0.91114478207E+02  0.11624789859E+03  0.00000000000E+00 0.  1.
<scales pt_clust_5="13000.00000" pt_clust_6="13000.00000" pt_clust_7="13000.00000" pt_clust_8="13000.00000" pt_clust_9="72.19228"></scales>
<clustering>
<clus scale="   72.192">  1  9  2 -1</clus>
<clus scale="   79.983">  5  6 -1 -1</clus>
<clus scale="   87.573">  7  8 -1 -1</clus>
<clus scale="   93.102">  2  5  1 -1</clus>
<clus scale="   72.192">  1  5  2 -1</clus>
</clustering>
</event>
<event>
 9    1  0.2374319E-005  0.9741663E+02  0.7546771E-02  0.1291885E+00
          1   -1    0    0  502    0  0.00000000000E+00  0.00000000000E+00  0.19150114555E+03  0.19150114555E+03  0.00000000000E+00 0. -1.
         -2   -1    0    0    0  501 -0.00000000000E+00 -0.00000000000E+00 -0.12479299506E+03  0.12479299506E+03  0.00000000000E+00 0.  1.
        -24    2    1    2    0    0 -0.36697798757E+02 -0.62715163679E+02 -0.15704477624E+02  0.10749723329E+03  0.77647307476E+02 0.  0.
         23    2    1    2    0    0  0.20872586389E+02  0.22219875843E+02  0.11910524803E+03  0.15190530831E+03  0.89217570238E+02 0.  0.
         13    1    3    3    0    0 -0.17276516058E+02  0.14906311172E+02  0.77793384835E+01  0.24107970199E+02  0.00000000000E+00 0. -1.
        -14    1    3    3    0    0 -0.19421282699E+02 -0.77621474851E+02 -0.23483816108E+02  0.83389263090E+02  0.00000000000E+00 0.  1.
        -11    1    4    4    0    0 -0.30953013949E+02 -0.98585405865E+01  0.51419336589E+02  0.60821279749E+02  0.00000000000E+00 0.  1.
         11    1    4    4    0    0  0.51825600339E+02  0.32078416429E+02  0.67685911436E+02  0.91084028556E+02  0.00000000000E+00 0. -1.
         21    1    1    2  502  501  0.15825212368E+02  0.40495287836E+02 -0.36692619910E+02  0.56891599022E+02  0.00000000000E+00 0. -1.
<scales pt_clust_5="13000.00000" pt_clust_6="13000.00000" pt_clust_7="13000.00000" pt_clust_8="13000.00000" pt_clust_9="43.47765"></scales>
<clustering>
<clus scale="   43.478">  2  9  1 -1</clus>
<clus scale="   77.647">  5  6 -1 -1</clus>
<clus scale="   86.944">  2  5  1 -1</clus>
<clus scale="   89.218">  7  8 -1 -1</clus>
<clus scale="   97.417">  1  5  2 -1</clus>
</clustering>
</event>
<event>
 9    1  0.2374319E-005  0.1539479E+03  0.7546771E-02  0.1207641E+00
         -2   -1    0    0    0  501 -0.00000000000E+00  0.00000000000E+00  0.53766285367E+02  0.53766285367E+02  0.00000000000E+00 0.  1.
          1   -1    0    0  502    0  0.00000000000E+00 -0.00000000000E+00 -0.10623937966E+04  0.10623937966E+04  0.00000000000E+00 0. -1.
        -24    2    1    2    0    0  0.29505414991E+02 -0.83455038017E+02 -0.83963189084E+02  0.14553775829E+03  0.79348025070E+02 0.  0.
         23    2    1    2    0    0 -0.13418303249E+03  0.19262872547E+01 -0.45324194594E+03  0.48088423286E+03  0.88388840160E+02 0.  0.
         11    1    3    3    0    0  0.51793633583E+02 -0.27814975624E+02 -0.37951590899E+02  0.69975542874E+02  0.00000000000E+00 0. -1.
        -12    1    3    3    0    0 -0.22288218592E+02 -0.55640062392E+02 -0.46011598185E+02  0.75562215415E+02  0.00000000000E+00 0.  1.
        -13    1    4    4    0    0 -0.29399387521E+02 -0.29336593858E+02 -0.61824204061E+02  0.74479473237E+02  0.00000000000E+00 0.  1.
         13    1    4    4    0    0 -0.10478364497E+03  0.31262881113E+02 -0.39141774188E+03  0.40640475962E+03  0.00000000000E+00 0. -1.
         21    1    1    2  502  501  0.10467761750E+03  0.81528750762E+02 -0.47142237622E+03  0.48973809083E+03  0.00000000000E+00 0. -1.
<scales pt_clust_5="13000.00000" pt_clust_6="13000.00000" pt_clust_7="13000.00000" pt_clust_8="13000.00000" pt_clust_9="126.04512"></scales>
<clustering>
<clus scale="   79.348">  5  6 -1 -1</clus>
<clus scale="   88.389">  7  8 -1 -1</clus>
<clus scale="  118.876">  1  5  2 -1</clus>
<clus scale="  126.045">  2  9  1 -1</clus>
<clus scale="  126.045">  2  5  1 -1</clus>
</clustering>
</event>
<event>
 9    1  0.2374319E-005  0.1372978E+03  0.7546771E-02  0.1239521E+00
         -2   -1    0    0    0  501 -0.00000000000E+00  0.00000000000E+00  0.12959597864E+03  0.12959597864E+03  0.00000000000E+00 0.  1.
          1   -1    0    0  502    0  0.00000000000E+00 -0.00000000000E+00 -0.42639861538E+03  0.42639861538E+03  0.00000000000E+00 0. -1.
        -24    2    1    2    0    0 -0.31751526872E+02 -0.10400491813E+02  0.62814326209E+02  0.10661053669E+03  0.79396708160E+02 0.  0.
         23    2    1    2    0    0 -0.10787263577E+02 -0.96294530636E+02 -0.27830120963E+03  0.30865158686E+03  0.91789090327E+02 0.  0.
         11    1    3    3    0    0 -0.22409032065E+02 -0.35820182720E+02  0.66996667220E+02  0.79207345788E+02  0.00000000000E+00 0. -1.
        -12    1    3    3    0    0 -0.93424948074E+01  0.25419690907E+02 -0.41823410112E+01  0.27403190898E+02  0.00000000000E+00 0.  1.
        -11    1    4    4    0    0 -0.46189113007E+02 -0.84191088703E+02 -0.19744526811E+03  0.21955912068E+03  0.00000000000E+00 0.  1.
         11    1    4    4    0    0  0.35401849430E+02 -0.12103441933E+02 -0.80855941522E+02  0.89092466175E+02  0.00000000000E+00 0. -1.
         21    1    1    2  502  501  0.42538790449E+02  0.10669502245E+03 -0.81315753316E+02  0.14073247047E+03  0.00000000000E+00 0.  1.
<scales pt_clust_5="13000.00000" pt_clust_6="13000.00000" pt_clust_7="13000.00000" pt_clust_8="13000.00000" pt_clust_9="102.10506"></scales>
<clustering>
<clus scale="   79.397">  5  6 -1 -1</clus>
<clus scale="   86.140">  1  5  2 -1</clus>
<clus scale="   91.789">  7  8 -1 -1</clus>
<clus scale="  102.105">  1  9  2 -1</clus>
<clus scale="  137.298">  2  5  1 -1</clus>
</clustering>
</event>
<event>
 9    1  0.2374319E-005  0.9440105E+02  0.7546771E-02  0.1299718E+00
         -2   -1    0    0    0  501 -0.00000000000E+00  0.00000000000E+00  0.10542715349E+03  0.10542715349E+03  0.00000000000E+00 0.  1.
          1   -1    0    0  502    0  0.00000000000E+00 -0.00000000000E+00 -0.14585605023E+03  0.14585605023E+03  0.00000000000E+00 0. -1.
        -24    2    1    2    0    0  0.93749284441E+01  0.11935902792E+02  0.34245256972E+02  0.88832871148E+02  0.80549278783E+02 0.  0.
         23    2    1    2    0    0 -0.29901073744E+02 -0.27425598889E+01 -0.14760996052E+02  0.98454811991E+02  0.92595178891E+02 0.  0.
         13    1    3    3    0    0 -0.23274904023E+02  0.32349226952E+02  0.30423492010E+02  0.50137635642E+02  0.00000000000E+00 0. -1.
        -14    1    3    3    0    0  0.32649832467E+02 -0.20413324160E+02  0.38217649619E+01  0.38695235506E+02  0.00000000000E+00 0.  1.
        -13    1    4    4    0    0  0.26965083762E+02 -0.52237824611E+01  0.17943409432E+02  0.32808071988E+02  0.00000000000E+00 0.  1.
         13    1    4    4    0    0 -0.56866157506E+02  0.24812225722E+01 -0.32704405485E+02  0.65646740003E+02  0.00000000000E+00 0. -1.
         21    1    1    2  502  501  0.20526145300E+02 -0.91933429027E+01 -0.59913157655E+02  0.63995520584E+02  0.00000000000E+00 0.  1.
<scales pt_clust_5="13000.00000" pt_clust_6="13000.00000" pt_clust_7="13000.00000" pt_clust_8="13000.00000" pt_clust_9="22.49089"></scales>
<clustering>
<clus scale="   22.491">  2  9  1 -1</clus>
<clus scale="   80.549">  5  6 -1 -1</clus>
<clus scale="   82.619">  1  5  2 -1</clus>
<clus scale="   92.595">  7  8 -1 -1</clus>
<clus scale="   22.491">  2  5  1 -1</clus>
</clustering>
</event>
<event>
 9    1  0.2374319E-005  0.3462888E+03  0.7546771E-02  0.1064346E+00
         -2   -1    0    0    0  501 -0.00000000000E+00  0.00000000000E+00  0.81108463035E+03  0.81108463035E+03  0.00000000000E+00 0.  1.
          1   -1    0    0  502    0  0.00000000000E+00 -0.00000000000E+00 -0.16461836066E+03  0.16461836066E+03  0.00000000000E+00 0. -1.
         23    2    1    2    0    0  0.30766780002E+03 -0.13435389296E+03  0.41685132295E+03  0.54276410882E+03  0.90096662847E+02 0.  0.
        -24    2    1    2    0    0 -0.29561017201E+03  0.15285627803E+03  0.22574781992E+03  0.41051837112E+03  0.82539925480E+02 0.  0.
         11    1    4    4    0    0 -0.29618667287E+02  0.86122170460E+01 -0.32948701640E+01  0.31020830159E+02  0.00000000000E+00 0. -1.
        -12    1    4    4    0    0 -0.26599150472E+03  0.14424406099E+03  0.22904269009E+03  0.37949754096E+03  0.00000000000E+00 0.  1.
        -13    1    3    3    0    0  0.13945032801E+03 -0.11003788606E+03  0.21249638682E+03  0.27696469949E+03  0.00000000000E+00 0.  1.
         13    1    3    3    0    0  0.16821747202E+03 -0.24316006898E+02  0.20435493613E+03  0.26579940934E+03  0.00000000000E+00 0. -1.
         21    1    1    2  502  501 -0.12057628014E+02 -0.18502385080E+02  0.38671268160E+01  0.22420511073E+02  0.00000000000E+00 0. -1.
<scales pt_clust_5="13000.00000" pt_clust_6="13000.00000" pt_clust_7="13000.00000" pt_clust_8="13000.00000" pt_clust_9="22.08449"></scales>
<clustering>
<clus scale="   22.084">  2  9  1 -1</clus>
<clus scale="   82.540">  5  6 -1 -1</clus>
<clus scale="   90.097">  7  8 -1 -1</clus>
<clus scale="  344.400">  2  5  1 -1</clus>
<clus scale="   22.084">  2  5  1 -1</clus>
</clustering>
</event>
<event>
 9    1  0.2374319E-005  0.1669173E+03  0.7546771E-02  0.1181131E+00
         -2   -1    0    0    0  501 -0.00000000000E+00  0.00000000000E+00  0.27370075878E+03  0.27370075878E+03  0.00000000000E+00 0.  1.
          1   -1    0    0  502    0  0.00000000000E+00 -0.00000000000E+00 -0.45631146984E+03  0.45631146984E+03  0.00000000000E+00 0. -1.
         23    2    1    2    0    0  0.10523662611E+03 -0.11373630180E+03  0.19052237494E+03  0.26203018045E+03  0.91380229214E+02 0.  0.
        -24    2    1    2    0    0  0.21481123705E+02  0.10830356917E+03 -0.12925230097E+03  0.19309163361E+03  0.91581220199E+02 0.  0.
         13    1    4    4    0    0 -0.21461160638E+02  0.36593942222E+02 -0.92539574666E+02  0.10180015178E+03  0.00000000000E+00 0. -1.
        -14    1    4    4    0    0  0.42942284343E+02  0.71709626952E+02 -0.36712726305E+02  0.91291481831E+02  0.00000000000E+00 0.  1.
        -13    1    3    3    0    0  0.49018342723E+02  0.41753693466E+01  0.48944456719E+02  0.69395903885E+02  0.00000000000E+00 0. -1.
         13    1    3    3    0    0  0.56218283388E+02 -0.11791167115E+03  0.14157791823E+03  0.19263427657E+03  0.00000000000E+00 0.  1.
         21    1    1    2  502  501 -0.12671774982E+03  0.54327326282E+01 -0.24388078503E+03  0.27489041455E+03  0.00000000000E+00 0. -1.
<scales pt_clust_5="13000.00000" pt_clust_6="13000.00000" pt_clust_7="13000.00000" pt_clust_8="13000.00000" pt_clust_9="126.83415"></scales>
<clustering>
<clus scale="   91.380">  7  8 -1 -1</clus>
<clus scale="   91.581">  5  6 -1 -1</clus>
<clus scale="  126.834">  2  9  1 -1</clus>
<clus scale="  166.807">  1  7  2 -1</clus>
<clus scale="  126.834">  2  5  1 -1</clus>
</clustering>
</event>
<event>
 9    1  0.2374319E-005  0.2825571E+03  0.7546771E-02  0.1094690E+00
          1   -1    0    0  502    0  0.00000000000E+00  0.00000000000E+00  0.10187309457E+03  0.10187309457E+03  0.00000000000E+00 0. -1.
         -2   -1    0    0    0  501 -0.00000000000E+00 -0.00000000000E+00 -0.95579344629E+03  0.95579344629E+03  0.00000000000E+00 0.  1.
         23    2    1    2    0    0 -0.11743286939E+03  0.24965371922E+03 -0.61060995483E+03  0.67630750385E+03  0.91814293477E+02 0.  0.
        -24    2    1    2    0    0  0.10917887691E+03 -0.22676578537E+03 -0.23877058581E+03  0.35660836444E+03  0.82555341223E+02 0.  0.
         13    1    4    4    0    0  0.48439160985E+02 -0.14968717110E+03 -0.99206485261E+02  0.18599604358E+03  0.00000000000E+00 0. -1.
        -14    1    4    4    0    0  0.60739715925E+02 -0.77078614266E+02 -0.13956410054E+03  0.17061232086E+03  0.00000000000E+00 0.  1.
        -13    1    3    3    0    0 -0.69365604502E+02  0.67870062499E+02 -0.14839949192E+03  0.17731424555E+03  0.00000000000E+00 0.  1.
         13    1    3    3    0    0 -0.48067264892E+02  0.18178365672E+03 -0.46221046291E+03  0.49899325830E+03  0.00000000000E+00 0. -1.
         21    1    1    2  502  501  0.82539924854E+01 -0.22887933848E+02 -0.45398110833E+01  0.24750672566E+02  0.00000000000E+00 0. -1.
<scales pt_clust_5="13000.00000" pt_clust_6="13000.00000" pt_clust_7="13000.00000" pt_clust_8="13000.00000" pt_clust_9="24.33076"></scales>
<clustering>
<clus scale="   24.331">  1  9  2 -1</clus>
<clus scale="   82.555">  5  6 -1 -1</clus>
<clus scale="   91.814">  7  8 -1 -1</clus>
<clus scale="  279.686">  1  5  2 -1</clus>
<clus scale="   24.331">  1  5  2 -1</clus>
</clustering>
</event>
<event>
 9    1  0.2374319E-005  0.1248048E+03  0.7546771E-02  0.1253719E+00
          3   -1    0    0  502    0  0.00000000000E+00  0.00000000000E+00  0.22588841535E+03  0.22588841535E+03  0.00000000000E+00 0. -1.
         -4   -1    0    0    0  501 -0.00000000000E+00 -0.00000000000E+00 -0.16523145580E+03  0.16523145580E+03  0.00000000000E+00 0.  1.
        -24    2    1    2    0    0 -0.56747115989E+01 -0.32466501125E+02 -0.72492683652E+02  0.11264837428E+03  0.79675535753E+02 0.  0.
         23    2    1    2    0    0  0.85852690165E+02 -0.14661461268E+02  0.13746251122E+03  0.18536857578E+03  0.88768936244E+02 0.  0.
         11    1    3    3    0    0 -0.16989802075E+02  0.10631920836E+02  0.72396577332E+01  0.21309710446E+02  0.00000000000E+00 0. -1.
        -12    1    3    3    0    0  0.11315090476E+02 -0.43098421961E+02 -0.79732341385E+02  0.91338663833E+02  0.00000000000E+00 0.  1.
        -11    1    4    4    0    0  0.42218436970E+01  0.29593336253E+02  0.47214139446E+02  0.55881700747E+02  0.00000000000E+00 0. -1.
         11    1    4    4    0    0  0.81630846468E+02 -0.44254797521E+02  0.90248371770E+02  0.12948687503E+03  0.00000000000E+00 0.  1.
         21    1    1    2  502  501 -0.80177978566E+02  0.47127962393E+02 -0.43128680137E+01  0.93102921097E+02  0.00000000000E+00 0. -1.
<scales pt_clust_5="13000.00000" pt_clust_6="13000.00000" pt_clust_7="13000.00000" pt_clust_8="13000.00000" pt_clust_9="87.72866"></scales>
<clustering>
<clus scale="   79.676">  5  6 -1 -1</clus>
<clus scale="   86.223">  2  5  1 -1</clus>
<clus scale="   87.729">  2  9  1 -1</clus>
<clus scale="   88.769">  7  8 -1 -1</clus>
<clus scale="  124.805">  1  5  2 -1</clus>
</clustering>
</event>
<event>
 9    1  0.2374319E-005  0.1272260E+03  0.7546771E-02  0.1234679E+00
          1   -1    0    0  502    0  0.00000000000E+00  0.00000000000E+00  0.84899680706E+02  0.84899680706E+02  0.00000000000E+00 0. -1.
         -2   -1    0    0    0  501 -0.00000000000E+00 -0.00000000000E+00 -0.30940673343E+03  0.30940673343E+03  0.00000000000E+00 0.  1.
        -24    2    1    2    0    0  0.51748618333E+02  0.63687632725E+02 -0.13647764337E+03  0.17808084779E+03  0.79703244290E+02 0.  0.
         23    2    1    2    0    0 -0.26543563680E+02 -0.10443391607E+03 -0.91722657730E+02  0.16817148774E+03  0.90871336243E+02 0.  0.
         13    1    3    3    0    0  0.26744477668E+02  0.69475664483E+02 -0.54729099032E+02  0.92398102372E+02  0.00000000000E+00 0. -1.
        -14    1    3    3    0    0  0.25004140665E+02 -0.57880317577E+01 -0.81748544336E+02  0.85682745422E+02  0.00000000000E+00 0.  1.
        -13    1    4    4    0    0  0.15301359203E+02 -0.97100580342E+02 -0.67840872233E+02  0.11943633552E+03  0.00000000000E+00 0. -1.
         13    1    4    4    0    0 -0.41844922883E+02 -0.73333357238E+01 -0.23881785497E+02  0.48735152226E+02  0.00000000000E+00 0.  1.
         21    1    1    2  502  501 -0.25205054653E+02  0.40746283341E+02  0.36932483767E+01  0.48054078597E+02  0.00000000000E+00 0. -1.
<scales pt_clust_5="13000.00000" pt_clust_6="13000.00000" pt_clust_7="13000.00000" pt_clust_8="13000.00000" pt_clust_9="47.91194"></scales>
<clustering>
<clus scale="   47.912">  1  9  2 -1</clus>
<clus scale="   79.703">  5  6 -1 -1</clus>
<clus scale="   90.871">  7  8 -1 -1</clus>
<clus scale="  119.505">  2  5  1 -1</clus>
<clus scale="   47.912">  1  5  2 -1</clus>
</clustering>
</event>
<event>
 9    1  0.2374319E-005  0.1149754E+03  0.7546771E-02  0.1256000E+00
          1   -1    0    0  502    0  0.00000000000E+00  0.00000000000E+00  0.67966568257E+02  0.67966568257E+02  0.00000000000E+00 0. -1.
         -2   -1    0    0    0  501 -0.00000000000E+00 -0.00000000000E+00 -0.50403129655E+03  0.50403129655E+03  0.00000000000E+00 0.  1.
         23    2    1    2    0    0 -0.32005978752E+02 -0.60113230232E+02 -0.42528393401E+03  0.44057007185E+03  0.92723139267E+02 0.  0.
        -24    2    1    2    0    0  0.50335626138E+02  0.48787789520E+02  0.11656325601E+01  0.10679126124E+03  0.80554895029E+02 0.  0.
         13    1    4    4    0    0  0.56860949313E+02  0.35635633439E+02  0.30711332314E+02  0.73798725327E+02  0.00000000000E+00 0. -1.
        -14    1    4    4    0    0 -0.65253231749E+01  0.13152156082E+02 -0.29545699753E+02  0.32992535914E+02  0.00000000000E+00 0.  1.
        -11    1    3    3    0    0  0.30986915871E+02 -0.33653367587E+02 -0.19932643084E+03  0.20450859184E+03  0.00000000000E+00 0.  1.
         11    1    3    3    0    0 -0.62992894622E+02 -0.26459862646E+02 -0.22595750317E+03  0.23606148001E+03  0.00000000000E+00 0. -1.
         21    1    1    2  502  501 -0.18329647386E+02  0.11325440712E+02 -0.11946426836E+02  0.24636531711E+02  0.00000000000E+00 0. -1.
<scales pt_clust_5="13000.00000" pt_clust_6="13000.00000" pt_clust_7="13000.00000" pt_clust_8="13000.00000" pt_clust_9="21.54627"></scales>
<clustering>
<clus scale="   21.546">  1  9  2 -1</clus>
<clus scale="   80.555">  5  6 -1 -1</clus>
<clus scale="   92.723">  7  8 -1 -1</clus>
<clus scale="  105.408">  1  5  2 -1</clus>
<clus scale="   21.546">  1  5  2 -1</clus>
</clustering>
</event>
<event>
 9    1  0.2374319E-005  0.9151991E+02  0.7546771E-02  0.1305819E+00
         -2   -1    0    0    0  501 -0.00000000000E+00  0.00000000000E+00  0.88368085828E+02  0.88368085828E+02  0.00000000000E+00 0.  1.
          1   -1    0    0  502    0  0.00000000000E+00 -0.00000000000E+00 -0.28369328345E+03  0.28369328345E+03  0.00000000000E+00 0. -1.
         23    2    1    2    0    0 -0.10067356302E+02  0.38060512619E+01  0.45304911587E+02  0.10221883044E+03  0.90996244939E+02 0.  0.
        -24    2    1    2    0    0  0.73152032336E+01  0.24665370545E+02 -0.21656805522E+03  0.23246368588E+03  0.80472044899E+02 0.  0.
         11    1    4    4    0    0 -0.27205815225E+02 -0.13359306372E+02 -0.11103861544E+03  0.11510083217E+03  0.00000000000E+00 0. -1.
        -12    1    4    4    0    0  0.34521018458E+02  0.38024676917E+02 -0.10552943978E+03  0.11736285371E+03  0.00000000000E+00 0.  1.
        -13    1    3    3    0    0 -0.34152346942E+01  0.39276611605E+02 -0.55985275022E+01  0.39820341000E+02  0.00000000000E+00 0. -1.
         13    1    3    3    0    0 -0.66521216077E+01 -0.35470560343E+02  0.50903439090E+02  0.62398489437E+02  0.00000000000E+00 0.  1.
         21    1    1    2  502  501  0.27521530684E+01 -0.28471421806E+02 -0.24062053989E+02  0.37378852957E+02  0.00000000000E+00 0.  1.
<scales pt_clust_5="13000.00000" pt_clust_6="13000.00000" pt_clust_7="13000.00000" pt_clust_8="13000.00000" pt_clust_9="28.60413"></scales>
<clustering>
<clus scale="   28.604">  2  9  1 -1</clus>
<clus scale="   80.472">  5  6 -1 -1</clus>
<clus scale="   81.064">  2  5  1 -1</clus>
<clus scale="   90.996">  7  8 -1 -1</clus>
<clus scale="   28.604">  2  5  1 -1</clus>
</clustering>
</event>
<event>
 9    1  0.2374319E-005  0.1027231E+03  0.7546771E-02  0.1283196E+00
         -2   -1    0    0    0  501 -0.00000000000E+00  0.00000000000E+00  0.20045619652E+03  0.20045619652E+03  0.00000000000E+00 0.  1.
          1   -1    0    0  502    0  0.00000000000E+00 -0.00000000000E+00 -0.16755513852E+03  0.16755513852E+03  0.00000000000E+00 0. -1.
         23    2    1    2    0    0  0.32847771364E+02  0.14760166360E+02  0.15905240171E+03  0.18985753395E+03  0.97218198457E+02 0.  0.
        -24    2    1    2    0    0 -0.19689581219E+02  0.19870273750E+02 -0.10536353648E+03  0.13567394375E+03  0.80767795605E+02 0.  0.
         13    1    4    4    0    0  0.25787340664E+02 -0.11437791558E+02 -0.22417731721E+02  0.36032828223E+02  0.00000000000E+00 0. -1.
        -14    1    4    4    0    0 -0.45476921883E+02  0.31308065308E+02 -0.82945804759E+02  0.99641115531E+02  0.00000000000E+00 0.  1.
        -13    1    3    3    0    0  0.17884318218E+02  0.30142715628E+02  0.16410894036E+03  0.16780994145E+03  0.00000000000E+00 0.  1.
         13    1    3    3    0    0  0.14963453146E+02 -0.15382549268E+02 -0.50565386429E+01  0.22047592501E+02  0.00000000000E+00 0. -1.
         21    1    1    2  502  501 -0.13158190145E+02 -0.34630440110E+02 -0.20787807233E+02  0.42479857340E+02  0.00000000000E+00 0. -1.
<scales pt_clust_5="13000.00000" pt_clust_6="13000.00000" pt_clust_7="13000.00000" pt_clust_8="13000.00000" pt_clust_9="37.04599"></scales>
<clustering>
<clus scale="   37.046">  2  9  1 -1</clus>
<clus scale="   80.768">  5  6 -1 -1</clus>
<clus scale="   87.316">  2  5  1 -1</clus>
<clus scale="   97.218">  7  8 -1 -1</clus>
<clus scale="   37.046">  2  5  1 -1</clus>
</clustering>
</event>
<event>
 9    1  0.2374319E-005  0.1130003E+03  0.7546771E-02  0.1260240E+00
          3   -1    0    0  502    0  0.00000000000E+00  0.00000000000E+00  0.11244868196E+03  0.11244868196E+03  0.00000000000E+00 0. -1.
         -4   -1    0    0    0  501 -0.00000000000E+00 -0.00000000000E+00 -0.20402660590E+03  0.20402660590E+03  0.00000000000E+00 0.  1.
        -24    2    1    2    0    0  0.68555291374E+02  0.45872895641E+02 -0.10506851408E+03  0.15469802669E+03  0.78025228495E+02 0.  0.
         23    2    1    2    0    0 -0.31465059774E+02 -0.24910089547E+02 -0.26193409992E+02  0.10355403224E+03  0.91797496258E+02 0.  0.
         11    1    3    3    0    0  0.81492099479E+01  0.51352874789E+02 -0.58217186557E+02  0.78056186062E+02  0.00000000000E+00 0. -1.
        -12    1    3    3    0    0  0.60406081426E+02 -0.54799791474E+01 -0.46851327523E+02  0.76641840631E+02  0.00000000000E+00 0.  1.
        -13    1    4    4    0    0  0.23626918268E+02  0.23511634862E+01 -0.34129209399E+02  0.41575980695E+02  0.00000000000E+00 0.  1.
         13    1    4    4    0    0 -0.55091978042E+02 -0.27261253033E+02  0.79357994071E+01  0.61978051549E+02  0.00000000000E+00 0. -1.
         21    1    1    2  502  501 -0.37090231600E+02 -0.20962806094E+02  0.39684000131E+02  0.58223228920E+02  0.00000000000E+00 0. -1.
<scales pt_clust_5="13000.00000" pt_clust_6="13000.00000" pt_clust_7="13000.00000" pt_clust_8="13000.00000" pt_clust_9="42.60428"></scales>
<clustering>
<clus scale="   42.604">  1  9  2 -1</clus>
<clus scale="   78.025">  5  6 -1 -1</clus>
<clus scale="   91.797">  7  8 -1 -1</clus>
<clus scale="  102.128">  2  5  1 -1</clus>
<clus scale="   42.604">  1  5  2 -1</clus>
</clustering>
</event>
<event>
 9    1  0.2374319E-005  0.1557115E+03  0.7546771E-02  0.1195917E+00
         -2   -1    0    0    0  501 -0.00000000000E+00  0.00000000000E+00  0.22575864899E+03  0.22575864899E+03  0.00000000000E+00 0.  1.
          1   -1    0    0  502    0  0.00000000000E+00 -0.00000000000E+00 -0.32425715780E+03  0.32425715780E+03  0.00000000000E+00 0. -1.
        -24    2    1    2    0    0  0.38300936867E+02 -0.11849586308E+03  0.16649506183E+03  0.22302624180E+03  0.80696143560E+02 0.  0.
         23    2    1    2    0    0 -0.61353216349E+02  0.10664187646E+03 -0.25671296179E+03  0.29977756265E+03  0.93959221721E+02 0.  0.
         11    1    3    3    0    0  0.46976284776E+02 -0.24202783665E+02  0.48433045220E+02  0.71681977775E+02  0.00000000000E+00 0. -1.
        -12    1    3    3    0    0 -0.86753479093E+01 -0.94293079416E+02  0.11806201661E+03  0.15134426402E+03  0.00000000000E+00 0.  1.
        -11    1    4    4    0    0 -0.59406435130E+02  0.84221275542E+02 -0.25739468326E+03  0.27726227792E+03  0.00000000000E+00 0. -1.
         11    1    4    4    0    0 -0.19467812183E+01  0.22420600914E+02  0.68172146175E+00  0.22515284733E+02  0.00000000000E+00 0.  1.
         21    1    1    2  502  501  0.23052279482E+02  0.11853986626E+02 -0.82806088537E+01  0.27212002338E+02  0.00000000000E+00 0.  1.
<scales pt_clust_5="13000.00000" pt_clust_6="13000.00000" pt_clust_7="13000.00000" pt_clust_8="13000.00000" pt_clust_9="25.92151"></scales>
<clustering>
<clus scale="   25.922">  2  9  1 -1</clus>
<clus scale="   80.696">  5  6 -1 -1</clus>
<clus scale="   93.959">  7  8 -1 -1</clus>
<clus scale="  148.086">  1  5  2 -1</clus>
<clus scale="   25.922">  2  5  1 -1</clus>
</clustering>
</event>
<event>
 9    1  0.2374319E-005  0.1267817E+03  0.7546771E-02  0.1236318E+00
         -4   -1    0    0    0  501 -0.00000000000E+00  0.00000000000E+00  0.34142653846E+03  0.34142653846E+03  0.00000000000E+00 0.  1.
          3   -1    0    0  502    0  0.00000000000E+00 -0.00000000000E+00 -0.75641012038E+02  0.75641012038E+02  0.00000000000E+00 0. -1.
        -24    2    1    2    0    0  0.24206223437E+02  0.77139324551E+02  0.22468767254E+03  0.26015107440E+03  0.10323572382E+03 0.  0.
         23    2    1    2    0    0 -0.11620792615E+02 -0.59846264616E+02  0.63145362753E+02  0.12619945089E+03  0.90677154549E+02 0.  0.
         11    1    3    3    0    0 -0.40459958082E+02  0.26293319461E+02  0.95456154298E+02  0.10695898396E+03  0.00000000000E+00 0. -1.
        -12    1    3    3    0    0  0.64666181518E+02  0.50846005090E+02  0.12923151824E+03  0.15319209044E+03  0.00000000000E+00 0.  1.
        -11    1    4    4    0    0  0.14140550947E+02  0.18824231969E+02  0.27135195087E+02  0.35925279439E+02  0.00000000000E+00 0.  1.
         11    1    4    4    0    0 -0.25761343562E+02 -0.78670496585E+02  0.36010167666E+02  0.90274171447E+02  0.00000000000E+00 0. -1.
         21    1    1    2  502  501 -0.12585430821E+02 -0.17293059935E+02 -0.22047508868E+02  0.30717025217E+02  0.00000000000E+00 0. -1.
<scales pt_clust_5="13000.00000" pt_clust_6="13000.00000" pt_clust_7="13000.00000" pt_clust_8="13000.00000" pt_clust_9="21.38792"></scales>
<clustering>
<clus scale="   21.388">  2  9  1 -1</clus>
<clus scale="   90.677">  7  8 -1 -1</clus>
<clus scale="  103.236">  5  6 -1 -1</clus>
<clus scale="  116.783">  2  7  1 -1</clus>
<clus scale="   21.388">  2  5  1 -1</clus>
</clustering>
</event>
<event>
 9    1  0.3355028E-005  0.9385008E+02  0.7546771E-02  0.1300617E+00
         -2   -1    0    0    0  501 -0.00000000000E+00  0.00000000000E+00  0.20146415388E+03  0.20146415388E+03  0.00000000000E+00 0.  1.
          1   -1    0    0  502    0  0.00000000000E+00 -0.00000000000E+00 -0.26998261217E+03  0.26998261217E+03  0.00000000000E+00 0. -1.
        -24    2    1    2    0    0 -0.22272234636E+02 -0.12083978797E+02  0.17513637178E+03  0.19376639959E+03  0.78934111210E+02 0.  0.
         23    2    1    2    0    0  0.13198682903E+02 -0.95868303202E+01 -0.23546138936E+03  0.25279893202E+03  0.90549001142E+02 0.  0.
         13    1    3    3    0    0  0.13929822883E+02  0.26352401965E+02  0.71185760160E+02  0.77174487393E+02  0.00000000000E+00 0. -1.
        -14    1    3    3    0    0 -0.36202057519E+02 -0.38436380762E+02  0.10395061162E+03  0.11659191220E+03  0.00000000000E+00 0.  1.
        -11    1    4    4    0    0  0.37075039779E+02 -0.39130270254E+02 -0.13181607053E+03  0.14241212404E+03  0.00000000000E+00 0. -1.
         11    1    4    4    0    0 -0.23876356877E+02  0.29543439934E+02 -0.10364531883E+03  0.11038680798E+03  0.00000000000E+00 0.  1.
         21    1    1    2  502  501  0.90735517332E+01  0.21670809117E+02 -0.81934407154E+01  0.24881434436E+02  0.00000000000E+00 0. -1.
<scales pt_clust_5="13000.00000" pt_clust_6="13000.00000" pt_clust_7="13000.00000" pt_clust_8="13000.00000" pt_clust_9="23.49369"></scales>
<clustering>
<clus scale="   23.494">  2  9  1 -1</clus>
<clus scale="   78.934">  5  6 -1 -1</clus>
<clus scale="   82.700">  1  5  2 -1</clus>
<clus scale="   90.549">  7  8 -1 -1</clus>
<clus scale="   23.494">  2  5  1 -1</clus>
</clustering>
</event>
<event>
 9    1  0.2374319E-005  0.9313797E+02  0.7546771E-02  0.1301144E+00
         -4   -1    0    0    0  501 -0.00000000000E+00  0.00000000000E+00  0.64319481315E+02  0.64319481315E+02  0.00000000000E+00 0.  1.
          3   -1    0    0  502    0  0.00000000000E+00 -0.00000000000E+00 -0.35221838248E+03  0.35221838248E+03  0.00000000000E+00 0. -1.
        -24    2    1    2    0    0 -0.24971385927E+01 -0.19261633353E+02  0.16023669794E+02  0.86021935614E+02  0.82254295892E+02 0.  0.
         23    2    1    2    0    0  0.18146456814E+02 -0.11948327814E+02 -0.23615272745E+03  0.25428132628E+03  0.91754159483E+02 0.  0.
         13    1    3    3    0    0  0.69888414727E+01  0.22649601227E+02 -0.19164421451E+02  0.30481525395E+02  0.00000000000E+00 0. -1.
        -14    1    3    3    0    0 -0.94859800655E+01 -0.41911234580E+02  0.35188091245E+02  0.55540410219E+02  0.00000000000E+00 0.  1.
        -13    1    4    4    0    0 -0.66048640709E-01 -0.50272371640E+02 -0.10457764662E+03  0.11603361532E+03  0.00000000000E+00 0.  1.
         13    1    4    4    0    0  0.18212505454E+02  0.38324043826E+02 -0.13157508083E+03  0.13824771096E+03  0.00000000000E+00 0. -1.
         21    1    1    2  502  501 -0.15649318221E+02  0.31209961167E+02 -0.67769843508E+02  0.76234601894E+02  0.00000000000E+00 0. -1.
<scales pt_clust_5="13000.00000" pt_clust_6="13000.00000" pt_clust_7="13000.00000" pt_clust_8="13000.00000" pt_clust_9="34.91365"></scales>
<clustering>
<clus scale="   34.914">  2  9  1 -1</clus>
<clus scale="   82.254">  5  6 -1 -1</clus>
<clus scale="   83.795">  1  5  2 -1</clus>
<clus scale="   91.754">  7  8 -1 -1</clus>
<clus scale="   34.914">  2  5  1 -1</clus>
</clustering>
</event>
<event>
 9    1  0.2374319E-005  0.9643092E+02  0.7546771E-02  0.1293615E+00
          1   -1    0    0  502    0  0.00000000000E+00  0.00000000000E+00  0.37177124288E+03  0.37177124288E+03  0.00000000000E+00 0. -1.
         -2   -1    0    0    0  501 -0.00000000000E+00 -0.00000000000E+00 -0.10389967117E+03  0.10389967117E+03  0.00000000000E+00 0.  1.
        -24    2    1    2    0    0 -0.23124835536E+02 -0.15911463678E+02 -0.62002853032E+02  0.10579143972E+03  0.80991000980E+02 0.  0.
         23    2    1    2    0    0  0.28110734080E+02  0.53239210681E+02  0.14713586327E+03  0.18330079997E+03  0.91244693452E+02 0.  0.
         13    1    3    3    0    0 -0.23704381357E+02 -0.46060141838E+02 -0.53481991764E+02  0.74456415470E+02  0.00000000000E+00 0. -1.
        -14    1    3    3    0    0  0.57954582136E+00  0.30148678160E+02 -0.85208612682E+01  0.31335024253E+02  0.00000000000E+00 0.  1.
        -13    1    4    4    0    0  0.25144812621E+02 -0.19428287563E+02  0.22284695098E+02  0.38811436394E+02  0.00000000000E+00 0. -1.
         13    1    4    4    0    0  0.29659214588E+01  0.72667498244E+02  0.12485116817E+03  0.14448936357E+03  0.00000000000E+00 0.  1.
         21    1    1    2  502  501 -0.49858985439E+01 -0.37327747003E+02  0.18273856147E+03  0.18657867437E+03  0.00000000000E+00 0. -1.
<scales pt_clust_5="13000.00000" pt_clust_6="13000.00000" pt_clust_7="13000.00000" pt_clust_8="13000.00000" pt_clust_9="37.65926"></scales>
<clustering>
<clus scale="   37.659">  1  9  2 -1</clus>
<clus scale="   80.991">  5  6 -1 -1</clus>
<clus scale="   86.792">  2  5  1 -1</clus>
<clus scale="   91.245">  7  8 -1 -1</clus>
<clus scale="   37.659">  1  5  2 -1</clus>
</clustering>
</event>
<event>
 9    1  0.2374319E-005  0.1221457E+03  0.7546771E-02  0.1242497E+00
         -2   -1    0    0    0  501 -0.00000000000E+00  0.00000000000E+00  0.10676163618E+04  0.10676163618E+04  0.00000000000E+00 0.  1.
          1   -1    0    0  502    0  0.00000000000E+00 -0.00000000000E+00 -0.65128355111E+02  0.65128355111E+02  0.00000000000E+00 0. -1.
        -24    2    1    2    0    0  0.71707954158E+02  0.40111103307E+02  0.97042474053E+03  0.97717316216E+03  0.79951738563E+02 0.  0.
         23    2    1    2    0    0 -0.90090947595E+02 -0.31341066590E+02  0.33485611354E+02  0.13515413432E+03  0.89703470188E+02 0.  0.
         11    1    3    3    0    0  0.39321472002E+02  0.18385086698E+02  0.15920158524E+03  0.16501313376E+03  0.00000000000E+00 0. -1.
        -12    1    3    3    0    0  0.32386482156E+02  0.21726016609E+02  0.81122315530E+03  0.81216002839E+03  0.00000000000E+00 0.  1.
        -13    1    4    4    0    0 -0.10278963743E+03 -0.71469134070E+01  0.31556991279E+02  0.10776192107E+03  0.00000000000E+00 0. -1.
         13    1    4    4    0    0  0.12698689832E+02 -0.24194153183E+02  0.19286200752E+01  0.27392213257E+02  0.00000000000E+00 0.  1.
         21    1    1    2  502  501  0.18382993436E+02 -0.87700367162E+01 -0.14223451867E+01  0.20417420442E+02  0.00000000000E+00 0.  1.
<scales pt_clust_5="13000.00000" pt_clust_6="13000.00000" pt_clust_7="13000.00000" pt_clust_8="13000.00000" pt_clust_9="20.36782"></scales>
<clustering>
<clus scale="   20.368">  2  9  1 -1</clus>
<clus scale="   79.952">  5  6 -1 -1</clus>
<clus scale="   89.703">  7  8 -1 -1</clus>
<clus scale="  115.174">  1  5  2 -1</clus>
<clus scale="   20.368">  2  5  1 -1</clus>
</clustering>
</event>
<event>
 9    1  0.2374319E-005  0.9826149E+02  0.7546771E-02  0.1291127E+00
          1   -1    0    0  502    0  0.00000000000E+00  0.00000000000E+00  0.51334693095E+03  0.51334693095E+03  0.00000000000E+00 0. -1.
         -2   -1    0    0    0  501 -0.00000000000E+00 -0.00000000000E+00 -0.79341508437E+02  0.79341508437E+02  0.00000000000E+00 0.  1.
        -24    2    1    2    0    0  0.31148941120E+02  0.52563984558E+01 -0.33243992674E+02  0.90742873620E+02  0.78302106014E+02 0.  0.
         23    2    1    2    0    0 -0.82084502484E+02  0.22883607316E+02  0.31473902340E+03  0.33871042574E+03  0.91665558540E+02 0.  0.
         13    1    3    3    0    0 -0.91602081269E+01  0.20697614711E+02 -0.41050748571E+02  0.46877122628E+02  0.00000000000E+00 0. -1.
        -14    1    3    3    0    0  0.40309149247E+02 -0.15441216255E+02  0.78067558967E+01  0.43865750992E+02  0.00000000000E+00 0.  1.
        -11    1    4    4    0    0 -0.71070896338E+02 -0.25519800595E+02  0.19081649518E+03  0.20521517332E+03  0.00000000000E+00 0.  1.
         11    1    4    4    0    0 -0.11013606146E+02  0.48403407912E+02  0.12392252822E+03  0.13349525242E+03  0.00000000000E+00 0. -1.
         21    1    1    2  502  501  0.50935561364E+02 -0.28140005772E+02  0.15251039178E+03  0.16323514002E+03  0.00000000000E+00 0.  1.
<scales pt_clust_5="13000.00000" pt_clust_6="13000.00000" pt_clust_7="13000.00000" pt_clust_8="13000.00000" pt_clust_9="58.19185"></scales>
<clustering>
<clus scale="   58.192">  1  9  2 -1</clus>
<clus scale="   78.302">  5  6 -1 -1</clus>
<clus scale="   85.930">  2  5  1 -1</clus>
<clus scale="   91.666">  7  8 -1 -1</clus>
<clus scale="   58.192">  1  5  2 -1</clus>
</clustering>
</event>
<event>
 9    1  0.2374319E-005  0.1165081E+03  0.7546771E-02  0.1253291E+00
          1   -1    0    0  502    0  0.00000000000E+00  0.00000000000E+00  0.44393811737E+03  0.44393811737E+03  0.00000000000E+00 0. -1.
         -2   -1    0    0    0  501 -0.00000000000E+00 -0.00000000000E+00 -0.62314951533E+02  0.62314951533E+02  0.00000000000E+00 0.  1.
        -24    2    1    2    0    0 -0.47351027086E+02  0.56067774439E+02  0.70969178955E+01  0.10938734126E+03  0.80805377843E+02 0.  0.
         23    2    1    2    0    0  0.29941706040E+02 -0.44244947397E+02  0.27683420989E+03  0.29693276012E+03  0.93154512165E+02 0.  0.
         11    1    3    3    0    0 -0.35984209930E+02  0.14765751274E+01  0.32130350443E+02  0.48263889793E+02  0.00000000000E+00 0. -1.
        -12    1    3    3    0    0 -0.11366817156E+02  0.54591199311E+02 -0.25033432547E+02  0.61123451470E+02  0.00000000000E+00 0.  1.
        -13    1    4    4    0    0  0.33182544824E+02  0.12523046418E+02  0.18900885631E+03  0.19230771107E+03  0.00000000000E+00 0.  1.
         13    1    4    4    0    0 -0.32408387842E+01 -0.56767993816E+02  0.87825353581E+02  0.10462504905E+03  0.00000000000E+00 0. -1.
         21    1    1    2  502  501  0.17409321046E+02 -0.11822827041E+02  0.97692038057E+02  0.99932967524E+02  0.00000000000E+00 0.  1.
<scales pt_clust_5="13000.00000" pt_clust_6="13000.00000" pt_clust_7="13000.00000" pt_clust_8="13000.00000" pt_clust_9="21.04433"></scales>
<clustering>
<clus scale="   21.044">  1  9  2 -1</clus>
<clus scale="   80.805">  5  6 -1 -1</clus>
<clus scale="   93.155">  7  8 -1 -1</clus>
<clus scale="  106.892">  2  5  1 -1</clus>
<clus scale="   21.044">  1  5  2 -1</clus>
</clustering>
</event>
<event>
 9    1  0.2374319E-005  0.1199172E+03  0.7546771E-02  0.1246287E+00
         -2   -1    0    0    0  501 -0.00000000000E+00  0.00000000000E+00  0.60219526754E+02  0.60219526754E+02  0.00000000000E+00 0.  1.
          1   -1    0    0  502    0  0.00000000000E+00 -0.00000000000E+00 -0.47700391321E+03  0.47700391321E+03  0.00000000000E+00 0. -1.
         23    2    1    2    0    0 -0.34264020419E+02 -0.77006789917E+02 -0.27496461632E+02  0.12637594376E+03  0.90059730019E+02 0.  0.
        -24    2    1    2    0    0  0.29766047959E+02  0.48355391574E+02 -0.33700736181E+03  0.35106127996E+03  0.80285732661E+02 0.  0.
         13    1    4    4    0    0 -0.24143092835E+02  0.34622874681E+02 -0.12817258447E+03  0.13494385423E+03  0.00000000000E+00 0. -1.
        -14    1    4    4    0    0  0.53909140794E+02  0.13732516894E+02 -0.20883477734E+03  0.21611742574E+03  0.00000000000E+00 0.  1.
        -11    1    3    3    0    0  0.11562376723E+02 -0.52599729352E+02 -0.46434047680E+02  0.71109358508E+02  0.00000000000E+00 0. -1.
         11    1    3    3    0    0 -0.45826397142E+02 -0.24407060564E+02  0.18937586048E+02  0.55266585255E+02  0.00000000000E+00 0.  1.
         21    1    1    2  502  501  0.44979724599E+01  0.28651398342E+02 -0.52280563012E+02  0.59786216238E+02  0.00000000000E+00 0. -1.
<scales pt_clust_5="13000.00000" pt_clust_6="13000.00000" pt_clust_7="13000.00000" pt_clust_8="13000.00000" pt_clust_9="29.00232"></scales>
<clustering>
<clus scale="   29.002">  2  9  1 -1</clus>
<clus scale="   80.286">  5  6 -1 -1</clus>
<clus scale="   90.060">  7  8 -1 -1</clus>
<clus scale="  112.762">  2  5  1 -1</clus>
<clus scale="   29.002">  2  5  1 -1</clus>
</clustering>
</event>
<event>
 9    1  0.2374319E-005  0.9211910E+02  0.7546771E-02  0.1301519E+00
         -2   -1    0    0    0  501 -0.00000000000E+00  0.00000000000E+00  0.26631316914E+03  0.26631316914E+03  0.00000000000E+00 0.  1.
          1   -1    0    0  502    0  0.00000000000E+00 -0.00000000000E+00 -0.17201112894E+03  0.17201112894E+03  0.00000000000E+00 0. -1.
        -24    2    1    2    0    0 -0.14777646943E+02 -0.20855560111E+02  0.22526810871E+03  0.24111099594E+03  0.82069838082E+02 0.  0.
         23    2    1    2    0    0  0.48160348671E+02 -0.31927063829E+01 -0.66471222342E+02  0.12071291602E+03  0.88450958929E+02 0.  0.
         11    1    3    3    0    0 -0.24836144408E+02  0.20664409262E+02  0.42331433204E+02  0.53252249871E+02  0.00000000000E+00 0. -1.
        -12    1    3    3    0    0  0.10058497465E+02 -0.41519969373E+02  0.18293667551E+03  0.18785874607E+03  0.00000000000E+00 0.  1.
        -11    1    4    4    0    0  0.49577128333E+02 -0.40073630214E+02 -0.39398160246E+02  0.74939992814E+02  0.00000000000E+00 0.  1.
         11    1    4    4    0    0 -0.14167796617E+01  0.36880923831E+02 -0.27073062096E+02  0.45772923202E+02  0.00000000000E+00 0. -1.
         21    1    1    2  502  501 -0.33382701728E+02  0.24048266494E+02 -0.64494846162E+02  0.76500386127E+02  0.00000000000E+00 0. -1.
<scales pt_clust_5="13000.00000" pt_clust_6="13000.00000" pt_clust_7="13000.00000" pt_clust_8="13000.00000" pt_clust_9="41.14273"></scales>
<clustering>
<clus scale="   41.143">  2  9  1 -1</clus>
<clus scale="   82.070">  5  6 -1 -1</clus>
<clus scale="   86.011">  1  5  2 -1</clus>
<clus scale="   88.451">  7  8 -1 -1</clus>
<clus scale="   41.143">  2  5  1 -1</clus>
</clustering>
</event>
<event>
 9    1  0.2374319E-005  0.1314682E+03  0.7546771E-02  0.1231684E+00
          3   -1    0    0  502    0  0.00000000000E+00  0.00000000000E+00  0.54024808973E+02  0.54024808973E+02  0.00000000000E+00 0. -1.
         -4   -1    0    0    0  501 -0.00000000000E+00 -0.00000000000E+00 -0.57914560565E+03  0.57914560565E+03  0.00000000000E+00 0.  1.
         23    2    1    2    0    0 -0.74091723175E+02  0.31748275489E+02 -0.44073224141E+03  0.45927432890E+03  0.10094782876E+03 0.  0.
        -24    2    1    2    0    0  0.94451195801E+02 -0.34244912885E+02 -0.57047857222E+02  0.13971633889E+03  0.78564972424E+02 0.  0.
         11    1    4    4    0    0  0.43082679336E+02 -0.81557762718E+01  0.16005610574E+02  0.46677762534E+02  0.00000000000E+00 0. -1.
        -12    1    4    4    0    0  0.51368516465E+02 -0.26089136613E+02 -0.73053467796E+02  0.93038576354E+02  0.00000000000E+00 0.  1.
        -13    1    3    3    0    0 -0.13501438865E+02 -0.34104100398E+02 -0.87362268515E+02  0.94749904884E+02  0.00000000000E+00 0. -1.
         13    1    3    3    0    0 -0.60590284310E+02  0.65852375887E+02 -0.35336997289E+03  0.36452442401E+03  0.00000000000E+00 0.  1.
         21    1    1    2  502  501 -0.20359472626E+02  0.24966373964E+01 -0.27340698044E+02  0.34179746831E+02  0.00000000000E+00 0.  1.
<scales pt_clust_5="13000.00000" pt_clust_6="13000.00000" pt_clust_7="13000.00000" pt_clust_8="13000.00000" pt_clust_9="20.51198"></scales>
<clustering>
<clus scale="   20.512">  1  9  2 -1</clus>
<clus scale="   78.565">  5  6 -1 -1</clus>
<clus scale="  100.948">  7  8 -1 -1</clus>
<clus scale="  115.178">  1  5  2 -1</clus>
<clus scale="   20.512">  1  5  2 -1</clus>
</clustering>
</event>
<event>
 9    1  0.2374319E-005  0.1341637E+03  0.7546771E-02  0.1222607E+00
         -2   -1    0    0    0  501 -0.00000000000E+00  0.00000000000E+00  0.10071610104E+03  0.10071610104E+03  0.00000000000E+00 0.  1.
          1   -1    0    0  502    0  0.00000000000E+00 -0.00000000000E+00 -0.27341475531E+03  0.27341475531E+03  0.00000000000E+00 0. -1.
        -24    2    1    2    0    0  0.71141977394E+02 -0.81717932781E+02  0.47277370319E+01  0.13907863912E+03  0.87071894874E+02 0.  0.
         23    2    1    2    0    0 -0.53421944222E+02  0.49403611010E+02 -0.13665909326E+03  0.18009598413E+03  0.92001276207E+02 0.  0.
         13    1    3    3    0    0  0.30899117157E+02 -0.24649315803E+02 -0.39933546496E+02  0.56187474995E+02  0.00000000000E+00 0. -1.
        -14    1    3    3    0    0  0.40242860238E+02 -0.57068616978E+02  0.44661283528E+02  0.82891164126E+02  0.00000000000E+00 0.  1.
        -13    1    4    4    0    0 -0.71230960659E+02  0.33556853682E+02 -0.57702329221E+02  0.97619009332E+02  0.00000000000E+00 0.  1.
         13    1    4    4    0    0  0.17809016437E+02  0.15846757327E+02 -0.78956764039E+02  0.82476974798E+02  0.00000000000E+00 0. -1.
         21    1    1    2  502  501 -0.17720033172E+02  0.32314321771E+02 -0.40767298044E+02  0.54956233104E+02  0.00000000000E+00 0. -1.
<scales pt_clust_5="13000.00000" pt_clust_6="13000.00000" pt_clust_7="13000.00000" pt_clust_8="13000.00000" pt_clust_9="36.85397"></scales>
<clustering>
<clus scale="   36.854">  2  9  1 -1</clus>
<clus scale="   87.072">  5  6 -1 -1</clus>
<clus scale="   92.001">  7  8 -1 -1</clus>
<clus scale="  130.833">  1  5  2 -1</clus>
<clus scale="   36.854">  2  5  1 -1</clus>
</clustering>
</event>
<event>
 9    1  0.2374319E-005  0.9611452E+02  0.7546771E-02  0.1294231E+00
         -2   -1    0    0    0  501 -0.00000000000E+00  0.00000000000E+00  0.39107294162E+02  0.39107294162E+02  0.00000000000E+00 0.  1.
          1   -1    0    0  502    0  0.00000000000E+00 -0.00000000000E+00 -0.49543921823E+03  0.49543921823E+03  0.00000000000E+00 0. -1.
        -24    2    1    2    0    0 -0.29716628531E+02 -0.20622844114E+02 -0.35285215666E+02  0.95040325505E+02  0.80493709797E+02 0.  0.
         23    2    1    2    0    0 -0.27289349441E+01  0.22945157633E+02 -0.31441030937E+03  0.32801883635E+03  0.90601252875E+02 0.  0.
         13    1    3    3    0    0 -0.20742087443E+02  0.17932031147E+02 -0.46424889178E+02  0.53917179709E+02  0.00000000000E+00 0. -1.
        -14    1    3    3    0    0 -0.89745410882E+01 -0.38554875261E+02  0.11139673513E+02  0.41123145796E+02  0.00000000000E+00 0.  1.
        -11    1    4    4    0    0  0.41880545832E+02  0.22012475244E+01 -0.10875628418E+03  0.11656223641E+03  0.00000000000E+00 0. -1.
         11    1    4    4    0    0 -0.44609480776E+02  0.20743910109E+02 -0.20565402519E+03  0.21145659994E+03  0.00000000000E+00 0.  1.
         21    1    1    2  502  501  0.32445563476E+02 -0.23223135191E+01 -0.10663639904E+03  0.11148735053E+03  0.00000000000E+00 0. -1.
<scales pt_clust_5="13000.00000" pt_clust_6="13000.00000" pt_clust_7="13000.00000" pt_clust_8="13000.00000" pt_clust_9="32.52857"></scales>
<clustering>
<clus scale="   32.529">  2  9  1 -1</clus>
<clus scale="   80.494">  5  6 -1 -1</clus>
<clus scale="   86.652">  1  5  2 -1</clus>
<clus scale="   90.601">  7  8 -1 -1</clus>
<clus scale="   32.529">  2  5  1 -1</clus>
</clustering>
</event>
<event>
 9    1  0.2374319E-005  0.1005948E+03  0.7546771E-02  0.1284287E+00
         -2   -1    0    0    0  501 -0.00000000000E+00  0.00000000000E+00  0.16142053527E+03  0.16142053527E+03  0.00000000000E+00 0.  1.
          1   -1    0    0  502    0  0.00000000000E+00 -0.00000000000E+00 -0.20489220775E+03  0.20489220775E+03  0.00000000000E+00 0. -1.
        -24    2    1    2    0    0  0.39102106790E+02 -0.37743474818E+01  0.11819925345E+03  0.14872490837E+03  0.81270009223E+02 0.  0.
         23    2    1    2    0    0 -0.51969832230E+02  0.23807643680E+02 -0.85749295071E+02  0.13802021972E+03  0.91809433539E+02 0.  0.
         11    1    3    3    0    0  0.15794754261E+02 -0.32535860923E+02  0.15121402484E+02  0.39200935208E+02  0.00000000000E+00 0. -1.
        -12    1    3    3    0    0  0.23307352530E+02  0.28761513441E+02  0.10307785097E+03  0.10952397316E+03  0.00000000000E+00 0.  1.
        -11    1    4    4    0    0  0.12350442431E+02  0.39049884870E+02 -0.42525126963E+02  0.59040777093E+02  0.00000000000E+00 0. -1.
         11    1    4    4    0    0 -0.64320274662E+02 -0.15242241189E+02 -0.43224168108E+02  0.78979442627E+02  0.00000000000E+00 0.  1.
         21    1    1    2  502  501  0.12867725440E+02 -0.20033296199E+02 -0.75921630857E+02  0.79567614936E+02  0.00000000000E+00 0.  1.
<scales pt_clust_5="13000.00000" pt_clust_6="13000.00000" pt_clust_7="13000.00000" pt_clust_8="13000.00000" pt_clust_9="23.80990"></scales>
<clustering>
<clus scale="   23.810">  2  9  1 -1</clus>
<clus scale="   81.270">  5  6 -1 -1</clus>
<clus scale="   91.078">  1  5  2 -1</clus>
<clus scale="   91.809">  7  8 -1 -1</clus>
<clus scale="   23.810">  2  5  1 -1</clus>
</clustering>
</event>
<event>
 9    1  0.2374319E-005  0.9491562E+02  0.7546771E-02  0.1297102E+00
         -2   -1    0    0    0  501 -0.00000000000E+00  0.00000000000E+00  0.52826170550E+02  0.52826170550E+02  0.00000000000E+00 0.  1.
          1   -1    0    0  502    0  0.00000000000E+00 -0.00000000000E+00 -0.32697356652E+03  0.32697356652E+03  0.00000000000E+00 0. -1.
        -24    2    1    2    0    0  0.15183430338E+02  0.27081895684E+02 -0.62546235823E+01  0.86008779623E+02  0.79965143816E+02 0.  0.
         23    2    1    2    0    0 -0.29235152603E+02 -0.95368044339E+01 -0.18734469532E+03  0.21016516092E+03  0.90142749088E+02 0.  0.
         13    1    3    3    0    0  0.40694176314E+02 -0.73690425326E+01 -0.11228440339E+02  0.42853198786E+02  0.00000000000E+00 0. -1.
        -14    1    3    3    0    0 -0.25510745976E+02  0.34450938216E+02  0.49738167567E+01  0.43155580837E+02  0.00000000000E+00 0.  1.
        -11    1    4    4    0    0 -0.43215843827E+02 -0.40220433689E+02 -0.94915501884E+02  0.11177765851E+03  0.00000000000E+00 0.  1.
         11    1    4    4    0    0  0.13980691224E+02  0.30683629255E+02 -0.92429193441E+02  0.98387502415E+02  0.00000000000E+00 0. -1.
         21    1    1    2  502  501  0.14051722265E+02 -0.17545091250E+02 -0.80548077066E+02  0.83625796526E+02  0.00000000000E+00 0. -1.
<scales pt_clust_5="13000.00000" pt_clust_6="13000.00000" pt_clust_7="13000.00000" pt_clust_8="13000.00000" pt_clust_9="22.47846"></scales>
<clustering>
<clus scale="   22.478">  2  9  1 -1</clus>
<clus scale="   79.965">  5  6 -1 -1</clus>
<clus scale="   85.309">  1  5  2 -1</clus>
<clus scale="   90.143">  7  8 -1 -1</clus>
<clus scale="   22.478">  2  5  1 -1</clus>
</clustering>
</event>
<event>
 9    1  0.2374319E-005  0.9782970E+02  0.7546771E-02  0.1290964E+00
          1   -1    0    0  502    0  0.00000000000E+00  0.00000000000E+00  0.67600509792E+03  0.67600509792E+03  0.00000000000E+00 0. -1.
         -2   -1    0    0    0  501 -0.00000000000E+00 -0.00000000000E+00 -0.30833095688E+02  0.30833095688E+02  0.00000000000E+00 0.  1.
        -24    2    1    2    0    0  0.32185794677E+02 -0.30351079668E+02  0.70892282056E+02  0.11551501712E+03  0.79755188607E+02 0.  0.
         23    2    1    2    0    0  0.61837740044E+01  0.14318163411E+01  0.41604470882E+03  0.42595429668E+03  0.91123948316E+02 0.  0.
         11    1    3    3    0    0  0.56923703392E+02 -0.18558750382E+02  0.63186373608E+02  0.87047418303E+02  0.00000000000E+00 0. -1.
        -12    1    3    3    0    0 -0.24737908714E+02 -0.11792329287E+02  0.77059084486E+01  0.28467598820E+02  0.00000000000E+00 0.  1.
        -13    1    4    4    0    0 -0.11715938262E+02 -0.42180395473E+02  0.22089811014E+03  0.22519419184E+03  0.00000000000E+00 0.  1.
         13    1    4    4    0    0  0.17899712266E+02  0.43612211814E+02  0.19514659868E+03  0.20076010484E+03  0.00000000000E+00 0. -1.
         21    1    1    2  502  501 -0.38369568682E+02  0.28919263327E+02  0.15823501135E+03  0.16536887981E+03  0.00000000000E+00 0.  1.
<scales pt_clust_5="13000.00000" pt_clust_6="13000.00000" pt_clust_7="13000.00000" pt_clust_8="13000.00000" pt_clust_9="48.04735"></scales>
<clustering>
<clus scale="   48.047">  1  9  2 -1</clus>
<clus scale="   79.755">  5  6 -1 -1</clus>
<clus scale="   87.338">  2  5  1 -1</clus>
<clus scale="   91.124">  7  8 -1 -1</clus>
<clus scale="   48.047">  1  5  2 -1</clus>
</clustering>
</event>
<event>
 9    1  0.2374319E-005  0.9763651E+02  0.7546771E-02  0.1292483E+00
          3   -1    0    0  502    0  0.00000000000E+00  0.00000000000E+00  0.17769611649E+03  0.17769611649E+03  0.00000000000E+00 0. -1.
         -4   -1    0    0    0  501 -0.00000000000E+00 -0.00000000000E+00 -0.10110746471E+03  0.10110746471E+03  0.00000000000E+00 0.  1.
        -24    2    1    2    0    0  0.14464490487E+02 -0.34250588150E+02 -0.54767185137E+02  0.10265303699E+03  0.78459398167E+02 0.  0.
         23    2    1    2    0    0  0.35586758176E+01  0.18920007231E+02  0.10227512416E+03  0.13865989085E+03  0.91628235062E+02 0.  0.
         11    1    3    3    0    0  0.43505312654E+02 -0.21712912264E+02 -0.13131833638E+02  0.50364748017E+02  0.00000000000E+00 0. -1.
        -12    1    3    3    0    0 -0.29040822167E+02 -0.12537675886E+02 -0.41635351499E+02  0.52288288968E+02  0.00000000000E+00 0.  1.
        -13    1    4    4    0    0 -0.20699686199E+02 -0.83305568158E+00 -0.93538369228E+01  0.22730271791E+02  0.00000000000E+00 0.  1.
         13    1    4    4    0    0  0.24258362017E+02  0.19753062912E+02  0.11162896108E+03  0.11592961906E+03  0.00000000000E+00 0. -1.
         21    1    1    2  502  501 -0.18023166304E+02  0.15330580919E+02  0.29080712766E+02  0.37490653368E+02  0.00000000000E+00 0.  1.
<scales pt_clust_5="13000.00000" pt_clust_6="13000.00000" pt_clust_7="13000.00000" pt_clust_8="13000.00000" pt_clust_9="23.66139"></scales>
<clustering>
<clus scale="   23.661">  1  9  2 -1</clus>
<clus scale="   78.459">  5  6 -1 -1</clus>
<clus scale="   85.399">  2  5  1 -1</clus>
<clus scale="   91.628">  7  8 -1 -1</clus>
<clus scale="   23.661">  1  5  2 -1</clus>
</clustering>
</event>
<event>
 9    1  0.2374319E-005  0.9975377E+02  0.7546771E-02  0.1286612E+00
          1   -1    0    0  502    0  0.00000000000E+00  0.00000000000E+00  0.38179744249E+03  0.38179744249E+03  0.00000000000E+00 0. -1.
         -2   -1    0    0    0  501 -0.00000000000E+00 -0.00000000000E+00 -0.16215362911E+03  0.16215362911E+03  0.00000000000E+00 0.  1.
         23    2    1    2    0    0 -0.29063266820E+02  0.37849659668E+02 -0.12238420406E+03  0.15972627541E+03  0.90869793870E+02 0.  0.
        -24    2    1    2    0    0  0.23854207354E+02  0.80912666327E+01  0.71415821996E+02  0.10969125846E+03  0.79356541930E+02 0.  0.
         13    1    4    4    0    0  0.18276695399E+02 -0.15804000366E+02  0.80097982526E+02  0.83662959707E+02  0.00000000000E+00 0. -1.
        -14    1    4    4    0    0  0.55775119553E+01  0.23895266998E+02 -0.86821605296E+01  0.26028298753E+02  0.00000000000E+00 0.  1.
        -13    1    3    3    0    0  0.29672733163E+02  0.62601048985E+00 -0.57062997000E+02  0.64319892794E+02  0.00000000000E+00 0. -1.
         13    1    3    3    0    0 -0.58735999983E+02  0.37223649179E+02 -0.65321207061E+02  0.95406382617E+02  0.00000000000E+00 0.  1.
         21    1    1    2  502  501  0.52090594659E+01 -0.45940926301E+02  0.27061219544E+03  0.27453353772E+03  0.00000000000E+00 0. -1.
<scales pt_clust_5="13000.00000" pt_clust_6="13000.00000" pt_clust_7="13000.00000" pt_clust_8="13000.00000" pt_clust_9="46.23530"></scales>
<clustering>
<clus scale="   46.235">  1  9  2 -1</clus>
<clus scale="   79.357">  5  6 -1 -1</clus>
<clus scale="   89.392">  1  5  2 -1</clus>
<clus scale="   90.870">  7  8 -1 -1</clus>
<clus scale="   46.235">  1  5  2 -1</clus>
</clustering>
</event>
<event>
 9    1  0.2374319E-005  0.9761478E+02  0.7546771E-02  0.1292647E+00
          1   -1    0    0  502    0  0.00000000000E+00  0.00000000000E+00  0.62076011585E+02  0.62076011585E+02  0.00000000000E+00 0. -1.
         -2   -1    0    0    0  501 -0.00000000000E+00 -0.00000000000E+00 -0.45095160494E+03  0.45095160494E+03  0.00000000000E+00 0.  1.
         23    2    1    2    0    0  0.61553991004E+01  0.25649320298E+02 -0.37969672173E+03  0.39196363366E+03  0.93648881745E+02 0.  0.
        -24    2    1    2    0    0  0.12510592427E+02 -0.40153231918E+02  0.88111866184E+01  0.91358345557E+02  0.80622040019E+02 0.  0.
         11    1    4    4    0    0 -0.72009616395E+01 -0.60393975725E+02  0.14527920812E+02  0.62532764496E+02  0.00000000000E+00 0. -1.
        -12    1    4    4    0    0  0.19711554067E+02  0.20240743808E+02 -0.57167341934E+01  0.28825581060E+02  0.00000000000E+00 0.  1.
        -11    1    3    3    0    0 -0.24955815240E+02  0.50157845605E+02 -0.25691407439E+03  0.26295140960E+03  0.00000000000E+00 0. -1.
         11    1    3    3    0    0  0.31111214340E+02 -0.24508525306E+02 -0.12278264734E+03  0.12901222406E+03  0.00000000000E+00 0.  1.
         21    1    1    2  502  501 -0.18665991528E+02  0.14503911620E+02 -0.17990058240E+02  0.29705637301E+02  0.00000000000E+00 0. -1.
<scales pt_clust_5="13000.00000" pt_clust_6="13000.00000" pt_clust_7="13000.00000" pt_clust_8="13000.00000" pt_clust_9="23.63858"></scales>
<clustering>
<clus scale="   23.639">  1  9  2 -1</clus>
<clus scale="   80.622">  5  6 -1 -1</clus>
<clus scale="   85.197">  1  5  2 -1</clus>
<clus scale="   93.649">  7  8 -1 -1</clus>
<clus scale="   23.639">  1  5  2 -1</clus>
</clustering>
</event>
<event>
 9    1  0.2374319E-005  0.8997226E+02  0.7546771E-02  0.1306989E+00
          1   -1    0    0  502    0  0.00000000000E+00  0.00000000000E+00  0.12214320403E+03  0.12214320403E+03  0.00000000000E+00 0. -1.
         -2   -1    0    0    0  501 -0.00000000000E+00 -0.00000000000E+00 -0.28985083129E+03  0.28985083129E+03  0.00000000000E+00 0.  1.
        -24    2    1    2    0    0  0.17135986648E+02  0.17465459837E+02 -0.21573782375E+03  0.23178781822E+03  0.81142465766E+02 0.  0.
         23    2    1    2    0    0 -0.11720934662E+02  0.11494168441E+02 -0.32055057434E+02  0.94873745238E+02  0.87772459296E+02 0.  0.
         11    1    3    3    0    0  0.47351715250E+02 -0.50222437646E-01 -0.95725206265E+02  0.10679654757E+03  0.00000000000E+00 0. -1.
        -12    1    3    3    0    0 -0.30215728602E+02  0.17515682275E+02 -0.12001261749E+03  0.12499127064E+03  0.00000000000E+00 0.  1.
        -13    1    4    4    0    0 -0.49746596427E+02  0.66410428514E+00 -0.18387727030E+02  0.53040299735E+02  0.00000000000E+00 0. -1.
         13    1    4    4    0    0  0.38025661765E+02  0.10830064156E+02 -0.13667330404E+02  0.41833445503E+02  0.00000000000E+00 0.  1.
         21    1    1    2  502  501 -0.54150519863E+01 -0.28959628278E+02  0.80085253930E+02  0.85332471867E+02  0.00000000000E+00 0. -1.
<scales pt_clust_5="13000.00000" pt_clust_6="13000.00000" pt_clust_7="13000.00000" pt_clust_8="13000.00000" pt_clust_9="29.46155"></scales>
<clustering>
<clus scale="   29.462">  1  9  2 -1</clus>
<clus scale="   81.142">  5  6 -1 -1</clus>
<clus scale="   83.517">  2  5  1 -1</clus>
<clus scale="   87.772">  7  8 -1 -1</clus>
<clus scale="   29.462">  1  5  2 -1</clus>
</clustering>
</event>
<event>
 9    1  0.2374319E-005  0.1166706E+03  0.7546771E-02  0.1252671E+00
         -2   -1    0    0    0  501 -0.00000000000E+00  0.00000000000E+00  0.79846796358E+03  0.79846796358E+03  0.00000000000E+00 0.  1.
          1   -1    0    0  502    0  0.00000000000E+00 -0.00000000000E+00 -0.80383762310E+02  0.80383762310E+02  0.00000000000E+00 0. -1.
        -24    2    1    2    0    0  0.37998203758E+01 -0.80184353917E+02  0.53975927946E+03  0.55149725616E+03  0.79782043952E+02 0.  0.
         23    2    1    2    0    0  0.73059558524E+01  0.57070582222E+02  0.23856063017E+03  0.26188749127E+03  0.91451929825E+02 0.  0.
         13    1    3    3    0    0  0.16024623730E+02 -0.27180787085E+02  0.52801535059E+02  0.61510859666E+02  0.00000000000E+00 0. -1.
        -14    1    3    3    0    0 -0.12224803354E+02 -0.53003566832E+02  0.48695774440E+03  0.48998639649E+03  0.00000000000E+00 0.  1.
        -11    1    4    4    0    0 -0.41562079470E+02  0.29528020907E+02  0.96226752885E+02  0.10889856950E+03  0.00000000000E+00 0. -1.
         11    1    4    4    0    0  0.48868035322E+02  0.27542561314E+02  0.14233387729E+03  0.15298892177E+03  0.00000000000E+00 0.  1.
         21    1    1    2  502  501 -0.11105776228E+02  0.23113771695E+02 -0.60235708362E+02  0.65466978466E+02  0.00000000000E+00 0. -1.
<scales pt_clust_5="13000.00000" pt_clust_6="13000.00000" pt_clust_7="13000.00000" pt_clust_8="13000.00000" pt_clust_9="25.64341"></scales>
<clustering>
<clus scale="   25.643">  2  9  1 -1</clus>
<clus scale="   79.782">  5  6 -1 -1</clus>
<clus scale="   91.452">  7  8 -1 -1</clus>
<clus scale="  107.767">  1  5  2 -1</clus>
<clus scale="   25.643">  2  5  1 -1</clus>
</clustering>
</event>
<event>
 9    1  0.2374319E-005  0.9429236E+02  0.7546771E-02  0.1299403E+00
          1   -1    0    0  502    0  0.00000000000E+00  0.00000000000E+00  0.12536204752E+03  0.12536204752E+03  0.00000000000E+00 0. -1.
         -2   -1    0    0    0  501 -0.00000000000E+00 -0.00000000000E+00 -0.36507550725E+03  0.36507550725E+03  0.00000000000E+00 0.  1.
         23    2    1    2    0    0 -0.48573563693E+02  0.14816011195E+01 -0.26848209865E+03  0.28714051186E+03  0.89473180456E+02 0.  0.
        -24    2    1    2    0    0 -0.26681468338E+02 -0.23960575791E+02 -0.43862115471E+02  0.96321108091E+02  0.77896474538E+02 0.  0.
         11    1    4    4    0    0  0.19109618135E+02 -0.20899787189E+02  0.55782619740E+01  0.28863395789E+02  0.00000000000E+00 0. -1.
        -12    1    4    4    0    0 -0.45791086473E+02 -0.30607886021E+01 -0.49440377445E+02  0.67457712303E+02  0.00000000000E+00 0.  1.
        -13    1    3    3    0    0 -0.28836767816E+02  0.45300077969E+02 -0.13672691898E+03  0.14689420211E+03  0.00000000000E+00 0.  1.
         13    1    3    3    0    0 -0.19736795878E+02 -0.43818476850E+02 -0.13175517968E+03  0.14024630974E+03  0.00000000000E+00 0. -1.
         21    1    1    2  502  501  0.75255032032E+02  0.22478974672E+02  0.72630754387E+02  0.10697593482E+03  0.00000000000E+00 0. -1.
<scales pt_clust_5="13000.00000" pt_clust_6="13000.00000" pt_clust_7="13000.00000" pt_clust_8="13000.00000" pt_clust_9="78.54059"></scales>
<clustering>
<clus scale="   77.896">  5  6 -1 -1</clus>
<clus scale="   78.541">  1  9  2 -1</clus>
<clus scale="   83.387">  1  5  2 -1</clus>
<clus scale="   89.473">  7  8 -1 -1</clus>
<clus scale="   78.541">  1  5  2 -1</clus>
</clustering>
</event>
<event>
 9    1  0.2374319E-005  0.1512291E+03  0.7546771E-02  0.1200389E+00
          1   -1    0    0  502    0  0.00000000000E+00  0.00000000000E+00  0.19316970173E+03  0.19316970173E+03  0.00000000000E+00 0. -1.
         -2   -1    0    0    0  501 -0.00000000000E+00 -0.00000000000E+00 -0.23525728737E+03  0.23525728737E+03  0.00000000000E+00 0.  1.
        -24    2    1    2    0    0 -0.35065312347E+01  0.12432647983E+03 -0.16102727045E+03  0.22566157833E+03  0.97590966567E+02 0.  0.
         23    2    1    2    0    0  0.14503172105E+01 -0.83813829463E+02  0.82983298337E+02  0.14855872683E+03  0.90313930731E+02 0.  0.
         13    1    3    3    0    0 -0.31617417771E+01  0.34423417280E+02  0.68371633790E+01  0.35237977686E+02  0.00000000000E+00 0. -1.
        -14    1    3    3    0    0 -0.34478945760E+00  0.89903062552E+02 -0.16786443383E+03  0.19042360064E+03  0.00000000000E+00 0.  1.
        -13    1    4    4    0    0  0.21938307515E+02 -0.86217197806E+02  0.33702034500E+02  0.95134229716E+02  0.00000000000E+00 0.  1.
         13    1    4    4    0    0 -0.20487990305E+02  0.24033683433E+01  0.49281263837E+02  0.53424497110E+02  0.00000000000E+00 0. -1.
         21    1    1    2  502  501  0.20562140242E+01 -0.40512650369E+02  0.35956386480E+02  0.54206683949E+02  0.00000000000E+00 0. -1.
<scales pt_clust_5="13000.00000" pt_clust_6="13000.00000" pt_clust_7="13000.00000" pt_clust_8="13000.00000" pt_clust_9="40.56480"></scales>
<clustering>
<clus scale="   40.565">  1  9  2 -1</clus>
<clus scale="   90.314">  7  8 -1 -1</clus>
<clus scale="   97.591">  5  6 -1 -1</clus>
<clus scale="  146.638">  1  7  2 -1</clus>
<clus scale="   40.565">  1  5  2 -1</clus>
</clustering>
</event>
<event>
 9    1  0.2374319E-005  0.1196966E+03  0.7546771E-02  0.1253908E+00
          1   -1    0    0  502    0  0.00000000000E+00  0.00000000000E+00  0.67884090854E+03  0.67884090854E+03  0.00000000000E+00 0. -1.
         -2   -1    0    0    0  501 -0.00000000000E+00 -0.00000000000E+00 -0.66787121531E+02  0.66787121531E+02  0.00000000000E+00 0.  1.
         23    2    1    2    0    0  0.27905181069E+02 -0.16825730602E+02  0.23422125338E+02  0.10015276593E+03  0.91761518232E+02 0.  0.
        -24    2    1    2    0    0  0.78268518764E+02 -0.23114215713E+02  0.46020830555E+03  0.47412587766E+03  0.79645686477E+02 0.  0.
         13    1    4    4    0    0  0.79529836582E+02 -0.45255972831E+02  0.38432881676E+03  0.39507181294E+03  0.00000000000E+00 0. -1.
        -14    1    4    4    0    0 -0.12613178177E+01  0.22141757118E+02  0.75879488790E+02  0.79054064728E+02  0.00000000000E+00 0.  1.
        -13    1    3    3    0    0  0.23954895523E+00  0.29550576272E+02  0.34081687554E+02  0.45109371180E+02  0.00000000000E+00 0. -1.
         13    1    3    3    0    0  0.27665632114E+02 -0.46376306874E+02 -0.10659562216E+02  0.55043394755E+02  0.00000000000E+00 0.  1.
         21    1    1    2  502  501 -0.10617369983E+03  0.39939946315E+02  0.12842335612E+03  0.17134938648E+03  0.00000000000E+00 0. -1.
<scales pt_clust_5="13000.00000" pt_clust_6="13000.00000" pt_clust_7="13000.00000" pt_clust_8="13000.00000" pt_clust_9="89.35228"></scales>
<clustering>
<clus scale="   79.646">  5  6 -1 -1</clus>
<clus scale="   91.762">  7  8 -1 -1</clus>
<clus scale="   97.375">  2  7  1 -1</clus>
<clus scale="   89.352">  2  9  1 -1</clus>
<clus scale="  119.697">  1  5  2 -1</clus>
</clustering>
</event>
<event>
 9    1  0.2374319E-005  0.9650716E+02  0.7546771E-02  0.1296802E+00
         -2   -1    0    0    0  501 -0.00000000000E+00  0.00000000000E+00  0.89949183278E+02  0.89949183278E+02  0.00000000000E+00 0.  1.
          1   -1    0    0  502    0  0.00000000000E+00 -0.00000000000E+00 -0.16615621663E+03  0.16615621663E+03  0.00000000000E+00 0. -1.
        -24    2    1    2    0    0 -0.26899010134E+02 -0.26608271679E+02  0.20895871601E+02  0.85202205665E+02  0.73424938082E+02 0.  0.
         23    2    1    2    0    0 -0.14014966752E+01  0.39645556724E+02 -0.40129633391E+02  0.10596596948E+03  0.89692055676E+02 0.  0.
         11    1    3    3    0    0 -0.51833399046E+02 -0.22443850656E+02  0.19954230867E+02  0.59904916479E+02  0.00000000000E+00 0. -1.
        -12    1    3    3    0    0  0.24934388912E+02 -0.41644210236E+01  0.94164073404E+00  0.25297289186E+02  0.00000000000E+00 0.  1.
        -13    1    4    4    0    0  0.38747398285E+02  0.38707844778E+01 -0.12148123715E+00  0.38940449458E+02  0.00000000000E+00 0.  1.
         13    1    4    4    0    0 -0.40148894960E+02  0.35774772247E+02 -0.40008152153E+02  0.67025520024E+02  0.00000000000E+00 0. -1.
         21    1    1    2  502  501  0.28300506809E+02 -0.13037285045E+02 -0.56973271568E+02  0.64937224765E+02  0.00000000000E+00 0.  1.
<scales pt_clust_5="13000.00000" pt_clust_6="13000.00000" pt_clust_7="13000.00000" pt_clust_8="13000.00000" pt_clust_9="31.15910"></scales>
<clustering>
<clus scale="   31.159">  2  9  1 -1</clus>
<clus scale="   73.425">  5  6 -1 -1</clus>
<clus scale="   81.610">  1  5  2 -1</clus>
<clus scale="   89.692">  7  8 -1 -1</clus>
<clus scale="   31.159">  2  5  1 -1</clus>
</clustering>
</event>
<event>
 9    1  0.2374319E-005  0.9744945E+02  0.7546771E-02  0.1292480E+00
         -2   -1    0    0    0  501 -0.00000000000E+00  0.00000000000E+00  0.22137021419E+03  0.22137021419E+03  0.00000000000E+00 0.  1.
          1   -1    0    0  502    0  0.00000000000E+00 -0.00000000000E+00 -0.32394831760E+03  0.32394831760E+03  0.00000000000E+00 0. -1.
         23    2    1    2    0    0  0.15162799418E+02  0.27267463630E+02  0.17614186005E+03  0.20114745300E+03  0.91983248064E+02 0.  0.
        -24    2    1    2    0    0 -0.70695668368E+02  0.11625787198E+01 -0.72788429308E+02  0.12899681545E+03  0.79641658946E+02 0.  0.
         11    1    4    4    0    0 -0.14586088258E+02  0.18025716226E+02 -0.66073799985E+02  0.70024477582E+02  0.00000000000E+00 0. -1.
        -12    1    4    4    0    0 -0.56109580110E+02 -0.16863137506E+02 -0.67146293227E+01  0.58972337868E+02  0.00000000000E+00 0.  1.
        -11    1    3    3    0    0 -0.22264408074E+02  0.38826093039E+02  0.14298814456E+03  0.14982916556E+03  0.00000000000E+00 0.  1.
         11    1    3    3    0    0  0.37427207492E+02 -0.11558629409E+02  0.33153715498E+02  0.51318287440E+02  0.00000000000E+00 0. -1.
         21    1    1    2  502  501  0.55532868950E+02 -0.28430042350E+02 -0.20593153416E+03  0.21517426334E+03  0.00000000000E+00 0. -1.
<scales pt_clust_5="13000.00000" pt_clust_6="13000.00000" pt_clust_7="13000.00000" pt_clust_8="13000.00000" pt_clust_9="62.38723"></scales>
<clustering>
<clus scale="   62.387">  2  9  1 -1</clus>
<clus scale="   79.642">  5  6 -1 -1</clus>
<clus scale="   85.897">  2  5  1 -1</clus>
<clus scale="   91.983">  7  8 -1 -1</clus>
<clus scale="   62.387">  2  5  1 -1</clus>
</clustering>
</event>
<event>
 9    1  0.2374319E-005  0.9774281E+02  0.7546771E-02  0.1291203E+00
          1   -1    0    0  502    0  0.00000000000E+00  0.00000000000E+00  0.15978683233E+03  0.15978683233E+03  0.00000000000E+00 0. -1.
         -2   -1    0    0    0  501 -0.00000000000E+00 -0.00000000000E+00 -0.88083170491E+02  0.88083170491E+02  0.00000000000E+00 0.  1.
        -24    2    1    2    0    0  0.20836342471E+02  0.56572124986E+01 -0.21340661038E+02  0.86098204001E+02  0.80568726549E+02 0.  0.
         23    2    1    2    0    0 -0.36727561879E+02  0.14731656514E+02  0.91967807125E+02  0.13589911593E+03  0.91894268910E+02 0.  0.
         13    1    3    3    0    0  0.22350306245E+02  0.40830740994E+02 -0.36317466811E+01  0.46689133461E+02  0.00000000000E+00 0. -1.
        -14    1    3    3    0    0 -0.15139637738E+01 -0.35173528495E+02 -0.17708914357E+02  0.39409070540E+02  0.00000000000E+00 0.  1.
        -13    1    4    4    0    0 -0.53800848683E+02 -0.23096836085E+02  0.53617771901E+02  0.79390557498E+02  0.00000000000E+00 0.  1.
         13    1    4    4    0    0  0.17073286805E+02  0.37828492599E+02  0.38350035224E+02  0.56508558434E+02  0.00000000000E+00 0. -1.
         21    1    1    2  502  501  0.15891219407E+02 -0.20388869012E+02  0.10765157565E+01  0.25872682892E+02  0.00000000000E+00 0.  1.
<scales pt_clust_5="13000.00000" pt_clust_6="13000.00000" pt_clust_7="13000.00000" pt_clust_8="13000.00000" pt_clust_9="25.85028"></scales>
<clustering>
<clus scale="   25.850">  2  9  1 -1</clus>
<clus scale="   80.569">  5  6 -1 -1</clus>
<clus scale="   87.180">  2  5  1 -1</clus>
<clus scale="   91.894">  7  8 -1 -1</clus>
<clus scale="   97.743">  1  5  2 -1</clus>
</clustering>
</event>
<event>
 9    1  0.2374319E-005  0.1135472E+03  0.7546771E-02  0.1257542E+00
          3   -1    0    0  502    0  0.00000000000E+00  0.00000000000E+00  0.44203204442E+03  0.44203204442E+03  0.00000000000E+00 0. -1.
         -4   -1    0    0    0  501 -0.00000000000E+00 -0.00000000000E+00 -0.22515043195E+03  0.22515043195E+03  0.00000000000E+00 0.  1.
        -24    2    1    2    0    0  0.21744225594E+02  0.12312794895E+03 -0.14324855648E+03  0.20762121892E+03  0.83385361143E+02 0.  0.
         23    2    1    2    0    0  0.25499899486E+02 -0.28067912250E+02  0.33071018610E+03  0.34940703228E+03  0.10619790227E+03 0.  0.
         13    1    3    3    0    0  0.31545763841E+02  0.24845541771E+02 -0.93399598749E+01  0.41227066505E+02  0.00000000000E+00 0. -1.
        -14    1    3    3    0    0 -0.98015382470E+01  0.98282407178E+02 -0.13390859661E+03  0.16639415241E+03  0.00000000000E+00 0.  1.
        -13    1    4    4    0    0 -0.16421249833E+02  0.33792852430E+02  0.96102253672E+02  0.10318554881E+03  0.00000000000E+00 0.  1.
         13    1    4    4    0    0  0.41921149319E+02 -0.61860764680E+02  0.23460793243E+03  0.24622148348E+03  0.00000000000E+00 0. -1.
         21    1    1    2  502  501 -0.47244125080E+02 -0.95060036699E+02  0.29419982845E+02  0.11015422517E+03  0.00000000000E+00 0. -1.
<scales pt_clust_5="13000.00000" pt_clust_6="13000.00000" pt_clust_7="13000.00000" pt_clust_8="13000.00000" pt_clust_9="106.15280"></scales>
<clustering>
<clus scale="   83.385">  5  6 -1 -1</clus>
<clus scale="  106.153">  2  9  1 -1</clus>
<clus scale="  106.153">  2  5  1 -1</clus>
<clus scale="  106.198">  7  8 -1 -1</clus>
<clus scale="  113.547">  1  5  2 -1</clus>
</clustering>
</event>
<event>
 9    1  0.2374319E-005  0.2604845E+03  0.7546771E-02  0.1107431E+00
          1   -1    0    0  502    0  0.00000000000E+00  0.00000000000E+00  0.70918503845E+02  0.70918503845E+02  0.00000000000E+00 0. -1.
         -2   -1    0    0    0  501 -0.00000000000E+00 -0.00000000000E+00 -0.16111883033E+04  0.16111883033E+04  0.00000000000E+00 0.  1.
         23    2    1    2    0    0  0.16718188553E+03 -0.16763386191E+03 -0.10561262011E+04  0.10861900691E+04  0.91407981350E+02 0.  0.
        -24    2    1    2    0    0 -0.19277146156E+03  0.17567729715E+03 -0.49641842592E+03  0.56641767627E+03  0.79839722393E+02 0.  0.
         13    1    4    4    0    0 -0.12221043151E+03  0.79811916217E+02 -0.20526212654E+03  0.25186875974E+03  0.00000000000E+00 0. -1.
        -14    1    4    4    0    0 -0.70561030050E+02  0.95865380931E+02 -0.29115629938E+03  0.31454891653E+03  0.00000000000E+00 0.  1.
        -13    1    3    3    0    0  0.80499557834E+02 -0.14034896883E+03 -0.72376139097E+03  0.74162562181E+03  0.00000000000E+00 0.  1.
         13    1    3    3    0    0  0.86682327697E+02 -0.27284893079E+02 -0.33236481014E+03  0.34456444730E+03  0.00000000000E+00 0. -1.
         21    1    1    2  502  501  0.25589576025E+02 -0.80434352361E+01  0.12274827595E+02  0.29499061748E+02  0.00000000000E+00 0. -1.
<scales pt_clust_5="13000.00000" pt_clust_6="13000.00000" pt_clust_7="13000.00000" pt_clust_8="13000.00000" pt_clust_9="26.82393"></scales>
<clustering>
<clus scale="   26.824">  1  9  2 -1</clus>
<clus scale="   79.840">  5  6 -1 -1</clus>
<clus scale="   91.408">  7  8 -1 -1</clus>
<clus scale="  256.654">  1  5  2 -1</clus>
<clus scale="   26.824">  1  5  2 -1</clus>
</clustering>
</event>
<event>
 9    1  0.2374319E-005  0.1076181E+03  0.7546771E-02  0.1269305E+00
         -2   -1    0    0    0  501 -0.00000000000E+00  0.00000000000E+00  0.53404956172E+02  0.53404956172E+02  0.00000000000E+00 0.  1.
          1   -1    0    0  502    0  0.00000000000E+00 -0.00000000000E+00 -0.32368652973E+03  0.32368652973E+03  0.00000000000E+00 0. -1.
        -24    2    1    2    0    0  0.53185678783E+02 -0.14906119475E+01 -0.57075857038E+02  0.11237717622E+03  0.80870500973E+02 0.  0.
         23    2    1    2    0    0 -0.59214113826E+02  0.39795885794E+02 -0.13810631945E+03  0.18019475292E+03  0.91141481815E+02 0.  0.
         13    1    3    3    0    0 -0.10348887828E+02 -0.21072025061E+02 -0.35347048971E+02  0.42432812662E+02  0.00000000000E+00 0. -1.
        -14    1    3    3    0    0  0.63534566611E+02  0.19581413114E+02 -0.21728808067E+02  0.69944363561E+02  0.00000000000E+00 0.  1.
        -13    1    4    4    0    0 -0.35948854559E+02  0.29270411125E+02 -0.14622672026E+03  0.15339925302E+03  0.00000000000E+00 0. -1.
         13    1    4    4    0    0 -0.23265259267E+02  0.10525474668E+02  0.81204008054E+01  0.26795499902E+02  0.00000000000E+00 0.  1.
         21    1    1    2  502  501  0.60284350433E+01 -0.38305273846E+02 -0.75099397073E+02  0.84519556756E+02  0.00000000000E+00 0. -1.
<scales pt_clust_5="13000.00000" pt_clust_6="13000.00000" pt_clust_7="13000.00000" pt_clust_8="13000.00000" pt_clust_9="38.77675"></scales>
<clustering>
<clus scale="   38.777">  2  9  1 -1</clus>
<clus scale="   80.871">  5  6 -1 -1</clus>
<clus scale="   91.141">  7  8 -1 -1</clus>
<clus scale="   99.070">  1  5  2 -1</clus>
<clus scale="   38.777">  2  5  1 -1</clus>
</clustering>
</event>
<event>
 9    1  0.2374319E-005  0.1465056E+03  0.7546771E-02  0.1229702E+00
         -2   -1    0    0    0  501 -0.00000000000E+00  0.00000000000E+00  0.24355763371E+03  0.24355763371E+03  0.00000000000E+00 0.  1.
          1   -1    0    0  502    0  0.00000000000E+00 -0.00000000000E+00 -0.15898548022E+03  0.15898548022E+03  0.00000000000E+00 0. -1.
        -24    2    1    2    0    0 -0.26493996068E+02 -0.17662626302E+02  0.62901482534E+02  0.10711433716E+03  0.80641084599E+02 0.  0.
         23    2    1    2    0    0 -0.17814293190E+02  0.12241299345E+03  0.74125796463E+02  0.17017940907E+03  0.90355451209E+02 0.  0.
         13    1    3    3    0    0  0.21664905774E+02  0.29848972532E+01 -0.38995711347E+01  0.22214508972E+02  0.00000000000E+00 0. -1.
        -14    1    3    3    0    0 -0.48158901842E+02 -0.20647523555E+02  0.66801053669E+02  0.84899828191E+02  0.00000000000E+00 0.  1.
        -11    1    4    4    0    0  0.28557698179E+02  0.87298764230E+02  0.28245665852E+02  0.96095962458E+02  0.00000000000E+00 0.  1.
         11    1    4    4    0    0 -0.46371991369E+02  0.35114229222E+02  0.45880130611E+02  0.74083446614E+02  0.00000000000E+00 0. -1.
         21    1    1    2  502  501  0.44308289258E+02 -0.10475036715E+03 -0.52455125505E+02  0.12524936769E+03  0.00000000000E+00 0. -1.
<scales pt_clust_5="13000.00000" pt_clust_6="13000.00000" pt_clust_7="13000.00000" pt_clust_8="13000.00000" pt_clust_9="115.32469"></scales>
<clustering>
<clus scale="   80.641">  5  6 -1 -1</clus>
<clus scale="   86.700">  1  5  2 -1</clus>
<clus scale="   90.355">  7  8 -1 -1</clus>
<clus scale="  115.325">  2  9  1 -1</clus>
<clus scale="  115.325">  2  5  1 -1</clus>
</clustering>
</event>
<event>
 9    1  0.2374319E-005  0.8165531E+02  0.7546771E-02  0.1325351E+00
         -2   -1    0    0    0  501 -0.00000000000E+00  0.00000000000E+00  0.32090728771E+03  0.32090728771E+03  0.00000000000E+00 0.  1.
          1   -1    0    0  502    0  0.00000000000E+00 -0.00000000000E+00 -0.46340445735E+02  0.46340445735E+02  0.00000000000E+00 0. -1.
        -24    2    1    2    0    0  0.17337678656E+02  0.90107318293E+01  0.22811747671E+03  0.24267443818E+03  0.80445704528E+02 0.  0.
         23    2    1    2    0    0  0.76888203884E+01 -0.84606919722E+01  0.56217709238E+02  0.97702330598E+02  0.79086113223E+02 0.  0.
         13    1    3    3    0    0  0.33115882942E+02  0.32398227878E+02  0.85026440579E+02  0.96828727505E+02  0.00000000000E+00 0. -1.
        -14    1    3    3    0    0 -0.15778204285E+02 -0.23387496049E+02  0.14309103613E+03  0.14584571068E+03  0.00000000000E+00 0.  1.
        -11    1    4    4    0    0  0.33422968426E+02 -0.30316979688E+02  0.24350380306E+02  0.51275287389E+02  0.00000000000E+00 0. -1.
         11    1    4    4    0    0 -0.25734148037E+02  0.21856287715E+02  0.31867328931E+02  0.46427043209E+02  0.00000000000E+00 0.  1.
         21    1    1    2  502  501 -0.25026499045E+02 -0.55003985717E+00 -0.97683439699E+01  0.26870964668E+02  0.00000000000E+00 0.  1.
<scales pt_clust_5="13000.00000" pt_clust_6="13000.00000" pt_clust_7="13000.00000" pt_clust_8="13000.00000" pt_clust_9="25.03254"></scales>
<clustering>
<clus scale="   25.033">  2  9  1 -1</clus>
<clus scale="   79.086">  7  8 -1 -1</clus>
<clus scale="   80.316">  2  7  1 -1</clus>
<clus scale="   80.446">  5  6 -1 -1</clus>
<clus scale="   25.033">  2  5  1 -1</clus>
</clustering>
</event>
<event>
 9    1  0.2374319E-005  0.1063800E+03  0.7546771E-02  0.1267604E+00
          1   -1    0    0  502    0  0.00000000000E+00  0.00000000000E+00  0.18991375556E+03  0.18991375556E+03  0.00000000000E+00 0. -1.
         -2   -1    0    0    0  501 -0.00000000000E+00 -0.00000000000E+00 -0.13584232109E+03  0.13584232109E+03  0.00000000000E+00 0.  1.
        -24    2    1    2    0    0 -0.59731225850E+02  0.23023424915E+01 -0.87604800296E+02  0.13917759745E+03  0.90125925655E+02 0.  0.
         23    2    1    2    0    0  0.36228552727E+02 -0.22844501309E+01  0.10842415760E+03  0.14585899247E+03  0.90561145025E+02 0.  0.
         11    1    3    3    0    0 -0.41260861069E+02 -0.11475782035E+02  0.55772304489E+01  0.43188629626E+02  0.00000000000E+00 0. -1.
        -12    1    3    3    0    0 -0.18470364781E+02  0.13778124527E+02 -0.93182030744E+02  0.95988967826E+02  0.00000000000E+00 0.  1.
        -11    1    4    4    0    0 -0.63389247091E+01 -0.36437554952E+02  0.20260325142E+02  0.42170583968E+02  0.00000000000E+00 0.  1.
         11    1    4    4    0    0  0.42567477436E+02  0.34153104821E+02  0.88163832453E+02  0.10368840850E+03  0.00000000000E+00 0. -1.
         21    1    1    2  502  501  0.23502673123E+02 -0.17892360538E-01  0.33252077162E+02  0.40719486731E+02  0.00000000000E+00 0. -1.
<scales pt_clust_5="13000.00000" pt_clust_6="13000.00000" pt_clust_7="13000.00000" pt_clust_8="13000.00000" pt_clust_9="23.50268"></scales>
<clustering>
<clus scale="   23.503">  1  9  2 -1</clus>
<clus scale="   90.126">  5  6 -1 -1</clus>
<clus scale="   90.561">  7  8 -1 -1</clus>
<clus scale="  106.010">  2  5  1 -1</clus>
<clus scale="   23.503">  1  5  2 -1</clus>
</clustering>
</event>
<event>
 9    1  0.2374319E-005  0.1120876E+03  0.7546771E-02  0.1260223E+00
          1   -1    0    0  502    0  0.00000000000E+00  0.00000000000E+00  0.26806993731E+03  0.26806993731E+03  0.00000000000E+00 0. -1.
         -2   -1    0    0    0  501 -0.00000000000E+00 -0.00000000000E+00 -0.90901206772E+02  0.90901206772E+02  0.00000000000E+00 0.  1.
        -24    2    1    2    0    0 -0.63574309799E+02  0.15782078140E+02 -0.29802115837E+02  0.10706547554E+03  0.79272208800E+02 0.  0.
         23    2    1    2    0    0  0.82115462589E+02 -0.74874541963E+01  0.15992279116E+03  0.20066023331E+03  0.88826904314E+02 0.  0.
         11    1    3    3    0    0  0.15011160299E+02  0.17213381888E+02  0.45595114135E+00  0.22843890671E+02  0.00000000000E+00 0. -1.
        -12    1    3    3    0    0 -0.78585470098E+02 -0.14313037484E+01 -0.30258066979E+02  0.84221584871E+02  0.00000000000E+00 0.  1.
        -13    1    4    4    0    0  0.52278131277E+02 -0.19147523434E+02  0.23336252341E+02  0.60367303541E+02  0.00000000000E+00 0.  1.
         13    1    4    4    0    0  0.29837331313E+02  0.11660069238E+02  0.13658653882E+03  0.14029292977E+03  0.00000000000E+00 0. -1.
         21    1    1    2  502  501 -0.18541152790E+02 -0.82946239436E+01  0.47048055211E+02  0.51245435234E+02  0.00000000000E+00 0.  1.
<scales pt_clust_5="13000.00000" pt_clust_6="13000.00000" pt_clust_7="13000.00000" pt_clust_8="13000.00000" pt_clust_9="20.31195"></scales>
<clustering>
<clus scale="   20.312">  1  9  2 -1</clus>
<clus scale="   79.272">  5  6 -1 -1</clus>
<clus scale="   88.827">  7  8 -1 -1</clus>
<clus scale="  104.678">  2  5  1 -1</clus>
<clus scale="   20.312">  1  5  2 -1</clus>
</clustering>
</event>
<event>
 9    1  0.2374319E-005  0.1096883E+03  0.7546771E-02  0.1264900E+00
          1   -1    0    0  502    0  0.00000000000E+00  0.00000000000E+00  0.10190458724E+03  0.10190458724E+03  0.00000000000E+00 0. -1.
         -2   -1    0    0    0  501 -0.00000000000E+00 -0.00000000000E+00 -0.17760914755E+03  0.17760914755E+03  0.00000000000E+00 0.  1.
        -24    2    1    2    0    0  0.36336142093E+02  0.29527799684E+02 -0.99271173202E+02  0.13622271235E+03  0.80682435224E+02 0.  0.
         23    2    1    2    0    0 -0.58645008847E+02 -0.34316421555E+02  0.34280193396E+02  0.11808393530E+03  0.90287486757E+02 0.  0.
         11    1    3    3    0    0  0.33708462975E+02  0.89501626194E+01 -0.70825317621E-01  0.34876509334E+02  0.00000000000E+00 0. -1.
        -12    1    3    3    0    0  0.26276791179E+01  0.20577637064E+02 -0.99200347884E+02  0.10134620301E+03  0.00000000000E+00 0.  1.
        -13    1    4    4    0    0 -0.41777060468E+02 -0.57833671519E+02  0.48067614202E+02  0.86026460335E+02  0.00000000000E+00 0. -1.
         13    1    4    4    0    0 -0.16867948379E+02  0.23517249964E+02 -0.13787420806E+02  0.32057474961E+02  0.00000000000E+00 0.  1.
         21    1    1    2  502  501  0.22308866753E+02  0.47886218713E+01 -0.10713580503E+02  0.25207087147E+02  0.00000000000E+00 0. -1.
<scales pt_clust_5="13000.00000" pt_clust_6="13000.00000" pt_clust_7="13000.00000" pt_clust_8="13000.00000" pt_clust_9="22.81702"></scales>
<clustering>
<clus scale="   22.817">  2  9  1 -1</clus>
<clus scale="   80.682">  5  6 -1 -1</clus>
<clus scale="   90.287">  7  8 -1 -1</clus>
<clus scale="  101.928">  2  5  1 -1</clus>
<clus scale="  109.688">  1  5  2 -1</clus>
</clustering>
</event>
<event>
 9    1  0.2374319E-005  0.2408620E+03  0.7546771E-02  0.1120131E+00
          1   -1    0    0  502    0  0.00000000000E+00  0.00000000000E+00  0.19536833701E+03  0.19536833701E+03  0.00000000000E+00 0. -1.
         -2   -1    0    0    0  501 -0.00000000000E+00 -0.00000000000E+00 -0.33750566464E+03  0.33750566464E+03  0.00000000000E+00 0.  1.
         23    2    1    2    0    0 -0.20814833705E+03 -0.82558359396E+02 -0.93704800975E+02  0.26048488080E+03  0.94499579249E+02 0.  0.
        -24    2    1    2    0    0  0.19000756907E+03  0.11112325181E+03 -0.39520271150E+02  0.23739670968E+03  0.79649811917E+02 0.  0.
         11    1    4    4    0    0  0.15561305657E+03  0.57515910013E+02 -0.74089902538E+01  0.16606744538E+03  0.00000000000E+00 0. -1.
        -12    1    4    4    0    0  0.34394512505E+02  0.53607341794E+02 -0.32111280896E+02  0.71329264300E+02  0.00000000000E+00 0.  1.
        -11    1    3    3    0    0 -0.14322113755E+03 -0.26394496903E+02 -0.96307903169E+02  0.17459718188E+03  0.00000000000E+00 0.  1.
         11    1    3    3    0    0 -0.64927199497E+02 -0.56163862493E+02  0.26031021943E+01  0.85887698920E+02  0.00000000000E+00 0. -1.
         21    1    1    2  502  501  0.18140767975E+02 -0.28564892411E+02 -0.89122555077E+01  0.34992411169E+02  0.00000000000E+00 0.  1.
<scales pt_clust_5="13000.00000" pt_clust_6="13000.00000" pt_clust_7="13000.00000" pt_clust_8="13000.00000" pt_clust_9="33.83845"></scales>
<clustering>
<clus scale="   33.838">  1  9  2 -1</clus>
<clus scale="   79.650">  5  6 -1 -1</clus>
<clus scale="   94.500">  7  8 -1 -1</clus>
<clus scale="  235.432">  1  5  2 -1</clus>
<clus scale="   33.838">  1  5  2 -1</clus>
</clustering>
</event>
<event>
 9    1  0.2374319E-005  0.1070796E+03  0.7546771E-02  0.1268620E+00
         -2   -1    0    0    0  501 -0.00000000000E+00  0.00000000000E+00  0.61307359357E+02  0.61307359357E+02  0.00000000000E+00 0.  1.
          1   -1    0    0  502    0  0.00000000000E+00 -0.00000000000E+00 -0.72099547705E+03  0.72099547705E+03  0.00000000000E+00 0. -1.
        -24    2    1    2    0    0  0.68418738303E+02  0.97011313980E+01  0.20945646920E+00  0.10591570974E+03  0.80267415527E+02 0.  0.
         23    2    1    2    0    0 -0.11311966072E+02 -0.21635833457E+02 -0.39935883785E+03  0.40939638963E+03  0.86728614686E+02 0.  0.
         11    1    3    3    0    0  0.53585863016E+02 -0.26279665809E+02 -0.18839180453E+02  0.62585783292E+02  0.00000000000E+00 0. -1.
        -12    1    3    3    0    0  0.14832875287E+02  0.35980797207E+02  0.19048636923E+02  0.43329926443E+02  0.00000000000E+00 0.  1.
        -13    1    4    4    0    0  0.28987964010E+02  0.14980932143E+02 -0.10196301753E+03  0.10705693499E+03  0.00000000000E+00 0.  1.
         13    1    4    4    0    0 -0.40299930081E+02 -0.36616765601E+02 -0.29739582032E+03  0.30233945464E+03  0.00000000000E+00 0. -1.
         21    1    1    2  502  501 -0.57106772231E+02  0.11934702059E+02 -0.26053873630E+03  0.26699073704E+03  0.00000000000E+00 0. -1.
<scales pt_clust_5="13000.00000" pt_clust_6="13000.00000" pt_clust_7="13000.00000" pt_clust_8="13000.00000" pt_clust_9="58.34056"></scales>
<clustering>
<clus scale="   58.341">  2  9  1 -1</clus>
<clus scale="   80.267">  5  6 -1 -1</clus>
<clus scale="   86.729">  7  8 -1 -1</clus>
<clus scale="  101.917">  1  5  2 -1</clus>
<clus scale="   58.341">  2  5  1 -1</clus>
</clustering>
</event>
<event>
 9    1  0.2374319E-005  0.1114578E+03  0.7546771E-02  0.1261637E+00
          1   -1    0    0  502    0  0.00000000000E+00  0.00000000000E+00  0.25918566726E+03  0.25918566726E+03  0.00000000000E+00 0. -1.
         -2   -1    0    0    0  501 -0.00000000000E+00 -0.00000000000E+00 -0.80008477601E+02  0.80008477601E+02  0.00000000000E+00 0.  1.
        -24    2    1    2    0    0 -0.31294317431E+02 -0.51529935613E+02  0.15390854406E+00  0.10002992982E+03  0.79820389648E+02 0.  0.
         23    2    1    2    0    0  0.63528812916E+02  0.59773161537E+02  0.14475687496E+03  0.19140230487E+03  0.89841797348E+02 0.  0.
         11    1    3    3    0    0  0.74317769082E+01 -0.29862845282E+02  0.32772313585E+02  0.44956038238E+02  0.00000000000E+00 0. -1.
        -12    1    3    3    0    0 -0.38726094339E+02 -0.21667090331E+02 -0.32618405041E+02  0.55073891579E+02  0.00000000000E+00 0.  1.
        -11    1    4    4    0    0  0.45758904894E+01  0.37360257953E+02  0.11624588515E+03  0.12218769767E+03  0.00000000000E+00 0. -1.
         11    1    4    4    0    0  0.58952922427E+02  0.22412903584E+02  0.28510989813E+02  0.69214607200E+02  0.00000000000E+00 0.  1.
         21    1    1    2  502  501 -0.32234495485E+02 -0.82432259236E+01  0.34266406155E+02  0.47761910175E+02  0.00000000000E+00 0.  1.
<scales pt_clust_5="13000.00000" pt_clust_6="13000.00000" pt_clust_7="13000.00000" pt_clust_8="13000.00000" pt_clust_9="33.27181"></scales>
<clustering>
<clus scale="   33.272">  1  9  2 -1</clus>
<clus scale="   79.820">  5  6 -1 -1</clus>
<clus scale="   89.842">  7  8 -1 -1</clus>
<clus scale="  103.550">  2  5  1 -1</clus>
<clus scale="   33.272">  1  5  2 -1</clus>
</clustering>
</event>
<event>
 9    1  0.2374319E-005  0.8091847E+02  0.7546771E-02  0.1335955E+00
         -2   -1    0    0    0  501 -0.00000000000E+00  0.00000000000E+00  0.29661970102E+03  0.29661970102E+03  0.00000000000E+00 0.  1.
          1   -1    0    0  502    0  0.00000000000E+00 -0.00000000000E+00 -0.93235227254E+02  0.93235227254E+02  0.00000000000E+00 0. -1.
        -24    2    1    2    0    0 -0.26230870579E+02 -0.44732517610E+01  0.24864555068E+03  0.26187202454E+03  0.77744960051E+02 0.  0.
         23    2    1    2    0    0 -0.95266401530E+01  0.26994393418E+02 -0.72352615636E+01  0.71134297527E+02  0.64716961657E+02 0.  0.
         13    1    3    3    0    0  0.19580419044E+02 -0.99132315475E+01  0.23931085937E+02  0.32470938450E+02  0.00000000000E+00 0. -1.
        -14    1    3    3    0    0 -0.45811289623E+02  0.54399797865E+01  0.22471446474E+03  0.22940108609E+03  0.00000000000E+00 0.  1.
        -11    1    4    4    0    0 -0.23748697513E+02  0.64980376259E+01  0.21777436080E+02  0.32870683729E+02  0.00000000000E+00 0.  1.
         11    1    4    4    0    0  0.14222057360E+02  0.20496355792E+02 -0.29012697644E+02  0.38263613798E+02  0.00000000000E+00 0. -1.
         21    1    1    2  502  501  0.35757510732E+02 -0.22521141657E+02 -0.38025815344E+02  0.56848606209E+02  0.00000000000E+00 0. -1.
<scales pt_clust_5="13000.00000" pt_clust_6="13000.00000" pt_clust_7="13000.00000" pt_clust_8="13000.00000" pt_clust_9="42.25874"></scales>
<clustering>
<clus scale="   42.259">  2  9  1 -1</clus>
<clus scale="   64.717">  7  8 -1 -1</clus>
<clus scale="   68.497">  2  7  1 -1</clus>
<clus scale="   77.745">  5  6 -1 -1</clus>
<clus scale="   42.259">  2  5  1 -1</clus>
</clustering>
</event>
<event>
 9    1  0.2374319E-005  0.1060600E+03  0.7546771E-02  0.1273779E+00
         -2   -1    0    0    0  501 -0.00000000000E+00  0.00000000000E+00  0.52339642543E+02  0.52339642543E+02  0.00000000000E+00 0.  1.
          1   -1    0    0  502    0  0.00000000000E+00 -0.00000000000E+00 -0.92753492602E+03  0.92753492602E+03  0.00000000000E+00 0. -1.
        -24    2    1    2    0    0  0.13753938221E+02 -0.45851412531E+02 -0.20434625913E+02  0.94770357089E+02  0.79198003756E+02 0.  0.
         23    2    1    2    0    0  0.16155020803E+02  0.11330409941E+03 -0.67443050314E+03  0.69026228736E+03  0.92231871641E+02 0.  0.
         11    1    3    3    0    0  0.30130392876E+02 -0.72414601097E+01  0.19700854431E+02  0.36720607085E+02  0.00000000000E+00 0. -1.
        -12    1    3    3    0    0 -0.16376454656E+02 -0.38609952421E+02 -0.40135480343E+02  0.58049750003E+02  0.00000000000E+00 0.  1.
        -13    1    4    4    0    0 -0.15135914342E+02  0.11329578249E+03 -0.48670429871E+03  0.49994610171E+03  0.00000000000E+00 0. -1.
         13    1    4    4    0    0  0.31290935145E+02  0.83169295100E-02 -0.18772620442E+03  0.19031618564E+03  0.00000000000E+00 0.  1.
         21    1    1    2  502  501 -0.29908959023E+02 -0.67452686884E+02 -0.18033015443E+03  0.19484192412E+03  0.00000000000E+00 0.  1.
<scales pt_clust_5="13000.00000" pt_clust_6="13000.00000" pt_clust_7="13000.00000" pt_clust_8="13000.00000" pt_clust_9="73.78625"></scales>
<clustering>
<clus scale="   73.786">  2  9  1 -1</clus>
<clus scale="   79.198">  5  6 -1 -1</clus>
<clus scale="   92.232">  7  8 -1 -1</clus>
<clus scale="   94.944">  1  5  2 -1</clus>
<clus scale="   73.786">  2  5  1 -1</clus>
</clustering>
</event>
<event>
 9    1  0.2374319E-005  0.1352009E+03  0.7546771E-02  0.1222030E+00
          1   -1    0    0  502    0  0.00000000000E+00  0.00000000000E+00  0.19415106298E+03  0.19415106298E+03  0.00000000000E+00 0. -1.
         -2   -1    0    0    0  501 -0.00000000000E+00 -0.00000000000E+00 -0.40843133899E+03  0.40843133899E+03  0.00000000000E+00 0.  1.
        -24    2    1    2    0    0  0.85234135130E+02 -0.46745300539E+02 -0.31839520239E+03  0.34274267218E+03  0.81529464104E+02 0.  0.
         23    2    1    2    0    0 -0.13701012780E+03  0.48777433287E+02  0.11577028355E+03  0.20672918158E+03  0.90460946520E+02 0.  0.
         11    1    3    3    0    0 -0.12656213762E+02 -0.19139937978E+02 -0.37076241528E+02  0.43602346937E+02  0.00000000000E+00 0. -1.
        -12    1    3    3    0    0  0.97890348892E+02 -0.27605362561E+02 -0.28131896086E+03  0.29914032524E+03  0.00000000000E+00 0.  1.
        -11    1    4    4    0    0 -0.10838772505E+03  0.75409077370E+02  0.92743359745E+02  0.16135599979E+03  0.00000000000E+00 0. -1.
         11    1    4    4    0    0 -0.28622402745E+02 -0.26631644083E+02  0.23026923808E+02  0.45373181788E+02  0.00000000000E+00 0.  1.
         21    1    1    2  502  501  0.51775992669E+02 -0.20321327479E+01 -0.11655357170E+02  0.53110548210E+02  0.00000000000E+00 0. -1.
<scales pt_clust_5="13000.00000" pt_clust_6="13000.00000" pt_clust_7="13000.00000" pt_clust_8="13000.00000" pt_clust_9="51.81586"></scales>
<clustering>
<clus scale="   51.816">  1  9  2 -1</clus>
<clus scale="   81.529">  5  6 -1 -1</clus>
<clus scale="   90.461">  7  8 -1 -1</clus>
<clus scale="  129.395">  2  5  1 -1</clus>
<clus scale="   51.816">  1  5  2 -1</clus>
</clustering>
</event>
<event>
 9    1  0.2374319E-005  0.1244245E+03  0.7546771E-02  0.1253722E+00
          1   -1    0    0  502    0  0.00000000000E+00  0.00000000000E+00  0.11708042954E+03  0.11708042954E+03  0.00000000000E+00 0. -1.
         -2   -1    0    0    0  501 -0.00000000000E+00 -0.00000000000E+00 -0.27467629376E+03  0.27467629376E+03  0.00000000000E+00 0.  1.
        -24    2    1    2    0    0 -0.27024048834E+01  0.40183563388E+02 -0.14921340735E+03  0.17272992618E+03  0.77129531993E+02 0.  0.
         23    2    1    2    0    0 -0.56650799087E+02  0.40980878713E+02  0.11222776540E+02  0.11658249684E+03  0.92610919432E+02 0.  0.
         13    1    3    3    0    0 -0.10539051047E+02  0.62417257927E+02 -0.11291539902E+03  0.12944834113E+03  0.00000000000E+00 0. -1.
        -14    1    3    3    0    0  0.78366461638E+01 -0.22233694539E+02 -0.36298008329E+02  0.43281585052E+02  0.00000000000E+00 0.  1.
        -13    1    4    4    0    0  0.22810078210E+02 -0.35402029859E+01  0.10832191385E+02  0.25498413192E+02  0.00000000000E+00 0.  1.
         13    1    4    4    0    0 -0.79460877297E+02  0.44521081699E+02  0.39058515525E+00  0.91084083644E+02  0.00000000000E+00 0. -1.
         21    1    1    2  502  501  0.59353203971E+02 -0.81164442101E+02 -0.19605233405E+02  0.10244430028E+03  0.00000000000E+00 0.  1.
<scales pt_clust_5="13000.00000" pt_clust_6="13000.00000" pt_clust_7="13000.00000" pt_clust_8="13000.00000" pt_clust_9="83.09436"></scales>
<clustering>
<clus scale="   77.130">  5  6 -1 -1</clus>
<clus scale="   87.011">  2  5  1 -1</clus>
<clus scale="   83.094">  2  9  1 -1</clus>
<clus scale="   92.611">  7  8 -1 -1</clus>
<clus scale="  124.424">  1  5  2 -1</clus>
</clustering>
</event>
<event>
 9    1  0.2374319E-005  0.1816160E+03  0.7546771E-02  0.1166555E+00
          1   -1    0    0  502    0  0.00000000000E+00  0.00000000000E+00  0.36015477778E+03  0.36015477778E+03  0.00000000000E+00 0. -1.
         -2   -1    0    0    0  501 -0.00000000000E+00 -0.00000000000E+00 -0.12148993993E+03  0.12148993993E+03  0.00000000000E+00 0.  1.
        -24    2    1    2    0    0  0.56001569376E+02  0.14789302152E+03  0.67274734735E+02  0.19300460185E+03  0.87842841565E+02 0.  0.
         23    2    1    2    0    0 -0.75144544487E+02 -0.13846941213E+03  0.86667324668E+02  0.20127188881E+03  0.90435985087E+02 0.  0.
         11    1    3    3    0    0  0.29453624630E+02  0.80075296703E+02 -0.11072419277E+02  0.86035850751E+02  0.00000000000E+00 0. -1.
        -12    1    3    3    0    0  0.26547944747E+02  0.67817724821E+02  0.78347154012E+02  0.10696875110E+03  0.00000000000E+00 0.  1.
        -13    1    4    4    0    0 -0.54621173259E+02 -0.90876401877E+02  0.70392046147E+01  0.10626167412E+03  0.00000000000E+00 0.  1.
         13    1    4    4    0    0 -0.20523371228E+02 -0.47593010256E+02  0.79628120053E+02  0.95010214688E+02  0.00000000000E+00 0. -1.
         21    1    1    2  502  501  0.19142975111E+02 -0.94236093911E+01  0.84722778443E+02  0.87368227046E+02  0.00000000000E+00 0.  1.
<scales pt_clust_5="13000.00000" pt_clust_6="13000.00000" pt_clust_7="13000.00000" pt_clust_8="13000.00000" pt_clust_9="21.33677"></scales>
<clustering>
<clus scale="   21.337">  1  9  2 -1</clus>
<clus scale="   87.843">  5  6 -1 -1</clus>
<clus scale="   90.436">  7  8 -1 -1</clus>
<clus scale="  180.339">  2  5  1 -1</clus>
<clus scale="   21.337">  1  5  2 -1</clus>
</clustering>
</event>
<event>
 9    1  0.2374319E-005  0.1625649E+03  0.7546771E-02  0.1196145E+00
         -2   -1    0    0    0  501 -0.00000000000E+00  0.00000000000E+00  0.75413995646E+03  0.75413995646E+03  0.00000000000E+00 0.  1.
          1   -1    0    0  502    0  0.00000000000E+00 -0.00000000000E+00 -0.10081290850E+03  0.10081290850E+03  0.00000000000E+00 0. -1.
         23    2    1    2    0    0 -0.75435635424E+02  0.81505639629E+02  0.39417814957E+03  0.41992366697E+03  0.92875013345E+02 0.  0.
        -24    2    1    2    0    0 -0.61733014353E+02  0.80801646128E+02  0.56117510053E+02  0.14112336588E+03  0.80167065458E+02 0.  0.
         13    1    4    4    0    0 -0.44184132030E+02  0.33487197648E+02 -0.11629439854E+02  0.56646922254E+02  0.00000000000E+00 0. -1.
        -14    1    4    4    0    0 -0.17548882323E+02  0.47314448480E+02  0.67746949906E+02  0.84476443624E+02  0.00000000000E+00 0.  1.
        -11    1    3    3    0    0 -0.42576605352E+02 -0.81813725900E+01  0.18432424713E+03  0.18935450948E+03  0.00000000000E+00 0. -1.
         11    1    3    3    0    0 -0.32859030072E+02  0.89687012219E+02  0.20985390244E+03  0.23056915749E+03  0.00000000000E+00 0.  1.
         21    1    1    2  502  501  0.13716864978E+03 -0.16230728576E+03  0.20303138834E+03  0.29390583210E+03  0.00000000000E+00 0.  1.
<scales pt_clust_5="13000.00000" pt_clust_6="13000.00000" pt_clust_7="13000.00000" pt_clust_8="13000.00000" pt_clust_9="133.42260"></scales>
<clustering>
<clus scale="   80.167">  5  6 -1 -1</clus>
<clus scale="   92.875">  7  8 -1 -1</clus>
<clus scale="  129.486">  2  5  1 -1</clus>
<clus scale="  133.423">  2  9  1 -1</clus>
<clus scale="  129.486">  2  5  1 -1</clus>
</clustering>
</event>
<event>
 9    1  0.2374319E-005  0.1105575E+03  0.7546771E-02  0.1262817E+00
         -2   -1    0    0    0  501 -0.00000000000E+00  0.00000000000E+00  0.57239458539E+03  0.57239458539E+03  0.00000000000E+00 0.  1.
          1   -1    0    0  502    0  0.00000000000E+00 -0.00000000000E+00 -0.37982418123E+02  0.37982418123E+02  0.00000000000E+00 0. -1.
        -24    2    1    2    0    0  0.77017951616E+02 -0.57162036066E+02  0.33211938824E+03  0.35432382644E+03  0.77735594809E+02 0.  0.
         23    2    1    2    0    0 -0.25265021142E+02  0.18476614759E+02  0.12495224525E+03  0.15527378533E+03  0.86701662229E+02 0.  0.
         13    1    3    3    0    0  0.76459423160E+02 -0.33528755747E+02  0.15889003754E+03  0.17948889905E+03  0.00000000000E+00 0. -1.
        -14    1    3    3    0    0  0.55852845570E+00 -0.23633280318E+02  0.17322935069E+03  0.17483492739E+03  0.00000000000E+00 0.  1.
        -11    1    4    4    0    0 -0.57364025244E+02  0.16817271757E+02  0.75613806055E+02  0.96389313140E+02  0.00000000000E+00 0. -1.
         11    1    4    4    0    0  0.32099004102E+02  0.16593430026E+01  0.49338439193E+02  0.58884472194E+02  0.00000000000E+00 0.  1.
         21    1    1    2  502  501 -0.51752930474E+02  0.38685421307E+02  0.77340533784E+02  0.10077939174E+03  0.00000000000E+00 0. -1.
<scales pt_clust_5="13000.00000" pt_clust_6="13000.00000" pt_clust_7="13000.00000" pt_clust_8="13000.00000" pt_clust_9="64.61368"></scales>
<clustering>
<clus scale="   64.614">  2  9  1 -1</clus>
<clus scale="   77.736">  5  6 -1 -1</clus>
<clus scale="   86.702">  7  8 -1 -1</clus>
<clus scale="  103.675">  1  5  2 -1</clus>
<clus scale="   64.614">  2  5  1 -1</clus>
</clustering>
</event>
<event>
 9    1  0.2374319E-005  0.1096833E+03  0.7546771E-02  0.1265323E+00
         -2   -1    0    0    0  501 -0.00000000000E+00  0.00000000000E+00  0.28499885379E+03  0.28499885379E+03  0.00000000000E+00 0.  1.
          1   -1    0    0  502    0  0.00000000000E+00 -0.00000000000E+00 -0.84657174513E+02  0.84657174513E+02  0.00000000000E+00 0. -1.
         23    2    1    2    0    0  0.30185386166E+02  0.44244718902E+02  0.17115568244E+03  0.20131072904E+03  0.91449381111E+02 0.  0.
        -24    2    1    2    0    0 -0.22735973094E+02 -0.75846993360E+02  0.55908848847E+02  0.12629404095E+03  0.80961067967E+02 0.  0.
         11    1    4    4    0    0 -0.50554314353E+02 -0.52039564051E+02  0.20581951870E+02  0.75415327813E+02  0.00000000000E+00 0. -1.
        -12    1    4    4    0    0  0.27818341259E+02 -0.23807429310E+02  0.35326896977E+02  0.50878713140E+02  0.00000000000E+00 0.  1.
        -13    1    3    3    0    0 -0.15476969300E+02  0.56568520146E+02  0.92124934946E+02  0.10920868871E+03  0.00000000000E+00 0. -1.
         13    1    3    3    0    0  0.45662355466E+02 -0.12323801244E+02  0.79030747497E+02  0.92102040334E+02  0.00000000000E+00 0.  1.
         21    1    1    2  502  501 -0.74494130715E+01  0.31602274458E+02 -0.26722852011E+02  0.42051258312E+02  0.00000000000E+00 0. -1.
<scales pt_clust_5="13000.00000" pt_clust_6="13000.00000" pt_clust_7="13000.00000" pt_clust_8="13000.00000" pt_clust_9="32.46841"></scales>
<clustering>
<clus scale="   32.468">  2  9  1 -1</clus>
<clus scale="   80.961">  5  6 -1 -1</clus>
<clus scale="   91.449">  7  8 -1 -1</clus>
<clus scale="  101.105">  2  5  1 -1</clus>
<clus scale="   32.468">  2  5  1 -1</clus>
</clustering>
</event>
<event>
 9    1  0.2374319E-005  0.3108681E+03  0.7546771E-02  0.1080368E+00
         -2   -1    0    0    0  501 -0.00000000000E+00  0.00000000000E+00  0.18121121665E+03  0.18121121665E+03  0.00000000000E+00 0.  1.
          1   -1    0    0  502    0  0.00000000000E+00 -0.00000000000E+00 -0.17498794820E+04  0.17498794820E+04  0.00000000000E+00 0. -1.
        -24    2    1    2    0    0  0.18443173844E+02  0.29446717302E+03  0.13224315381E+02  0.30592646894E+03  0.79781296264E+02 0.  0.
         23    2    1    2    0    0  0.17277863311E+02 -0.31306133093E+03 -0.13041403755E+04  0.13445078157E+04  0.92807467569E+02 0.  0.
         13    1    3    3    0    0  0.19150195126E+02  0.30259314559E+02  0.21167467178E+02  0.41598290321E+02  0.00000000000E+00 0. -1.
        -14    1    3    3    0    0 -0.70702128209E+00  0.26420785847E+03 -0.79431517971E+01  0.26432817862E+03  0.00000000000E+00 0.  1.
        -13    1    4    4    0    0 -0.22787025532E+02 -0.18004465982E+02 -0.12914422576E+03  0.13236933321E+03  0.00000000000E+00 0.  1.
         13    1    4    4    0    0  0.40064888843E+02 -0.29505686494E+03 -0.11749961497E+04  0.12121384825E+04  0.00000000000E+00 0. -1.
         21    1    1    2  502  501 -0.35721037155E+02  0.18594157903E+02 -0.27775220527E+03  0.28065641403E+03  0.00000000000E+00 0.  1.
<scales pt_clust_5="13000.00000" pt_clust_6="13000.00000" pt_clust_7="13000.00000" pt_clust_8="13000.00000" pt_clust_9="40.27077"></scales>
<clustering>
<clus scale="   40.271">  2  9  1 -1</clus>
<clus scale="   79.781">  5  6 -1 -1</clus>
<clus scale="   92.807">  7  8 -1 -1</clus>
<clus scale="  307.231">  1  5  2 -1</clus>
<clus scale="   40.271">  2  5  1 -1</clus>
</clustering>
</event>
<event>
 9    1  0.2374319E-005  0.1084379E+03  0.7546771E-02  0.1265401E+00
          3   -1    0    0  502    0  0.00000000000E+00  0.00000000000E+00  0.19746232846E+03  0.19746232846E+03  0.00000000000E+00 0. -1.
         -4   -1    0    0    0  501 -0.00000000000E+00 -0.00000000000E+00 -0.23795194131E+03  0.23795194131E+03  0.00000000000E+00 0.  1.
        -24    2    1    2    0    0  0.64603588831E+02  0.58723988757E+01 -0.19037211995E+03  0.21805075210E+03  0.84240593997E+02 0.  0.
         23    2    1    2    0    0 -0.24176399104E+02 -0.16125781305E+02  0.14853141997E+03  0.17563445158E+03  0.89114189487E+02 0.  0.
         13    1    3    3    0    0  0.38401888574E+02  0.79686906284E+01 -0.17082124781E+02  0.42778546766E+02  0.00000000000E+00 0. -1.
        -14    1    3    3    0    0  0.26201700257E+02 -0.20962917526E+01 -0.17328999517E+03  0.17527220533E+03  0.00000000000E+00 0.  1.
        -11    1    4    4    0    0 -0.32792395315E+02  0.28351923354E+02  0.10130949469E+03  0.11019431230E+03  0.00000000000E+00 0.  1.
         11    1    4    4    0    0  0.86159962115E+01 -0.44477704659E+02  0.47221925282E+02  0.65440139286E+02  0.00000000000E+00 0. -1.
         21    1    1    2  502  501 -0.40427189727E+02  0.10253382429E+02  0.13510871337E+01  0.41729066092E+02  0.00000000000E+00 0. -1.
<scales pt_clust_5="13000.00000" pt_clust_6="13000.00000" pt_clust_7="13000.00000" pt_clust_8="13000.00000" pt_clust_9="41.70719"></scales>
<clustering>
<clus scale="   41.707">  1  9  2 -1</clus>
<clus scale="   84.241">  5  6 -1 -1</clus>
<clus scale="   89.114">  7  8 -1 -1</clus>
<clus scale="  104.470">  2  5  1 -1</clus>
<clus scale="   41.707">  1  5  2 -1</clus>
</clustering>
</event>
<event>
 9    1  0.2374319E-005  0.1072064E+03  0.7546771E-02  0.1276891E+00
         -2   -1    0    0    0  501 -0.00000000000E+00  0.00000000000E+00  0.49342047257E+02  0.49342047257E+02  0.00000000000E+00 0.  1.
          1   -1    0    0  502    0  0.00000000000E+00 -0.00000000000E+00 -0.34289474294E+03  0.34289474294E+03  0.00000000000E+00 0. -1.
        -24    2    1    2    0    0 -0.19825881655E+02  0.29774981865E+02 -0.25366866029E+02  0.91309123605E+02  0.80089094344E+02 0.  0.
         23    2    1    2    0    0 -0.94829254415E+01 -0.30256640771E+02 -0.21907799684E+03  0.24373660599E+03  0.10201457845E+03 0.  0.
         11    1    3    3    0    0 -0.37920713590E+02 -0.16896365872E+01 -0.37184792811E+02  0.53137032353E+02  0.00000000000E+00 0. -1.
        -12    1    3    3    0    0  0.18094831935E+02  0.31464618452E+02  0.11817926781E+02  0.38172091251E+02  0.00000000000E+00 0.  1.
        -11    1    4    4    0    0 -0.23958935952E+02  0.31496251518E+02 -0.54439902591E+02  0.67303398620E+02  0.00000000000E+00 0.  1.
         11    1    4    4    0    0  0.14476010511E+02 -0.61752892289E+02 -0.16463809425E+03  0.17643320737E+03  0.00000000000E+00 0. -1.
         21    1    1    2  502  501  0.29308807097E+02  0.48165890565E+00 -0.49107832820E+02  0.57191060604E+02  0.00000000000E+00 0. -1.
<scales pt_clust_5="13000.00000" pt_clust_6="13000.00000" pt_clust_7="13000.00000" pt_clust_8="13000.00000" pt_clust_9="29.31276"></scales>
<clustering>
<clus scale="   29.313">  2  9  1 -1</clus>
<clus scale="   80.089">  5  6 -1 -1</clus>
<clus scale="   86.605">  1  5  2 -1</clus>
<clus scale="  102.015">  7  8 -1 -1</clus>
<clus scale="   29.313">  2  5  1 -1</clus>
</clustering>
</event>
<event>
 9    1  0.2374319E-005  0.1774353E+03  0.7546771E-02  0.1171996E+00
          1   -1    0    0  502    0  0.00000000000E+00  0.00000000000E+00  0.34844669186E+03  0.34844669186E+03  0.00000000000E+00 0. -1.
         -2   -1    0    0    0  501 -0.00000000000E+00 -0.00000000000E+00 -0.13088359620E+03  0.13088359620E+03  0.00000000000E+00 0.  1.
         23    2    1    2    0    0 -0.92589129419E+02 -0.15864165769E+03  0.53078367154E+02  0.21307703599E+03  0.94045668513E+02 0.  0.
        -24    2    1    2    0    0  0.54800421161E+02  0.10076853804E+03  0.10905830944E+03  0.17765656827E+03  0.80689261816E+02 0.  0.
         11    1    4    4    0    0  0.61220429876E+02  0.55056369049E+02  0.10179948719E+03  0.13092853165E+03  0.00000000000E+00 0. -1.
        -12    1    4    4    0    0 -0.64200087142E+01  0.45712168996E+02  0.72588222491E+01  0.46728036623E+02  0.00000000000E+00 0.  1.
        -11    1    3    3    0    0 -0.36089353324E+02 -0.27024968568E+02 -0.23302839979E+02  0.50752464970E+02  0.00000000000E+00 0. -1.
         11    1    3    3    0    0 -0.56499776095E+02 -0.13161668913E+03  0.76381207132E+02  0.16232457102E+03  0.00000000000E+00 0.  1.
         21    1    1    2  502  501  0.37788708258E+02  0.57873119650E+02  0.55426419069E+02  0.88596683801E+02  0.00000000000E+00 0. -1.
<scales pt_clust_5="13000.00000" pt_clust_6="13000.00000" pt_clust_7="13000.00000" pt_clust_8="13000.00000" pt_clust_9="69.11790"></scales>
<clustering>
<clus scale="   69.118">  1  9  2 -1</clus>
<clus scale="   80.689">  5  6 -1 -1</clus>
<clus scale="   94.046">  7  8 -1 -1</clus>
<clus scale="  170.732">  1  5  2 -1</clus>
<clus scale="   69.118">  1  5  2 -1</clus>
</clustering>
</event>
<event>
 9    1  0.2374319E-005  0.9760034E+02  0.7546771E-02  0.1286393E+00
          1   -1    0    0  502    0  0.00000000000E+00  0.00000000000E+00  0.28523350164E+02  0.28523350164E+02  0.00000000000E+00 0. -1.
         -2   -1    0    0    0  501 -0.00000000000E+00 -0.00000000000E+00 -0.52370240537E+03  0.52370240537E+03  0.00000000000E+00 0.  1.
        -24    2    1    2    0    0  0.73417063601E+01 -0.42132455716E+02 -0.30262242144E+03  0.31742621826E+03  0.85732313643E+02 0.  0.
         23    2    1    2    0    0 -0.38212858981E+02  0.33253220137E+02 -0.13347654930E+03  0.16755130110E+03  0.87700912455E+02 0.  0.
         13    1    3    3    0    0  0.21442469509E+01 -0.68318709497E+02 -0.19863382884E+03  0.21006532751E+03  0.00000000000E+00 0. -1.
        -14    1    3    3    0    0  0.51974594092E+01  0.26186253780E+02 -0.10398859260E+03  0.10736089075E+03  0.00000000000E+00 0.  1.
        -13    1    4    4    0    0  0.12587534324E+02  0.38690204851E+02 -0.25284617981E+02  0.47902921395E+02  0.00000000000E+00 0.  1.
         13    1    4    4    0    0 -0.50800393305E+02 -0.54369847138E+01 -0.10819193132E+03  0.11964837971E+03  0.00000000000E+00 0. -1.
         21    1    1    2  502  501  0.30871152621E+02  0.88792355793E+01 -0.59080084462E+02  0.67248236175E+02  0.00000000000E+00 0. -1.
<scales pt_clust_5="13000.00000" pt_clust_6="13000.00000" pt_clust_7="13000.00000" pt_clust_8="13000.00000" pt_clust_9="32.12272"></scales>
<clustering>
<clus scale="   32.123">  1  9  2 -1</clus>
<clus scale="   85.732">  5  6 -1 -1</clus>
<clus scale="   87.701">  7  8 -1 -1</clus>
<clus scale="   95.835">  2  5  1 -1</clus>
<clus scale="   32.123">  1  5  2 -1</clus>
</clustering>
</event>
<event>
 9    1  0.2374319E-005  0.9045141E+02  0.7546771E-02  0.1308025E+00
          1   -1    0    0  502    0  0.00000000000E+00  0.00000000000E+00  0.24466074758E+03  0.24466074758E+03  0.00000000000E+00 0. -1.
         -2   -1    0    0    0  501 -0.00000000000E+00 -0.00000000000E+00 -0.63965287537E+02  0.63965287537E+02  0.00000000000E+00 0.  1.
         23    2    1    2    0    0  0.13353545996E+01 -0.19337335022E+02 -0.95979821341E+01  0.91721406684E+02  0.89134614407E+02 0.  0.
        -24    2    1    2    0    0 -0.11533334445E+02 -0.95187045736E-01  0.12900199013E+03  0.15180267914E+03  0.79180256849E+02 0.  0.
         13    1    4    4    0    0  0.28320223258E+02  0.19925310040E+02  0.67090696080E+02  0.75499765073E+02  0.00000000000E+00 0. -1.
        -14    1    4    4    0    0 -0.39853557703E+02 -0.20020497086E+02  0.61911294047E+02  0.76302914071E+02  0.00000000000E+00 0.  1.
        -11    1    3    3    0    0  0.21269317906E+02  0.47357173376E+01  0.32598292411E+02  0.39210452318E+02  0.00000000000E+00 0. -1.
         11    1    3    3    0    0 -0.19933963306E+02 -0.24073052360E+02 -0.42196274545E+02  0.52510954366E+02  0.00000000000E+00 0.  1.
         21    1    1    2  502  501  0.10197979845E+02  0.19432522068E+02  0.61291452048E+02  0.65101949287E+02  0.00000000000E+00 0. -1.
<scales pt_clust_5="13000.00000" pt_clust_6="13000.00000" pt_clust_7="13000.00000" pt_clust_8="13000.00000" pt_clust_9="21.94588"></scales>
<clustering>
<clus scale="   21.946">  1  9  2 -1</clus>
<clus scale="   79.180">  5  6 -1 -1</clus>
<clus scale="   80.660">  1  5  2 -1</clus>
<clus scale="   89.135">  7  8 -1 -1</clus>
<clus scale="   21.946">  1  5  2 -1</clus>
</clustering>
</event>
<event>
 9    1  0.2374319E-005  0.1004938E+03  0.7546771E-02  0.1284811E+00
         -2   -1    0    0    0  501 -0.00000000000E+00  0.00000000000E+00  0.11643334157E+03  0.11643334157E+03  0.00000000000E+00 0.  1.
          1   -1    0    0  502    0  0.00000000000E+00 -0.00000000000E+00 -0.23344373430E+03  0.23344373430E+03  0.00000000000E+00 0. -1.
         23    2    1    2    0    0 -0.39841065367E+02  0.14490280654E+02  0.74792508128E+02  0.12580410330E+03  0.91844838782E+02 0.  0.
        -24    2    1    2    0    0  0.36150869971E+02  0.73934110102E+01 -0.12234261971E+03  0.15115353648E+03  0.80734918520E+02 0.  0.
         11    1    4    4    0    0  0.43901782547E+02  0.37300911392E+02 -0.85075278157E+02  0.10274496316E+03  0.00000000000E+00 0. -1.
        -12    1    4    4    0    0 -0.77509125767E+01 -0.29907500382E+02 -0.37267341551E+02  0.48408573323E+02  0.00000000000E+00 0.  1.
        -11    1    3    3    0    0 -0.31199601087E+02 -0.75723698872E+01  0.91396169034E+02  0.96871128866E+02  0.00000000000E+00 0.  1.
         11    1    3    3    0    0 -0.86414642797E+01  0.22062650541E+02 -0.16603660906E+02  0.28932974429E+02  0.00000000000E+00 0. -1.
         21    1    1    2  502  501  0.36901953963E+01 -0.21883691664E+02 -0.69460281143E+02  0.72919436088E+02  0.00000000000E+00 0. -1.
<scales pt_clust_5="13000.00000" pt_clust_6="13000.00000" pt_clust_7="13000.00000" pt_clust_8="13000.00000" pt_clust_9="22.19265"></scales>
<clustering>
<clus scale="   22.193">  2  9  1 -1</clus>
<clus scale="   80.735">  5  6 -1 -1</clus>
<clus scale="   90.453">  2  5  1 -1</clus>
<clus scale="   91.845">  7  8 -1 -1</clus>
<clus scale="   22.193">  2  5  1 -1</clus>
</clustering>
</event>
<event>
 9    1  0.2374319E-005  0.1651748E+03  0.7546771E-02  0.1184229E+00
         -2   -1    0    0    0  501 -0.00000000000E+00  0.00000000000E+00  0.43572544845E+03  0.43572544845E+03  0.00000000000E+00 0.  1.
          1   -1    0    0  502    0  0.00000000000E+00 -0.00000000000E+00 -0.17684269530E+03  0.17684269530E+03  0.00000000000E+00 0. -1.
         23    2    1    2    0    0 -0.14506238745E+03 -0.29641231183E+02  0.35667222217E+03  0.39657881230E+03  0.90210761337E+02 0.  0.
        -24    2    1    2    0    0  0.86653625443E+02 -0.84356023337E+01 -0.81224716687E+02  0.14432469757E+03  0.81560735272E+02 0.  0.
         13    1    4    4    0    0  0.83593384206E+02  0.16155845852E+02 -0.35355406862E+02  0.92189316260E+02  0.00000000000E+00 0. -1.
        -14    1    4    4    0    0  0.30602412374E+01 -0.24591448186E+02 -0.45869309825E+02  0.52135381308E+02  0.00000000000E+00 0.  1.
        -11    1    3    3    0    0 -0.69814124982E+02  0.28555564845E+01  0.26293070369E+03  0.27205646692E+03  0.00000000000E+00 0.  1.
         11    1    3    3    0    0 -0.75248262467E+02 -0.32496787667E+02  0.93741518487E+02  0.12452234539E+03  0.00000000000E+00 0. -1.
         21    1    1    2  502  501  0.58408762005E+02  0.38076833516E+02 -0.16564752338E+02  0.71664633883E+02  0.00000000000E+00 0.  1.
<scales pt_clust_5="13000.00000" pt_clust_6="13000.00000" pt_clust_7="13000.00000" pt_clust_8="13000.00000" pt_clust_9="69.72395"></scales>
<clustering>
<clus scale="   69.724">  2  9  1 -1</clus>
<clus scale="   81.561">  5  6 -1 -1</clus>
<clus scale="   90.211">  7  8 -1 -1</clus>
<clus scale="  160.614">  2  5  1 -1</clus>
<clus scale="   69.724">  2  5  1 -1</clus>
</clustering>
</event>
<event>
 9    1  0.2374319E-005  0.1187675E+03  0.7546771E-02  0.1248074E+00
         -2   -1    0    0    0  501 -0.00000000000E+00  0.00000000000E+00  0.10138105578E+03  0.10138105578E+03  0.00000000000E+00 0.  1.
          1   -1    0    0  502    0  0.00000000000E+00 -0.00000000000E+00 -0.51014443051E+03  0.51014443051E+03  0.00000000000E+00 0. -1.
        -24    2    1    2    0    0  0.17600701580E+02 -0.81465700443E+02  0.45838885087E+02  0.12487156808E+03  0.80902781681E+02 0.  0.
         23    2    1    2    0    0 -0.49710897856E+02  0.21124452627E+02 -0.28959960817E+03  0.30805378959E+03  0.90065467121E+02 0.  0.
         13    1    3    3    0    0  0.13569760872E+02 -0.29012953989E+02 -0.22123424887E+02  0.38927314807E+02  0.00000000000E+00 0. -1.
        -14    1    3    3    0    0  0.40309407074E+01 -0.52452746453E+02  0.67962309974E+02  0.85944253272E+02  0.00000000000E+00 0.  1.
        -13    1    4    4    0    0  0.12729893654E+02  0.38041270132E+02 -0.10143810198E+03  0.10908197357E+03  0.00000000000E+00 0. -1.
         13    1    4    4    0    0 -0.62440791510E+02 -0.16916817505E+02 -0.18816150619E+03  0.19897181602E+03  0.00000000000E+00 0.  1.
         21    1    1    2  502  501  0.32110196277E+02  0.60341247815E+02 -0.16500265165E+03  0.17860012862E+03  0.00000000000E+00 0.  1.
<scales pt_clust_5="13000.00000" pt_clust_6="13000.00000" pt_clust_7="13000.00000" pt_clust_8="13000.00000" pt_clust_9="68.35299"></scales>
<clustering>
<clus scale="   68.353">  2  9  1 -1</clus>
<clus scale="   80.903">  5  6 -1 -1</clus>
<clus scale="   90.065">  7  8 -1 -1</clus>
<clus scale="  111.979">  1  5  2 -1</clus>
<clus scale="   68.353">  2  5  1 -1</clus>
</clustering>
</event>
<event>
 9    1  0.2374319E-005  0.3992784E+03  0.7546771E-02  0.1044221E+00
         -2   -1    0    0    0  501 -0.00000000000E+00  0.00000000000E+00  0.15784734245E+03  0.15784734245E+03  0.00000000000E+00 0.  1.
          1   -1    0    0  502    0  0.00000000000E+00 -0.00000000000E+00 -0.15637873512E+04  0.15637873512E+04  0.00000000000E+00 0. -1.
        -24    2    1    2    0    0 -0.25530663926E+03  0.30579028208E+03 -0.23542820024E+03  0.46967629615E+03  0.80499745568E+02 0.  0.
         23    2    1    2    0    0  0.26051102366E+03 -0.25613050569E+03 -0.87917660866E+03  0.95637528283E+03  0.90737770523E+02 0.  0.
         11    1    3    3    0    0 -0.16049416034E+03  0.12943523929E+03 -0.11921279325E+03  0.23816705639E+03  0.00000000000E+00 0. -1.
        -12    1    3    3    0    0 -0.94812478922E+02  0.17635504279E+03 -0.11621540699E+03  0.23150923977E+03  0.00000000000E+00 0.  1.
        -13    1    4    4    0    0 -0.45926925501E+00 -0.23847157118E+02 -0.31402829920E+02  0.39433939162E+02  0.00000000000E+00 0.  1.
         13    1    4    4    0    0  0.26097029292E+03 -0.23228334857E+03 -0.84777377874E+03  0.91694134367E+03  0.00000000000E+00 0. -1.
         21    1    1    2  502  501 -0.52043844049E+01 -0.49659776387E+02 -0.29133519980E+03  0.29558311463E+03  0.00000000000E+00 0. -1.
<scales pt_clust_5="13000.00000" pt_clust_6="13000.00000" pt_clust_7="13000.00000" pt_clust_8="13000.00000" pt_clust_9="49.93174"></scales>
<clustering>
<clus scale="   49.932">  2  9  1 -1</clus>
<clus scale="   80.500">  5  6 -1 -1</clus>
<clus scale="   90.738">  7  8 -1 -1</clus>
<clus scale="  397.077">  1  5  2 -1</clus>
<clus scale="   49.932">  2  5  1 -1</clus>
</clustering>
</event>
<event>
 9    1  0.2374319E-005  0.9877572E+02  0.7546771E-02  0.1287693E+00
          1   -1    0    0  502    0  0.00000000000E+00  0.00000000000E+00  0.62240444127E+02  0.62240444127E+02  0.00000000000E+00 0. -1.
         -2   -1    0    0    0  501 -0.00000000000E+00 -0.00000000000E+00 -0.23554982338E+03  0.23554982338E+03  0.00000000000E+00 0.  1.
         23    2    1    2    0    0  0.26903334414E+02  0.40046400589E+02 -0.12397724192E+03  0.16090477309E+03  0.90512352117E+02 0.  0.
        -24    2    1    2    0    0  0.84375183436E+01 -0.34166784918E+02 -0.48973601814E+02  0.10105709365E+03  0.81089836565E+02 0.  0.
         13    1    4    4    0    0  0.13907149545E+02  0.14449686623E+02  0.11620336536E+02  0.23178319033E+02  0.00000000000E+00 0. -1.
        -14    1    4    4    0    0 -0.54696312014E+01 -0.48616471541E+02 -0.60593938349E+02  0.77878774613E+02  0.00000000000E+00 0.  1.
        -13    1    3    3    0    0 -0.32853197904E+02  0.88266503251E+01 -0.53275065307E+02  0.63209769434E+02  0.00000000000E+00 0.  1.
         13    1    3    3    0    0  0.59756532317E+02  0.31219750264E+02 -0.70702176614E+02  0.97695003655E+02  0.00000000000E+00 0. -1.
         21    1    1    2  502  501 -0.35340852758E+02 -0.58796156711E+01 -0.35853551800E+00  0.35828400771E+02  0.00000000000E+00 0.  1.
<scales pt_clust_5="13000.00000" pt_clust_6="13000.00000" pt_clust_7="13000.00000" pt_clust_8="13000.00000" pt_clust_9="35.82661"></scales>
<clustering>
<clus scale="   35.827">  1  9  2 -1</clus>
<clus scale="   81.090">  5  6 -1 -1</clus>
<clus scale="   90.220">  1  5  2 -1</clus>
<clus scale="   90.512">  7  8 -1 -1</clus>
<clus scale="   35.827">  1  5  2 -1</clus>
</clustering>
</event>
<event>
 9    1  0.2374319E-005  0.1044154E+03  0.7546771E-02  0.1272902E+00
          1   -1    0    0  502    0  0.00000000000E+00  0.00000000000E+00  0.35315627436E+03  0.35315627436E+03  0.00000000000E+00 0. -1.
         -2   -1    0    0    0  501 -0.00000000000E+00 -0.00000000000E+00 -0.50554236783E+02  0.50554236783E+02  0.00000000000E+00 0.  1.
         23    2    1    2    0    0 -0.41885221642E+02  0.54787371220E+02  0.56061975980E+02  0.12280355786E+03  0.84745152285E+02 0.  0.
        -24    2    1    2    0    0  0.11897432440E+02 -0.26543971490E+02  0.16343497321E+03  0.18815236932E+03  0.88567444877E+02 0.  0.
         13    1    4    4    0    0  0.18581692780E+02 -0.58002976221E+02  0.10173310460E+03  0.11857170458E+03  0.00000000000E+00 0. -1.
        -14    1    4    4    0    0 -0.66842603405E+01  0.31459004731E+02  0.61701868609E+02  0.69580664734E+02  0.00000000000E+00 0.  1.
        -13    1    3    3    0    0 -0.21287706252E+02 -0.21280304387E+02  0.11161285187E+02  0.32102836001E+02  0.00000000000E+00 0. -1.
         13    1    3    3    0    0 -0.20597515389E+02  0.76067675607E+02  0.44900690793E+02  0.90700721862E+02  0.00000000000E+00 0.  1.
         21    1    1    2  502  501  0.29987789202E+02 -0.28243399730E+02  0.83105088392E+02  0.92754583963E+02  0.00000000000E+00 0. -1.
<scales pt_clust_5="13000.00000" pt_clust_6="13000.00000" pt_clust_7="13000.00000" pt_clust_8="13000.00000" pt_clust_9="41.19414"></scales>
<clustering>
<clus scale="   41.194">  1  9  2 -1</clus>
<clus scale="   84.745">  7  8 -1 -1</clus>
<clus scale="   88.567">  5  6 -1 -1</clus>
<clus scale="  101.193">  2  7  1 -1</clus>
<clus scale="   41.194">  1  5  2 -1</clus>
</clustering>
</event>
<event>
 9    1  0.2374319E-005  0.9488935E+02  0.7546771E-02  0.1296573E+00
         -2   -1    0    0    0  501 -0.00000000000E+00  0.00000000000E+00  0.13042297186E+03  0.13042297186E+03  0.00000000000E+00 0.  1.
          1   -1    0    0  502    0  0.00000000000E+00 -0.00000000000E+00 -0.34756664752E+03  0.34756664752E+03  0.00000000000E+00 0. -1.
        -24    2    1    2    0    0  0.34875076488E+01 -0.21908265337E+02  0.10063767695E+03  0.13229282006E+03  0.82953682370E+02 0.  0.
         23    2    1    2    0    0  0.72293869322E+01  0.41150731472E+02 -0.18196956994E+03  0.20811059128E+03  0.91931752298E+02 0.  0.
         13    1    3    3    0    0  0.41397208397E+01  0.31475418201E+02  0.29390446402E+02  0.43262426877E+02  0.00000000000E+00 0. -1.
        -14    1    3    3    0    0 -0.65221319087E+00 -0.53383683538E+02  0.71247230549E+02  0.89030393187E+02  0.00000000000E+00 0.  1.
        -13    1    4    4    0    0 -0.14508969191E+02  0.60402455331E+02 -0.75598564786E+02  0.97847380112E+02  0.00000000000E+00 0.  1.
         13    1    4    4    0    0  0.21738356123E+02 -0.19251723859E+02 -0.10637100515E+03  0.11026321116E+03  0.00000000000E+00 0. -1.
         21    1    1    2  502  501 -0.10716894581E+02 -0.19242466135E+02 -0.13581178267E+03  0.13758620804E+03  0.00000000000E+00 0. -1.
<scales pt_clust_5="13000.00000" pt_clust_6="13000.00000" pt_clust_7="13000.00000" pt_clust_8="13000.00000" pt_clust_9="22.02554"></scales>
<clustering>
<clus scale="   22.026">  2  9  1 -1</clus>
<clus scale="   82.954">  5  6 -1 -1</clus>
<clus scale="   86.220">  1  5  2 -1</clus>
<clus scale="   91.932">  7  8 -1 -1</clus>
<clus scale="   22.026">  2  5  1 -1</clus>
</clustering>
</event>
<event>
 9    1  0.2374319E-005  0.1315643E+03  0.7546771E-02  0.1228742E+00
         -2   -1    0    0    0  501 -0.00000000000E+00  0.00000000000E+00  0.82320247352E+02  0.82320247352E+02  0.00000000000E+00 0.  1.
          1   -1    0    0  502    0  0.00000000000E+00 -0.00000000000E+00 -0.39566955404E+03  0.39566955404E+03  0.00000000000E+00 0. -1.
         23    2    1    2    0    0 -0.98782022196E+02 -0.16439151135E+02 -0.10439080323E+02  0.13772896680E+03  0.93979573835E+02 0.  0.
        -24    2    1    2    0    0  0.58176531546E+02  0.36482235995E+02 -0.24467348978E+03  0.26649059256E+03  0.80228778855E+02 0.  0.
         11    1    4    4    0    0  0.33100760433E+02  0.46837094993E+02 -0.22694993765E+03  0.23408470263E+03  0.00000000000E+00 0. -1.
        -12    1    4    4    0    0  0.25075771113E+02 -0.10354858998E+02 -0.17723552130E+02  0.32405889926E+02  0.00000000000E+00 0.  1.
        -11    1    3    3    0    0 -0.95811913981E+02 -0.46748717941E+02 -0.45192974191E+01  0.10670421519E+03  0.00000000000E+00 0.  1.
         11    1    3    3    0    0 -0.29701082145E+01  0.30309566807E+02 -0.59197829035E+01  0.31024751609E+02  0.00000000000E+00 0. -1.
         21    1    1    2  502  501  0.40605490649E+02 -0.20043084860E+02 -0.58236736587E+02  0.73770242035E+02  0.00000000000E+00 0.  1.
<scales pt_clust_5="13000.00000" pt_clust_6="13000.00000" pt_clust_7="13000.00000" pt_clust_8="13000.00000" pt_clust_9="45.28279"></scales>
<clustering>
<clus scale="   45.283">  2  9  1 -1</clus>
<clus scale="   80.229">  5  6 -1 -1</clus>
<clus scale="   93.980">  7  8 -1 -1</clus>
<clus scale="  122.121">  2  5  1 -1</clus>
<clus scale="   45.283">  2  5  1 -1</clus>
</clustering>
</event>
<event>
 9    1  0.2374319E-005  0.1003749E+03  0.7546771E-02  0.1284782E+00
         -2   -1    0    0    0  501 -0.00000000000E+00  0.00000000000E+00  0.18054804362E+03  0.18054804362E+03  0.00000000000E+00 0.  1.
          1   -1    0    0  502    0  0.00000000000E+00 -0.00000000000E+00 -0.27617617343E+03  0.27617617343E+03  0.00000000000E+00 0. -1.
         23    2    1    2    0    0 -0.46181234797E+02  0.19692187675E+02  0.13486131739E+03  0.16914862276E+03  0.88899904110E+02 0.  0.
        -24    2    1    2    0    0  0.15937517902E+02  0.34169438865E+02 -0.20154166679E+03  0.21935733268E+03  0.77955377745E+02 0.  0.
         13    1    4    4    0    0  0.98525656031E+01 -0.19817011073E+02 -0.19890871860E+02  0.29756239013E+02  0.00000000000E+00 0. -1.
        -14    1    4    4    0    0  0.60849522993E+01  0.53986449939E+02 -0.18165079493E+03  0.18960109367E+03  0.00000000000E+00 0.  1.
        -11    1    3    3    0    0 -0.81001527786E+01 -0.29020312302E+02  0.83494364206E+02  0.88764293808E+02  0.00000000000E+00 0. -1.
         11    1    3    3    0    0 -0.38081082018E+02  0.48712499977E+02  0.51366953185E+02  0.80384328953E+02  0.00000000000E+00 0.  1.
         21    1    1    2  502  501  0.30243716894E+02 -0.53861626540E+02 -0.28947780408E+02  0.68218261600E+02  0.00000000000E+00 0. -1.
<scales pt_clust_5="13000.00000" pt_clust_6="13000.00000" pt_clust_7="13000.00000" pt_clust_8="13000.00000" pt_clust_9="61.77182"></scales>
<clustering>
<clus scale="   61.772">  2  9  1 -1</clus>
<clus scale="   77.955">  5  6 -1 -1</clus>
<clus scale="   88.900">  7  8 -1 -1</clus>
<clus scale="   90.824">  2  5  1 -1</clus>
<clus scale="   61.772">  2  5  1 -1</clus>
</clustering>
</event>
<event>
 9    1  0.2374319E-005  0.1032261E+03  0.7546771E-02  0.1278812E+00
          1   -1    0    0  502    0  0.00000000000E+00  0.00000000000E+00  0.25024335801E+03  0.25024335801E+03  0.00000000000E+00 0. -1.
         -2   -1    0    0    0  501 -0.00000000000E+00 -0.00000000000E+00 -0.44508462599E+03  0.44508462599E+03  0.00000000000E+00 0.  1.
        -24    2    1    2    0    0 -0.46148253157E+02  0.14964349120E+02 -0.42524999518E+03  0.43548412142E+03  0.80344686168E+02 0.  0.
         23    2    1    2    0    0  0.25022629527E+02 -0.41417726103E+01  0.16624285191E+03  0.19142836954E+03  0.91459546154E+02 0.  0.
         11    1    3    3    0    0 -0.31231422690E+02  0.86797541696E+01 -0.48194850747E+02  0.58081697067E+02  0.00000000000E+00 0. -1.
        -12    1    3    3    0    0 -0.14916830467E+02  0.62845949500E+01 -0.37705514444E+03  0.37740242436E+03  0.00000000000E+00 0.  1.
        -13    1    4    4    0    0 -0.12480492144E+02  0.35161757135E+02  0.44212977159E+02  0.57852391465E+02  0.00000000000E+00 0.  1.
         13    1    4    4    0    0  0.37503121670E+02 -0.39303529745E+02  0.12202987475E+03  0.13357597807E+03  0.00000000000E+00 0. -1.
         21    1    1    2  502  501  0.21125623630E+02 -0.10822576509E+02  0.64165875290E+02  0.68415493039E+02  0.00000000000E+00 0. -1.
<scales pt_clust_5="13000.00000" pt_clust_6="13000.00000" pt_clust_7="13000.00000" pt_clust_8="13000.00000" pt_clust_9="23.73647"></scales>
<clustering>
<clus scale="   23.736">  1  9  2 -1</clus>
<clus scale="   80.345">  5  6 -1 -1</clus>
<clus scale="   91.460">  7  8 -1 -1</clus>
<clus scale="   93.520">  2  5  1 -1</clus>
<clus scale="   23.736">  1  5  2 -1</clus>
</clustering>
</event>
<event>
 9    1  0.2374319E-005  0.9242330E+02  0.7546771E-02  0.1302672E+00
         -2   -1    0    0    0  501 -0.00000000000E+00  0.00000000000E+00  0.85585941610E+02  0.85585941610E+02  0.00000000000E+00 0.  1.
          1   -1    0    0  502    0  0.00000000000E+00 -0.00000000000E+00 -0.31750123796E+03  0.31750123796E+03  0.00000000000E+00 0. -1.
        -24    2    1    2    0    0 -0.23837026954E+02 -0.79792427421E+01  0.46673151001E+02  0.96147549266E+02  0.80212817160E+02 0.  0.
         23    2    1    2    0    0 -0.59157591815E+01  0.10689366306E+02 -0.24894501894E+03  0.26485274517E+03  0.89577315252E+02 0.  0.
         13    1    3    3    0    0 -0.21336101036E+02 -0.41088109492E+02  0.42200286031E+02  0.62644441814E+02  0.00000000000E+00 0. -1.
        -14    1    3    3    0    0 -0.25009259179E+01  0.33108866750E+02  0.44728649693E+01  0.33503107452E+02  0.00000000000E+00 0.  1.
        -11    1    4    4    0    0  0.24712821605E+02  0.39845145422E+02 -0.10894946869E+03  0.11861005814E+03  0.00000000000E+00 0.  1.
         11    1    4    4    0    0 -0.30628580787E+02 -0.29155779116E+02 -0.13999555025E+03  0.14624268702E+03  0.00000000000E+00 0. -1.
         21    1    1    2  502  501  0.29752786136E+02 -0.27101235637E+01 -0.29643428404E+02  0.42086885132E+02  0.00000000000E+00 0. -1.
<scales pt_clust_5="13000.00000" pt_clust_6="13000.00000" pt_clust_7="13000.00000" pt_clust_8="13000.00000" pt_clust_9="29.87596"></scales>
<clustering>
<clus scale="   29.876">  2  9  1 -1</clus>
<clus scale="   80.213">  5  6 -1 -1</clus>
<clus scale="   83.379">  1  5  2 -1</clus>
<clus scale="   89.577">  7  8 -1 -1</clus>
<clus scale="   29.876">  2  5  1 -1</clus>
</clustering>
</event>
<event>
 9    1  0.2374319E-005  0.1110609E+03  0.7546771E-02  0.1266917E+00
         -2   -1    0    0    0  501 -0.00000000000E+00  0.00000000000E+00  0.15816426662E+03  0.15816426662E+03  0.00000000000E+00 0.  1.
          1   -1    0    0  502    0  0.00000000000E+00 -0.00000000000E+00 -0.21288931292E+03  0.21288931292E+03  0.00000000000E+00 0. -1.
        -24    2    1    2    0    0 -0.55654163807E+02 -0.45020997941E+02  0.79847999354E+02  0.13396719492E+03  0.80294645576E+02 0.  0.
         23    2    1    2    0    0 -0.27386600732E+02 -0.72745560835E+01 -0.46579728938E+02  0.10527812490E+03  0.90060354036E+02 0.  0.
         11    1    3    3    0    0 -0.36849965935E+02 -0.11301269031E+02 -0.67701706233E+01  0.39134050153E+02  0.00000000000E+00 0. -1.
        -12    1    3    3    0    0 -0.18804197872E+02 -0.33719728910E+02  0.86618169978E+02  0.94833144763E+02  0.00000000000E+00 0.  1.
        -13    1    4    4    0    0  0.40588495280E+01 -0.23271522257E+02 -0.62318936484E+02  0.66645989018E+02  0.00000000000E+00 0.  1.
         13    1    4    4    0    0 -0.31445450260E+02  0.15996966174E+02  0.15739207546E+02  0.38632135884E+02  0.00000000000E+00 0. -1.
         21    1    1    2  502  501  0.83040764539E+02  0.52295554025E+02 -0.87993316709E+02  0.13180825972E+03  0.00000000000E+00 0. -1.
<scales pt_clust_5="13000.00000" pt_clust_6="13000.00000" pt_clust_7="13000.00000" pt_clust_8="13000.00000" pt_clust_9="76.72876"></scales>
<clustering>
<clus scale="   80.295">  5  6 -1 -1</clus>
<clus scale="   90.060">  7  8 -1 -1</clus>
<clus scale="   94.413">  2  7  1 -1</clus>
<clus scale="   76.729">  2  9  1 -1</clus>
<clus scale="   94.413">  2  5  1 -1</clus>
</clustering>
</event>
<event>
 9    1  0.2374319E-005  0.9912598E+02  0.7546771E-02  0.1293002E+00
         -2   -1    0    0    0  501 -0.00000000000E+00  0.00000000000E+00  0.18443744927E+03  0.18443744927E+03  0.00000000000E+00 0.  1.
          1   -1    0    0  502    0  0.00000000000E+00 -0.00000000000E+00 -0.14578708211E+03  0.14578708211E+03  0.00000000000E+00 0. -1.
        -24    2    1    2    0    0  0.70459771499E+00  0.17934335924E+02  0.11887721640E+03  0.14440010422E+03  0.79984127532E+02 0.  0.
         23    2    1    2    0    0 -0.63969268860E+01  0.13932402336E+02 -0.34376007890E+00  0.99631622627E+02  0.98444449046E+02 0.  0.
         11    1    3    3    0    0 -0.30549642270E+02 -0.96519202966E+01  0.84489407626E+02  0.90359837368E+02  0.00000000000E+00 0. -1.
        -12    1    3    3    0    0  0.31254239985E+02  0.27586256221E+02  0.34387808776E+02  0.54040266854E+02  0.00000000000E+00 0.  1.
        -11    1    4    4    0    0  0.11577806145E+02 -0.34331973992E+02 -0.23476063525E+02  0.43172393864E+02  0.00000000000E+00 0. -1.
         11    1    4    4    0    0 -0.17974733031E+02  0.48264376328E+02  0.23132303446E+02  0.56459228763E+02  0.00000000000E+00 0.  1.
         21    1    1    2  502  501  0.56923291710E+01 -0.31866738260E+02 -0.79883089162E+02  0.86192804530E+02  0.00000000000E+00 0. -1.
<scales pt_clust_5="13000.00000" pt_clust_6="13000.00000" pt_clust_7="13000.00000" pt_clust_8="13000.00000" pt_clust_9="32.37115"></scales>
<clustering>
<clus scale="   32.371">  2  9  1 -1</clus>
<clus scale="   79.984">  5  6 -1 -1</clus>
<clus scale="   80.821">  1  5  2 -1</clus>
<clus scale="   98.444">  7  8 -1 -1</clus>
<clus scale="   32.371">  2  5  1 -1</clus>
</clustering>
</event>
<event>
 9    1  0.2374319E-005  0.1072461E+03  0.7546771E-02  0.1274094E+00
         -2   -1    0    0    0  501 -0.00000000000E+00  0.00000000000E+00  0.95201745228E+02  0.95201745228E+02  0.00000000000E+00 0.  1.
          1   -1    0    0  502    0  0.00000000000E+00 -0.00000000000E+00 -0.46049336246E+03  0.46049336246E+03  0.00000000000E+00 0. -1.
         23    2    1    2    0    0  0.16585776863E+02  0.60868362597E+02  0.73826559977E+01  0.11624738680E+03  0.97359672189E+02 0.  0.
        -24    2    1    2    0    0 -0.44385960466E+02 -0.12121253401E+01 -0.38414128675E+02  0.98769630766E+02  0.79424252880E+02 0.  0.
         13    1    4    4    0    0 -0.15554785995E+02 -0.21917793542E+02 -0.53755811629E+02  0.60100152454E+02  0.00000000000E+00 0. -1.
        -14    1    4    4    0    0 -0.28831174472E+02  0.20705668202E+02  0.15341682954E+02  0.38669478313E+02  0.00000000000E+00 0.  1.
        -11    1    3    3    0    0  0.96808650690E+01  0.37129106250E+02  0.52365208202E+02  0.64918446604E+02  0.00000000000E+00 0.  1.
         11    1    3    3    0    0  0.69049117937E+01  0.23739256347E+02 -0.44982552204E+02  0.51328940196E+02  0.00000000000E+00 0. -1.
         21    1    1    2  502  501  0.27800183604E+02 -0.59656237257E+02 -0.33426014456E+03  0.34067809013E+03  0.00000000000E+00 0. -1.
<scales pt_clust_5="13000.00000" pt_clust_6="13000.00000" pt_clust_7="13000.00000" pt_clust_8="13000.00000" pt_clust_9="65.81578"></scales>
<clustering>
<clus scale="   65.816">  2  9  1 -1</clus>
<clus scale="   79.424">  5  6 -1 -1</clus>
<clus scale="   91.274">  2  5  1 -1</clus>
<clus scale="   97.360">  7  8 -1 -1</clus>
<clus scale="   65.816">  2  5  1 -1</clus>
</clustering>
</event>
<event>
 9    1  0.2374319E-005  0.1130530E+03  0.7546771E-02  0.1258138E+00
          1   -1    0    0  502    0  0.00000000000E+00  0.00000000000E+00  0.33658337399E+03  0.33658337399E+03  0.00000000000E+00 0. -1.
         -2   -1    0    0    0  501 -0.00000000000E+00 -0.00000000000E+00 -0.10529219847E+03  0.10529219847E+03  0.00000000000E+00 0.  1.
         23    2    1    2    0    0  0.11477396058E+02  0.80694669124E+02 -0.44787670585E+02  0.12905311832E+03  0.89472966114E+02 0.  0.
        -24    2    1    2    0    0 -0.15329534476E+02 -0.27158140584E+02  0.12150148183E+03  0.14919128228E+03  0.80764282908E+02 0.  0.
         13    1    4    4    0    0  0.89620790131E+00 -0.51330768096E+02  0.48609489076E+02  0.70700306719E+02  0.00000000000E+00 0. -1.
        -14    1    4    4    0    0 -0.16225742377E+02  0.24172627513E+02  0.72891992751E+02  0.78490975556E+02  0.00000000000E+00 0.  1.
        -11    1    3    3    0    0  0.49441381550E+02  0.43809122808E+02 -0.36514238515E+02  0.75478335071E+02  0.00000000000E+00 0.  1.
         11    1    3    3    0    0 -0.37963985492E+02  0.36885546316E+02 -0.82734320698E+01  0.53574783244E+02  0.00000000000E+00 0. -1.
         21    1    1    2  502  501  0.38521384184E+01 -0.53536528541E+02  0.15457736428E+03  0.16363117187E+03  0.00000000000E+00 0. -1.
<scales pt_clust_5="13000.00000" pt_clust_6="13000.00000" pt_clust_7="13000.00000" pt_clust_8="13000.00000" pt_clust_9="53.67494"></scales>
<clustering>
<clus scale="   53.675">  1  9  2 -1</clus>
<clus scale="   80.764">  5  6 -1 -1</clus>
<clus scale="   89.473">  7  8 -1 -1</clus>
<clus scale="  106.294">  1  5  2 -1</clus>
<clus scale="   53.675">  1  5  2 -1</clus>
</clustering>
</event>
<event>
 9    1  0.2374319E-005  0.1194674E+03  0.7546771E-02  0.1249346E+00
         -4   -1    0    0    0  501 -0.00000000000E+00  0.00000000000E+00  0.14002921967E+04  0.14002921967E+04  0.00000000000E+00 0.  1.
          3   -1    0    0  502    0  0.00000000000E+00 -0.00000000000E+00 -0.35079708753E+02  0.35079708753E+02  0.00000000000E+00 0. -1.
        -24    2    1    2    0    0 -0.52294986890E+02 -0.15639986106E+02  0.12431916746E+04  0.12489162378E+04  0.10623960888E+03 0.  0.
         23    2    1    2    0    0  0.59082773886E+02 -0.62625262217E+01  0.71561671953E+02  0.13103077205E+03  0.92292995005E+02 0.  0.
         11    1    3    3    0    0 -0.20973695060E+02 -0.16044815200E+02  0.63020794003E+02  0.68329733324E+02  0.00000000000E+00 0. -1.
        -12    1    3    3    0    0 -0.31321291830E+02  0.40482909368E+00  0.11801708806E+04  0.11805865045E+04  0.00000000000E+00 0.  1.
        -11    1    4    4    0    0  0.65937473606E+02  0.29555742173E+02  0.38846046998E+02  0.82038452498E+02  0.00000000000E+00 0. -1.
         11    1    4    4    0    0 -0.68546997193E+01 -0.35818268395E+02  0.32715624955E+02  0.48992319554E+02  0.00000000000E+00 0.  1.
         21    1    1    2  502  501 -0.67877869958E+01  0.21902512328E+02  0.50459141337E+02  0.55424895517E+02  0.00000000000E+00 0. -1.
<scales pt_clust_5="13000.00000" pt_clust_6="13000.00000" pt_clust_7="13000.00000" pt_clust_8="13000.00000" pt_clust_9="22.93020"></scales>
<clustering>
<clus scale="   22.930">  2  9  1 -1</clus>
<clus scale="   92.293">  7  8 -1 -1</clus>
<clus scale="  106.240">  5  6 -1 -1</clus>
<clus scale="  107.255">  2  7  1 -1</clus>
<clus scale="   22.930">  2  5  1 -1</clus>
</clustering>
</event>
<event>
 9    1  0.2374319E-005  0.1395147E+03  0.7546771E-02  0.1224502E+00
          1   -1    0    0  502    0  0.00000000000E+00  0.00000000000E+00  0.28510163248E+03  0.28510163248E+03  0.00000000000E+00 0. -1.
         -2   -1    0    0    0  501 -0.00000000000E+00 -0.00000000000E+00 -0.27043775874E+03  0.27043775874E+03  0.00000000000E+00 0.  1.
        -24    2    1    2    0    0 -0.47797700456E+02  0.61711845548E+02 -0.37053787209E+02  0.12582093466E+03  0.91460113727E+02 0.  0.
         23    2    1    2    0    0  0.68453199577E+02  0.93992465043E+01  0.21092212597E+03  0.25413514659E+03  0.12378345261E+03 0.  0.
         13    1    3    3    0    0 -0.23419571036E+02  0.66561987056E+02 -0.59523004213E+02  0.92314475890E+02  0.00000000000E+00 0. -1.
        -14    1    3    3    0    0 -0.24378129420E+02 -0.48501415080E+01  0.22469217004E+02  0.33506458772E+02  0.00000000000E+00 0.  1.
        -13    1    4    4    0    0  0.43186606315E+02  0.62811625645E+02  0.15524348327E+03  0.17294774465E+03  0.00000000000E+00 0.  1.
         13    1    4    4    0    0  0.25266593262E+02 -0.53412379141E+02  0.55678642704E+02  0.81187401941E+02  0.00000000000E+00 0. -1.
         21    1    1    2  502  501 -0.20655499121E+02 -0.71111092052E+02 -0.15920446502E+03  0.17558330997E+03  0.00000000000E+00 0.  1.
<scales pt_clust_5="13000.00000" pt_clust_6="13000.00000" pt_clust_7="13000.00000" pt_clust_8="13000.00000" pt_clust_9="74.05023"></scales>
<clustering>
<clus scale="   74.050">  2  9  1 -1</clus>
<clus scale="   91.460">  5  6 -1 -1</clus>
<clus scale="  111.835">  2  5  1 -1</clus>
<clus scale="  123.783">  7  8 -1 -1</clus>
<clus scale="  139.515">  1  5  2 -1</clus>
</clustering>
</event>
<event>
 9    1  0.2374319E-005  0.9532024E+02  0.7546771E-02  0.1295252E+00
         -2   -1    0    0    0  501 -0.00000000000E+00  0.00000000000E+00  0.29997644602E+03  0.29997644602E+03  0.00000000000E+00 0.  1.
          1   -1    0    0  502    0  0.00000000000E+00 -0.00000000000E+00 -0.98995676306E+02  0.98995676306E+02  0.00000000000E+00 0. -1.
        -24    2    1    2    0    0  0.23193072225E+02  0.21361600574E+02  0.25046727372E+03  0.26521743536E+03  0.81315412044E+02 0.  0.
         23    2    1    2    0    0 -0.37845119401E+02 -0.20216349664E+01 -0.49518311354E+02  0.10949118005E+03  0.89999529328E+02 0.  0.
         13    1    3    3    0    0 -0.20864300200E+02  0.26186774576E+01  0.17430234071E+02  0.27312809343E+02  0.00000000000E+00 0. -1.
        -14    1    3    3    0    0  0.44057372424E+02  0.18742923116E+02  0.23303703965E+03  0.23790462601E+03  0.00000000000E+00 0.  1.
        -13    1    4    4    0    0 -0.69180541849E+01  0.22458900508E+02 -0.63448093214E+02  0.67660344503E+02  0.00000000000E+00 0. -1.
         13    1    4    4    0    0 -0.30927065216E+02 -0.24480535474E+02  0.13929781861E+02  0.41830835548E+02  0.00000000000E+00 0.  1.
         21    1    1    2  502  501  0.14652047176E+02 -0.19339965607E+02  0.31807349677E-01  0.24263506916E+02  0.00000000000E+00 0.  1.
<scales pt_clust_5="13000.00000" pt_clust_6="13000.00000" pt_clust_7="13000.00000" pt_clust_8="13000.00000" pt_clust_9="24.26349"></scales>
<clustering>
<clus scale="   24.263">  2  9  1 -1</clus>
<clus scale="   81.315">  5  6 -1 -1</clus>
<clus scale="   87.168">  1  5  2 -1</clus>
<clus scale="   90.000">  7  8 -1 -1</clus>
<clus scale="   24.263">  2  5  1 -1</clus>
</clustering>
</event>
<event>
 9    1  0.2374319E-005  0.9734118E+02  0.7546771E-02  0.1293017E+00
         -4   -1    0    0    0  501 -0.00000000000E+00  0.00000000000E+00  0.18011424318E+03  0.18011424318E+03  0.00000000000E+00 0.  1.
          3   -1    0    0  502    0  0.00000000000E+00 -0.00000000000E+00 -0.17405342732E+03  0.17405342732E+03  0.00000000000E+00 0. -1.
         23    2    1    2    0    0 -0.18545629228E+02 -0.34382489160E+02  0.10998729774E+03  0.14893962552E+03  0.92518703305E+02 0.  0.
        -24    2    1    2    0    0  0.34143146885E+02 -0.14530169185E+02  0.14618996385E+01  0.87999884282E+02  0.79780713129E+02 0.  0.
         13    1    4    4    0    0  0.54468187545E+02 -0.30052306037E+02 -0.16929096988E+01  0.62231748295E+02  0.00000000000E+00 0. -1.
        -14    1    4    4    0    0 -0.20325040660E+02  0.15522136853E+02  0.31548093374E+01  0.25768135987E+02  0.00000000000E+00 0.  1.
        -13    1    3    3    0    0 -0.40848989040E+02 -0.14080004649E+01  0.11120346918E+02  0.42358995343E+02  0.00000000000E+00 0. -1.
         13    1    3    3    0    0  0.22303359812E+02 -0.32974488695E+02  0.98866950823E+02  0.10658063018E+03  0.00000000000E+00 0.  1.
         21    1    1    2  502  501 -0.15597517657E+02  0.48912658345E+02 -0.10538838152E+03  0.11722816070E+03  0.00000000000E+00 0. -1.
<scales pt_clust_5="13000.00000" pt_clust_6="13000.00000" pt_clust_7="13000.00000" pt_clust_8="13000.00000" pt_clust_9="51.33937"></scales>
<clustering>
<clus scale="   51.339">  2  9  1 -1</clus>
<clus scale="   79.781">  5  6 -1 -1</clus>
<clus scale="   85.326">  2  5  1 -1</clus>
<clus scale="   92.519">  7  8 -1 -1</clus>
<clus scale="   51.339">  2  5  1 -1</clus>
</clustering>
</event>
<event>
 9    1  0.2374319E-005  0.4361087E+03  0.7546771E-02  0.1032089E+00
         -4   -1    0    0    0  501 -0.00000000000E+00  0.00000000000E+00  0.22333808771E+03  0.22333808771E+03  0.00000000000E+00 0.  1.
          3   -1    0    0  502    0  0.00000000000E+00 -0.00000000000E+00 -0.11621040315E+04  0.11621040315E+04  0.00000000000E+00 0. -1.
         23    2    1    2    0    0 -0.44246892983E+03 -0.59256885017E+02 -0.18216385252E+03  0.49062922203E+03  0.90792246669E+02 0.  0.
        -24    2    1    2    0    0  0.38116019729E+03  0.85202482345E+02 -0.56275331011E+03  0.68985123085E+03  0.81614175646E+02 0.  0.
         13    1    4    4    0    0  0.36246784232E+03  0.88410302381E+02 -0.55628066048E+03  0.66981153432E+03  0.00000000000E+00 0. -1.
        -14    1    4    4    0    0  0.18692354971E+02 -0.32078200355E+01 -0.64726496304E+01  0.20039696529E+02  0.00000000000E+00 0.  1.
        -13    1    3    3    0    0 -0.13474514789E+03  0.71235047928E+01 -0.91500498831E+02  0.16303171620E+03  0.00000000000E+00 0. -1.
         13    1    3    3    0    0 -0.30772378194E+03 -0.66380389809E+02 -0.90663353689E+02  0.32759750583E+03  0.00000000000E+00 0.  1.
         21    1    1    2  502  501  0.61308732542E+02 -0.25945597328E+02 -0.19384878117E+03  0.20496166634E+03  0.00000000000E+00 0.  1.
<scales pt_clust_5="13000.00000" pt_clust_6="13000.00000" pt_clust_7="13000.00000" pt_clust_8="13000.00000" pt_clust_9="66.57278"></scales>
<clustering>
<clus scale="   66.573">  2  9  1 -1</clus>
<clus scale="   81.614">  5  6 -1 -1</clus>
<clus scale="   90.792">  7  8 -1 -1</clus>
<clus scale="  434.291">  2  5  1 -1</clus>
<clus scale="   66.573">  2  5  1 -1</clus>
</clustering>
</event>
<event>
 9    1  0.2374319E-005  0.1521111E+03  0.7546771E-02  0.1199032E+00
         -2   -1    0    0    0  501 -0.00000000000E+00  0.00000000000E+00  0.60121753277E+02  0.60121753277E+02  0.00000000000E+00 0.  1.
          1   -1    0    0  502    0  0.00000000000E+00 -0.00000000000E+00 -0.68416567756E+03  0.68416567756E+03  0.00000000000E+00 0. -1.
        -24    2    1    2    0    0  0.10503822776E+02 -0.15145235097E+03 -0.15602264985E+03  0.23678918274E+03  0.93155273010E+02 0.  0.
         23    2    1    2    0    0 -0.16791824741E+02  0.69296200786E+02 -0.29916936998E+03  0.31961493958E+03  0.86991199818E+02 0.  0.
         13    1    3    3    0    0  0.37636776814E+02 -0.20682254841E+02 -0.24980342962E+02  0.49681990386E+02  0.00000000000E+00 0. -1.
        -14    1    3    3    0    0 -0.27132954038E+02 -0.13077009613E+03 -0.13104230689E+03  0.18710719236E+03  0.00000000000E+00 0.  1.
        -11    1    4    4    0    0 -0.33525039432E+02  0.21492960052E+02 -0.43493144602E+02  0.58970579344E+02  0.00000000000E+00 0.  1.
         11    1    4    4    0    0  0.16733214691E+02  0.47803240734E+02 -0.25567622538E+03  0.26064436023E+03  0.00000000000E+00 0. -1.
         21    1    1    2  502  501  0.62880019653E+01  0.82156150186E+02 -0.16885190445E+03  0.18788330852E+03  0.00000000000E+00 0. -1.
<scales pt_clust_5="13000.00000" pt_clust_6="13000.00000" pt_clust_7="13000.00000" pt_clust_8="13000.00000" pt_clust_9="82.39643"></scales>
<clustering>
<clus scale="   82.396">  2  9  1 -1</clus>
<clus scale="   86.991">  7  8 -1 -1</clus>
<clus scale="   93.155">  5  6 -1 -1</clus>
<clus scale="  148.416">  2  7  1 -1</clus>
<clus scale="   82.396">  2  5  1 -1</clus>
</clustering>
</event>
<event>
 9    1  0.2374319E-005  0.1148114E+03  0.7546771E-02  0.1255723E+00
         -4   -1    0    0    0  501 -0.00000000000E+00  0.00000000000E+00  0.98726035964E+02  0.98726035964E+02  0.00000000000E+00 0.  1.
          3   -1    0    0  502    0  0.00000000000E+00 -0.00000000000E+00 -0.24924278912E+03  0.24924278912E+03  0.00000000000E+00 0. -1.
        -24    2    1    2    0    0  0.42690630339E+02 -0.60263628552E+02  0.41271322578E+02  0.11597847809E+03  0.79331522541E+02 0.  0.
         23    2    1    2    0    0 -0.45512532166E+02  0.38220679976E+02 -0.15355084327E+03  0.18776432910E+03  0.90251708303E+02 0.  0.
         11    1    3    3    0    0  0.20984038777E+02 -0.57184288194E+02 -0.85848004094E+01  0.61514807142E+02  0.00000000000E+00 0. -1.
        -12    1    3    3    0    0  0.21706591561E+02 -0.30793403584E+01  0.49856122987E+02  0.54463670952E+02  0.00000000000E+00 0.  1.
        -13    1    4    4    0    0  0.27702721052E+02  0.11017136778E+02 -0.46846046100E+02  0.55528101820E+02  0.00000000000E+00 0.  1.
         13    1    4    4    0    0 -0.73215253218E+02  0.27203543197E+02 -0.10670479717E+03  0.13223622728E+03  0.00000000000E+00 0. -1.
         21    1    1    2  502  501  0.28219018277E+01  0.22042948577E+02 -0.38237232464E+02  0.44226017890E+02  0.00000000000E+00 0.  1.
<scales pt_clust_5="13000.00000" pt_clust_6="13000.00000" pt_clust_7="13000.00000" pt_clust_8="13000.00000" pt_clust_9="22.22284"></scales>
<clustering>
<clus scale="   22.223">  2  9  1 -1</clus>
<clus scale="   79.332">  5  6 -1 -1</clus>
<clus scale="   90.252">  7  8 -1 -1</clus>
<clus scale="  106.441">  1  5  2 -1</clus>
<clus scale="   22.223">  2  5  1 -1</clus>
</clustering>
</event>
<event>
 9    1  0.2374319E-005  0.1017150E+03  0.7546771E-02  0.1282330E+00
         -2   -1    0    0    0  501 -0.00000000000E+00  0.00000000000E+00  0.23040964725E+03  0.23040964725E+03  0.00000000000E+00 0.  1.
          1   -1    0    0  502    0  0.00000000000E+00 -0.00000000000E+00 -0.67955732183E+02  0.67955732183E+02  0.00000000000E+00 0. -1.
         23    2    1    2    0    0  0.14508809261E+02  0.13047556709E+02  0.66574376375E+02  0.11616932053E+03  0.93179499681E+02 0.  0.
        -24    2    1    2    0    0 -0.30693084105E+02 -0.59500350146E+02  0.66511118891E+02  0.12490472577E+03  0.81823618253E+02 0.  0.
         13    1    4    4    0    0  0.79639555938E+01 -0.38819317702E+02 -0.60901591495E+01  0.40093067406E+02  0.00000000000E+00 0. -1.
        -14    1    4    4    0    0 -0.38657039699E+02 -0.20681032444E+02  0.72601278041E+02  0.84811658364E+02  0.00000000000E+00 0.  1.
        -11    1    3    3    0    0 -0.36309295342E+02  0.20134943721E+02  0.42766443464E+02  0.59604945880E+02  0.00000000000E+00 0.  1.
         11    1    3    3    0    0  0.50818104603E+02 -0.70873870129E+01  0.23807932911E+02  0.56564374651E+02  0.00000000000E+00 0. -1.
         21    1    1    2  502  501  0.16184274844E+02  0.46452793438E+02  0.29368419801E+02  0.57291333131E+02  0.00000000000E+00 0.  1.
<scales pt_clust_5="13000.00000" pt_clust_6="13000.00000" pt_clust_7="13000.00000" pt_clust_8="13000.00000" pt_clust_9="49.19139"></scales>
<clustering>
<clus scale="   49.191">  2  9  1 -1</clus>
<clus scale="   81.824">  5  6 -1 -1</clus>
<clus scale="   91.426">  2  5  1 -1</clus>
<clus scale="   93.179">  7  8 -1 -1</clus>
<clus scale="   49.191">  2  5  1 -1</clus>
</clustering>
</event>
<event>
 9    1  0.2374319E-005  0.1492045E+03  0.7546771E-02  0.1203793E+00
         -2   -1    0    0    0  501 -0.00000000000E+00  0.00000000000E+00  0.88338148125E+02  0.88338148125E+02  0.00000000000E+00 0.  1.
          1   -1    0    0  502    0  0.00000000000E+00 -0.00000000000E+00 -0.58503198936E+03  0.58503198936E+03  0.00000000000E+00 0. -1.
        -24    2    1    2    0    0  0.10249910772E+03  0.57506268816E+02 -0.16107698007E+02  0.15726774376E+03  0.10325041044E+03 0.  0.
         23    2    1    2    0    0 -0.10175145906E+03 -0.31722750605E+02 -0.46513606222E+03  0.48603490641E+03  0.92296703878E+02 0.  0.
         13    1    3    3    0    0  0.81580749759E+01  0.59682549122E+02 -0.18043162642E+02  0.62881766635E+02  0.00000000000E+00 0. -1.
        -14    1    3    3    0    0  0.94341032743E+02 -0.21762803058E+01  0.19354646354E+01  0.94385977127E+02  0.00000000000E+00 0.  1.
        -13    1    4    4    0    0 -0.38277682998E+02  0.32383255570E+02 -0.18891422919E+03  0.19545445057E+03  0.00000000000E+00 0. -1.
         13    1    4    4    0    0 -0.63473776059E+02 -0.64106006175E+02 -0.27622183303E+03  0.29058045584E+03  0.00000000000E+00 0.  1.
         21    1    1    2  502  501 -0.74764866207E+00 -0.25783518211E+02 -0.15450081002E+02  0.30067487305E+02  0.00000000000E+00 0. -1.
<scales pt_clust_5="13000.00000" pt_clust_6="13000.00000" pt_clust_7="13000.00000" pt_clust_8="13000.00000" pt_clust_9="25.79436"></scales>
<clustering>
<clus scale="   25.794">  1  9  2 -1</clus>
<clus scale="   92.297">  7  8 -1 -1</clus>
<clus scale="  103.250">  5  6 -1 -1</clus>
<clus scale="  141.845">  2  7  1 -1</clus>
<clus scale="  141.845">  2  5  1 -1</clus>
</clustering>
</event>
<event>
 9    1  0.2374319E-005  0.1853899E+03  0.7546771E-02  0.1164072E+00
          3   -1    0    0  502    0  0.00000000000E+00  0.00000000000E+00  0.29224355554E+03  0.29224355554E+03  0.00000000000E+00 0. -1.
         -4   -1    0    0    0  501 -0.00000000000E+00 -0.00000000000E+00 -0.37091579447E+03  0.37091579447E+03  0.00000000000E+00 0.  1.
        -24    2    1    2    0    0 -0.86397079632E+02 -0.13410410047E+03 -0.29090230886E+03  0.34126035017E+03  0.79913128875E+02 0.  0.
         23    2    1    2    0    0  0.12760903313E+03  0.12145600807E+03  0.17639099741E+03  0.26583797531E+03  0.92306109857E+02 0.  0.
         13    1    3    3    0    0 -0.49271764806E+02 -0.14441620757E+02 -0.63844116775E+02  0.81928862215E+02  0.00000000000E+00 0. -1.
        -14    1    3    3    0    0 -0.37125314826E+02 -0.11966247971E+03 -0.22705819209E+03  0.25933148795E+03  0.00000000000E+00 0.  1.
        -11    1    4    4    0    0  0.59742217838E+02  0.73557272454E+01  0.26969268238E+02  0.65958932260E+02  0.00000000000E+00 0.  1.
         11    1    4    4    0    0  0.67866815293E+02  0.11410028082E+03  0.14942172917E+03  0.19987904305E+03  0.00000000000E+00 0. -1.
         21    1    1    2  502  501 -0.41211953500E+02  0.12648092400E+02  0.35839072513E+02  0.56061024529E+02  0.00000000000E+00 0.  1.
<scales pt_clust_5="13000.00000" pt_clust_6="13000.00000" pt_clust_7="13000.00000" pt_clust_8="13000.00000" pt_clust_9="43.10916"></scales>
<clustering>
<clus scale="   43.109">  1  9  2 -1</clus>
<clus scale="   79.913">  5  6 -1 -1</clus>
<clus scale="   92.306">  7  8 -1 -1</clus>
<clus scale="  179.541">  2  5  1 -1</clus>
<clus scale="   43.109">  1  5  2 -1</clus>
</clustering>
</event>
<event>
 9    1  0.2374319E-005  0.1184171E+03  0.7546771E-02  0.1248006E+00
         -2   -1    0    0    0  501 -0.00000000000E+00  0.00000000000E+00  0.29168766187E+02  0.29168766187E+02  0.00000000000E+00 0.  1.
          1   -1    0    0  502    0  0.00000000000E+00 -0.00000000000E+00 -0.78190992107E+03  0.78190992107E+03  0.00000000000E+00 0. -1.
         23    2    1    2    0    0 -0.10490033749E+02 -0.68158090776E+02 -0.20452975657E+03  0.23444950650E+03  0.91534603467E+02 0.  0.
        -24    2    1    2    0    0 -0.30810106446E+02  0.84259145312E+02 -0.29766570976E+03  0.32219237604E+03  0.84582422438E+02 0.  0.
         11    1    4    4    0    0 -0.45537727848E+02  0.23947753538E+02 -0.74412869146E+02  0.90467975835E+02  0.00000000000E+00 0. -1.
        -12    1    4    4    0    0  0.14727621402E+02  0.60311391774E+02 -0.22325284061E+03  0.23172440020E+03  0.00000000000E+00 0.  1.
        -13    1    3    3    0    0 -0.49852979399E+02 -0.43982967681E+02 -0.14114087895E+03  0.15601464262E+03  0.00000000000E+00 0. -1.
         13    1    3    3    0    0  0.39362945650E+02 -0.24175123094E+02 -0.63388877618E+02  0.78434863884E+02  0.00000000000E+00 0.  1.
         21    1    1    2  502  501  0.41300140196E+02 -0.16101054536E+02 -0.25054568856E+03  0.25443680472E+03  0.00000000000E+00 0.  1.
<scales pt_clust_5="13000.00000" pt_clust_6="13000.00000" pt_clust_7="13000.00000" pt_clust_8="13000.00000" pt_clust_9="44.32771"></scales>
<clustering>
<clus scale="   44.328">  2  9  1 -1</clus>
<clus scale="   84.582">  5  6 -1 -1</clus>
<clus scale="   91.535">  7  8 -1 -1</clus>
<clus scale="  113.129">  2  5  1 -1</clus>
<clus scale="   44.328">  2  5  1 -1</clus>
</clustering>
</event>
<event>
 9    1  0.2374319E-005  0.1971397E+03  0.7546771E-02  0.1152781E+00
         -2   -1    0    0    0  501 -0.00000000000E+00  0.00000000000E+00  0.49927294116E+02  0.49927294116E+02  0.00000000000E+00 0.  1.
          1   -1    0    0  502    0  0.00000000000E+00 -0.00000000000E+00 -0.12961587671E+04  0.12961587671E+04  0.00000000000E+00 0. -1.
         23    2    1    2    0    0  0.15301102360E+03 -0.93751051061E+02 -0.23002768150E+03  0.30518296232E+03  0.89567144165E+02 0.  0.
        -24    2    1    2    0    0 -0.15702312268E+03  0.54615432968E+02 -0.85269200277E+03  0.87272522107E+03  0.83225917448E+02 0.  0.
         13    1    4    4    0    0 -0.35169841738E+02  0.53410809180E+02 -0.27943371522E+03  0.28665804281E+03  0.00000000000E+00 0. -1.
        -14    1    4    4    0    0 -0.12185328094E+03  0.12046237887E+01 -0.57325828755E+03  0.58606717826E+03  0.00000000000E+00 0.  1.
        -13    1    3    3    0    0  0.12653745820E+03 -0.60773301192E+02 -0.11128754154E+03  0.17913692911E+03  0.00000000000E+00 0.  1.
         13    1    3    3    0    0  0.26473565397E+02 -0.32977749869E+02 -0.11874013996E+03  0.12604603321E+03  0.00000000000E+00 0. -1.
         21    1    1    2  502  501  0.40120990754E+01  0.39135618093E+02 -0.16351178875E+03  0.16817787787E+03  0.00000000000E+00 0.  1.
<scales pt_clust_5="13000.00000" pt_clust_6="13000.00000" pt_clust_7="13000.00000" pt_clust_8="13000.00000" pt_clust_9="39.34074"></scales>
<clustering>
<clus scale="   39.341">  2  9  1 -1</clus>
<clus scale="   83.226">  5  6 -1 -1</clus>
<clus scale="   89.567">  7  8 -1 -1</clus>
<clus scale="  194.341">  2  5  1 -1</clus>
<clus scale="   39.341">  2  5  1 -1</clus>
</clustering>
</event>
<event>
 9    1  0.2374319E-005  0.1848833E+03  0.7546771E-02  0.1164396E+00
         -2   -1    0    0    0  501 -0.00000000000E+00  0.00000000000E+00  0.76579646042E+03  0.76579646042E+03  0.00000000000E+00 0.  1.
          1   -1    0    0  502    0  0.00000000000E+00 -0.00000000000E+00 -0.82506694157E+02  0.82506694157E+02  0.00000000000E+00 0. -1.
         23    2    1    2    0    0  0.12969379713E+03 -0.10814852796E+03  0.60027033239E+03  0.63023580993E+03  0.91411810244E+02 0.  0.
        -24    2    1    2    0    0 -0.10191214167E+03  0.77796947016E+02  0.35892682205E+02  0.15550561859E+03  0.80344652536E+02 0.  0.
         11    1    4    4    0    0 -0.60695164556E+02  0.80759366002E+02  0.38944374342E+00  0.10102539217E+03  0.00000000000E+00 0. -1.
        -12    1    4    4    0    0 -0.41216977114E+02 -0.29624189855E+01  0.35503238461E+02  0.54480226412E+02  0.00000000000E+00 0.  1.
        -11    1    3    3    0    0  0.62608354937E+02 -0.17097508355E+01  0.14606331077E+03  0.15892520287E+03  0.00000000000E+00 0. -1.
         11    1    3    3    0    0  0.67085442190E+02 -0.10643877712E+03  0.45420702162E+03  0.47131060705E+03  0.00000000000E+00 0.  1.
         21    1    1    2  502  501 -0.27781655457E+02  0.30351580942E+02  0.47126751667E+02  0.62561726066E+02  0.00000000000E+00 0. -1.
<scales pt_clust_5="13000.00000" pt_clust_6="13000.00000" pt_clust_7="13000.00000" pt_clust_8="13000.00000" pt_clust_9="41.14655"></scales>
<clustering>
<clus scale="   41.147">  2  9  1 -1</clus>
<clus scale="   80.345">  5  6 -1 -1</clus>
<clus scale="   91.412">  7  8 -1 -1</clus>
<clus scale="  179.669">  2  5  1 -1</clus>
<clus scale="   41.147">  2  5  1 -1</clus>
</clustering>
</event>
<event>
 9    1  0.2374319E-005  0.1731216E+03  0.7546771E-02  0.1175022E+00
         -2   -1    0    0    0  501 -0.00000000000E+00  0.00000000000E+00  0.28054905001E+02  0.28054905001E+02  0.00000000000E+00 0.  1.
          1   -1    0    0  502    0  0.00000000000E+00 -0.00000000000E+00 -0.12709496337E+04  0.12709496337E+04  0.00000000000E+00 0. -1.
        -24    2    1    2    0    0 -0.14049749587E+03 -0.76049715567E+02 -0.47408344785E+03  0.50727387133E+03  0.83955699227E+02 0.  0.
         23    2    1    2    0    0  0.12050440363E+03  0.65039386935E+02 -0.60675556805E+03  0.62807552652E+03  0.87035133752E+02 0.  0.
         11    1    3    3    0    0 -0.37701916555E+02 -0.22965886409E+02 -0.26194293743E+03  0.26563691182E+03  0.00000000000E+00 0. -1.
        -12    1    3    3    0    0 -0.10279557931E+03 -0.53083829158E+02 -0.21214051042E+03  0.24163695952E+03  0.00000000000E+00 0.  1.
        -13    1    4    4    0    0  0.50567266674E+02  0.11637773546E+02 -0.90044146788E+02  0.10392513942E+03  0.00000000000E+00 0.  1.
         13    1    4    4    0    0  0.69937136951E+02  0.53401613389E+02 -0.51671142126E+03  0.52415038711E+03  0.00000000000E+00 0. -1.
         21    1    1    2  502  501  0.19993092244E+02  0.11010328632E+02 -0.16205571279E+03  0.16365514084E+03  0.00000000000E+00 0.  1.
<scales pt_clust_5="13000.00000" pt_clust_6="13000.00000" pt_clust_7="13000.00000" pt_clust_8="13000.00000" pt_clust_9="22.82435"></scales>
<clustering>
<clus scale="   22.824">  2  9  1 -1</clus>
<clus scale="   83.956">  5  6 -1 -1</clus>
<clus scale="   87.035">  7  8 -1 -1</clus>
<clus scale="  171.594">  1  5  2 -1</clus>
<clus scale="   22.824">  2  5  1 -1</clus>
</clustering>
</event>
<event>
 9    1  0.2374319E-005  0.1356785E+03  0.7546771E-02  0.1240225E+00
         -2   -1    0    0    0  501 -0.00000000000E+00  0.00000000000E+00  0.47682256474E+03  0.47682256474E+03  0.00000000000E+00 0.  1.
          1   -1    0    0  502    0  0.00000000000E+00 -0.00000000000E+00 -0.22126709301E+03  0.22126709301E+03  0.00000000000E+00 0. -1.
        -24    2    1    2    0    0  0.14307822550E+02  0.34392027850E+02  0.10418239097E+03  0.13637121723E+03  0.79722098152E+02 0.  0.
         23    2    1    2    0    0 -0.55966858380E+02 -0.12467705670E+03  0.32361771493E+03  0.36283386167E+03  0.90792775350E+02 0.  0.
         13    1    3    3    0    0  0.21736924163E+02 -0.54646256840E+01 -0.22038787017E+01  0.22521391770E+02  0.00000000000E+00 0. -1.
        -14    1    3    3    0    0 -0.74291016126E+01  0.39856653534E+02  0.10638626967E+03  0.11384982546E+03  0.00000000000E+00 0.  1.
        -13    1    4    4    0    0 -0.74508866370E+02 -0.80200489027E+02  0.17328146611E+03  0.20496379218E+03  0.00000000000E+00 0. -1.
         13    1    4    4    0    0  0.18542007990E+02 -0.44476567675E+02  0.15033624882E+03  0.15787006949E+03  0.00000000000E+00 0.  1.
         21    1    1    2  502  501  0.41659035829E+02  0.90285028852E+02 -0.17224463418E+03  0.19888457885E+03  0.00000000000E+00 0. -1.
<scales pt_clust_5="13000.00000" pt_clust_6="13000.00000" pt_clust_7="13000.00000" pt_clust_8="13000.00000" pt_clust_9="100.82329"></scales>
<clustering>
<clus scale="   79.722">  5  6 -1 -1</clus>
<clus scale="   87.995">  1  5  2 -1</clus>
<clus scale="   90.793">  7  8 -1 -1</clus>
<clus scale="  100.823">  2  9  1 -1</clus>
<clus scale="  100.823">  2  5  1 -1</clus>
</clustering>
</event>
<event>
 9    1  0.2374319E-005  0.1360399E+03  0.7546771E-02  0.1221365E+00
          1   -1    0    0  502    0  0.00000000000E+00  0.00000000000E+00  0.12057193798E+04  0.12057193798E+04  0.00000000000E+00 0. -1.
         -2   -1    0    0    0  501 -0.00000000000E+00 -0.00000000000E+00 -0.21613480295E+02  0.21613480295E+02  0.00000000000E+00 0.  1.
         23    2    1    2    0    0 -0.64232185017E+00 -0.80269619645E+02  0.25578324401E+03  0.28320005632E+03  0.91288441584E+02 0.  0.
        -24    2    1    2    0    0 -0.16938608356E+02  0.10841470584E+03  0.80692213905E+03  0.81827844201E+03  0.80097473550E+02 0.  0.
         11    1    4    4    0    0  0.20928227192E+02  0.24220452302E+02  0.91770100866E+02  0.97192450406E+02  0.00000000000E+00 0. -1.
        -12    1    4    4    0    0 -0.37866835548E+02  0.84194253534E+02  0.71515203819E+03  0.72108599160E+03  0.00000000000E+00 0.  1.
        -11    1    3    3    0    0  0.27595773628E+02  0.49610800821E+01  0.94933329832E+02  0.98987252465E+02  0.00000000000E+00 0. -1.
         11    1    3    3    0    0 -0.28238095478E+02 -0.85230699727E+02  0.16084991418E+03  0.18421280386E+03  0.00000000000E+00 0.  1.
         21    1    1    2  502  501  0.17580930206E+02 -0.28145086191E+02  0.12140051645E+03  0.12585436177E+03  0.00000000000E+00 0. -1.
<scales pt_clust_5="13000.00000" pt_clust_6="13000.00000" pt_clust_7="13000.00000" pt_clust_8="13000.00000" pt_clust_9="33.18486"></scales>
<clustering>
<clus scale="   33.185">  2  9  1 -1</clus>
<clus scale="   80.097">  5  6 -1 -1</clus>
<clus scale="   91.288">  7  8 -1 -1</clus>
<clus scale="  128.798">  1  5  2 -1</clus>
<clus scale="  128.798">  1  5  2 -1</clus>
</clustering>
</event>
<event>
 9    1  0.2374319E-005  0.1636979E+03  0.7546771E-02  0.1186390E+00
          1   -1    0    0  502    0  0.00000000000E+00  0.00000000000E+00  0.46430955486E+03  0.46430955486E+03  0.00000000000E+00 0. -1.
         -2   -1    0    0    0  501 -0.00000000000E+00 -0.00000000000E+00 -0.21367217456E+03  0.21367217456E+03  0.00000000000E+00 0.  1.
         23    2    1    2    0    0  0.11930020588E+03  0.64707488212E+02 -0.16239594576E+03  0.23130311744E+03  0.93322509530E+02 0.  0.
        -24    2    1    2    0    0 -0.11502835968E+03 -0.42209546716E+02  0.35456003615E+03  0.38388106686E+03  0.81478125238E+02 0.  0.
         11    1    4    4    0    0 -0.10670766831E+03 -0.15841914039E+02  0.32897281275E+03  0.34620890261E+03  0.00000000000E+00 0. -1.
        -12    1    4    4    0    0 -0.83206913703E+01 -0.26367632677E+02  0.25587223399E+02  0.37672164248E+02  0.00000000000E+00 0.  1.
        -13    1    3    3    0    0  0.92385905039E+02  0.14957518265E+02 -0.51519918019E+02  0.10683250795E+03  0.00000000000E+00 0.  1.
         13    1    3    3    0    0  0.26914300843E+02  0.49749969947E+02 -0.11087602774E+03  0.12447060949E+03  0.00000000000E+00 0. -1.
         21    1    1    2  502  501 -0.42718462019E+01 -0.22497941496E+02  0.58473289900E+02  0.62797545122E+02  0.00000000000E+00 0.  1.
<scales pt_clust_5="13000.00000" pt_clust_6="13000.00000" pt_clust_7="13000.00000" pt_clust_8="13000.00000" pt_clust_9="22.89991"></scales>
<clustering>
<clus scale="   22.900">  1  9  2 -1</clus>
<clus scale="   81.478">  5  6 -1 -1</clus>
<clus scale="   93.323">  7  8 -1 -1</clus>
<clus scale="  157.247">  1  5  2 -1</clus>
<clus scale="   22.900">  1  5  2 -1</clus>
</clustering>
</event>
<event>
 9    1  0.2374319E-005  0.1107741E+03  0.7546771E-02  0.1263622E+00
          1   -1    0    0  502    0  0.00000000000E+00  0.00000000000E+00  0.81108482253E+02  0.81108482253E+02  0.00000000000E+00 0. -1.
         -2   -1    0    0    0  501 -0.00000000000E+00 -0.00000000000E+00 -0.28889157964E+03  0.28889157964E+03  0.00000000000E+00 0.  1.
         23    2    1    2    0    0  0.53558934600E+02 -0.18822698532E+02 -0.19658363750E+03  0.22438476349E+03  0.92089858825E+02 0.  0.
        -24    2    1    2    0    0 -0.66589394164E+02  0.40321077794E+02 -0.27809084154E+02  0.11548470257E+03  0.80643875386E+02 0.  0.
         13    1    4    4    0    0 -0.13872063912E+02 -0.21778548992E+02  0.72232458450E+01  0.26812583500E+02  0.00000000000E+00 0. -1.
        -14    1    4    4    0    0 -0.52717330252E+02  0.62099626786E+02 -0.35032329999E+02  0.88672119073E+02  0.00000000000E+00 0.  1.
        -13    1    3    3    0    0  0.17632789574E+01 -0.38923016148E+02 -0.13904267817E+03  0.14439867274E+03  0.00000000000E+00 0.  1.
         13    1    3    3    0    0  0.51795655643E+02  0.20100317616E+02 -0.57540959332E+02  0.79986090745E+02  0.00000000000E+00 0. -1.
         21    1    1    2  502  501  0.13030459563E+02 -0.21498379262E+02  0.16609624260E+02  0.30130595835E+02  0.00000000000E+00 0. -1.
<scales pt_clust_5="13000.00000" pt_clust_6="13000.00000" pt_clust_7="13000.00000" pt_clust_8="13000.00000" pt_clust_9="25.13908"></scales>
<clustering>
<clus scale="   25.139">  1  9  2 -1</clus>
<clus scale="   80.644">  5  6 -1 -1</clus>
<clus scale="   92.090">  7  8 -1 -1</clus>
<clus scale="  101.458">  1  5  2 -1</clus>
<clus scale="   25.139">  1  5  2 -1</clus>
</clustering>
</event>
<event>
 9    1  0.2374319E-005  0.1466107E+03  0.7546771E-02  0.1206908E+00
         -2   -1    0    0    0  501 -0.00000000000E+00  0.00000000000E+00  0.62614430052E+03  0.62614430052E+03  0.00000000000E+00 0.  1.
          1   -1    0    0  502    0  0.00000000000E+00 -0.00000000000E+00 -0.10674214443E+03  0.10674214443E+03  0.00000000000E+00 0. -1.
        -24    2    1    2    0    0 -0.20239797251E+02 -0.13223783576E+03  0.45451743970E+03  0.48024196387E+03  0.78420317914E+02 0.  0.
         23    2    1    2    0    0  0.52778756284E+02  0.67232170820E+02  0.11104436937E+03  0.16653272873E+03  0.89980752728E+02 0.  0.
         11    1    3    3    0    0  0.16325000544E+02 -0.40752429198E+02  0.64847191268E+02  0.78309797239E+02  0.00000000000E+00 0. -1.
        -12    1    3    3    0    0 -0.36564797795E+02 -0.91485406565E+02  0.38967024844E+03  0.40193216663E+03  0.00000000000E+00 0.  1.
        -11    1    4    4    0    0  0.53441108150E+02  0.30298569242E+02  0.11397527498E+03  0.12947709699E+03  0.00000000000E+00 0.  1.
         11    1    4    4    0    0 -0.66235186686E+00  0.36933601578E+02 -0.29309056154E+01  0.37055631735E+02  0.00000000000E+00 0. -1.
         21    1    1    2  502  501 -0.32538959032E+02  0.65005664943E+02 -0.46159652982E+02  0.86111752351E+02  0.00000000000E+00 0. -1.
<scales pt_clust_5="13000.00000" pt_clust_6="13000.00000" pt_clust_7="13000.00000" pt_clust_8="13000.00000" pt_clust_9="72.69471"></scales>
<clustering>
<clus scale="   72.695">  2  9  1 -1</clus>
<clus scale="   78.420">  5  6 -1 -1</clus>
<clus scale="   89.981">  7  8 -1 -1</clus>
<clus scale="  139.814">  1  5  2 -1</clus>
<clus scale="   72.695">  2  5  1 -1</clus>
</clustering>
</event>
<event>
 9    1  0.2374319E-005  0.9269646E+02  0.7546771E-02  0.1301064E+00
         -2   -1    0    0    0  501 -0.00000000000E+00  0.00000000000E+00  0.30436118827E+03  0.30436118827E+03  0.00000000000E+00 0.  1.
          1   -1    0    0  502    0  0.00000000000E+00 -0.00000000000E+00 -0.15053052724E+03  0.15053052724E+03  0.00000000000E+00 0. -1.
        -24    2    1    2    0    0  0.10129192889E+02  0.22394329959E+02  0.25262601667E+03  0.26655528440E+03  0.81410741189E+02 0.  0.
         23    2    1    2    0    0 -0.53152500462E+02 -0.61234750515E+01 -0.97024698547E+02  0.14230512719E+03  0.89298778514E+02 0.  0.
         13    1    3    3    0    0 -0.20065219659E+02  0.41822550240E+02  0.10802587063E+03  0.11756414195E+03  0.00000000000E+00 0. -1.
        -14    1    3    3    0    0  0.30194412548E+02 -0.19428220281E+02  0.14460014604E+03  0.14899114244E+03  0.00000000000E+00 0.  1.
        -13    1    4    4    0    0 -0.43569955807E+02  0.25399909630E+02 -0.97033791839E+02  0.10935745616E+03  0.00000000000E+00 0. -1.
         13    1    4    4    0    0 -0.95825446543E+01 -0.31523384681E+02  0.90932925114E-02  0.32947671033E+02  0.00000000000E+00 0.  1.
         21    1    1    2  502  501  0.43023307573E+02 -0.16270854907E+02 -0.17706570943E+01  0.46031303919E+02  0.00000000000E+00 0.  1.
<scales pt_clust_5="13000.00000" pt_clust_6="13000.00000" pt_clust_7="13000.00000" pt_clust_8="13000.00000" pt_clust_9="45.99724"></scales>
<clustering>
<clus scale="   45.997">  2  9  1 -1</clus>
<clus scale="   81.411">  5  6 -1 -1</clus>
<clus scale="   85.124">  1  5  2 -1</clus>
<clus scale="   89.299">  7  8 -1 -1</clus>
<clus scale="   45.997">  2  5  1 -1</clus>
</clustering>
</event>
<event>
 9    1  0.2374319E-005  0.1335717E+03  0.7546771E-02  0.1239431E+00
          1   -1    0    0  502    0  0.00000000000E+00  0.00000000000E+00  0.33656207691E+03  0.33656207691E+03  0.00000000000E+00 0. -1.
         -2   -1    0    0    0  501 -0.00000000000E+00 -0.00000000000E+00 -0.89220126563E+02  0.89220126563E+02  0.00000000000E+00 0.  1.
        -24    2    1    2    0    0 -0.20868495230E+02 -0.48540988613E+02 -0.25101628204E+02  0.99154962173E+02  0.80061808101E+02 0.  0.
         23    2    1    2    0    0  0.32396567224E+02  0.70021060383E+01  0.24118328123E+03  0.27337706386E+03  0.12436670310E+03 0.  0.
         11    1    3    3    0    0  0.26700914622E+02 -0.19705966025E+02 -0.28047846893E+02  0.43450496591E+02  0.00000000000E+00 0. -1.
        -12    1    3    3    0    0 -0.47569409852E+02 -0.28835022587E+02  0.29462186891E+01  0.55704465583E+02  0.00000000000E+00 0.  1.
        -13    1    4    4    0    0  0.68206431693E+02 -0.32359721619E+02  0.14114389919E+03  0.16006520292E+03  0.00000000000E+00 0.  1.
         13    1    4    4    0    0 -0.35809864469E+02  0.39361827657E+02  0.10003938204E+03  0.11331186094E+03  0.00000000000E+00 0. -1.
         21    1    1    2  502  501 -0.11528071994E+02  0.41538882574E+02  0.31260297326E+02  0.53250177449E+02  0.00000000000E+00 0. -1.
<scales pt_clust_5="13000.00000" pt_clust_6="13000.00000" pt_clust_7="13000.00000" pt_clust_8="13000.00000" pt_clust_9="43.10888"></scales>
<clustering>
<clus scale="   43.109">  1  9  2 -1</clus>
<clus scale="   80.062">  5  6 -1 -1</clus>
<clus scale="   93.724">  2  5  1 -1</clus>
<clus scale="  124.367">  7  8 -1 -1</clus>
<clus scale="   43.109">  1  5  2 -1</clus>
</clustering>
</event>
<event>
 9    1  0.2374319E-005  0.1893781E+03  0.7546771E-02  0.1160259E+00
          1   -1    0    0  502    0  0.00000000000E+00  0.00000000000E+00  0.12501475052E+03  0.12501475052E+03  0.00000000000E+00 0. -1.
         -2   -1    0    0    0  501 -0.00000000000E+00 -0.00000000000E+00 -0.81938303380E+03  0.81938303380E+03  0.00000000000E+00 0.  1.
         23    2    1    2    0    0 -0.17088757159E+03  0.57285173126E+01 -0.71557248466E+03  0.74133481777E+03  0.91093101806E+02 0.  0.
        -24    2    1    2    0    0  0.12883752546E+03  0.57054702245E+01  0.38431854979E+02  0.15620430140E+03  0.79316555276E+02 0.  0.
         13    1    4    4    0    0  0.13164398648E+03  0.23000001489E+02  0.36773106122E+02  0.13860519679E+03  0.00000000000E+00 0. -1.
        -14    1    4    4    0    0 -0.28064610178E+01 -0.17294531265E+02  0.16587488576E+01  0.17599104605E+02  0.00000000000E+00 0.  1.
        -13    1    3    3    0    0 -0.13134126826E+03  0.44171897684E+02 -0.50802766568E+03  0.52658692957E+03  0.00000000000E+00 0.  1.
         13    1    3    3    0    0 -0.39546303330E+02 -0.38443380372E+02 -0.20754481898E+03  0.21474788820E+03  0.00000000000E+00 0. -1.
         21    1    1    2  502  501  0.42050046135E+02 -0.11433987537E+02 -0.17227653602E+02  0.46858665150E+02  0.00000000000E+00 0. -1.
<scales pt_clust_5="13000.00000" pt_clust_6="13000.00000" pt_clust_7="13000.00000" pt_clust_8="13000.00000" pt_clust_9="43.57686"></scales>
<clustering>
<clus scale="   43.577">  1  9  2 -1</clus>
<clus scale="   79.317">  5  6 -1 -1</clus>
<clus scale="   91.093">  7  8 -1 -1</clus>
<clus scale="  184.003">  1  5  2 -1</clus>
<clus scale="   43.577">  1  5  2 -1</clus>
</clustering>
</event>
<event>
 9    1  0.2374319E-005  0.1430623E+03  0.7546771E-02  0.1212366E+00
          1   -1    0    0  502    0  0.00000000000E+00  0.00000000000E+00  0.10500536525E+03  0.10500536525E+03  0.00000000000E+00 0. -1.
         -2   -1    0    0    0  501 -0.00000000000E+00 -0.00000000000E+00 -0.68690765894E+03  0.68690765894E+03  0.00000000000E+00 0.  1.
        -24    2    1    2    0    0 -0.52861064391E+02  0.10040146287E+03 -0.61633646625E+03  0.63134972833E+03  0.76531653311E+02 0.  0.
         23    2    1    2    0    0  0.35935374837E+02 -0.66578666400E+02  0.22651444239E+02  0.12094899018E+03  0.91605132584E+02 0.  0.
         13    1    3    3    0    0 -0.67205824030E+02  0.53483235381E+02 -0.33928691284E+03  0.34998955481E+03  0.00000000000E+00 0. -1.
        -14    1    3    3    0    0  0.14344759640E+02  0.46918227487E+02 -0.27704955340E+03  0.28136017352E+03  0.00000000000E+00 0.  1.
        -13    1    4    4    0    0 -0.29116947707E+02 -0.18334959707E+02 -0.62219157477E+01  0.34966836100E+02  0.00000000000E+00 0.  1.
         13    1    4    4    0    0  0.65052322544E+02 -0.48243706692E+02  0.28873359987E+02  0.85982154083E+02  0.00000000000E+00 0. -1.
         21    1    1    2  502  501  0.16925689554E+02 -0.33822796468E+02  0.11782728324E+02  0.39614305681E+02  0.00000000000E+00 0. -1.
<scales pt_clust_5="13000.00000" pt_clust_6="13000.00000" pt_clust_7="13000.00000" pt_clust_8="13000.00000" pt_clust_9="37.82143"></scales>
<clustering>
<clus scale="   37.821">  1  9  2 -1</clus>
<clus scale="   76.532">  5  6 -1 -1</clus>
<clus scale="   91.605">  7  8 -1 -1</clus>
<clus scale="  133.912">  2  5  1 -1</clus>
<clus scale="   37.821">  1  5  2 -1</clus>
</clustering>
</event>
<event>
 9    1  0.2374319E-005  0.1618046E+03  0.7546771E-02  0.1188969E+00
         -2   -1    0    0    0  501 -0.00000000000E+00  0.00000000000E+00  0.16443537287E+03  0.16443537287E+03  0.00000000000E+00 0.  1.
          1   -1    0    0  502    0  0.00000000000E+00 -0.00000000000E+00 -0.80424585389E+03  0.80424585389E+03  0.00000000000E+00 0. -1.
        -24    2    1    2    0    0 -0.70473246994E+02  0.10906343306E+03  0.10466117034E+03  0.18417704355E+03  0.78140334149E+02 0.  0.
         23    2    1    2    0    0  0.89123581101E+02 -0.15126631021E+03 -0.64402145818E+03  0.67396387784E+03  0.92947085617E+02 0.  0.
         13    1    3    3    0    0 -0.38284662601E+02  0.23848276246E+02 -0.42341056436E+00  0.45106927925E+02  0.00000000000E+00 0. -1.
        -14    1    3    3    0    0 -0.32188584393E+02  0.85215156813E+02  0.10508458090E+03  0.13907011562E+03  0.00000000000E+00 0.  1.
        -11    1    4    4    0    0  0.36144800369E+02 -0.10213767510E+03 -0.51324053732E+03  0.52455161845E+03  0.00000000000E+00 0. -1.
         11    1    4    4    0    0  0.52978780732E+02 -0.49128635107E+02 -0.13078092086E+03  0.14941225939E+03  0.00000000000E+00 0.  1.
         21    1    1    2  502  501 -0.18650334108E+02  0.42202877146E+02 -0.10045019318E+03  0.11054030537E+03  0.00000000000E+00 0. -1.
<scales pt_clust_5="13000.00000" pt_clust_6="13000.00000" pt_clust_7="13000.00000" pt_clust_8="13000.00000" pt_clust_9="46.14020"></scales>
<clustering>
<clus scale="   46.140">  2  9  1 -1</clus>
<clus scale="   78.140">  5  6 -1 -1</clus>
<clus scale="   92.947">  7  8 -1 -1</clus>
<clus scale="  153.777">  1  5  2 -1</clus>
<clus scale="   46.140">  2  5  1 -1</clus>
</clustering>
</event>
<event>
 9    1  0.2374319E-005  0.9682875E+02  0.7546771E-02  0.1294446E+00
         -4   -1    0    0    0  501 -0.00000000000E+00  0.00000000000E+00  0.80033538908E+02  0.80033538908E+02  0.00000000000E+00 0.  1.
          3   -1    0    0  502    0  0.00000000000E+00 -0.00000000000E+00 -0.24748738932E+03  0.24748738932E+03  0.00000000000E+00 0. -1.
         23    2    1    2    0    0 -0.11306599579E+02 -0.20047360891E+02  0.28935231565E+02  0.10023676825E+03  0.93168804919E+02 0.  0.
        -24    2    1    2    0    0  0.32527025945E+02  0.28981490088E+02 -0.15237833285E+03  0.17761453951E+03  0.80186246556E+02 0.  0.
         13    1    4    4    0    0  0.51955236568E+02  0.19554758767E+02 -0.56022578835E+02  0.78868653700E+02  0.00000000000E+00 0. -1.
        -14    1    4    4    0    0 -0.19428210622E+02  0.94267313208E+01 -0.96355754016E+02  0.98745885805E+02  0.00000000000E+00 0.  1.
        -11    1    3    3    0    0  0.96460943715E+01 -0.46014239608E+02  0.43294377693E+02  0.63912131268E+02  0.00000000000E+00 0.  1.
         11    1    3    3    0    0 -0.20952693951E+02  0.25966878717E+02 -0.14359146129E+02  0.36324636979E+02  0.00000000000E+00 0. -1.
         21    1    1    2  502  501 -0.21220426366E+02 -0.89341291961E+01 -0.44010749130E+02  0.49669620480E+02  0.00000000000E+00 0.  1.
<scales pt_clust_5="13000.00000" pt_clust_6="13000.00000" pt_clust_7="13000.00000" pt_clust_8="13000.00000" pt_clust_9="23.02445"></scales>
<clustering>
<clus scale="   23.024">  2  9  1 -1</clus>
<clus scale="   80.186">  5  6 -1 -1</clus>
<clus scale="   84.411">  2  5  1 -1</clus>
<clus scale="   93.169">  7  8 -1 -1</clus>
<clus scale="   23.024">  2  5  1 -1</clus>
</clustering>
</event>
<event>
 9    1  0.2374319E-005  0.1677348E+03  0.7546771E-02  0.1180437E+00
         -2   -1    0    0    0  501 -0.00000000000E+00  0.00000000000E+00  0.39606220259E+03  0.39606220259E+03  0.00000000000E+00 0.  1.
          1   -1    0    0  502    0  0.00000000000E+00 -0.00000000000E+00 -0.17255678958E+03  0.17255678958E+03  0.00000000000E+00 0. -1.
        -24    2    1    2    0    0 -0.41420512130E+02  0.13342414880E+03  0.27549902420E+03  0.32301081507E+03  0.94438403222E+02 0.  0.
         23    2    1    2    0    0  0.19761321402E+02 -0.13137064149E+03  0.24922033421E+02  0.16567474342E+03  0.95803223268E+02 0.  0.
         13    1    3    3    0    0 -0.44278758498E+01  0.32990202628E+02  0.70672246009E+01  0.34028006371E+02  0.00000000000E+00 0. -1.
        -14    1    3    3    0    0 -0.36992636280E+02  0.10043394617E+03  0.26843179960E+03  0.28898280869E+03  0.00000000000E+00 0.  1.
        -11    1    4    4    0    0  0.43165834645E+02 -0.94251697372E+02  0.50041434221E+02  0.11511219256E+03  0.00000000000E+00 0. -1.
         11    1    4    4    0    0 -0.23404513243E+02 -0.37118944118E+02 -0.25119400800E+02  0.50562550856E+02  0.00000000000E+00 0.  1.
         21    1    1    2  502  501  0.21659190728E+02 -0.20535073117E+01 -0.76915644606E+02  0.79933433683E+02  0.00000000000E+00 0. -1.
<scales pt_clust_5="13000.00000" pt_clust_6="13000.00000" pt_clust_7="13000.00000" pt_clust_8="13000.00000" pt_clust_9="21.75632"></scales>
<clustering>
<clus scale="   21.756">  2  9  1 -1</clus>
<clus scale="   94.438">  5  6 -1 -1</clus>
<clus scale="   95.803">  7  8 -1 -1</clus>
<clus scale="  166.959">  1  5  2 -1</clus>
<clus scale="   21.756">  2  5  1 -1</clus>
</clustering>
</event>
<event>
 9    1  0.2374319E-005  0.9251368E+02  0.7546771E-02  0.1304392E+00
          1   -1    0    0  502    0  0.00000000000E+00  0.00000000000E+00  0.49824661511E+03  0.49824661511E+03  0.00000000000E+00 0. -1.
         -2   -1    0    0    0  501 -0.00000000000E+00 -0.00000000000E+00 -0.64041402615E+02  0.64041402615E+02  0.00000000000E+00 0.  1.
        -24    2    1    2    0    0 -0.10534673579E+02 -0.44113038284E+02 -0.25324581356E+01  0.91755644921E+02  0.79722929805E+02 0.  0.
         23    2    1    2    0    0 -0.12502175111E+02 -0.12123530546E+02  0.36374736941E+03  0.37555431142E+03  0.91791109048E+02 0.  0.
         13    1    3    3    0    0  0.11494034442E+02  0.19687077183E+02 -0.76999279344E+01  0.24062059886E+02  0.00000000000E+00 0. -1.
        -14    1    3    3    0    0 -0.22028708021E+02 -0.63800115467E+02  0.51674697989E+01  0.67693585035E+02  0.00000000000E+00 0.  1.
        -13    1    4    4    0    0  0.39798564460E+02 -0.95377020114E+01  0.14949640283E+03  0.15499699337E+03  0.00000000000E+00 0.  1.
         13    1    4    4    0    0 -0.52300739571E+02 -0.25858285349E+01  0.21425096657E+03  0.22055731805E+03  0.00000000000E+00 0. -1.
         21    1    1    2  502  501  0.23036848690E+02  0.56236568830E+02  0.72990301223E+02  0.94978061383E+02  0.00000000000E+00 0. -1.
<scales pt_clust_5="13000.00000" pt_clust_6="13000.00000" pt_clust_7="13000.00000" pt_clust_8="13000.00000" pt_clust_9="60.77210"></scales>
<clustering>
<clus scale="   60.772">  2  9  1 -1</clus>
<clus scale="   79.723">  5  6 -1 -1</clus>
<clus scale="   80.554">  2  5  1 -1</clus>
<clus scale="   91.791">  7  8 -1 -1</clus>
<clus scale="   92.514">  1  5  2 -1</clus>
</clustering>
</event>
<event>
 9    1  0.2374319E-005  0.1119553E+03  0.7546771E-02  0.1260749E+00
          1   -1    0    0  502    0  0.00000000000E+00  0.00000000000E+00  0.10609862462E+03  0.10609862462E+03  0.00000000000E+00 0. -1.
         -2   -1    0    0    0  501 -0.00000000000E+00 -0.00000000000E+00 -0.13363089071E+03  0.13363089071E+03  0.00000000000E+00 0.  1.
         23    2    1    2    0    0 -0.23250984863E+02 -0.59914122191E+02 -0.18620343259E+02  0.11405749321E+03  0.92369281902E+02 0.  0.
        -24    2    1    2    0    0  0.41131534028E+02  0.48997756782E+02 -0.75677137652E+01  0.10467945272E+03  0.82510207055E+02 0.  0.
         11    1    4    4    0    0  0.66219422817E+02  0.29486851433E+02 -0.77163901776E+01  0.72897387080E+02  0.00000000000E+00 0. -1.
        -12    1    4    4    0    0 -0.25087888789E+02  0.19510905349E+02  0.14867641244E+00  0.31782065636E+02  0.00000000000E+00 0.  1.
        -13    1    3    3    0    0 -0.10021066584E+02 -0.84237895561E+02 -0.14566450603E+02  0.86073377459E+02  0.00000000000E+00 0. -1.
         13    1    3    3    0    0 -0.13229918279E+02  0.24323773371E+02 -0.40538926559E+01  0.27984115750E+02  0.00000000000E+00 0.  1.
         21    1    1    2  502  501 -0.17880549165E+02  0.10916365409E+02 -0.13442090580E+01  0.20992569404E+02  0.00000000000E+00 0. -1.
<scales pt_clust_5="13000.00000" pt_clust_6="13000.00000" pt_clust_7="13000.00000" pt_clust_8="13000.00000" pt_clust_9="20.94949"></scales>
<clustering>
<clus scale="   20.949">  1  9  2 -1</clus>
<clus scale="   82.510">  5  6 -1 -1</clus>
<clus scale="   92.369">  7  8 -1 -1</clus>
<clus scale="  103.970">  1  5  2 -1</clus>
<clus scale="   20.949">  1  5  2 -1</clus>
</clustering>
</event>
<event>
 9    1  0.2374319E-005  0.9519963E+02  0.7546771E-02  0.1295862E+00
          1   -1    0    0  502    0  0.00000000000E+00  0.00000000000E+00  0.50024259540E+03  0.50024259540E+03  0.00000000000E+00 0. -1.
         -2   -1    0    0    0  501 -0.00000000000E+00 -0.00000000000E+00 -0.39094462861E+02  0.39094462861E+02  0.00000000000E+00 0.  1.
        -24    2    1    2    0    0  0.21692845465E+02 -0.24738539666E+02  0.29548052128E+02  0.92286798149E+02  0.81001178010E+02 0.  0.
         23    2    1    2    0    0 -0.24080319800E+01  0.16495178607E+02  0.38755769807E+03  0.39826923434E+03  0.90219311440E+02 0.  0.
         13    1    3    3    0    0  0.83574830317E+01 -0.31585297998E+02  0.54287034070E+02  0.63360560606E+02  0.00000000000E+00 0. -1.
        -14    1    3    3    0    0  0.13335362433E+02  0.68467583321E+01 -0.24738981942E+02  0.28926237543E+02  0.00000000000E+00 0.  1.
        -11    1    4    4    0    0  0.13678753453E+02 -0.34273719288E+02  0.12354340522E+03  0.12893707420E+03  0.00000000000E+00 0. -1.
         11    1    4    4    0    0 -0.16086785433E+02  0.50768897895E+02  0.26401429284E+03  0.26933216014E+03  0.00000000000E+00 0.  1.
         21    1    1    2  502  501 -0.19284813485E+02  0.82433610588E+01  0.44042382344E+02  0.48781025771E+02  0.00000000000E+00 0. -1.
<scales pt_clust_5="13000.00000" pt_clust_6="13000.00000" pt_clust_7="13000.00000" pt_clust_8="13000.00000" pt_clust_9="20.97277"></scales>
<clustering>
<clus scale="   20.973">  1  9  2 -1</clus>
<clus scale="   81.001">  5  6 -1 -1</clus>
<clus scale="   86.514">  2  5  1 -1</clus>
<clus scale="   90.219">  7  8 -1 -1</clus>
<clus scale="   20.973">  1  5  2 -1</clus>
</clustering>
</event>
<event>
 9    1  0.2374319E-005  0.1328267E+03  0.7546771E-02  0.1223800E+00
          1   -1    0    0  502    0  0.00000000000E+00  0.00000000000E+00  0.84742902404E+02  0.84742902404E+02  0.00000000000E+00 0. -1.
         -2   -1    0    0    0  501 -0.00000000000E+00 -0.00000000000E+00 -0.42114786551E+03  0.42114786551E+03  0.00000000000E+00 0.  1.
        -24    2    1    2    0    0 -0.68044812210E+02  0.90711125971E+02 -0.18872913267E+03  0.23458878444E+03  0.80960530035E+02 0.  0.
         23    2    1    2    0    0  0.96617882425E+02 -0.34824137979E+02 -0.15984131667E+03  0.20736627496E+03  0.83089046729E+02 0.  0.
         11    1    3    3    0    0 -0.54814759340E+01  0.48214266812E+02 -0.25790951249E+02  0.54953027841E+02  0.00000000000E+00 0. -1.
        -12    1    3    3    0    0 -0.62563336276E+02  0.42496859159E+02 -0.16293818142E+03  0.17963575660E+03  0.00000000000E+00 0.  1.
        -13    1    4    4    0    0  0.58880118743E+02  0.12264382015E+02 -0.37296518106E+02  0.70769440526E+02  0.00000000000E+00 0.  1.
         13    1    4    4    0    0  0.37737763681E+02 -0.47088519994E+02 -0.12254479856E+03  0.13659683443E+03  0.00000000000E+00 0. -1.
         21    1    1    2  502  501 -0.28573070214E+02 -0.55886987992E+02  0.12165486228E+02  0.63935708516E+02  0.00000000000E+00 0. -1.
<scales pt_clust_5="13000.00000" pt_clust_6="13000.00000" pt_clust_7="13000.00000" pt_clust_8="13000.00000" pt_clust_9="62.76763"></scales>
<clustering>
<clus scale="   62.768">  1  9  2 -1</clus>
<clus scale="   80.961">  5  6 -1 -1</clus>
<clus scale="   83.089">  7  8 -1 -1</clus>
<clus scale="  131.506">  2  5  1 -1</clus>
<clus scale="   62.768">  1  5  2 -1</clus>
</clustering>
</event>
<event>
 9    1  0.2374319E-005  0.1317477E+03  0.7546771E-02  0.1229954E+00
         -2   -1    0    0    0  501 -0.00000000000E+00  0.00000000000E+00  0.81009876841E+03  0.81009876841E+03  0.00000000000E+00 0.  1.
          1   -1    0    0  502    0  0.00000000000E+00 -0.00000000000E+00 -0.42877764503E+02  0.42877764503E+02  0.00000000000E+00 0. -1.
        -24    2    1    2    0    0  0.16419809553E+02  0.93758795942E+02  0.62382177879E+03  0.63484059655E+03  0.69344425635E+02 0.  0.
         23    2    1    2    0    0 -0.39605862181E+02 -0.95725617750E+02  0.13721225472E+03  0.19405814521E+03  0.89996348049E+02 0.  0.
         13    1    3    3    0    0 -0.23551654480E+02  0.14707648536E+02  0.11072817365E+03  0.11415657578E+03  0.00000000000E+00 0. -1.
        -14    1    3    3    0    0  0.39971464033E+02  0.79051147407E+02  0.51309360515E+03  0.52068402077E+03  0.00000000000E+00 0.  1.
        -13    1    4    4    0    0 -0.55132319870E+02 -0.32385840911E+02  0.35221351786E+02  0.72999719228E+02  0.00000000000E+00 0.  1.
         13    1    4    4    0    0  0.15526457689E+02 -0.63339776839E+02  0.10199090294E+03  0.12105842598E+03  0.00000000000E+00 0. -1.
         21    1    1    2  502  501  0.23186052628E+02  0.19668218078E+01  0.61869703928E+01  0.24077791159E+02  0.00000000000E+00 0. -1.
<scales pt_clust_5="13000.00000" pt_clust_6="13000.00000" pt_clust_7="13000.00000" pt_clust_8="13000.00000" pt_clust_9="23.26932"></scales>
<clustering>
<clus scale="   23.269">  2  9  1 -1</clus>
<clus scale="   69.344">  5  6 -1 -1</clus>
<clus scale="   89.996">  7  8 -1 -1</clus>
<clus scale="  118.603">  1  5  2 -1</clus>
<clus scale="   23.269">  2  5  1 -1</clus>
</clustering>
</event>
<event>
 9    1  0.2374319E-005  0.9665658E+02  0.7546771E-02  0.1289810E+00
         -2   -1    0    0    0  501 -0.00000000000E+00  0.00000000000E+00  0.52482799803E+02  0.52482799803E+02  0.00000000000E+00 0.  1.
          1   -1    0    0  502    0  0.00000000000E+00 -0.00000000000E+00 -0.29838115262E+03  0.29838115262E+03  0.00000000000E+00 0. -1.
         23    2    1    2    0    0 -0.21233555241E+02 -0.49346448436E+02 -0.24411408903E+02  0.10274427881E+03  0.84110249683E+02 0.  0.
        -24    2    1    2    0    0  0.47074844677E+01  0.29483021008E+02 -0.18401743008E+03  0.20260449778E+03  0.79339517323E+02 0.  0.
         13    1    4    4    0    0  0.31915523814E+02  0.13408983458E+02 -0.15777308579E+03  0.16152630775E+03  0.00000000000E+00 0. -1.
        -14    1    4    4    0    0 -0.27208039347E+02  0.16074037550E+02 -0.26244344288E+02  0.41078190020E+02  0.00000000000E+00 0.  1.
        -11    1    3    3    0    0 -0.36597088869E+01 -0.21026293703E+02 -0.54069693089E+02  0.58129426341E+02  0.00000000000E+00 0. -1.
         11    1    3    3    0    0 -0.17573846354E+02 -0.28320154734E+02  0.29658284186E+02  0.44614852467E+02  0.00000000000E+00 0.  1.
         21    1    1    2  502  501  0.16526070773E+02  0.19863427428E+02 -0.37469513837E+02  0.45515175839E+02  0.00000000000E+00 0.  1.
<scales pt_clust_5="13000.00000" pt_clust_6="13000.00000" pt_clust_7="13000.00000" pt_clust_8="13000.00000" pt_clust_9="25.83925"></scales>
<clustering>
<clus scale="   25.839">  2  9  1 -1</clus>
<clus scale="   79.340">  5  6 -1 -1</clus>
<clus scale="   84.110">  7  8 -1 -1</clus>
<clus scale="   92.535">  2  5  1 -1</clus>
<clus scale="   25.839">  2  5  1 -1</clus>
</clustering>
</event>
<event>
 9    1  0.2374319E-005  0.9563405E+02  0.7546771E-02  0.1290848E+00
         -2   -1    0    0    0  501 -0.00000000000E+00  0.00000000000E+00  0.53133080647E+02  0.53133080647E+02  0.00000000000E+00 0.  1.
          1   -1    0    0  502    0  0.00000000000E+00 -0.00000000000E+00 -0.78856487416E+03  0.78856487416E+03  0.00000000000E+00 0. -1.
         23    2    1    2    0    0 -0.16321885916E+01 -0.80603874158E+01 -0.46585069914E+01  0.93441155540E+02  0.92961895293E+02 0.  0.
        -24    2    1    2    0    0  0.45307496154E+02  0.33293292030E+02 -0.49286449544E+03  0.50505970874E+03  0.94914098151E+02 0.  0.
         11    1    4    4    0    0  0.22874514916E+01 -0.30562006998E+02 -0.95252010896E+02  0.10006105279E+03  0.00000000000E+00 0. -1.
        -12    1    4    4    0    0  0.43020044662E+02  0.63855299028E+02 -0.39761248454E+03  0.40499865595E+03  0.00000000000E+00 0.  1.
        -11    1    3    3    0    0  0.22968413501E+02  0.36088162506E+02 -0.15389526095E+01  0.42805044877E+02  0.00000000000E+00 0.  1.
         11    1    3    3    0    0 -0.24600602093E+02 -0.44148549922E+02 -0.31195543819E+01  0.50636110663E+02  0.00000000000E+00 0. -1.
         21    1    1    2  502  501 -0.43675307562E+02 -0.25232904614E+02 -0.23790879109E+03  0.24319709053E+03  0.00000000000E+00 0. -1.
<scales pt_clust_5="13000.00000" pt_clust_6="13000.00000" pt_clust_7="13000.00000" pt_clust_8="13000.00000" pt_clust_9="50.44038"></scales>
<clustering>
<clus scale="   50.440">  2  9  1 -1</clus>
<clus scale="   92.962">  7  8 -1 -1</clus>
<clus scale="   93.697">  1  7  2 -1</clus>
<clus scale="   94.914">  5  6 -1 -1</clus>
<clus scale="   50.440">  2  5  1 -1</clus>
</clustering>
</event>
<event>
 9    1  0.2374319E-005  0.1367696E+03  0.7546771E-02  0.1232705E+00
         -4   -1    0    0    0  501 -0.00000000000E+00  0.00000000000E+00  0.75718590218E+02  0.75718590218E+02  0.00000000000E+00 0.  1.
          3   -1    0    0  502    0  0.00000000000E+00 -0.00000000000E+00 -0.53809353523E+03  0.53809353523E+03  0.00000000000E+00 0. -1.
         23    2    1    2    0    0  0.83610579423E+02 -0.32484714710E+02 -0.30889745121E+03  0.33234318236E+03  0.83596470105E+02 0.  0.
        -24    2    1    2    0    0 -0.15033007329E+02 -0.59721812550E+02 -0.13011245066E+03  0.16420491491E+03  0.79002013022E+02 0.  0.
         11    1    4    4    0    0 -0.38878765076E+02 -0.60332715589E+02 -0.11623119632E+03  0.13660631735E+03  0.00000000000E+00 0. -1.
        -12    1    4    4    0    0  0.23845757747E+02  0.61090303879E+00 -0.13881254343E+02  0.27598597558E+02  0.00000000000E+00 0.  1.
        -11    1    3    3    0    0  0.71042045443E+02  0.83104005128E+01 -0.12953263284E+03  0.14796870598E+03  0.00000000000E+00 0. -1.
         11    1    3    3    0    0  0.12568533980E+02 -0.40795115222E+02 -0.17936481837E+03  0.18437447638E+03  0.00000000000E+00 0.  1.
         21    1    1    2  502  501 -0.68577572094E+02  0.92206527260E+02 -0.23365043145E+02  0.11726402818E+03  0.00000000000E+00 0.  1.
<scales pt_clust_5="13000.00000" pt_clust_6="13000.00000" pt_clust_7="13000.00000" pt_clust_8="13000.00000" pt_clust_9="108.24768"></scales>
<clustering>
<clus scale="   79.002">  5  6 -1 -1</clus>
<clus scale="   83.596">  7  8 -1 -1</clus>
<clus scale="  100.170">  2  5  1 -1</clus>
<clus scale="  108.248">  1  9  2 -1</clus>
<clus scale="  100.170">  2  5  1 -1</clus>
</clustering>
</event>
<event>
 9    1  0.2374319E-005  0.1821268E+03  0.7546771E-02  0.1170064E+00
         -2   -1    0    0    0  501 -0.00000000000E+00  0.00000000000E+00  0.75294759777E+02  0.75294759777E+02  0.00000000000E+00 0.  1.
          1   -1    0    0  502    0  0.00000000000E+00 -0.00000000000E+00 -0.72748312401E+03  0.72748312401E+03  0.00000000000E+00 0. -1.
        -24    2    1    2    0    0  0.15041248041E+03 -0.18336247189E+01 -0.98605434696E+02  0.19732518219E+03  0.81159838175E+02 0.  0.
         23    2    1    2    0    0 -0.12808888190E+03 -0.36577604761E+02 -0.29037663449E+03  0.33852327393E+03  0.11195862761E+03 0.  0.
         11    1    3    3    0    0  0.76397097281E+02  0.27360237372E+02 -0.83316965950E+02  0.11630484030E+03  0.00000000000E+00 0. -1.
        -12    1    3    3    0    0  0.74015383132E+02 -0.29193862091E+02 -0.15288468745E+02  0.81020341893E+02  0.00000000000E+00 0.  1.
        -11    1    4    4    0    0 -0.90637261447E+02 -0.59924062610E+02 -0.11722745476E+03  0.15983830139E+03  0.00000000000E+00 0.  1.
         11    1    4    4    0    0 -0.37451620455E+02  0.23346457849E+02 -0.17314917973E+03  0.17868497254E+03  0.00000000000E+00 0. -1.
         21    1    1    2  502  501 -0.22323598512E+02  0.38411229480E+02 -0.26320629505E+03  0.26692942766E+03  0.00000000000E+00 0. -1.
<scales pt_clust_5="13000.00000" pt_clust_6="13000.00000" pt_clust_7="13000.00000" pt_clust_8="13000.00000" pt_clust_9="44.42708"></scales>
<clustering>
<clus scale="   44.427">  2  9  1 -1</clus>
<clus scale="   81.160">  5  6 -1 -1</clus>
<clus scale="  111.959">  7  8 -1 -1</clus>
<clus scale="  164.992">  1  5  2 -1</clus>
<clus scale="   44.427">  2  5  1 -1</clus>
</clustering>
</event>
<event>
 9    1  0.2374319E-005  0.1084004E+03  0.7546771E-02  0.1268105E+00
          1   -1    0    0  502    0  0.00000000000E+00  0.00000000000E+00  0.22829390129E+02  0.22829390129E+02  0.00000000000E+00 0. -1.
         -2   -1    0    0    0  501 -0.00000000000E+00 -0.00000000000E+00 -0.76226139596E+03  0.76226139596E+03  0.00000000000E+00 0.  1.
        -24    2    1    2    0    0 -0.51900392119E+02 -0.34041088178E+02 -0.47968485072E+03  0.49043272693E+03  0.81081793589E+02 0.  0.
         23    2    1    2    0    0  0.51658715378E+02  0.10667735442E+01 -0.20860867182E+03  0.23380981919E+03  0.92085246980E+02 0.  0.
         11    1    3    3    0    0 -0.73131628181E+02 -0.34156751892E+02 -0.39064761163E+03  0.39889907898E+03  0.00000000000E+00 0. -1.
        -12    1    3    3    0    0  0.21231236062E+02  0.11566371317E+00 -0.89037239086E+02  0.91533647949E+02  0.00000000000E+00 0.  1.
        -11    1    4    4    0    0  0.23731259882E+02  0.45882435692E+02 -0.12023423885E+03  0.13086115846E+03  0.00000000000E+00 0.  1.
         11    1    4    4    0    0  0.27927455497E+02 -0.44815662148E+02 -0.88374432966E+02  0.10294866073E+03  0.00000000000E+00 0. -1.
         21    1    1    2  502  501  0.24167674073E+00  0.32974314634E+02 -0.51138483288E+02  0.60848239960E+02  0.00000000000E+00 0.  1.
<scales pt_clust_5="13000.00000" pt_clust_6="13000.00000" pt_clust_7="13000.00000" pt_clust_8="13000.00000" pt_clust_9="32.97520"></scales>
<clustering>
<clus scale="   32.975">  1  9  2 -1</clus>
<clus scale="   81.082">  5  6 -1 -1</clus>
<clus scale="   92.085">  7  8 -1 -1</clus>
<clus scale="   99.223">  2  5  1 -1</clus>
<clus scale="   32.975">  1  5  2 -1</clus>
</clustering>
</event>
<event>
 9    1  0.2374319E-005  0.1353187E+03  0.7546771E-02  0.1222344E+00
          1   -1    0    0  502    0  0.00000000000E+00  0.00000000000E+00  0.10138239646E+03  0.10138239646E+03  0.00000000000E+00 0. -1.
         -2   -1    0    0    0  501 -0.00000000000E+00 -0.00000000000E+00 -0.35659552200E+03  0.35659552200E+03  0.00000000000E+00 0.  1.
         23    2    1    2    0    0  0.63308295746E+02 -0.70237417422E+02 -0.17117716236E+03  0.21579780320E+03  0.91246018194E+02 0.  0.
        -24    2    1    2    0    0 -0.85780948212E+02  0.65107489450E+02 -0.13238509483E+03  0.18861730353E+03  0.80332543828E+02 0.  0.
         13    1    4    4    0    0 -0.72884255120E+02  0.45628878874E+02 -0.42829583278E+02  0.96064990686E+02  0.00000000000E+00 0. -1.
        -14    1    4    4    0    0 -0.12896693092E+02  0.19478610576E+02 -0.89555511555E+02  0.92552312842E+02  0.00000000000E+00 0.  1.
        -13    1    3    3    0    0  0.35123015261E+02 -0.35385533149E+02 -0.16271676385E+03  0.17018374598E+03  0.00000000000E+00 0.  1.
         13    1    3    3    0    0  0.28185280485E+02 -0.34851884273E+02 -0.84603985102E+01  0.45614057223E+02  0.00000000000E+00 0. -1.
         21    1    1    2  502  501  0.22472652466E+02  0.51299279718E+01  0.48349131648E+02  0.53562811735E+02  0.00000000000E+00 0. -1.
<scales pt_clust_5="13000.00000" pt_clust_6="13000.00000" pt_clust_7="13000.00000" pt_clust_8="13000.00000" pt_clust_9="23.05073"></scales>
<clustering>
<clus scale="   23.051">  1  9  2 -1</clus>
<clus scale="   80.333">  5  6 -1 -1</clus>
<clus scale="   91.246">  7  8 -1 -1</clus>
<clus scale="  128.213">  1  5  2 -1</clus>
<clus scale="   23.051">  1  5  2 -1</clus>
</clustering>
</event>
<event>
 9    1  0.2374319E-005  0.1114078E+03  0.7546771E-02  0.1263598E+00
          1   -1    0    0  502    0  0.00000000000E+00  0.00000000000E+00  0.52898636985E+03  0.52898636985E+03  0.00000000000E+00 0. -1.
         -2   -1    0    0    0  501 -0.00000000000E+00 -0.00000000000E+00 -0.29213325564E+03  0.29213325564E+03  0.00000000000E+00 0.  1.
         23    2    1    2    0    0 -0.25597183598E+02 -0.55320026592E+02 -0.27045565320E+03  0.29234483381E+03  0.92756241625E+02 0.  0.
        -24    2    1    2    0    0  0.46000995272E+02  0.74245620923E+02  0.35376219517E+03  0.37272658280E+03  0.78414992176E+02 0.  0.
         13    1    4    4    0    0  0.34793117805E+02  0.90856663697E+02  0.29725721613E+03  0.31277363528E+03  0.00000000000E+00 0. -1.
        -14    1    4    4    0    0  0.11207877467E+02 -0.16611042775E+02  0.56504979037E+02  0.59952947512E+02  0.00000000000E+00 0.  1.
        -11    1    3    3    0    0 -0.19712415720E+01 -0.75282393504E+02 -0.14819018504E+03  0.16622772183E+03  0.00000000000E+00 0.  1.
         11    1    3    3    0    0 -0.23625942026E+02  0.19962366912E+02 -0.12226546816E+03  0.12611711198E+03  0.00000000000E+00 0. -1.
         21    1    1    2  502  501 -0.20403811674E+02 -0.18925594331E+02  0.15354657223E+03  0.15604820888E+03  0.00000000000E+00 0. -1.
<scales pt_clust_5="13000.00000" pt_clust_6="13000.00000" pt_clust_7="13000.00000" pt_clust_8="13000.00000" pt_clust_9="27.82973"></scales>
<clustering>
<clus scale="   27.830">  1  9  2 -1</clus>
<clus scale="   78.415">  5  6 -1 -1</clus>
<clus scale="   92.756">  7  8 -1 -1</clus>
<clus scale="   99.784">  1  5  2 -1</clus>
<clus scale="   27.830">  1  5  2 -1</clus>
</clustering>
</event>
<event>
 9    1  0.2374319E-005  0.1051996E+03  0.7546771E-02  0.1279842E+00
          1   -1    0    0  502    0  0.00000000000E+00  0.00000000000E+00  0.13418984845E+03  0.13418984845E+03  0.00000000000E+00 0. -1.
         -2   -1    0    0    0  501 -0.00000000000E+00 -0.00000000000E+00 -0.24547124538E+03  0.24547124538E+03  0.00000000000E+00 0.  1.
         23    2    1    2    0    0 -0.80840771352E+01  0.35804070899E+02 -0.17155303164E+03  0.20247388315E+03  0.10108386072E+03 0.  0.
        -24    2    1    2    0    0  0.52648762900E+01 -0.13547834084E+02 -0.26932856868E+02  0.87143269617E+02  0.81592327641E+02 0.  0.
         13    1    4    4    0    0 -0.53104609688E+01 -0.33503694970E+02 -0.46296473767E+02  0.57393920023E+02  0.00000000000E+00 0. -1.
        -14    1    4    4    0    0  0.10575337259E+02  0.19955860887E+02  0.19363616899E+02  0.29749349594E+02  0.00000000000E+00 0.  1.
        -11    1    3    3    0    0  0.18953539038E+02 -0.21911818010E+02 -0.13319979533E+02  0.31887086184E+02  0.00000000000E+00 0. -1.
         11    1    3    3    0    0 -0.27037616173E+02  0.57715888909E+02 -0.15823305210E+03  0.17058679696E+03  0.00000000000E+00 0.  1.
         21    1    1    2  502  501  0.28192008452E+01 -0.22256236815E+02  0.87204491575E+02  0.90043941059E+02  0.00000000000E+00 0. -1.
<scales pt_clust_5="13000.00000" pt_clust_6="13000.00000" pt_clust_7="13000.00000" pt_clust_8="13000.00000" pt_clust_9="22.43408"></scales>
<clustering>
<clus scale="   22.434">  1  9  2 -1</clus>
<clus scale="   81.592">  5  6 -1 -1</clus>
<clus scale="   86.639">  1  5  2 -1</clus>
<clus scale="  101.084">  7  8 -1 -1</clus>
<clus scale="   22.434">  1  5  2 -1</clus>
</clustering>
</event>
<event>
 9    1  0.2374319E-005  0.9720617E+02  0.7546771E-02  0.1291343E+00
          1   -1    0    0  502    0  0.00000000000E+00  0.00000000000E+00  0.83645116683E+03  0.83645116683E+03  0.00000000000E+00 0. -1.
         -2   -1    0    0    0  501 -0.00000000000E+00 -0.00000000000E+00 -0.27001363575E+02  0.27001363575E+02  0.00000000000E+00 0.  1.
        -24    2    1    2    0    0  0.15796976320E+02 -0.32657225015E+02  0.95452810422E+02  0.13161450020E+03  0.83036731868E+02 0.  0.
         23    2    1    2    0    0 -0.40046441786E+02 -0.16146272457E+02  0.38066237061E+03  0.39407807356E+03  0.92354036440E+02 0.  0.
         11    1    3    3    0    0 -0.50256664523E+01  0.21682981282E+02  0.58722277990E+02  0.62799004235E+02  0.00000000000E+00 0. -1.
        -12    1    3    3    0    0  0.20822642773E+02 -0.54340206297E+02  0.36730532432E+02  0.68815495967E+02  0.00000000000E+00 0.  1.
        -11    1    4    4    0    0 -0.12687630212E+02 -0.51365578348E+02  0.14783031280E+03  0.15701337517E+03  0.00000000000E+00 0.  1.
         11    1    4    4    0    0 -0.27358811575E+02  0.35219305892E+02  0.23283205781E+03  0.23706469839E+03  0.00000000000E+00 0. -1.
         21    1    1    2  502  501  0.24249465466E+02  0.48803497471E+02  0.33333462222E+03  0.33775995664E+03  0.00000000000E+00 0. -1.
<scales pt_clust_5="13000.00000" pt_clust_6="13000.00000" pt_clust_7="13000.00000" pt_clust_8="13000.00000" pt_clust_9="54.49604"></scales>
<clustering>
<clus scale="   54.496">  1  9  2 -1</clus>
<clus scale="   83.037">  5  6 -1 -1</clus>
<clus scale="   88.402">  2  5  1 -1</clus>
<clus scale="   92.354">  7  8 -1 -1</clus>
<clus scale="   54.496">  1  5  2 -1</clus>
</clustering>
</event>
<event>
 9    1  0.2374319E-005  0.1573744E+03  0.7546771E-02  0.1193107E+00
         -2   -1    0    0    0  501 -0.00000000000E+00  0.00000000000E+00  0.68900691234E+02  0.68900691234E+02  0.00000000000E+00 0.  1.
          1   -1    0    0  502    0  0.00000000000E+00 -0.00000000000E+00 -0.45261070742E+03  0.45261070742E+03  0.00000000000E+00 0. -1.
         23    2    1    2    0    0  0.11121142738E+03  0.50703722818E+02 -0.10179923553E+03  0.18241872547E+03  0.89300940432E+02 0.  0.
        -24    2    1    2    0    0 -0.12592633726E+03 -0.69157392354E+02 -0.24182721421E+03  0.29257645245E+03  0.80500879877E+02 0.  0.
         11    1    4    4    0    0 -0.38016072806E+02 -0.48559529051E+01 -0.15377308502E+02  0.41294838503E+02  0.00000000000E+00 0. -1.
        -12    1    4    4    0    0 -0.87910264457E+02 -0.64301439449E+02 -0.22644990571E+03  0.25128161394E+03  0.00000000000E+00 0.  1.
        -11    1    3    3    0    0  0.59938855144E+02  0.35142291210E+02 -0.24300231553E+01  0.69523751337E+02  0.00000000000E+00 0.  1.
         11    1    3    3    0    0  0.51272572233E+02  0.15561431608E+02 -0.99369212376E+02  0.11289497414E+03  0.00000000000E+00 0. -1.
         21    1    1    2  502  501  0.14714909887E+02  0.18453669536E+02 -0.40083566447E+02  0.46516220735E+02  0.00000000000E+00 0. -1.
<scales pt_clust_5="13000.00000" pt_clust_6="13000.00000" pt_clust_7="13000.00000" pt_clust_8="13000.00000" pt_clust_9="23.60226"></scales>
<clustering>
<clus scale="   23.602">  2  9  1 -1</clus>
<clus scale="   80.501">  5  6 -1 -1</clus>
<clus scale="   89.301">  7  8 -1 -1</clus>
<clus scale="  152.553">  2  5  1 -1</clus>
<clus scale="   23.602">  2  5  1 -1</clus>
</clustering>
</event>
<event>
 9    1  0.2374319E-005  0.1236896E+03  0.7546771E-02  0.1243210E+00
         -2   -1    0    0    0  501 -0.00000000000E+00  0.00000000000E+00  0.12864062285E+03  0.12864062285E+03  0.00000000000E+00 0.  1.
          1   -1    0    0  502    0  0.00000000000E+00 -0.00000000000E+00 -0.14390822129E+03  0.14390822129E+03  0.00000000000E+00 0. -1.
        -24    2    1    2    0    0 -0.83209093715E+02 -0.19329886948E+02  0.23431090750E+02  0.11872280883E+03  0.79048665492E+02 0.  0.
         23    2    1    2    0    0  0.61839006141E+02  0.91096757890E+01 -0.10019564341E+02  0.11662891766E+03  0.97953376112E+02 0.  0.
         13    1    3    3    0    0 -0.52684633978E+02 -0.31454128548E+02 -0.19759218358E+02  0.64462854189E+02  0.00000000000E+00 0. -1.
        -14    1    3    3    0    0 -0.30524459737E+02  0.12124241600E+02  0.43190309108E+02  0.54259954640E+02  0.00000000000E+00 0.  1.
        -13    1    4    4    0    0  0.26119738877E+02  0.26494680115E+02  0.38755499772E+02  0.53723343119E+02  0.00000000000E+00 0.  1.
         13    1    4    4    0    0  0.35719267264E+02 -0.17385004326E+02 -0.48775064113E+02  0.62905574542E+02  0.00000000000E+00 0. -1.
         21    1    1    2  502  501  0.21370087575E+02  0.10220211159E+02 -0.28679124849E+02  0.37197117646E+02  0.00000000000E+00 0.  1.
<scales pt_clust_5="13000.00000" pt_clust_6="13000.00000" pt_clust_7="13000.00000" pt_clust_8="13000.00000" pt_clust_9="23.68825"></scales>
<clustering>
<clus scale="   23.688">  2  9  1 -1</clus>
<clus scale="   79.049">  5  6 -1 -1</clus>
<clus scale="   97.953">  7  8 -1 -1</clus>
<clus scale="  109.329">  1  5  2 -1</clus>
<clus scale="   23.688">  2  5  1 -1</clus>
</clustering>
</event>
<event>
 9    1  0.2374319E-005  0.9320312E+02  0.7546771E-02  0.1303879E+00
         -2   -1    0    0    0  501 -0.00000000000E+00  0.00000000000E+00  0.11291963981E+03  0.11291963981E+03  0.00000000000E+00 0.  1.
          1   -1    0    0  502    0  0.00000000000E+00 -0.00000000000E+00 -0.30543659665E+03  0.30543659665E+03  0.00000000000E+00 0. -1.
         23    2    1    2    0    0  0.65354457557E+01 -0.39806154660E+01  0.70587768419E+02  0.11665313591E+03  0.92556813458E+02 0.  0.
        -24    2    1    2    0    0 -0.28584176025E+02  0.38536943320E+02 -0.23374401290E+03  0.25128150069E+03  0.78765334406E+02 0.  0.
         13    1    4    4    0    0  0.12584143355E+02  0.38622091054E+02 -0.58193436409E+02  0.70968321260E+02  0.00000000000E+00 0. -1.
        -14    1    4    4    0    0 -0.41168319380E+02 -0.85147734227E-01 -0.17555057649E+03  0.18031317944E+03  0.00000000000E+00 0.  1.
        -11    1    3    3    0    0 -0.26722105181E+01 -0.47163621552E+02  0.46811924882E+02  0.66504918752E+02  0.00000000000E+00 0.  1.
         11    1    3    3    0    0  0.92076562738E+01  0.43183006086E+02  0.23775843536E+02  0.50148217162E+02  0.00000000000E+00 0. -1.
         21    1    1    2  502  501  0.22048730269E+02 -0.34556327854E+02 -0.29360712359E+02  0.50421599851E+02  0.00000000000E+00 0.  1.
<scales pt_clust_5="13000.00000" pt_clust_6="13000.00000" pt_clust_7="13000.00000" pt_clust_8="13000.00000" pt_clust_9="40.99130"></scales>
<clustering>
<clus scale="   40.991">  2  9  1 -1</clus>
<clus scale="   78.765">  5  6 -1 -1</clus>
<clus scale="   79.524">  2  5  1 -1</clus>
<clus scale="   92.557">  7  8 -1 -1</clus>
<clus scale="   40.991">  2  5  1 -1</clus>
</clustering>
</event>
<event>
 9    1  0.2374319E-005  0.1182580E+03  0.7546771E-02  0.1250844E+00
         -2   -1    0    0    0  501 -0.00000000000E+00  0.00000000000E+00  0.49878886488E+02  0.49878886488E+02  0.00000000000E+00 0.  1.
          1   -1    0    0  502    0  0.00000000000E+00 -0.00000000000E+00 -0.58095657853E+03  0.58095657853E+03  0.00000000000E+00 0. -1.
         23    2    1    2    0    0 -0.48365531556E+02 -0.53022777412E+02 -0.50240135709E+02  0.12863845535E+03  0.94197353424E+02 0.  0.
        -24    2    1    2    0    0  0.26279784252E+02  0.69773326860E+02 -0.43575603487E+03  0.44927532490E+03  0.80037812559E+02 0.  0.
         11    1    4    4    0    0  0.27376424538E+01  0.69937354023E+02 -0.40243737979E+03  0.40847836274E+03  0.00000000000E+00 0. -1.
        -12    1    4    4    0    0  0.23542141798E+02 -0.16402716272E+00 -0.33318655074E+02  0.40796962158E+02  0.00000000000E+00 0.  1.
        -11    1    3    3    0    0 -0.33903423121E+02  0.18628831070E+02 -0.38550069758E+02  0.54613032554E+02  0.00000000000E+00 0. -1.
         11    1    3    3    0    0 -0.14462108435E+02 -0.71651608482E+02 -0.11690065951E+02  0.74025422798E+02  0.00000000000E+00 0.  1.
         21    1    1    2  502  501  0.22085747305E+02 -0.16750549448E+02 -0.45081521464E+02  0.52921684764E+02  0.00000000000E+00 0. -1.
<scales pt_clust_5="13000.00000" pt_clust_6="13000.00000" pt_clust_7="13000.00000" pt_clust_8="13000.00000" pt_clust_9="27.71933"></scales>
<clustering>
<clus scale="   27.719">  2  9  1 -1</clus>
<clus scale="   80.038">  5  6 -1 -1</clus>
<clus scale="   94.197">  7  8 -1 -1</clus>
<clus scale="  107.321">  2  5  1 -1</clus>
<clus scale="   27.719">  2  5  1 -1</clus>
</clustering>
</event>
<event>
 9    1  0.2374319E-005  0.1566886E+03  0.7546771E-02  0.1221738E+00
         -2   -1    0    0    0  501 -0.00000000000E+00  0.00000000000E+00  0.17970862332E+03  0.17970862332E+03  0.00000000000E+00 0.  1.
          1   -1    0    0  502    0  0.00000000000E+00 -0.00000000000E+00 -0.40029482021E+03  0.40029482021E+03  0.00000000000E+00 0. -1.
        -24    2    1    2    0    0  0.14371099635E+02  0.17073792386E+02  0.10865213645E+03  0.13711483748E+03  0.80604894449E+02 0.  0.
         23    2    1    2    0    0 -0.13229087928E+03 -0.97778525242E+01 -0.25928943196E+03  0.30558910142E+03  0.92505168713E+02 0.  0.
         13    1    3    3    0    0  0.18967528296E+02 -0.12684787148E+02  0.10420824836E+03  0.10667722335E+03  0.00000000000E+00 0. -1.
        -14    1    3    3    0    0 -0.45964286605E+01  0.29758579535E+02  0.44438880899E+01  0.30437614126E+02  0.00000000000E+00 0.  1.
        -13    1    4    4    0    0 -0.75663170593E+02  0.35884027842E+02 -0.99700033317E+02  0.13020244038E+03  0.00000000000E+00 0.  1.
         13    1    4    4    0    0 -0.56627708688E+02 -0.45661880366E+02 -0.15958939864E+03  0.17538666104E+03  0.00000000000E+00 0. -1.
         21    1    1    2  502  501  0.11791977965E+03 -0.72959398621E+01 -0.69948901385E+02  0.13729950464E+03  0.00000000000E+00 0.  1.
<scales pt_clust_5="13000.00000" pt_clust_6="13000.00000" pt_clust_7="13000.00000" pt_clust_8="13000.00000" pt_clust_9="126.46777"></scales>
<clustering>
<clus scale="   80.605">  5  6 -1 -1</clus>
<clus scale="   83.637">  1  5  2 -1</clus>
<clus scale="   92.505">  7  8 -1 -1</clus>
<clus scale="  126.468">  1  9  2 -1</clus>
<clus scale="  156.689">  2  5  1 -1</clus>
</clustering>
</event>
<event>
 9    1  0.2374319E-005  0.9633583E+02  0.7546771E-02  0.1296076E+00
          1   -1    0    0  502    0  0.00000000000E+00  0.00000000000E+00  0.26125288644E+03  0.26125288644E+03  0.00000000000E+00 0. -1.
         -2   -1    0    0    0  501 -0.00000000000E+00 -0.00000000000E+00 -0.84207830201E+02  0.84207830201E+02  0.00000000000E+00 0.  1.
        -24    2    1    2    0    0 -0.18132053173E+02 -0.10191591185E+02 -0.42443065802E+02  0.93505846091E+02  0.80680168167E+02 0.  0.
         23    2    1    2    0    0  0.65658108849E+00  0.27275841590E+02  0.16035063034E+03  0.18796653833E+03  0.94205585004E+02 0.  0.
         13    1    3    3    0    0 -0.25874614814E+02  0.31149351937E+02 -0.27143607075E+02  0.48749904851E+02  0.00000000000E+00 0. -1.
        -14    1    3    3    0    0  0.77425616420E+01 -0.41340943122E+02 -0.15299458727E+02  0.44755941241E+02  0.00000000000E+00 0.  1.
        -11    1    4    4    0    0  0.29029820938E+02  0.14869076755E+02  0.15259645731E+03  0.15604325916E+03  0.00000000000E+00 0. -1.
         11    1    4    4    0    0 -0.28373239850E+02  0.12406764835E+02  0.77541730385E+01  0.31923279167E+02  0.00000000000E+00 0.  1.
         21    1    1    2  502  501  0.17475472084E+02 -0.17084250405E+02  0.59137491696E+02  0.63988332222E+02  0.00000000000E+00 0. -1.
<scales pt_clust_5="13000.00000" pt_clust_6="13000.00000" pt_clust_7="13000.00000" pt_clust_8="13000.00000" pt_clust_9="24.43898"></scales>
<clustering>
<clus scale="   24.439">  1  9  2 -1</clus>
<clus scale="   80.680">  5  6 -1 -1</clus>
<clus scale="   83.158">  2  5  1 -1</clus>
<clus scale="   94.206">  7  8 -1 -1</clus>
<clus scale="   24.439">  1  5  2 -1</clus>
</clustering>
</event>
<event>
 9    1  0.2374319E-005  0.2396841E+03  0.7546771E-02  0.1120657E+00
         -2   -1    0    0    0  501 -0.00000000000E+00  0.00000000000E+00  0.56322847313E+03  0.56322847313E+03  0.00000000000E+00 0.  1.
          1   -1    0    0  502    0  0.00000000000E+00 -0.00000000000E+00 -0.16481830660E+03  0.16481830660E+03  0.00000000000E+00 0. -1.
        -24    2    1    2    0    0  0.13903459041E+03 -0.17678524061E+03  0.33270913279E+03  0.40952903468E+03  0.80218604935E+02 0.  0.
         23    2    1    2    0    0 -0.14720479941E+03  0.15841832421E+03  0.11790362008E+03  0.26257843906E+03  0.90997552786E+02 0.  0.
         11    1    3    3    0    0  0.11536296930E+03 -0.87799750600E+02  0.22694145594E+03  0.26929507109E+03  0.00000000000E+00 0. -1.
        -12    1    3    3    0    0  0.23671621116E+02 -0.88985490005E+02  0.10576767686E+03  0.14023396360E+03  0.00000000000E+00 0.  1.
        -13    1    4    4    0    0 -0.76946526636E+02  0.13328245040E+03  0.10634926531E+03  0.18706989543E+03  0.00000000000E+00 0.  1.
         13    1    4    4    0    0 -0.70258272776E+02  0.25135873817E+02  0.11554354768E+02  0.75508543623E+02  0.00000000000E+00 0. -1.
         21    1    1    2  502  501  0.81702090003E+01  0.18366916393E+02 -0.52202586347E+02  0.55939305986E+02  0.00000000000E+00 0. -1.
<scales pt_clust_5="13000.00000" pt_clust_6="13000.00000" pt_clust_7="13000.00000" pt_clust_8="13000.00000" pt_clust_9="20.10214"></scales>
<clustering>
<clus scale="   20.102">  2  9  1 -1</clus>
<clus scale="   80.219">  5  6 -1 -1</clus>
<clus scale="   90.998">  7  8 -1 -1</clus>
<clus scale="  235.803">  1  5  2 -1</clus>
<clus scale="   20.102">  2  5  1 -1</clus>
</clustering>
</event>
<event>
 9    1  0.2374319E-005  0.1096594E+03  0.7546771E-02  0.1261714E+00
          3   -1    0    0  502    0  0.00000000000E+00  0.00000000000E+00  0.86278356565E+02  0.86278356565E+02  0.00000000000E+00 0. -1.
         -4   -1    0    0    0  501 -0.00000000000E+00 -0.00000000000E+00 -0.22581958709E+03  0.22581958709E+03  0.00000000000E+00 0.  1.
         23    2    1    2    0    0 -0.26801654287E+02 -0.54029142966E+02 -0.13002476796E+03  0.16976108275E+03  0.90966521146E+02 0.  0.
        -24    2    1    2    0    0  0.45352234939E+02  0.39494462104E+02 -0.26507781281E+02  0.11328370441E+03  0.92270783384E+02 0.  0.
         11    1    4    4    0    0  0.57301065067E+02  0.20270738394E+02  0.17966709089E+02  0.63380734678E+02  0.00000000000E+00 0. -1.
        -12    1    4    4    0    0 -0.11948830127E+02  0.19223723710E+02 -0.44474490370E+02  0.49902969735E+02  0.00000000000E+00 0.  1.
        -13    1    3    3    0    0  0.10962123552E+01 -0.19981443795E+02  0.10432832693E+02  0.22567759651E+02  0.00000000000E+00 0. -1.
         13    1    3    3    0    0 -0.27897866642E+02 -0.34047699171E+02 -0.14045760066E+03  0.14719332310E+03  0.00000000000E+00 0.  1.
         21    1    1    2  502  501 -0.18550580652E+02  0.14534680862E+02  0.16991318721E+02  0.29053156493E+02  0.00000000000E+00 0. -1.
<scales pt_clust_5="13000.00000" pt_clust_6="13000.00000" pt_clust_7="13000.00000" pt_clust_8="13000.00000" pt_clust_9="23.56652"></scales>
<clustering>
<clus scale="   23.567">  1  9  2 -1</clus>
<clus scale="   90.967">  7  8 -1 -1</clus>
<clus scale="   92.271">  5  6 -1 -1</clus>
<clus scale="  108.564">  2  7  1 -1</clus>
<clus scale="   23.567">  1  5  2 -1</clus>
</clustering>
</event>
<event>
 9    1  0.2374319E-005  0.1383183E+03  0.7546771E-02  0.1235215E+00
         -2   -1    0    0    0  501 -0.00000000000E+00  0.00000000000E+00  0.12075072171E+03  0.12075072171E+03  0.00000000000E+00 0.  1.
          1   -1    0    0  502    0  0.00000000000E+00 -0.00000000000E+00 -0.84314927212E+03  0.84314927212E+03  0.00000000000E+00 0. -1.
        -24    2    1    2    0    0  0.70129028393E+01 -0.11297776042E+03  0.63943072524E+02  0.15318803228E+03  0.81022845886E+02 0.  0.
         23    2    1    2    0    0 -0.55841618618E+01  0.13213908912E+02 -0.28287772909E+03  0.29745689847E+03  0.90857066754E+02 0.  0.
         11    1    3    3    0    0 -0.16720698867E+02 -0.37191694069E+02  0.61430704212E+02  0.73732864439E+02  0.00000000000E+00 0. -1.
        -12    1    3    3    0    0  0.23733601707E+02 -0.75786066348E+02  0.25123683120E+01  0.79455167844E+02  0.00000000000E+00 0.  1.
        -13    1    4    4    0    0 -0.47112641997E+00  0.50350836861E+02 -0.11663537338E+03  0.12704030485E+03  0.00000000000E+00 0. -1.
         13    1    4    4    0    0 -0.51130354418E+01 -0.37136927949E+02 -0.16624235570E+03  0.17041659361E+03  0.00000000000E+00 0.  1.
         21    1    1    2  502  501 -0.14287409775E+01  0.99763851506E+02 -0.50346389385E+03  0.51325506308E+03  0.00000000000E+00 0. -1.
<scales pt_clust_5="13000.00000" pt_clust_6="13000.00000" pt_clust_7="13000.00000" pt_clust_8="13000.00000" pt_clust_9="112.10371"></scales>
<clustering>
<clus scale="   81.023">  5  6 -1 -1</clus>
<clus scale="   90.857">  7  8 -1 -1</clus>
<clus scale="   91.983">  2  7  1 -1</clus>
<clus scale="  112.104">  2  9  1 -1</clus>
<clus scale="   91.983">  2  5  1 -1</clus>
</clustering>
</event>
<event>
 9    1  0.2374319E-005  0.1221785E+03  0.7546771E-02  0.1241063E+00
          1   -1    0    0  502    0  0.00000000000E+00  0.00000000000E+00  0.37212267876E+02  0.37212267876E+02  0.00000000000E+00 0. -1.
         -2   -1    0    0    0  501 -0.00000000000E+00 -0.00000000000E+00 -0.59687698121E+03  0.59687698121E+03  0.00000000000E+00 0.  1.
         23    2    1    2    0    0 -0.85255593887E+02 -0.87327792237E+01 -0.40287552631E+03  0.42146448698E+03  0.89324388398E+02 0.  0.
        -24    2    1    2    0    0  0.78696655209E+02 -0.17512000726E+02 -0.12676381196E+03  0.17221026843E+03  0.84187165418E+02 0.  0.
         11    1    4    4    0    0  0.26371803779E+02  0.83282726048E+01 -0.10712432089E+03  0.11063657752E+03  0.00000000000E+00 0. -1.
        -12    1    4    4    0    0  0.52324851430E+02 -0.25840273331E+02 -0.19639491065E+02  0.61573690910E+02  0.00000000000E+00 0.  1.
        -11    1    3    3    0    0 -0.20533665654E+02 -0.19155820930E+02 -0.23943088042E+02  0.36903229746E+02  0.00000000000E+00 0. -1.
         11    1    3    3    0    0 -0.64721928233E+02  0.10423041707E+02 -0.37893243827E+03  0.38456125723E+03  0.00000000000E+00 0.  1.
         21    1    1    2  502  501  0.65589386778E+01  0.26244779950E+02 -0.30025375071E+02  0.40414493680E+02  0.00000000000E+00 0. -1.
<scales pt_clust_5="13000.00000" pt_clust_6="13000.00000" pt_clust_7="13000.00000" pt_clust_8="13000.00000" pt_clust_9="27.05195"></scales>
<clustering>
<clus scale="   27.052">  1  9  2 -1</clus>
<clus scale="   84.187">  5  6 -1 -1</clus>
<clus scale="   89.324">  7  8 -1 -1</clus>
<clus scale="  118.475">  1  5  2 -1</clus>
<clus scale="   27.052">  1  5  2 -1</clus>
</clustering>
</event>
<event>
 9    1  0.2374319E-005  0.9531248E+02  0.7546771E-02  0.1298772E+00
          1   -1    0    0  502    0  0.00000000000E+00  0.00000000000E+00  0.52805036400E+03  0.52805036400E+03  0.00000000000E+00 0. -1.
         -2   -1    0    0    0  501 -0.00000000000E+00 -0.00000000000E+00 -0.68791806980E+02  0.68791806980E+02  0.00000000000E+00 0.  1.
         23    2    1    2    0    0 -0.31265710476E+02 -0.46703131446E+01 -0.16914261197E+02  0.98802204962E+02  0.92067513256E+02 0.  0.
        -24    2    1    2    0    0 -0.29116300289E+02  0.14875091688E+02  0.29053184258E+03  0.30255928522E+03  0.77873886673E+02 0.  0.
         11    1    4    4    0    0 -0.30473284351E+02 -0.26462539549E+02  0.18181819316E+03  0.18624377150E+03  0.00000000000E+00 0. -1.
        -12    1    4    4    0    0  0.13569840625E+01  0.41337631238E+02  0.10871364942E+03  0.11631551372E+03  0.00000000000E+00 0.  1.
        -11    1    3    3    0    0  0.23922495981E+02 -0.14765336099E+02 -0.30082649864E+02  0.41173617608E+02  0.00000000000E+00 0.  1.
         11    1    3    3    0    0 -0.55188206456E+02  0.10095022954E+02  0.13168388668E+02  0.57628587354E+02  0.00000000000E+00 0. -1.
         21    1    1    2  502  501  0.60382010765E+02 -0.10204778544E+02  0.18564097564E+03  0.19548068080E+03  0.00000000000E+00 0. -1.
<scales pt_clust_5="13000.00000" pt_clust_6="13000.00000" pt_clust_7="13000.00000" pt_clust_8="13000.00000" pt_clust_9="61.23826"></scales>
<clustering>
<clus scale="   61.238">  1  9  2 -1</clus>
<clus scale="   77.874">  5  6 -1 -1</clus>
<clus scale="   81.685">  1  5  2 -1</clus>
<clus scale="   92.068">  7  8 -1 -1</clus>
<clus scale="   61.238">  1  5  2 -1</clus>
</clustering>
</event>
<event>
 9    1  0.2374319E-005  0.9959534E+02  0.7546771E-02  0.1286364E+00
         -2   -1    0    0    0  501 -0.00000000000E+00  0.00000000000E+00  0.17373067315E+03  0.17373067315E+03  0.00000000000E+00 0.  1.
          1   -1    0    0  502    0  0.00000000000E+00 -0.00000000000E+00 -0.34571097213E+03  0.34571097213E+03  0.00000000000E+00 0. -1.
        -24    2    1    2    0    0  0.57458502695E+01  0.41486620289E+02  0.13794629358E+03  0.16535187957E+03  0.80980921878E+02 0.  0.
         23    2    1    2    0    0  0.22093003345E+02  0.83511446087E+00 -0.27981306719E+03  0.29515797960E+03  0.91291194202E+02 0.  0.
         11    1    3    3    0    0 -0.25841471341E+02  0.51815036208E+02  0.89865133853E+02  0.10690332970E+03  0.00000000000E+00 0. -1.
        -12    1    3    3    0    0  0.31587321611E+02 -0.10328415919E+02  0.48081159725E+02  0.58448549875E+02  0.00000000000E+00 0.  1.
        -11    1    4    4    0    0 -0.34498759325E+02  0.11049117020E+02 -0.98921555910E+02  0.10534572419E+03  0.00000000000E+00 0.  1.
         11    1    4    4    0    0  0.56591762670E+02 -0.10214002559E+02 -0.18089151128E+03  0.18981225541E+03  0.00000000000E+00 0. -1.
         21    1    1    2  502  501 -0.27838853614E+02 -0.42321734750E+02 -0.30113525372E+02  0.58931786101E+02  0.00000000000E+00 0. -1.
<scales pt_clust_5="13000.00000" pt_clust_6="13000.00000" pt_clust_7="13000.00000" pt_clust_8="13000.00000" pt_clust_9="50.65699"></scales>
<clustering>
<clus scale="   50.657">  2  9  1 -1</clus>
<clus scale="   80.981">  5  6 -1 -1</clus>
<clus scale="   90.239">  1  5  2 -1</clus>
<clus scale="   91.291">  7  8 -1 -1</clus>
<clus scale="   50.657">  2  5  1 -1</clus>
</clustering>
</event>
<event>
 9    1  0.2374319E-005  0.1184624E+03  0.7546771E-02  0.1263753E+00
         -2   -1    0    0    0  501 -0.00000000000E+00  0.00000000000E+00  0.42903127634E+03  0.42903127634E+03  0.00000000000E+00 0.  1.
          1   -1    0    0  502    0  0.00000000000E+00 -0.00000000000E+00 -0.55701856819E+02  0.55701856819E+02  0.00000000000E+00 0. -1.
        -24    2    1    2    0    0 -0.14271638763E+02  0.18952513895E+02  0.31515132295E+03  0.32608328991E+03  0.80293699289E+02 0.  0.
         23    2    1    2    0    0 -0.43424613217E+01  0.53431899054E+01  0.47315406063E+02  0.12617271299E+03  0.11676214799E+03 0.  0.
         13    1    3    3    0    0  0.29926712398E+02 -0.73481226018E+01  0.89897836367E+02  0.95032752271E+02  0.00000000000E+00 0. -1.
        -14    1    3    3    0    0 -0.44198351161E+02  0.26300636497E+02  0.22525348658E+03  0.23105053764E+03  0.00000000000E+00 0.  1.
        -13    1    4    4    0    0  0.15146058350E+02  0.34261500951E+02 -0.25583274063E+02  0.45362511425E+02  0.00000000000E+00 0. -1.
         13    1    4    4    0    0 -0.19488519672E+02 -0.28918311046E+02  0.72898680126E+02  0.80810201565E+02  0.00000000000E+00 0.  1.
         21    1    1    2  502  501  0.18614100084E+02 -0.24295703801E+02  0.10862690514E+02  0.32477130266E+02  0.00000000000E+00 0. -1.
<scales pt_clust_5="13000.00000" pt_clust_6="13000.00000" pt_clust_7="13000.00000" pt_clust_8="13000.00000" pt_clust_9="30.60663"></scales>
<clustering>
<clus scale="   30.607">  2  9  1 -1</clus>
<clus scale="   80.294">  5  6 -1 -1</clus>
<clus scale="   82.747">  1  5  2 -1</clus>
<clus scale="  116.762">  7  8 -1 -1</clus>
<clus scale="   30.607">  2  5  1 -1</clus>
</clustering>
</event>
<event>
 9    1  0.2374319E-005  0.1170816E+03  0.7546771E-02  0.1251516E+00
          1   -1    0    0  502    0  0.00000000000E+00  0.00000000000E+00  0.43363327896E+02  0.43363327896E+02  0.00000000000E+00 0. -1.
         -2   -1    0    0    0  501 -0.00000000000E+00 -0.00000000000E+00 -0.51793062740E+03  0.51793062740E+03  0.00000000000E+00 0.  1.
        -24    2    1    2    0    0  0.45962610896E+02 -0.83338341273E+02 -0.32703342132E+03  0.35000342181E+03  0.80583471587E+02 0.  0.
         23    2    1    2    0    0 -0.43520562409E+02  0.50530906654E+02 -0.87470379972E+02  0.14280757805E+03  0.91079773260E+02 0.  0.
         11    1    3    3    0    0  0.49645657225E+02 -0.12092596089E+02 -0.17023691159E+03  0.17774005803E+03  0.00000000000E+00 0. -1.
        -12    1    3    3    0    0 -0.36830463294E+01 -0.71245745184E+02 -0.15679650973E+03  0.17226336378E+03  0.00000000000E+00 0.  1.
        -11    1    4    4    0    0 -0.47661577647E+01 -0.26349787727E+02 -0.21607691098E+02  0.34408136940E+02  0.00000000000E+00 0.  1.
         11    1    4    4    0    0 -0.38754404644E+02  0.76880694380E+02 -0.65862688873E+02  0.10839944111E+03  0.00000000000E+00 0. -1.
         21    1    1    2  502  501 -0.24420484871E+01  0.32807434619E+02 -0.60063498205E+02  0.68482955425E+02  0.00000000000E+00 0. -1.
<scales pt_clust_5="13000.00000" pt_clust_6="13000.00000" pt_clust_7="13000.00000" pt_clust_8="13000.00000" pt_clust_9="32.89820"></scales>
<clustering>
<clus scale="   32.898">  2  9  1 -1</clus>
<clus scale="   80.583">  5  6 -1 -1</clus>
<clus scale="   91.080">  7  8 -1 -1</clus>
<clus scale="  109.116">  2  5  1 -1</clus>
<clus scale="  117.082">  1  5  2 -1</clus>
</clustering>
</event>
<event>
 9    1  0.2374319E-005  0.1150103E+03  0.7546771E-02  0.1254409E+00
         -2   -1    0    0    0  501 -0.00000000000E+00  0.00000000000E+00  0.18239661047E+03  0.18239661047E+03  0.00000000000E+00 0.  1.
          1   -1    0    0  502    0  0.00000000000E+00 -0.00000000000E+00 -0.11292231770E+03  0.11292231770E+03  0.00000000000E+00 0. -1.
         23    2    1    2    0    0  0.72481065145E+00 -0.86182772907E+02  0.80587481349E+02  0.14872714620E+03  0.90539638675E+02 0.  0.
        -24    2    1    2    0    0  0.25972392836E+02  0.45806884322E+02 -0.64560907074E+01  0.97964201173E+02  0.82355739104E+02 0.  0.
         13    1    4    4    0    0  0.46847708268E+02 -0.33093335860E+00 -0.66822114097E+01  0.47323030716E+02  0.00000000000E+00 0. -1.
        -14    1    4    4    0    0 -0.20875315432E+02  0.46137817681E+02  0.22612070232E+00  0.50641170457E+02  0.00000000000E+00 0.  1.
        -13    1    3    3    0    0  0.21556849090E+02 -0.22352411232E+02 -0.12899900372E+02  0.33626410159E+02  0.00000000000E+00 0. -1.
         13    1    3    3    0    0 -0.20832038439E+02 -0.63830361675E+02  0.93487381721E+02  0.11510073605E+03  0.00000000000E+00 0.  1.
         21    1    1    2  502  501 -0.26697203487E+02  0.40375888585E+02 -0.46570978639E+01  0.48627580791E+02  0.00000000000E+00 0. -1.
<scales pt_clust_5="13000.00000" pt_clust_6="13000.00000" pt_clust_7="13000.00000" pt_clust_8="13000.00000" pt_clust_9="48.40406"></scales>
<clustering>
<clus scale="   48.404">  2  9  1 -1</clus>
<clus scale="   82.356">  5  6 -1 -1</clus>
<clus scale="   90.540">  7  8 -1 -1</clus>
<clus scale="  108.685">  2  5  1 -1</clus>
<clus scale="   48.404">  2  5  1 -1</clus>
</clustering>
</event>
<event>
 9    1  0.2374319E-005  0.1047350E+03  0.7546771E-02  0.1274467E+00
          1   -1    0    0  502    0  0.00000000000E+00  0.00000000000E+00  0.41963371252E+03  0.41963371252E+03  0.00000000000E+00 0. -1.
         -2   -1    0    0    0  501 -0.00000000000E+00 -0.00000000000E+00 -0.31545920217E+02  0.31545920217E+02  0.00000000000E+00 0.  1.
        -24    2    1    2    0    0 -0.51491904006E+02  0.27128122570E+02  0.12963954825E+03  0.16322012053E+03  0.80293487057E+02 0.  0.
         23    2    1    2    0    0  0.32907209997E+02 -0.41261666535E+02  0.21319642317E+03  0.23703922932E+03  0.89159810376E+02 0.  0.
         13    1    3    3    0    0 -0.32923927967E+02 -0.23890404938E+02  0.79568224316E+02  0.89363520531E+02  0.00000000000E+00 0. -1.
        -14    1    3    3    0    0 -0.18567976039E+02  0.51018527508E+02  0.50071323934E+02  0.73856600001E+02  0.00000000000E+00 0.  1.
        -11    1    4    4    0    0  0.20716141628E+02 -0.60745949701E+02  0.20104457497E+03  0.21104063602E+03  0.00000000000E+00 0. -1.
         11    1    4    4    0    0  0.12191068369E+02  0.19484283166E+02  0.12151848206E+02  0.25998593295E+02  0.00000000000E+00 0.  1.
         21    1    1    2  502  501  0.18584694009E+02  0.14133543965E+02  0.45251820876E+02  0.50920282884E+02  0.00000000000E+00 0. -1.
<scales pt_clust_5="13000.00000" pt_clust_6="13000.00000" pt_clust_7="13000.00000" pt_clust_8="13000.00000" pt_clust_9="23.34840"></scales>
<clustering>
<clus scale="   23.348">  1  9  2 -1</clus>
<clus scale="   80.293">  5  6 -1 -1</clus>
<clus scale="   89.160">  7  8 -1 -1</clus>
<clus scale="   97.298">  2  5  1 -1</clus>
<clus scale="   23.348">  1  5  2 -1</clus>
</clustering>
</event>
<event>
 9    1  0.2374319E-005  0.1322179E+03  0.7546771E-02  0.1226489E+00
          1   -1    0    0  502    0  0.00000000000E+00  0.00000000000E+00  0.92313426674E+03  0.92313426674E+03  0.00000000000E+00 0. -1.
         -2   -1    0    0    0  501 -0.00000000000E+00 -0.00000000000E+00 -0.55759644890E+02  0.55759644890E+02  0.00000000000E+00 0.  1.
         23    2    1    2    0    0  0.69814842341E+02 -0.66101458066E+02  0.60589486890E+02  0.14689341873E+03  0.93075644365E+02 0.  0.
        -24    2    1    2    0    0 -0.15210398828E+02  0.10078630155E+03  0.43507314771E+03  0.45470155958E+03  0.84116761808E+02 0.  0.
         13    1    4    4    0    0 -0.48054271484E+02  0.37926243081E+02  0.20482721516E+03  0.21377979557E+03  0.00000000000E+00 0. -1.
        -14    1    4    4    0    0  0.32843872655E+02  0.62860058466E+02  0.23024593255E+03  0.24092176401E+03  0.00000000000E+00 0.  1.
        -13    1    3    3    0    0  0.35867993447E+02  0.11179442659E+02 -0.76629094168E+01  0.38343357610E+02  0.00000000000E+00 0.  1.
         13    1    3    3    0    0  0.33946848894E+02 -0.77280900726E+02  0.68252396307E+02  0.10855006112E+03  0.00000000000E+00 0. -1.
         21    1    1    2  502  501 -0.54604443512E+02 -0.34684843481E+02  0.37171198725E+03  0.37729893332E+03  0.00000000000E+00 0. -1.
<scales pt_clust_5="13000.00000" pt_clust_6="13000.00000" pt_clust_7="13000.00000" pt_clust_8="13000.00000" pt_clust_9="64.68913"></scales>
<clustering>
<clus scale="   64.689">  1  9  2 -1</clus>
<clus scale="   84.117">  5  6 -1 -1</clus>
<clus scale="   93.076">  7  8 -1 -1</clus>
<clus scale="  126.072">  1  5  2 -1</clus>
<clus scale="   64.689">  1  5  2 -1</clus>
</clustering>
</event>
<event>
 9    1  0.2374319E-005  0.1842416E+03  0.7546771E-02  0.1164738E+00
         -2   -1    0    0    0  501 -0.00000000000E+00  0.00000000000E+00  0.50298074394E+03  0.50298074394E+03  0.00000000000E+00 0.  1.
          1   -1    0    0  502    0  0.00000000000E+00 -0.00000000000E+00 -0.76559800174E+02  0.76559800174E+02  0.00000000000E+00 0. -1.
        -24    2    1    2    0    0 -0.89523718467E+02 -0.13432482920E+03  0.25037296860E+03  0.30879383412E+03  0.81297925422E+02 0.  0.
         23    2    1    2    0    0  0.10600931317E+03  0.12062315794E+03  0.16072519724E+03  0.24439717202E+03  0.90052584390E+02 0.  0.
         13    1    3    3    0    0 -0.32725053452E+02 -0.10542291840E+03  0.11629996900E+03  0.16034526384E+03  0.00000000000E+00 0. -1.
        -14    1    3    3    0    0 -0.56798665015E+02 -0.28901910794E+02  0.13407299960E+03  0.14844857027E+03  0.00000000000E+00 0.  1.
        -13    1    4    4    0    0  0.49928313416E+02  0.11417523629E+03  0.89055533747E+02  0.15316562654E+03  0.00000000000E+00 0. -1.
         13    1    4    4    0    0  0.56080999755E+02  0.64479216576E+01  0.71669663488E+02  0.91231545486E+02  0.00000000000E+00 0.  1.
         21    1    1    2  502  501 -0.16485594704E+02  0.13701671251E+02  0.15322777935E+02  0.26349537975E+02  0.00000000000E+00 0.  1.
<scales pt_clust_5="13000.00000" pt_clust_6="13000.00000" pt_clust_7="13000.00000" pt_clust_8="13000.00000" pt_clust_9="21.43620"></scales>
<clustering>
<clus scale="   21.436">  2  9  1 -1</clus>
<clus scale="   81.298">  5  6 -1 -1</clus>
<clus scale="   90.053">  7  8 -1 -1</clus>
<clus scale="  180.125">  1  5  2 -1</clus>
<clus scale="   21.436">  2  5  1 -1</clus>
</clustering>
</event>
<event>
 9    1  0.2374319E-005  0.1285028E+03  0.7546771E-02  0.1232051E+00
          1   -1    0    0  502    0  0.00000000000E+00  0.00000000000E+00  0.22286517556E+03  0.22286517556E+03  0.00000000000E+00 0. -1.
         -2   -1    0    0    0  501 -0.00000000000E+00 -0.00000000000E+00 -0.14649615924E+03  0.14649615924E+03  0.00000000000E+00 0.  1.
        -24    2    1    2    0    0 -0.93197207524E+02  0.16650926409E+02 -0.58087047047E+02  0.13723338460E+03  0.80597295080E+02 0.  0.
         23    2    1    2    0    0  0.87239898932E+02  0.35640912184E+02  0.12143228261E+03  0.17791038133E+03  0.89583647720E+02 0.  0.
         11    1    3    3    0    0 -0.46268293023E+02  0.16288134923E+02  0.14184467304E+02  0.51061310121E+02  0.00000000000E+00 0. -1.
        -12    1    3    3    0    0 -0.46928914501E+02  0.36279148584E+00 -0.72271514351E+02  0.86172074481E+02  0.00000000000E+00 0.  1.
        -11    1    4    4    0    0  0.40934889617E+02  0.10044024094E+02  0.11752818914E+03  0.12485761031E+03  0.00000000000E+00 0. -1.
         11    1    4    4    0    0  0.46305009315E+02  0.25596888089E+02  0.39040934638E+01  0.53052771024E+02  0.00000000000E+00 0.  1.
         21    1    1    2  502  501  0.59573085922E+01 -0.52291838592E+02  0.13023780750E+02  0.54217568869E+02  0.00000000000E+00 0. -1.
<scales pt_clust_5="13000.00000" pt_clust_6="13000.00000" pt_clust_7="13000.00000" pt_clust_8="13000.00000" pt_clust_9="52.63009"></scales>
<clustering>
<clus scale="   52.630">  1  9  2 -1</clus>
<clus scale="   80.597">  5  6 -1 -1</clus>
<clus scale="   89.584">  7  8 -1 -1</clus>
<clus scale="  122.408">  2  5  1 -1</clus>
<clus scale="   52.630">  1  5  2 -1</clus>
</clustering>
</event>
<event>
 9    1  0.2374319E-005  0.1135730E+03  0.7546771E-02  0.1257796E+00
          1   -1    0    0  502    0  0.00000000000E+00  0.00000000000E+00  0.42685938428E+03  0.42685938428E+03  0.00000000000E+00 0. -1.
         -2   -1    0    0    0  501 -0.00000000000E+00 -0.00000000000E+00 -0.19450718490E+03  0.19450718490E+03  0.00000000000E+00 0.  1.
        -24    2    1    2    0    0  0.55203523735E+02  0.41817364931E+02 -0.16815176920E+03  0.19900181408E+03  0.80812025595E+02 0.  0.
         23    2    1    2    0    0 -0.39314493587E+02 -0.12606198497E+02  0.32039064683E+03  0.33562435017E+03  0.91043902640E+02 0.  0.
         11    1    3    3    0    0  0.26195808539E+02  0.29069201295E+02 -0.13895528520E+02  0.41524987198E+02  0.00000000000E+00 0. -1.
        -12    1    3    3    0    0  0.29007715195E+02  0.12748163636E+02 -0.15425624068E+03  0.15747682689E+03  0.00000000000E+00 0.  1.
        -11    1    4    4    0    0  0.95426902907E+00 -0.46451513119E+02  0.12797610757E+03  0.13614895450E+03  0.00000000000E+00 0. -1.
         11    1    4    4    0    0 -0.40268762616E+02  0.33845314622E+02  0.19241453925E+03  0.19947539568E+03  0.00000000000E+00 0.  1.
         21    1    1    2  502  501 -0.15889030147E+02 -0.29211166433E+02  0.80113321758E+02  0.86740404925E+02  0.00000000000E+00 0. -1.
<scales pt_clust_5="13000.00000" pt_clust_6="13000.00000" pt_clust_7="13000.00000" pt_clust_8="13000.00000" pt_clust_9="33.25287"></scales>
<clustering>
<clus scale="   33.253">  1  9  2 -1</clus>
<clus scale="   80.812">  5  6 -1 -1</clus>
<clus scale="   91.044">  7  8 -1 -1</clus>
<clus scale="  105.548">  2  5  1 -1</clus>
<clus scale="   33.253">  1  5  2 -1</clus>
</clustering>
</event>
<event>
 9    1  0.2374319E-005  0.9675370E+02  0.7546771E-02  0.1292384E+00
          1   -1    0    0  502    0  0.00000000000E+00  0.00000000000E+00  0.25542584699E+03  0.25542584699E+03  0.00000000000E+00 0. -1.
         -2   -1    0    0    0  501 -0.00000000000E+00 -0.00000000000E+00 -0.46655368775E+03  0.46655368775E+03  0.00000000000E+00 0.  1.
        -24    2    1    2    0    0  0.30298438690E+02  0.65730035444E+01 -0.42674287554E+03  0.43560195068E+03  0.81721342660E+02 0.  0.
         23    2    1    2    0    0 -0.85431912457E+02  0.16446335298E+02  0.12248377812E+03  0.17572939899E+03  0.91156196486E+02 0.  0.
         13    1    3    3    0    0 -0.16160001822E+02  0.27554597254E+02 -0.10207748717E+03  0.10695894014E+03  0.00000000000E+00 0. -1.
        -14    1    3    3    0    0  0.46458440512E+02 -0.20981593710E+02 -0.32466538838E+03  0.32864301054E+03  0.00000000000E+00 0.  1.
        -11    1    4    4    0    0  0.49418640244E+01 -0.23828442760E+02  0.40435961244E+02  0.47194106265E+02  0.00000000000E+00 0.  1.
         11    1    4    4    0    0 -0.90373776481E+02  0.40274778058E+02  0.82047816873E+02  0.12853529273E+03  0.00000000000E+00 0. -1.
         21    1    1    2  502  501  0.55133473766E+02 -0.23019338842E+02  0.93131256670E+02  0.11064818507E+03  0.00000000000E+00 0.  1.
<scales pt_clust_5="13000.00000" pt_clust_6="13000.00000" pt_clust_7="13000.00000" pt_clust_8="13000.00000" pt_clust_9="59.74604"></scales>
<clustering>
<clus scale="   59.746">  1  9  2 -1</clus>
<clus scale="   81.721">  5  6 -1 -1</clus>
<clus scale="   87.922">  2  5  1 -1</clus>
<clus scale="   91.156">  7  8 -1 -1</clus>
<clus scale="   59.746">  1  5  2 -1</clus>
</clustering>
</event>
<event>
 9    1  0.2374319E-005  0.1144423E+03  0.7546771E-02  0.1255745E+00
          1   -1    0    0  502    0  0.00000000000E+00  0.00000000000E+00  0.34719569718E+03  0.34719569718E+03  0.00000000000E+00 0. -1.
         -2   -1    0    0    0  501 -0.00000000000E+00 -0.00000000000E+00 -0.10726556746E+03  0.10726556746E+03  0.00000000000E+00 0.  1.
         23    2    1    2    0    0  0.60909101780E+02 -0.45724201991E+02 -0.54641940884E+02  0.12913187721E+03  0.88818233948E+02 0.  0.
        -24    2    1    2    0    0 -0.21146406971E+02  0.52465330758E+02  0.20223201531E+03  0.22456629633E+03  0.79576704938E+02 0.  0.
         11    1    4    4    0    0  0.49878607524E+01  0.65964660113E+02  0.11707512611E+03  0.13447230307E+03  0.00000000000E+00 0. -1.
        -12    1    4    4    0    0 -0.26134267724E+02 -0.13499329355E+02  0.85156889206E+02  0.90093993261E+02  0.00000000000E+00 0.  1.
        -11    1    3    3    0    0  0.84137856752E+02 -0.32050117023E+02 -0.42798545611E+02  0.99690041862E+02  0.00000000000E+00 0.  1.
         11    1    3    3    0    0 -0.23228754972E+02 -0.13674084968E+02 -0.11843395273E+02  0.29441835351E+02  0.00000000000E+00 0. -1.
         21    1    1    2  502  501 -0.39762694809E+02 -0.67411287664E+01  0.92340055299E+02  0.10076309110E+03  0.00000000000E+00 0. -1.
<scales pt_clust_5="13000.00000" pt_clust_6="13000.00000" pt_clust_7="13000.00000" pt_clust_8="13000.00000" pt_clust_9="40.33007"></scales>
<clustering>
<clus scale="   40.330">  1  9  2 -1</clus>
<clus scale="   79.577">  5  6 -1 -1</clus>
<clus scale="   88.818">  7  8 -1 -1</clus>
<clus scale="  107.428">  1  5  2 -1</clus>
<clus scale="   40.330">  1  5  2 -1</clus>
</clustering>
</event>
<event>
 9    1  0.2374319E-005  0.2592080E+03  0.7546771E-02  0.1108116E+00
         -2   -1    0    0    0  501 -0.00000000000E+00  0.00000000000E+00  0.12518131787E+03  0.12518131787E+03  0.00000000000E+00 0.  1.
          1   -1    0    0  502    0  0.00000000000E+00 -0.00000000000E+00 -0.76480585400E+03  0.76480585400E+03  0.00000000000E+00 0. -1.
         23    2    1    2    0    0  0.23126861767E+03  0.43538638167E+02 -0.18187459356E+03  0.31111599681E+03  0.91290794477E+02 0.  0.
        -24    2    1    2    0    0 -0.25628602968E+03  0.16833937213E+02 -0.27604094363E+03  0.38576788908E+03  0.81561947227E+02 0.  0.
         13    1    4    4    0    0 -0.46119032766E+02  0.26277005681E+02 -0.92170891466E+02  0.10636220872E+03  0.00000000000E+00 0. -1.
        -14    1    4    4    0    0 -0.21016699691E+03 -0.94430684689E+01 -0.18387005216E+03  0.27940568036E+03  0.00000000000E+00 0.  1.
        -11    1    3    3    0    0  0.65613269017E+02 -0.99560034376E+01 -0.96790119510E+02  0.11735650945E+03  0.00000000000E+00 0.  1.
         11    1    3    3    0    0  0.16565534866E+03  0.53494641604E+02 -0.85084474052E+02  0.19375948736E+03  0.00000000000E+00 0. -1.
         21    1    1    2  502  501  0.25017412004E+02 -0.60372575379E+02 -0.18170899893E+03  0.19310328597E+03  0.00000000000E+00 0. -1.
<scales pt_clust_5="13000.00000" pt_clust_6="13000.00000" pt_clust_7="13000.00000" pt_clust_8="13000.00000" pt_clust_9="65.35074"></scales>
<clustering>
<clus scale="   65.351">  2  9  1 -1</clus>
<clus scale="   81.562">  5  6 -1 -1</clus>
<clus scale="   91.291">  7  8 -1 -1</clus>
<clus scale="  255.944">  2  5  1 -1</clus>
<clus scale="   65.351">  2  5  1 -1</clus>
</clustering>
</event>
<event>
 9    1  0.5318417E-005  0.9504212E+02  0.7546771E-02  0.1298679E+00
         -2   -1    0    0    0  501 -0.00000000000E+00  0.00000000000E+00  0.35411673715E+03  0.35411673715E+03  0.00000000000E+00 0.  1.
          1   -1    0    0  502    0  0.00000000000E+00 -0.00000000000E+00 -0.56734831942E+03  0.56734831942E+03  0.00000000000E+00 0. -1.
         23    2    1    2    0    0 -0.16420580036E+02 -0.19400603174E+02  0.34141426715E+03  0.35437476029E+03  0.91497268051E+02 0.  0.
        -24    2    1    2    0    0  0.41475766558E+02  0.25441853841E+02 -0.44246960937E+03  0.45199134792E+03  0.78417448578E+02 0.  0.
         11    1    4    4    0    0  0.52994879767E+02 -0.10933579982E+02 -0.25485607788E+03  0.26053717754E+03  0.00000000000E+00 0. -1.
        -12    1    4    4    0    0 -0.11519113209E+02  0.36375433823E+02 -0.18761353149E+03  0.19145417037E+03  0.00000000000E+00 0.  1.
        -13    1    3    3    0    0 -0.41478798167E+02 -0.43562227250E+02  0.21535219149E+03  0.22359500155E+03  0.00000000000E+00 0.  1.
         13    1    3    3    0    0  0.25058218131E+02  0.24161624077E+02  0.12606207567E+03  0.13077975874E+03  0.00000000000E+00 0. -1.
         21    1    1    2  502  501 -0.25055186522E+02 -0.60412506670E+01 -0.11217624006E+03  0.11509894837E+03  0.00000000000E+00 0.  1.
<scales pt_clust_5="13000.00000" pt_clust_6="13000.00000" pt_clust_7="13000.00000" pt_clust_8="13000.00000" pt_clust_9="25.77322"></scales>
<clustering>
<clus scale="   25.773">  2  9  1 -1</clus>
<clus scale="   78.417">  5  6 -1 -1</clus>
<clus scale="   82.526">  2  5  1 -1</clus>
<clus scale="   91.497">  7  8 -1 -1</clus>
<clus scale="   25.773">  2  5  1 -1</clus>
</clustering>
</event>
<event>
 9    1  0.2374319E-005  0.9626725E+02  0.7546771E-02  0.1296384E+00
          3   -1    0    0  502    0  0.00000000000E+00  0.00000000000E+00  0.21519971892E+03  0.21519971892E+03  0.00000000000E+00 0. -1.
         -4   -1    0    0    0  501 -0.00000000000E+00 -0.00000000000E+00 -0.18509131108E+03  0.18509131108E+03  0.00000000000E+00 0.  1.
        -24    2    1    2    0    0  0.21660071795E+02 -0.13398421582E+02 -0.13691860685E+03  0.16079212790E+03  0.80366206097E+02 0.  0.
         23    2    1    2    0    0  0.26590022756E+02 -0.33189848662E+02  0.11529016556E+03  0.15479211308E+03  0.94128532513E+02 0.  0.
         11    1    3    3    0    0  0.33686262533E+02 -0.28489900774E+02 -0.32994301015E+02  0.55091402497E+02  0.00000000000E+00 0. -1.
        -12    1    3    3    0    0 -0.12026190738E+02  0.15091479192E+02 -0.10392430584E+03  0.10570072541E+03  0.00000000000E+00 0.  1.
        -13    1    4    4    0    0 -0.29037304170E+02 -0.27970150969E+02  0.21682055794E+02  0.45777788524E+02  0.00000000000E+00 0.  1.
         13    1    4    4    0    0  0.55627326925E+02 -0.52196976930E+01  0.93608109765E+02  0.10901432456E+03  0.00000000000E+00 0. -1.
         21    1    1    2  502  501 -0.48250094551E+02  0.46588270245E+02  0.51736849133E+02  0.84706789024E+02  0.00000000000E+00 0.  1.
<scales pt_clust_5="13000.00000" pt_clust_6="13000.00000" pt_clust_7="13000.00000" pt_clust_8="13000.00000" pt_clust_9="67.07115"></scales>
<clustering>
<clus scale="   67.071">  1  9  2 -1</clus>
<clus scale="   80.366">  5  6 -1 -1</clus>
<clus scale="   82.861">  2  5  1 -1</clus>
<clus scale="   94.129">  7  8 -1 -1</clus>
<clus scale="   67.071">  1  5  2 -1</clus>
</clustering>
</event>
<event>
 9    1  0.2374319E-005  0.1230252E+03  0.7546771E-02  0.1241800E+00
         -2   -1    0    0    0  501 -0.00000000000E+00  0.00000000000E+00  0.32679359503E+03  0.32679359503E+03  0.00000000000E+00 0.  1.
          1   -1    0    0  502    0  0.00000000000E+00 -0.00000000000E+00 -0.52539665071E+03  0.52539665071E+03  0.00000000000E+00 0. -1.
        -24    2    1    2    0    0  0.60122849457E+02  0.55278785606E+02  0.29060612876E+03  0.31189710855E+03  0.78468994428E+02 0.  0.
         23    2    1    2    0    0 -0.71885198000E+02 -0.11803750800E+03 -0.34315663204E+03  0.38089314302E+03  0.90679530763E+02 0.  0.
         11    1    3    3    0    0  0.33419525033E+02  0.58497968434E+02  0.10778573910E+03  0.12710878222E+03  0.00000000000E+00 0. -1.
        -12    1    3    3    0    0  0.26703324424E+02 -0.32191828281E+01  0.18282038966E+03  0.18478832633E+03  0.00000000000E+00 0.  1.
        -11    1    4    4    0    0 -0.30461163057E+02 -0.49298037263E+02 -0.48702115820E+02  0.75697258986E+02  0.00000000000E+00 0.  1.
         11    1    4    4    0    0 -0.41424034943E+02 -0.68739470740E+02 -0.29445451622E+03  0.30519588403E+03  0.00000000000E+00 0. -1.
         21    1    1    2  502  501  0.11762348543E+02  0.62758722397E+02 -0.14605255240E+03  0.15939999418E+03  0.00000000000E+00 0. -1.
<scales pt_clust_5="13000.00000" pt_clust_6="13000.00000" pt_clust_7="13000.00000" pt_clust_8="13000.00000" pt_clust_9="63.85147"></scales>
<clustering>
<clus scale="   63.851">  2  9  1 -1</clus>
<clus scale="   78.469">  5  6 -1 -1</clus>
<clus scale="   90.680">  7  8 -1 -1</clus>
<clus scale="  114.323">  1  5  2 -1</clus>
<clus scale="   63.851">  2  5  1 -1</clus>
</clustering>
</event>
<event>
 9    1  0.2374319E-005  0.1433429E+03  0.7546771E-02  0.1211219E+00
         -2   -1    0    0    0  501 -0.00000000000E+00  0.00000000000E+00  0.40361174993E+03  0.40361174993E+03  0.00000000000E+00 0.  1.
          1   -1    0    0  502    0  0.00000000000E+00 -0.00000000000E+00 -0.15112913248E+03  0.15112913248E+03  0.00000000000E+00 0. -1.
         23    2    1    2    0    0 -0.12222084895E+02 -0.10507163923E+03  0.31378349886E+03  0.34378783203E+03  0.92415153337E+02 0.  0.
        -24    2    1    2    0    0 -0.57384138419E+01  0.13983616589E+03 -0.57034169863E+02  0.17159118233E+03  0.81262258384E+02 0.  0.
         13    1    4    4    0    0 -0.11569456598E+02  0.11555562638E+03 -0.77236021227E+02  0.13947171071E+03  0.00000000000E+00 0. -1.
        -14    1    4    4    0    0  0.58310427563E+01  0.24280539512E+02  0.20201851365E+02  0.32119471620E+02  0.00000000000E+00 0.  1.
        -13    1    3    3    0    0  0.10255992580E+02 -0.48228901513E+02  0.25236115039E+03  0.25713296667E+03  0.00000000000E+00 0.  1.
         13    1    3    3    0    0 -0.22478077475E+02 -0.56842737720E+02  0.61422348470E+02  0.86654865357E+02  0.00000000000E+00 0. -1.
         21    1    1    2  502  501  0.17960498737E+02 -0.34764526657E+02 -0.42667115506E+01  0.39361868045E+02  0.00000000000E+00 0. -1.
<scales pt_clust_5="13000.00000" pt_clust_6="13000.00000" pt_clust_7="13000.00000" pt_clust_8="13000.00000" pt_clust_9="39.12994"></scales>
<clustering>
<clus scale="   39.130">  2  9  1 -1</clus>
<clus scale="   81.262">  5  6 -1 -1</clus>
<clus scale="   92.415">  7  8 -1 -1</clus>
<clus scale="  136.419">  2  5  1 -1</clus>
<clus scale="   39.130">  2  5  1 -1</clus>
</clustering>
</event>
<event>
 9    1  0.2374319E-005  0.9111251E+02  0.7546771E-02  0.1302977E+00
          1   -1    0    0  502    0  0.00000000000E+00  0.00000000000E+00  0.36035763774E+03  0.36035763774E+03  0.00000000000E+00 0. -1.
         -2   -1    0    0    0  501 -0.00000000000E+00 -0.00000000000E+00 -0.99324693917E+02  0.99324693917E+02  0.00000000000E+00 0.  1.
         23    2    1    2    0    0  0.24794506840E+02  0.14674650471E+02 -0.51630814285E+02  0.10498087420E+03  0.86747507327E+02 0.  0.
        -24    2    1    2    0    0  0.14400068046E+02 -0.51475875948E+02  0.26632280522E+03  0.28372238440E+03  0.81935505541E+02 0.  0.
         11    1    4    4    0    0 -0.20380225993E+02 -0.54982202610E+02  0.12394143766E+03  0.13711264050E+03  0.00000000000E+00 0. -1.
        -12    1    4    4    0    0  0.34780294039E+02  0.35063266616E+01  0.14238136756E+03  0.14660974391E+03  0.00000000000E+00 0.  1.
        -11    1    3    3    0    0  0.53063324074E+02 -0.82557363065E+01 -0.39312805933E+02  0.66553514213E+02  0.00000000000E+00 0.  1.
         11    1    3    3    0    0 -0.28268817234E+02  0.22930386778E+02 -0.12318008352E+02  0.38427359984E+02  0.00000000000E+00 0. -1.
         21    1    1    2  502  501 -0.39194574885E+02  0.36801225477E+02  0.46340952888E+02  0.70979073054E+02  0.00000000000E+00 0. -1.
<scales pt_clust_5="13000.00000" pt_clust_6="13000.00000" pt_clust_7="13000.00000" pt_clust_8="13000.00000" pt_clust_9="53.76379"></scales>
<clustering>
<clus scale="   53.764">  1  9  2 -1</clus>
<clus scale="   81.936">  5  6 -1 -1</clus>
<clus scale="   86.544">  1  5  2 -1</clus>
<clus scale="   86.748">  7  8 -1 -1</clus>
<clus scale="   53.764">  1  5  2 -1</clus>
</clustering>
</event>
<event>
 9    1  0.2374319E-005  0.9099488E+02  0.7546771E-02  0.1303546E+00
         -2   -1    0    0    0  501 -0.00000000000E+00  0.00000000000E+00  0.86733751009E+02  0.86733751009E+02  0.00000000000E+00 0.  1.
          1   -1    0    0  502    0  0.00000000000E+00 -0.00000000000E+00 -0.19402783897E+03  0.19402783897E+03  0.00000000000E+00 0. -1.
         23    2    1    2    0    0 -0.10954640839E+02  0.57745623169E+01  0.22831625915E+02  0.92366250325E+02  0.88639107235E+02 0.  0.
        -24    2    1    2    0    0  0.37596785346E+02 -0.12361826694E+02 -0.52951379759E+02  0.10648640386E+03  0.83481570192E+02 0.  0.
         11    1    4    4    0    0  0.36379822436E+02  0.20372305515E+02 -0.59917182791E+02  0.72997199303E+02  0.00000000000E+00 0. -1.
        -12    1    4    4    0    0  0.12169629092E+01 -0.32734132209E+02  0.69658030319E+01  0.33489204560E+02  0.00000000000E+00 0.  1.
        -13    1    3    3    0    0  0.24682248000E+02  0.30576152378E+02  0.28552381953E+02  0.48573171359E+02  0.00000000000E+00 0. -1.
         13    1    3    3    0    0 -0.35636888839E+02 -0.24801590062E+02 -0.57207560389E+01  0.43793078967E+02  0.00000000000E+00 0.  1.
         21    1    1    2  502  501 -0.26642144507E+02  0.65872643767E+01 -0.77174334120E+02  0.81908935793E+02  0.00000000000E+00 0. -1.
<scales pt_clust_5="13000.00000" pt_clust_6="13000.00000" pt_clust_7="13000.00000" pt_clust_8="13000.00000" pt_clust_9="27.44442"></scales>
<clustering>
<clus scale="   27.444">  2  9  1 -1</clus>
<clus scale="   83.482">  5  6 -1 -1</clus>
<clus scale="   85.979">  2  5  1 -1</clus>
<clus scale="   88.639">  7  8 -1 -1</clus>
<clus scale="   27.444">  2  5  1 -1</clus>
</clustering>
</event>
<event>
 9    1  0.2374319E-005  0.1861824E+03  0.7546771E-02  0.1162681E+00
         -2   -1    0    0    0  501 -0.00000000000E+00  0.00000000000E+00  0.48833628732E+02  0.48833628732E+02  0.00000000000E+00 0.  1.
          1   -1    0    0  502    0  0.00000000000E+00 -0.00000000000E+00 -0.11473772013E+04  0.11473772013E+04  0.00000000000E+00 0. -1.
        -24    2    1    2    0    0  0.11112892837E+02 -0.16242872883E+03 -0.21387530819E+03  0.28026578265E+03  0.79370480230E+02 0.  0.
         23    2    1    2    0    0  0.26016581962E+02  0.16459674600E+03 -0.82128106247E+03  0.84245194863E+03  0.86335107915E+02 0.  0.
         13    1    3    3    0    0 -0.85910198218E+01 -0.36053442789E+02 -0.10814736074E+03  0.11432194887E+03  0.00000000000E+00 0. -1.
        -14    1    3    3    0    0  0.19703912659E+02 -0.12637528604E+03 -0.10572794745E+03  0.16594383378E+03  0.00000000000E+00 0.  1.
        -13    1    4    4    0    0 -0.25202488085E+02  0.10727479617E+03 -0.51672063661E+03  0.52834010220E+03  0.00000000000E+00 0. -1.
         13    1    4    4    0    0  0.51219070047E+02  0.57321949833E+02 -0.30456042586E+03  0.31411184643E+03  0.00000000000E+00 0.  1.
         21    1    1    2  502  501 -0.37129474799E+02 -0.21680171650E+01 -0.63387201874E+02  0.73493098715E+02  0.00000000000E+00 0.  1.
<scales pt_clust_5="13000.00000" pt_clust_6="13000.00000" pt_clust_7="13000.00000" pt_clust_8="13000.00000" pt_clust_9="37.19272"></scales>
<clustering>
<clus scale="   37.193">  1  9  2 -1</clus>
<clus scale="   79.370">  5  6 -1 -1</clus>
<clus scale="   86.335">  7  8 -1 -1</clus>
<clus scale="  183.057">  1  5  2 -1</clus>
<clus scale="  186.182">  2  5  1 -1</clus>
</clustering>
</event>
<event>
 9    1  0.2374319E-005  0.1843848E+03  0.7546771E-02  0.1165245E+00
         -2   -1    0    0    0  501 -0.00000000000E+00  0.00000000000E+00  0.70149280727E+03  0.70149280727E+03  0.00000000000E+00 0.  1.
          1   -1    0    0  502    0  0.00000000000E+00 -0.00000000000E+00 -0.19131153672E+03  0.19131153672E+03  0.00000000000E+00 0. -1.
        -24    2    1    2    0    0  0.31423341392E+02 -0.16390986765E+03  0.54938724932E+03  0.57950178910E+03  0.78371568548E+02 0.  0.
         23    2    1    2    0    0  0.47713017383E+02  0.13719723041E+03  0.61054592956E+02  0.18280998609E+03  0.92694204965E+02 0.  0.
         13    1    3    3    0    0  0.30806024424E+02 -0.16809234231E+02  0.74474561699E+02  0.82328742469E+02  0.00000000000E+00 0. -1.
        -14    1    3    3    0    0  0.61731696802E+00 -0.14710063342E+03  0.47491268762E+03  0.49717304663E+03  0.00000000000E+00 0.  1.
        -13    1    4    4    0    0  0.38124834162E+02  0.36194784035E+01  0.11064639647E+02  0.39862637322E+02  0.00000000000E+00 0.  1.
         13    1    4    4    0    0  0.95881832209E+01  0.13357775201E+03  0.49989953309E+02  0.14294734877E+03  0.00000000000E+00 0. -1.
         21    1    1    2  502  501 -0.79136358774E+02  0.26712637246E+02 -0.10026057173E+03  0.13049256880E+03  0.00000000000E+00 0. -1.
<scales pt_clust_5="13000.00000" pt_clust_6="13000.00000" pt_clust_7="13000.00000" pt_clust_8="13000.00000" pt_clust_9="83.52322"></scales>
<clustering>
<clus scale="   78.372">  5  6 -1 -1</clus>
<clus scale="   83.523">  2  9  1 -1</clus>
<clus scale="   92.694">  7  8 -1 -1</clus>
<clus scale="  177.617">  1  5  2 -1</clus>
<clus scale="   83.523">  2  5  1 -1</clus>
</clustering>
</event>
<event>
 9    1  0.2374319E-005  0.9441931E+02  0.7546771E-02  0.1298785E+00
          1   -1    0    0  502    0  0.00000000000E+00  0.00000000000E+00  0.23290093793E+03  0.23290093793E+03  0.00000000000E+00 0. -1.
         -2   -1    0    0    0  501 -0.00000000000E+00 -0.00000000000E+00 -0.17293714327E+03  0.17293714327E+03  0.00000000000E+00 0.  1.
        -24    2    1    2    0    0  0.13323664546E+02  0.12058064025E+02 -0.10957294680E+03  0.13708582306E+03  0.80395119678E+02 0.  0.
         23    2    1    2    0    0 -0.87499512042E+02 -0.34317756290E+02  0.11070620601E+03  0.17149701585E+03  0.91222197916E+02 0.  0.
         11    1    3    3    0    0  0.30974745836E+02  0.11296004642E+02 -0.11416566354E+03  0.11883111265E+03  0.00000000000E+00 0. -1.
        -12    1    3    3    0    0 -0.17651081290E+02  0.76205938275E+00  0.45927167410E+01  0.18254710413E+02  0.00000000000E+00 0.  1.
        -13    1    4    4    0    0 -0.85802886116E+02  0.60410981709E+01  0.52916285768E+02  0.10098892728E+03  0.00000000000E+00 0.  1.
         13    1    4    4    0    0 -0.16966259261E+01 -0.40358854460E+02  0.57789920247E+02  0.70508088579E+02  0.00000000000E+00 0. -1.
         21    1    1    2  502  501  0.74175847496E+02  0.22259692265E+02  0.58830535445E+02  0.97255242287E+02  0.00000000000E+00 0. -1.
<scales pt_clust_5="13000.00000" pt_clust_6="13000.00000" pt_clust_7="13000.00000" pt_clust_8="13000.00000" pt_clust_9="77.44385"></scales>
<clustering>
<clus scale="   77.444">  1  9  2 -1</clus>
<clus scale="   80.395">  5  6 -1 -1</clus>
<clus scale="   84.005">  2  5  1 -1</clus>
<clus scale="   91.222">  7  8 -1 -1</clus>
<clus scale="   77.444">  1  5  2 -1</clus>
</clustering>
</event>
<event>
 9    1  0.2374319E-005  0.1477436E+03  0.7546771E-02  0.1205069E+00
         -2   -1    0    0    0  501 -0.00000000000E+00  0.00000000000E+00  0.28192566208E+03  0.28192566208E+03  0.00000000000E+00 0.  1.
          1   -1    0    0  502    0  0.00000000000E+00 -0.00000000000E+00 -0.16321190178E+03  0.16321190178E+03  0.00000000000E+00 0. -1.
        -24    2    1    2    0    0 -0.10144316240E+03 -0.66856428536E+02  0.20985757535E+03  0.25544497162E+03  0.80320821443E+02 0.  0.
         23    2    1    2    0    0  0.71682538105E+02  0.68801237212E+02 -0.60743066774E+02  0.14710524042E+03  0.89879002478E+02 0.  0.
         13    1    3    3    0    0  0.32522889226E+01 -0.34231644009E+02  0.67436180708E+02  0.75696904185E+02  0.00000000000E+00 0. -1.
        -14    1    3    3    0    0 -0.10469545132E+03 -0.32624784526E+02  0.14242139465E+03  0.17974806743E+03  0.00000000000E+00 0.  1.
        -13    1    4    4    0    0 -0.13704111201E+02  0.22610170972E+02  0.86008165335E+01  0.27802815329E+02  0.00000000000E+00 0.  1.
         13    1    4    4    0    0  0.85386649305E+02  0.46191066241E+02 -0.69343883308E+02  0.11930242509E+03  0.00000000000E+00 0. -1.
         21    1    1    2  502  501  0.29760624292E+02 -0.19448086768E+01 -0.30400748284E+02  0.42587351822E+02  0.00000000000E+00 0. -1.
<scales pt_clust_5="13000.00000" pt_clust_6="13000.00000" pt_clust_7="13000.00000" pt_clust_8="13000.00000" pt_clust_9="29.82410"></scales>
<clustering>
<clus scale="   29.824">  2  9  1 -1</clus>
<clus scale="   80.321">  5  6 -1 -1</clus>
<clus scale="   89.879">  7  8 -1 -1</clus>
<clus scale="  142.132">  1  5  2 -1</clus>
<clus scale="   29.824">  2  5  1 -1</clus>
</clustering>
</event>
<event>
 9    1  0.2374319E-005  0.1127380E+03  0.7546771E-02  0.1258872E+00
         -2   -1    0    0    0  501 -0.00000000000E+00  0.00000000000E+00  0.58233452410E+02  0.58233452410E+02  0.00000000000E+00 0.  1.
          1   -1    0    0  502    0  0.00000000000E+00 -0.00000000000E+00 -0.37865494843E+03  0.37865494843E+03  0.00000000000E+00 0. -1.
        -24    2    1    2    0    0  0.55562111169E+02 -0.30339933120E+02 -0.50396193138E+02  0.11477513594E+03  0.81399605700E+02 0.  0.
         23    2    1    2    0    0 -0.41249581674E+02  0.77518332264E+02 -0.20216347795E+03  0.23823312941E+03  0.90412014173E+02 0.  0.
         11    1    3    3    0    0 -0.21182170223E+02 -0.23174447009E+01 -0.83063189181E+01  0.22870282449E+02  0.00000000000E+00 0. -1.
        -12    1    3    3    0    0  0.76744281392E+02 -0.28022488419E+02 -0.42089874220E+02  0.91904853492E+02  0.00000000000E+00 0.  1.
        -11    1    4    4    0    0 -0.34036569558E+02  0.97999759260E+02 -0.15790869350E+03  0.18893807548E+03  0.00000000000E+00 0.  1.
         11    1    4    4    0    0 -0.72130121161E+01 -0.20481426996E+02 -0.44254784445E+02  0.49295053929E+02  0.00000000000E+00 0. -1.
         21    1    1    2  502  501 -0.14312529494E+02 -0.47178399144E+02 -0.67861824929E+02  0.83880135485E+02  0.00000000000E+00 0. -1.
<scales pt_clust_5="13000.00000" pt_clust_6="13000.00000" pt_clust_7="13000.00000" pt_clust_8="13000.00000" pt_clust_9="49.30162"></scales>
<clustering>
<clus scale="   49.302">  2  9  1 -1</clus>
<clus scale="   81.400">  5  6 -1 -1</clus>
<clus scale="   90.412">  7  8 -1 -1</clus>
<clus scale="  105.648">  1  5  2 -1</clus>
<clus scale="   49.302">  2  5  1 -1</clus>
</clustering>
</event>
<event>
 9    1  0.2374319E-005  0.9776202E+02  0.7546771E-02  0.1290088E+00
         -2   -1    0    0    0  501 -0.00000000000E+00  0.00000000000E+00  0.31416553159E+02  0.31416553159E+02  0.00000000000E+00 0.  1.
          1   -1    0    0  502    0  0.00000000000E+00 -0.00000000000E+00 -0.66185178115E+03  0.66185178115E+03  0.00000000000E+00 0. -1.
         23    2    1    2    0    0  0.35920041520E+02 -0.49829373068E+01 -0.77779973625E+02  0.12354942172E+03  0.88880010487E+02 0.  0.
        -24    2    1    2    0    0 -0.58249704568E+02  0.26885917703E+02 -0.47881094263E+03  0.48952329688E+03  0.79102836591E+02 0.  0.
         11    1    4    4    0    0 -0.67729249246E+02  0.26918076402E+02 -0.24724268670E+03  0.25776109126E+03  0.00000000000E+00 0. -1.
        -12    1    4    4    0    0  0.94795446779E+01 -0.32158698828E-01 -0.23156825593E+03  0.23176220562E+03  0.00000000000E+00 0.  1.
        -11    1    3    3    0    0  0.56528045218E+02 -0.24323945904E+02 -0.31028329234E+02  0.68919021000E+02  0.00000000000E+00 0.  1.
         11    1    3    3    0    0 -0.20608003698E+02  0.19341008597E+02 -0.46751644391E+02  0.54630400724E+02  0.00000000000E+00 0. -1.
         21    1    1    2  502  501  0.22329663047E+02 -0.21902980396E+02 -0.73844311741E+02  0.80195615707E+02  0.00000000000E+00 0.  1.
<scales pt_clust_5="13000.00000" pt_clust_6="13000.00000" pt_clust_7="13000.00000" pt_clust_8="13000.00000" pt_clust_9="31.27866"></scales>
<clustering>
<clus scale="   31.279">  2  9  1 -1</clus>
<clus scale="   79.103">  5  6 -1 -1</clus>
<clus scale="   88.880">  7  8 -1 -1</clus>
<clus scale="   88.966">  2  5  1 -1</clus>
<clus scale="   31.279">  2  5  1 -1</clus>
</clustering>
</event>
<event>
 9    1  0.2374319E-005  0.1494490E+03  0.7546771E-02  0.1202693E+00
          1   -1    0    0  502    0  0.00000000000E+00  0.00000000000E+00  0.53382012420E+03  0.53382012420E+03  0.00000000000E+00 0. -1.
         -2   -1    0    0    0  501 -0.00000000000E+00 -0.00000000000E+00 -0.25908447401E+03  0.25908447401E+03  0.00000000000E+00 0.  1.
         23    2    1    2    0    0 -0.11736930472E+03 -0.17693234540E+02 -0.21969607943E+03  0.26570972563E+03  0.90811269890E+02 0.  0.
        -24    2    1    2    0    0  0.11194903181E+03  0.51754438009E+02  0.40737878206E+03  0.43355855154E+03  0.82489017255E+02 0.  0.
         11    1    4    4    0    0  0.95211774055E+02  0.53525649257E+02  0.22197863271E+03  0.24739601943E+03  0.00000000000E+00 0. -1.
        -12    1    4    4    0    0  0.16737257753E+02 -0.17712112476E+01  0.18540014935E+03  0.18616253212E+03  0.00000000000E+00 0.  1.
        -11    1    3    3    0    0 -0.74437685658E+02 -0.54934776365E+02 -0.14083524398E+03  0.16850330753E+03  0.00000000000E+00 0.  1.
         11    1    3    3    0    0 -0.42931619058E+02  0.37241541825E+02 -0.78860835449E+02  0.97206418102E+02  0.00000000000E+00 0. -1.
         21    1    1    2  502  501  0.54202729077E+01 -0.34061203469E+02  0.87052947558E+02  0.93636321045E+02  0.00000000000E+00 0. -1.
<scales pt_clust_5="13000.00000" pt_clust_6="13000.00000" pt_clust_7="13000.00000" pt_clust_8="13000.00000" pt_clust_9="34.48978"></scales>
<clustering>
<clus scale="   34.490">  1  9  2 -1</clus>
<clus scale="   82.489">  5  6 -1 -1</clus>
<clus scale="   90.811">  7  8 -1 -1</clus>
<clus scale="  144.543">  1  5  2 -1</clus>
<clus scale="   34.490">  1  5  2 -1</clus>
</clustering>
</event>
<event>
 9    1  0.2374319E-005  0.1235208E+03  0.7546771E-02  0.1240643E+00
          1   -1    0    0  502    0  0.00000000000E+00  0.00000000000E+00  0.10009716045E+04  0.10009716045E+04  0.00000000000E+00 0. -1.
         -2   -1    0    0    0  501 -0.00000000000E+00 -0.00000000000E+00 -0.11249026239E+03  0.11249026239E+03  0.00000000000E+00 0.  1.
         23    2    1    2    0    0 -0.96109824625E+01 -0.83355658543E+02 -0.68846919348E+02  0.14073984175E+03  0.89595021952E+02 0.  0.
        -24    2    1    2    0    0  0.38995573217E+02  0.10421917560E+03  0.73572752021E+03  0.74821004541E+03  0.78364512186E+02 0.  0.
         11    1    4    4    0    0  0.20092962135E+02  0.11196160706E+03  0.57092640691E+03  0.58214782546E+03  0.00000000000E+00 0. -1.
        -12    1    4    4    0    0  0.18902611082E+02 -0.77424314560E+01  0.16480111330E+03  0.16606221995E+03  0.00000000000E+00 0.  1.
        -13    1    3    3    0    0 -0.40026090812E+02 -0.14489973690E+02 -0.44586447318E+02  0.61644128412E+02  0.00000000000E+00 0. -1.
         13    1    3    3    0    0  0.30415108349E+02 -0.68865684853E+02 -0.24260472030E+02  0.79095713343E+02  0.00000000000E+00 0.  1.
         21    1    1    2  502  501 -0.29384590754E+02 -0.20863517061E+02  0.22160074126E+03  0.22451197974E+03  0.00000000000E+00 0.  1.
<scales pt_clust_5="13000.00000" pt_clust_6="13000.00000" pt_clust_7="13000.00000" pt_clust_8="13000.00000" pt_clust_9="36.03804"></scales>
<clustering>
<clus scale="   36.038">  1  9  2 -1</clus>
<clus scale="   78.365">  5  6 -1 -1</clus>
<clus scale="   89.595">  7  8 -1 -1</clus>
<clus scale="  115.634">  1  5  2 -1</clus>
<clus scale="   36.038">  1  5  2 -1</clus>
</clustering>
</event>
<event>
 9    1  0.2374319E-005  0.1092093E+03  0.7546771E-02  0.1266401E+00
          1   -1    0    0  502    0  0.00000000000E+00  0.00000000000E+00  0.61681087070E+03  0.61681087070E+03  0.00000000000E+00 0. -1.
         -2   -1    0    0    0  501 -0.00000000000E+00 -0.00000000000E+00 -0.50606434335E+02  0.50606434335E+02  0.00000000000E+00 0.  1.
        -24    2    1    2    0    0 -0.44808510754E+02 -0.44969686971E+02  0.15777120057E+02  0.10314225138E+03  0.79745414409E+02 0.  0.
         23    2    1    2    0    0  0.29907597851E+02  0.26122946720E+02  0.47098421060E+03  0.48127840392E+03  0.90696762296E+02 0.  0.
         11    1    3    3    0    0  0.13596569340E+02 -0.40656530295E+02  0.16665237661E+01  0.42902184733E+02  0.00000000000E+00 0. -1.
        -12    1    3    3    0    0 -0.58405080094E+02 -0.43131566758E+01  0.14110596291E+02  0.60240066642E+02  0.00000000000E+00 0.  1.
        -11    1    4    4    0    0  0.61723871189E+02  0.25337594526E+02  0.29640024061E+03  0.30381726844E+03  0.00000000000E+00 0. -1.
         11    1    4    4    0    0 -0.31816273338E+02  0.78535219369E+00  0.17458397000E+03  0.17746113548E+03  0.00000000000E+00 0.  1.
         21    1    1    2  502  501  0.14900912903E+02  0.18846740251E+02  0.79443105705E+02  0.82996649737E+02  0.00000000000E+00 0. -1.
<scales pt_clust_5="13000.00000" pt_clust_6="13000.00000" pt_clust_7="13000.00000" pt_clust_8="13000.00000" pt_clust_9="24.02575"></scales>
<clustering>
<clus scale="   24.026">  1  9  2 -1</clus>
<clus scale="   79.745">  5  6 -1 -1</clus>
<clus scale="   90.697">  7  8 -1 -1</clus>
<clus scale="  100.300">  2  5  1 -1</clus>
<clus scale="   24.026">  1  5  2 -1</clus>
</clustering>
</event>
<event>
 9    1  0.2374319E-005  0.1244277E+03  0.7546771E-02  0.1238743E+00
         -2   -1    0    0    0  501 -0.00000000000E+00  0.00000000000E+00  0.17395468910E+04  0.17395468910E+04  0.00000000000E+00 0.  1.
          1   -1    0    0  502    0  0.00000000000E+00 -0.00000000000E+00 -0.14235211487E+02  0.14235211487E+02  0.00000000000E+00 0. -1.
        -24    2    1    2    0    0 -0.82465303504E+02 -0.13957177338E+02  0.12060526818E+04  0.12115483776E+04  0.79316272722E+02 0.  0.
         23    2    1    2    0    0  0.92814852577E+02  0.31378977235E+02  0.48138834334E+03  0.49928237163E+03  0.89156673562E+02 0.  0.
         11    1    3    3    0    0 -0.16646643835E+02  0.22176238569E+02  0.13235286826E+03  0.13522639551E+03  0.00000000000E+00 0. -1.
        -12    1    3    3    0    0 -0.65818659668E+02 -0.36133415907E+02  0.10736998135E+04  0.10763219821E+04  0.00000000000E+00 0.  1.
        -13    1    4    4    0    0  0.10427359888E+01  0.35677197052E+02  0.81448589982E+02  0.88925938273E+02  0.00000000000E+00 0.  1.
         13    1    4    4    0    0  0.91772116589E+02 -0.42982198169E+01  0.39993975336E+03  0.41035643335E+03  0.00000000000E+00 0. -1.
         21    1    1    2  502  501 -0.10349549074E+02 -0.17421799897E+02  0.37870654452E+02  0.42951353253E+02  0.00000000000E+00 0. -1.
<scales pt_clust_5="13000.00000" pt_clust_6="13000.00000" pt_clust_7="13000.00000" pt_clust_8="13000.00000" pt_clust_9="20.26406"></scales>
<clustering>
<clus scale="   20.264">  2  9  1 -1</clus>
<clus scale="   79.316">  5  6 -1 -1</clus>
<clus scale="   89.157">  7  8 -1 -1</clus>
<clus scale="  117.577">  1  5  2 -1</clus>
<clus scale="   20.264">  2  5  1 -1</clus>
</clustering>
</event>
<event>
 9    1  0.2374319E-005  0.1263516E+03  0.7546771E-02  0.1236107E+00
         -2   -1    0    0    0  501 -0.00000000000E+00  0.00000000000E+00  0.99920861342E+02  0.99920861342E+02  0.00000000000E+00 0.  1.
          1   -1    0    0  502    0  0.00000000000E+00 -0.00000000000E+00 -0.29123110621E+03  0.29123110621E+03  0.00000000000E+00 0. -1.
         23    2    1    2    0    0  0.46698220077E+02 -0.81455365836E+02  0.16015035499E+02  0.13216578072E+03  0.91627571441E+02 0.  0.
        -24    2    1    2    0    0 -0.31258045243E+01  0.71706633442E+02 -0.16727698973E+03  0.19900736755E+03  0.80440842309E+02 0.  0.
         11    1    4    4    0    0  0.26278412726E+02  0.13957356626E+02 -0.14594873998E+02  0.33141712786E+02  0.00000000000E+00 0. -1.
        -12    1    4    4    0    0 -0.29404217250E+02  0.57749276816E+02 -0.15268211573E+03  0.16586565476E+03  0.00000000000E+00 0.  1.
        -13    1    3    3    0    0 -0.21631786240E+01 -0.64459478317E+02  0.39200994356E+02  0.75474642398E+02  0.00000000000E+00 0. -1.
         13    1    3    3    0    0  0.48861398701E+02 -0.16995887519E+02 -0.23185958857E+02  0.56691138317E+02  0.00000000000E+00 0.  1.
         21    1    1    2  502  501 -0.43572415553E+02  0.97487323943E+01 -0.40048290635E+02  0.59978819288E+02  0.00000000000E+00 0. -1.
<scales pt_clust_5="13000.00000" pt_clust_6="13000.00000" pt_clust_7="13000.00000" pt_clust_8="13000.00000" pt_clust_9="44.64967"></scales>
<clustering>
<clus scale="   44.650">  2  9  1 -1</clus>
<clus scale="   80.441">  5  6 -1 -1</clus>
<clus scale="   91.628">  7  8 -1 -1</clus>
<clus scale="  118.490">  2  5  1 -1</clus>
<clus scale="   44.650">  2  5  1 -1</clus>
</clustering>
</event>
<event>
 9    1  0.2374319E-005  0.1005722E+03  0.7546771E-02  0.1284654E+00
          1   -1    0    0  502    0  0.00000000000E+00  0.00000000000E+00  0.91632617663E+02  0.91632617663E+02  0.00000000000E+00 0. -1.
         -2   -1    0    0    0  501 -0.00000000000E+00 -0.00000000000E+00 -0.47204395685E+03  0.47204395685E+03  0.00000000000E+00 0.  1.
         23    2    1    2    0    0 -0.52179883554E+02  0.83494860044E+01 -0.37269773577E+03  0.38739000303E+03  0.91514796826E+02 0.  0.
        -24    2    1    2    0    0  0.66997482722E+01  0.31903367680E+02 -0.52029752105E+02  0.10110242442E+03  0.80323680335E+02 0.  0.
         13    1    4    4    0    0  0.31218056270E+02 -0.26431607583E+01  0.32045829359E+01  0.31493216537E+02  0.00000000000E+00 0. -1.
        -14    1    4    4    0    0 -0.24518307997E+02  0.34546528438E+02 -0.55234335040E+02  0.69609207879E+02  0.00000000000E+00 0.  1.
        -13    1    3    3    0    0 -0.76158209206E+02 -0.65091484917E+01 -0.24654335515E+03  0.25812025843E+03  0.00000000000E+00 0.  1.
         13    1    3    3    0    0  0.23978325652E+02  0.14858634496E+02 -0.12615438062E+03  0.12926974461E+03  0.00000000000E+00 0. -1.
         21    1    1    2  502  501  0.45480135282E+02 -0.40252853684E+02  0.44316148688E+02  0.75184147063E+02  0.00000000000E+00 0. -1.
<scales pt_clust_5="13000.00000" pt_clust_6="13000.00000" pt_clust_7="13000.00000" pt_clust_8="13000.00000" pt_clust_9="60.73496"></scales>
<clustering>
<clus scale="   60.735">  1  9  2 -1</clus>
<clus scale="   80.324">  5  6 -1 -1</clus>
<clus scale="   90.508">  1  5  2 -1</clus>
<clus scale="   91.515">  7  8 -1 -1</clus>
<clus scale="   60.735">  1  5  2 -1</clus>
</clustering>
</event>
<event>
 9    1  0.2374319E-005  0.9995034E+02  0.7546771E-02  0.1287427E+00
         -4   -1    0    0    0  501 -0.00000000000E+00  0.00000000000E+00  0.28664210391E+03  0.28664210391E+03  0.00000000000E+00 0.  1.
          3   -1    0    0  502    0  0.00000000000E+00 -0.00000000000E+00 -0.10149066250E+03  0.10149066250E+03  0.00000000000E+00 0. -1.
        -24    2    1    2    0    0  0.39571914429E+02  0.37558071639E+00  0.23052078789E+03  0.24630271571E+03  0.77195314925E+02 0.  0.
         23    2    1    2    0    0 -0.57245061110E+02 -0.17880035984E+02 -0.41478144689E+02  0.11665292777E+03  0.91053700427E+02 0.  0.
         11    1    3    3    0    0  0.44796316022E+02  0.12413950736E+02  0.63127320282E+02  0.78395629138E+02  0.00000000000E+00 0. -1.
        -12    1    3    3    0    0 -0.52244015928E+01 -0.12038370020E+02  0.16739346760E+03  0.16790708657E+03  0.00000000000E+00 0.  1.
        -13    1    4    4    0    0  0.21605009472E+02 -0.20317051893E+02 -0.65151631193E+01  0.30364557997E+02  0.00000000000E+00 0.  1.
         13    1    4    4    0    0 -0.78850070581E+02  0.24370159092E+01 -0.34962981570E+02  0.86288369769E+02  0.00000000000E+00 0. -1.
         21    1    1    2  502  501  0.17673146681E+02  0.17504455267E+02 -0.38912017888E+01  0.25177122933E+02  0.00000000000E+00 0.  1.
<scales pt_clust_5="13000.00000" pt_clust_6="13000.00000" pt_clust_7="13000.00000" pt_clust_8="13000.00000" pt_clust_9="24.87461"></scales>
<clustering>
<clus scale="   24.875">  2  9  1 -1</clus>
<clus scale="   77.195">  5  6 -1 -1</clus>
<clus scale="   87.512">  1  5  2 -1</clus>
<clus scale="   91.054">  7  8 -1 -1</clus>
<clus scale="   24.875">  2  5  1 -1</clus>
</clustering>
</event>
<event>
 9    1  0.2374319E-005  0.1639225E+03  0.7546771E-02  0.1187342E+00
         -2   -1    0    0    0  501 -0.00000000000E+00  0.00000000000E+00  0.83150579071E+02  0.83150579071E+02  0.00000000000E+00 0.  1.
          1   -1    0    0  502    0  0.00000000000E+00 -0.00000000000E+00 -0.69969962378E+03  0.69969962378E+03  0.00000000000E+00 0. -1.
        -24    2    1    2    0    0  0.12499304401E+03  0.74300730498E+02 -0.89945003135E+02  0.18804801361E+03  0.78282132257E+02 0.  0.
         23    2    1    2    0    0 -0.68385096594E+02 -0.98809558684E+02 -0.15817602942E+03  0.22124584474E+03  0.97417745872E+02 0.  0.
         11    1    3    3    0    0  0.72031463150E+02 -0.13872488048E+01 -0.30756423215E+02  0.78335264803E+02  0.00000000000E+00 0. -1.
        -12    1    3    3    0    0  0.52961580862E+02  0.75687979303E+02 -0.59188579920E+02  0.10971274881E+03  0.00000000000E+00 0.  1.
        -13    1    4    4    0    0 -0.36413449456E+02 -0.99783595854E+02 -0.69397316768E+02  0.12688062452E+03  0.00000000000E+00 0.  1.
         13    1    4    4    0    0 -0.31971647138E+02  0.97403717042E+00 -0.88778712649E+02  0.94365220228E+02  0.00000000000E+00 0. -1.
         21    1    1    2  502  501 -0.56607947418E+02  0.24508828186E+02 -0.36842801216E+03  0.37355634449E+03  0.00000000000E+00 0.  1.
<scales pt_clust_5="13000.00000" pt_clust_6="13000.00000" pt_clust_7="13000.00000" pt_clust_8="13000.00000" pt_clust_9="61.68584"></scales>
<clustering>
<clus scale="   61.686">  2  9  1 -1</clus>
<clus scale="   78.282">  5  6 -1 -1</clus>
<clus scale="   97.418">  7  8 -1 -1</clus>
<clus scale="  153.325">  1  5  2 -1</clus>
<clus scale="   61.686">  2  5  1 -1</clus>
</clustering>
</event>
<event>
 9    1  0.2374319E-005  0.2243507E+03  0.7546771E-02  0.1131460E+00
          1   -1    0    0  502    0  0.00000000000E+00  0.00000000000E+00  0.10626053298E+04  0.10626053298E+04  0.00000000000E+00 0. -1.
         -2   -1    0    0    0  501 -0.00000000000E+00 -0.00000000000E+00 -0.88754376737E+02  0.88754376737E+02  0.00000000000E+00 0.  1.
        -24    2    1    2    0    0 -0.12925629200E+03  0.16699460122E+03  0.10705313962E+03  0.24891838204E+03  0.76847904066E+02 0.  0.
         23    2    1    2    0    0  0.91538206406E+02 -0.16130487398E+03  0.79537799343E+03  0.82147332051E+03  0.88282264873E+02 0.  0.
         11    1    3    3    0    0 -0.32139536726E+02  0.48488805752E+02  0.70499555772E+02  0.91401867969E+02  0.00000000000E+00 0. -1.
        -12    1    3    3    0    0 -0.97116755278E+02  0.11850579546E+03  0.36553583847E+02  0.15751651407E+03  0.00000000000E+00 0.  1.
        -11    1    4    4    0    0 -0.13293978387E+02 -0.49598515093E+02  0.23404689164E+03  0.23961362659E+03  0.00000000000E+00 0.  1.
         11    1    4    4    0    0  0.10483218479E+03 -0.11170635888E+03  0.56133110178E+03  0.58185969392E+03  0.00000000000E+00 0. -1.
         21    1    1    2  502  501  0.37718085597E+02 -0.56897272388E+01  0.71419820044E+02  0.80968004004E+02  0.00000000000E+00 0.  1.
<scales pt_clust_5="13000.00000" pt_clust_6="13000.00000" pt_clust_7="13000.00000" pt_clust_8="13000.00000" pt_clust_9="38.14482"></scales>
<clustering>
<clus scale="   38.145">  1  9  2 -1</clus>
<clus scale="   76.848">  5  6 -1 -1</clus>
<clus scale="   88.282">  7  8 -1 -1</clus>
<clus scale="  220.102">  2  5  1 -1</clus>
<clus scale="   38.145">  1  5  2 -1</clus>
</clustering>
</event>
<event>
 9    1  0.2374319E-005  0.1133946E+03  0.7546771E-02  0.1258017E+00
          1   -1    0    0  502    0  0.00000000000E+00  0.00000000000E+00  0.14372791072E+03  0.14372791072E+03  0.00000000000E+00 0. -1.
         -2   -1    0    0    0  501 -0.00000000000E+00 -0.00000000000E+00 -0.63535105896E+03  0.63535105896E+03  0.00000000000E+00 0.  1.
        -24    2    1    2    0    0 -0.39503558038E+02  0.58223815673E+02 -0.59411726121E+03  0.60359654763E+03  0.80018300612E+02 0.  0.
         23    2    1    2    0    0  0.18679641780E+02 -0.26416657748E+02  0.98366316192E+02  0.13724148209E+03  0.90069547693E+02 0.  0.
         11    1    3    3    0    0 -0.21150888694E+02  0.39781630745E+02 -0.11122547908E+03  0.12000435589E+03  0.00000000000E+00 0. -1.
        -12    1    3    3    0    0 -0.18352669344E+02  0.18442184928E+02 -0.48289178213E+03  0.48359219173E+03  0.00000000000E+00 0.  1.
        -11    1    4    4    0    0 -0.24866628650E+02 -0.36020203855E+02  0.22436000372E+02  0.49185144291E+02  0.00000000000E+00 0.  1.
         11    1    4    4    0    0  0.43546270430E+02  0.96035461072E+01  0.75930315821E+02  0.88056337800E+02  0.00000000000E+00 0. -1.
         21    1    1    2  502  501  0.20823916258E+02 -0.31807157925E+02  0.41277967706E+01  0.38240939970E+02  0.00000000000E+00 0. -1.
<scales pt_clust_5="13000.00000" pt_clust_6="13000.00000" pt_clust_7="13000.00000" pt_clust_8="13000.00000" pt_clust_9="38.01751"></scales>
<clustering>
<clus scale="   38.018">  1  9  2 -1</clus>
<clus scale="   80.018">  5  6 -1 -1</clus>
<clus scale="   90.070">  7  8 -1 -1</clus>
<clus scale="  105.588">  2  5  1 -1</clus>
<clus scale="   38.018">  1  5  2 -1</clus>
</clustering>
</event>
<event>
 9    1  0.2374319E-005  0.1351922E+03  0.7546771E-02  0.1224711E+00
          1   -1    0    0  502    0  0.00000000000E+00  0.00000000000E+00  0.17722952402E+03  0.17722952402E+03  0.00000000000E+00 0. -1.
         -2   -1    0    0    0  501 -0.00000000000E+00 -0.00000000000E+00 -0.15089725739E+03  0.15089725739E+03  0.00000000000E+00 0.  1.
         23    2    1    2    0    0  0.82107703776E+02  0.52054332000E+02 -0.77087795716E+02  0.15914410824E+03  0.99664389021E+02 0.  0.
        -24    2    1    2    0    0 -0.61959646486E+02 -0.43719996754E+02  0.80450602279E+02  0.13731247500E+03  0.81436972406E+02 0.  0.
         11    1    4    4    0    0 -0.60309962229E+02 -0.41447660649E+02  0.96449505619E+02  0.12106901854E+03  0.00000000000E+00 0. -1.
        -12    1    4    4    0    0 -0.16496842569E+01 -0.22723361046E+01 -0.15998903340E+02  0.16243456455E+02  0.00000000000E+00 0.  1.
        -13    1    3    3    0    0  0.32821865384E+02  0.95248702089E+01  0.21956642845E+02  0.40621326478E+02  0.00000000000E+00 0. -1.
         13    1    3    3    0    0  0.49285838392E+02  0.42529461791E+02 -0.99044438561E+02  0.11852278176E+03  0.00000000000E+00 0.  1.
         21    1    1    2  502  501 -0.20148057290E+02 -0.83343352459E+01  0.22969460062E+02  0.31670198170E+02  0.00000000000E+00 0.  1.
<scales pt_clust_5="13000.00000" pt_clust_6="13000.00000" pt_clust_7="13000.00000" pt_clust_8="13000.00000" pt_clust_9="21.80379"></scales>
<clustering>
<clus scale="   21.804">  1  9  2 -1</clus>
<clus scale="   81.437">  5  6 -1 -1</clus>
<clus scale="   99.664">  7  8 -1 -1</clus>
<clus scale="  122.376">  1  5  2 -1</clus>
<clus scale="   21.804">  1  5  2 -1</clus>
</clustering>
</event>
<event>
 9    1  0.2374319E-005  0.9104449E+02  0.7546771E-02  0.1303706E+00
         -2   -1    0    0    0  501 -0.00000000000E+00  0.00000000000E+00  0.12554390474E+03  0.12554390474E+03  0.00000000000E+00 0.  1.
          1   -1    0    0  502    0  0.00000000000E+00 -0.00000000000E+00 -0.15972915148E+03  0.15972915148E+03  0.00000000000E+00 0. -1.
        -24    2    1    2    0    0  0.17261475778E+02  0.17794935949E+02  0.50551710819E+02  0.97936449702E+02  0.80133977950E+02 0.  0.
         23    2    1    2    0    0 -0.54360052586E+02  0.64016617309E+01 -0.12571609349E+02  0.10266301428E+03  0.85939819348E+02 0.  0.
         13    1    3    3    0    0 -0.26100763734E+02 -0.70338853064E+01  0.37616135904E+02  0.46321691359E+02  0.00000000000E+00 0. -1.
        -14    1    3    3    0    0  0.43362239512E+02  0.24828821255E+02  0.12935574915E+02  0.51614758343E+02  0.00000000000E+00 0.  1.
        -11    1    4    4    0    0 -0.17212463271E+02 -0.38670278831E+02 -0.12915544392E+02  0.44254611552E+02  0.00000000000E+00 0. -1.
         11    1    4    4    0    0 -0.37147589315E+02  0.45071940562E+02  0.34393504278E+00  0.58408402728E+02  0.00000000000E+00 0.  1.
         21    1    1    2  502  501  0.37098576808E+02 -0.24196597679E+02 -0.72165348209E+02  0.84673592239E+02  0.00000000000E+00 0. -1.
<scales pt_clust_5="13000.00000" pt_clust_6="13000.00000" pt_clust_7="13000.00000" pt_clust_8="13000.00000" pt_clust_9="44.29198"></scales>
<clustering>
<clus scale="   44.292">  2  9  1 -1</clus>
<clus scale="   80.134">  5  6 -1 -1</clus>
<clus scale="   85.586">  1  5  2 -1</clus>
<clus scale="   85.940">  7  8 -1 -1</clus>
<clus scale="   44.292">  2  5  1 -1</clus>
</clustering>
</event>
<event>
 9    1  0.2374319E-005  0.1455831E+03  0.7546771E-02  0.1221237E+00
         -2   -1    0    0    0  501 -0.00000000000E+00  0.00000000000E+00  0.27636877510E+03  0.27636877510E+03  0.00000000000E+00 0.  1.
          1   -1    0    0  502    0  0.00000000000E+00 -0.00000000000E+00 -0.18568586767E+03  0.18568586767E+03  0.00000000000E+00 0. -1.
        -24    2    1    2    0    0  0.63579872109E+02 -0.23762763177E+02  0.15380374826E+03  0.18643901770E+03  0.80603010443E+02 0.  0.
         23    2    1    2    0    0 -0.14856716453E+02  0.12530059382E+03 -0.43366792810E+02  0.16127359709E+03  0.90595438978E+02 0.  0.
         11    1    3    3    0    0  0.11524248027E+02 -0.45593506351E+02  0.52600044168E+02  0.70557357947E+02  0.00000000000E+00 0. -1.
        -12    1    3    3    0    0  0.52055624082E+02  0.21830743174E+02  0.10120370409E+03  0.11588165975E+03  0.00000000000E+00 0.  1.
        -11    1    4    4    0    0 -0.33203361813E+02  0.57108388762E+01 -0.15661163173E+02  0.37153047632E+02  0.00000000000E+00 0. -1.
         11    1    4    4    0    0  0.18346645361E+02  0.11958975495E+03 -0.27705629637E+02  0.12412054946E+03  0.00000000000E+00 0.  1.
         21    1    1    2  502  501 -0.48723155656E+02 -0.10153783065E+03 -0.19754048008E+02  0.11434202798E+03  0.00000000000E+00 0. -1.
<scales pt_clust_5="13000.00000" pt_clust_6="13000.00000" pt_clust_7="13000.00000" pt_clust_8="13000.00000" pt_clust_9="113.96011"></scales>
<clustering>
<clus scale="   80.603">  5  6 -1 -1</clus>
<clus scale="   90.595">  7  8 -1 -1</clus>
<clus scale="  105.375">  1  5  2 -1</clus>
<clus scale="  113.960">  1  9  2 -1</clus>
<clus scale="  145.583">  2  5  1 -1</clus>
</clustering>
</event>
<event>
 9    1  0.2374319E-005  0.1658875E+03  0.7546771E-02  0.1183991E+00
          1   -1    0    0  502    0  0.00000000000E+00  0.00000000000E+00  0.57437739115E+03  0.57437739115E+03  0.00000000000E+00 0. -1.
         -2   -1    0    0    0  501 -0.00000000000E+00 -0.00000000000E+00 -0.11724924721E+03  0.11724924721E+03  0.00000000000E+00 0.  1.
         23    2    1    2    0    0  0.10675396909E+03 -0.91293105842E+02 -0.30623776024E+02  0.17083726413E+03  0.92286044800E+02 0.  0.
        -24    2    1    2    0    0 -0.79526245083E+02  0.97476194737E+02  0.35337843120E+03  0.38354574406E+03  0.80031181120E+02 0.  0.
         11    1    4    4    0    0 -0.93602827536E+02  0.77800113381E+02  0.31964304791E+03  0.34203219884E+03  0.00000000000E+00 0. -1.
        -12    1    4    4    0    0  0.14076582453E+02  0.19676081356E+02  0.33735383286E+02  0.41513545218E+02  0.00000000000E+00 0.  1.
        -11    1    3    3    0    0  0.82318445543E+02 -0.39211365575E+02 -0.57020099370E+02  0.10754138459E+03  0.00000000000E+00 0.  1.
         11    1    3    3    0    0  0.24435523551E+02 -0.52081740267E+02  0.26396323346E+02  0.63295879539E+02  0.00000000000E+00 0. -1.
         21    1    1    2  502  501 -0.27227724010E+02 -0.61830888954E+01  0.13437348877E+03  0.13724363018E+03  0.00000000000E+00 0. -1.
<scales pt_clust_5="13000.00000" pt_clust_6="13000.00000" pt_clust_7="13000.00000" pt_clust_8="13000.00000" pt_clust_9="27.92095"></scales>
<clustering>
<clus scale="   27.921">  1  9  2 -1</clus>
<clus scale="   80.031">  5  6 -1 -1</clus>
<clus scale="   92.286">  7  8 -1 -1</clus>
<clus scale="  159.396">  1  5  2 -1</clus>
<clus scale="   27.921">  1  5  2 -1</clus>
</clustering>
</event>
<event>
 9    1  0.2374319E-005  0.9640167E+02  0.7546771E-02  0.1295530E+00
         -2   -1    0    0    0  501 -0.00000000000E+00  0.00000000000E+00  0.26062344623E+02  0.26062344623E+02  0.00000000000E+00 0.  1.
          1   -1    0    0  502    0  0.00000000000E+00 -0.00000000000E+00 -0.55829259911E+03  0.55829259911E+03  0.00000000000E+00 0. -1.
         23    2    1    2    0    0  0.17414414285E+02 -0.14808647498E+02 -0.10543864862E+03  0.14305937262E+03  0.93947419358E+02 0.  0.
        -24    2    1    2    0    0 -0.26467294780E+02 -0.85863944307E+01 -0.35710706896E+03  0.36723331815E+03  0.80997576453E+02 0.  0.
         13    1    4    4    0    0 -0.32815029722E+00 -0.42122476302E+02 -0.20571910855E+03  0.20998752895E+03  0.00000000000E+00 0. -1.
        -14    1    4    4    0    0 -0.26139144483E+02  0.33536081872E+02 -0.15138796041E+03  0.15724578919E+03  0.00000000000E+00 0.  1.
        -11    1    3    3    0    0  0.13555648178E+02 -0.54602070079E+02 -0.68340748326E+02  0.88518921911E+02  0.00000000000E+00 0. -1.
         11    1    3    3    0    0  0.38587661071E+01  0.39793422582E+02 -0.37097900298E+02  0.54540450705E+02  0.00000000000E+00 0.  1.
         21    1    1    2  502  501  0.90528804950E+01  0.23395041929E+02 -0.69684536902E+02  0.74062252973E+02  0.00000000000E+00 0.  1.
<scales pt_clust_5="13000.00000" pt_clust_6="13000.00000" pt_clust_7="13000.00000" pt_clust_8="13000.00000" pt_clust_9="25.08551"></scales>
<clustering>
<clus scale="   25.086">  2  9  1 -1</clus>
<clus scale="   80.998">  5  6 -1 -1</clus>
<clus scale="   83.832">  2  5  1 -1</clus>
<clus scale="   93.947">  7  8 -1 -1</clus>
<clus scale="   25.086">  2  5  1 -1</clus>
</clustering>
</event>
<event>
 9    1  0.2374319E-005  0.9563810E+02  0.7546771E-02  0.1294968E+00
         -2   -1    0    0    0  501 -0.00000000000E+00  0.00000000000E+00  0.10960133485E+03  0.10960133485E+03  0.00000000000E+00 0.  1.
          1   -1    0    0  502    0  0.00000000000E+00 -0.00000000000E+00 -0.33483698595E+03  0.33483698595E+03  0.00000000000E+00 0. -1.
         23    2    1    2    0    0  0.21915021514E+01  0.28094325692E+02  0.60348672778E+02  0.11186272952E+03  0.89873322693E+02 0.  0.
        -24    2    1    2    0    0  0.12633120408E+02 -0.50863666127E+02 -0.79186803309E+02  0.12439742529E+03  0.80358330849E+02 0.  0.
         11    1    4    4    0    0  0.34037328776E+02 -0.58826817347E+02 -0.39500593634E+02  0.78609357501E+02  0.00000000000E+00 0. -1.
        -12    1    4    4    0    0 -0.21404208368E+02  0.79631512200E+01 -0.39686209675E+02  0.45788067787E+02  0.00000000000E+00 0.  1.
        -13    1    3    3    0    0 -0.27854082112E+02  0.24216718699E+02 -0.74047763324E+01  0.37644788050E+02  0.00000000000E+00 0. -1.
         13    1    3    3    0    0  0.30045584263E+02  0.38776069927E+01  0.67753449111E+02  0.74217941470E+02  0.00000000000E+00 0.  1.
         21    1    1    2  502  501 -0.14824622559E+02  0.22769340435E+02 -0.20639752057E+03  0.20817816599E+03  0.00000000000E+00 0. -1.
<scales pt_clust_5="13000.00000" pt_clust_6="13000.00000" pt_clust_7="13000.00000" pt_clust_8="13000.00000" pt_clust_9="27.17006"></scales>
<clustering>
<clus scale="   27.170">  2  9  1 -1</clus>
<clus scale="   80.358">  5  6 -1 -1</clus>
<clus scale="   86.758">  2  5  1 -1</clus>
<clus scale="   89.873">  7  8 -1 -1</clus>
<clus scale="   27.170">  2  5  1 -1</clus>
</clustering>
</event>
<event>
 9    1  0.2374319E-005  0.9007032E+02  0.7546771E-02  0.1312601E+00
         -2   -1    0    0    0  501 -0.00000000000E+00  0.00000000000E+00  0.23216995266E+03  0.23216995266E+03  0.00000000000E+00 0.  1.
          1   -1    0    0  502    0  0.00000000000E+00 -0.00000000000E+00 -0.53558776086E+02  0.53558776086E+02  0.00000000000E+00 0. -1.
        -24    2    1    2    0    0  0.28483227440E+01  0.14491173896E+02  0.13562761815E+03  0.15549765667E+03  0.74609405318E+02 0.  0.
         23    2    1    2    0    0  0.85153315685E+01  0.41174972265E+01  0.54781843266E+02  0.10543964603E+03  0.89593548589E+02 0.  0.
         13    1    3    3    0    0  0.63107945982E+01  0.27030611658E+02  0.10471081403E+02  0.29666877841E+02  0.00000000000E+00 0. -1.
        -14    1    3    3    0    0 -0.34624718542E+01 -0.12539437762E+02  0.12515653675E+03  0.12583077883E+03  0.00000000000E+00 0.  1.
        -11    1    4    4    0    0 -0.31049026362E+02 -0.15481351675E+02 -0.48950273535E+00  0.34698038859E+02  0.00000000000E+00 0.  1.
         11    1    4    4    0    0  0.39564357931E+02  0.19598848902E+02  0.55271346002E+02  0.70741607174E+02  0.00000000000E+00 0. -1.
         21    1    1    2  502  501 -0.11363654313E+02 -0.18608671123E+02 -0.11798284837E+02  0.24791426046E+02  0.00000000000E+00 0. -1.
<scales pt_clust_5="13000.00000" pt_clust_6="13000.00000" pt_clust_7="13000.00000" pt_clust_8="13000.00000" pt_clust_9="21.80402"></scales>
<clustering>
<clus scale="   21.804">  2  9  1 -1</clus>
<clus scale="   74.609">  5  6 -1 -1</clus>
<clus scale="   75.181">  1  5  2 -1</clus>
<clus scale="   89.594">  7  8 -1 -1</clus>
<clus scale="   21.804">  2  5  1 -1</clus>
</clustering>
</event>
<event>
 9    1  0.2374319E-005  0.1034394E+03  0.7546771E-02  0.1276490E+00
         -4   -1    0    0    0  501 -0.00000000000E+00  0.00000000000E+00  0.27724967511E+03  0.27724967511E+03  0.00000000000E+00 0.  1.
          3   -1    0    0  502    0  0.00000000000E+00 -0.00000000000E+00 -0.11067114341E+03  0.11067114341E+03  0.00000000000E+00 0. -1.
        -24    2    1    2    0    0 -0.15398922047E+02 -0.59890606206E+01  0.15542866322E+03  0.17578565680E+03  0.80433401892E+02 0.  0.
         23    2    1    2    0    0  0.56690947678E+02 -0.26872233351E+02 -0.59997441378E+02  0.12355279483E+03  0.87918255585E+02 0.  0.
         13    1    3    3    0    0 -0.64108906666E+01  0.31029248316E+02  0.26370264853E+02  0.41222622898E+02  0.00000000000E+00 0. -1.
        -14    1    3    3    0    0 -0.89880313808E+01 -0.37018308936E+02  0.12905839837E+03  0.13456303390E+03  0.00000000000E+00 0.  1.
        -13    1    4    4    0    0 -0.21749363667E+02 -0.12147378062E+02 -0.21929154865E+01  0.25008048545E+02  0.00000000000E+00 0.  1.
         13    1    4    4    0    0  0.78440311346E+02 -0.14724855289E+02 -0.57804525891E+02  0.98544746287E+02  0.00000000000E+00 0. -1.
         21    1    1    2  502  501 -0.41292025631E+02  0.32861293972E+02  0.71147309866E+02  0.88582366887E+02  0.00000000000E+00 0. -1.
<scales pt_clust_5="13000.00000" pt_clust_6="13000.00000" pt_clust_7="13000.00000" pt_clust_8="13000.00000" pt_clust_9="52.77211"></scales>
<clustering>
<clus scale="   52.772">  1  9  2 -1</clus>
<clus scale="   80.433">  5  6 -1 -1</clus>
<clus scale="   87.918">  7  8 -1 -1</clus>
<clus scale="   97.158">  1  5  2 -1</clus>
<clus scale="  103.439">  2  5  1 -1</clus>
</clustering>
</event>
<event>
 9    1  0.2374319E-005  0.1024213E+03  0.7546771E-02  0.1282474E+00
         -2   -1    0    0    0  501 -0.00000000000E+00  0.00000000000E+00  0.25022465126E+03  0.25022465126E+03  0.00000000000E+00 0.  1.
          1   -1    0    0  502    0  0.00000000000E+00 -0.00000000000E+00 -0.15724483259E+03  0.15724483259E+03  0.00000000000E+00 0. -1.
        -24    2    1    2    0    0  0.39228716274E+02  0.16317586202E+02  0.15757445449E+03  0.18205518636E+03  0.80679776738E+02 0.  0.
         23    2    1    2    0    0 -0.33705183294E+02  0.61920399276E+02  0.79652929678E+01  0.11856564258E+03  0.94995739281E+02 0.  0.
         13    1    3    3    0    0  0.45506999480E+02  0.41661191072E+02  0.13099319654E+03  0.14479557791E+03  0.00000000000E+00 0. -1.
        -14    1    3    3    0    0 -0.62782832059E+01 -0.25343604870E+02  0.26581257950E+02  0.37259608452E+02  0.00000000000E+00 0.  1.
        -13    1    4    4    0    0 -0.82566982473E+00  0.55451896606E+02 -0.33855803211E+02  0.64975456742E+02  0.00000000000E+00 0. -1.
         13    1    4    4    0    0 -0.32879513470E+02  0.64685026705E+01  0.41821096179E+02  0.53590185840E+02  0.00000000000E+00 0.  1.
         21    1    1    2  502  501 -0.55235329795E+01 -0.78237985478E+02 -0.72559928788E+02  0.10684865490E+03  0.00000000000E+00 0.  1.
<scales pt_clust_5="13000.00000" pt_clust_6="13000.00000" pt_clust_7="13000.00000" pt_clust_8="13000.00000" pt_clust_9="78.43272"></scales>
<clustering>
<clus scale="   78.433">  2  9  1 -1</clus>
<clus scale="   80.680">  5  6 -1 -1</clus>
<clus scale="   89.304">  1  5  2 -1</clus>
<clus scale="   94.996">  7  8 -1 -1</clus>
<clus scale="   78.433">  2  5  1 -1</clus>
</clustering>
</event>
<event>
 9    1  0.2374319E-005  0.1303058E+03  0.7546771E-02  0.1227704E+00
         -2   -1    0    0    0  501 -0.00000000000E+00  0.00000000000E+00  0.64407959018E+02  0.64407959018E+02  0.00000000000E+00 0.  1.
          1   -1    0    0  502    0  0.00000000000E+00 -0.00000000000E+00 -0.64063128311E+03  0.64063128311E+03  0.00000000000E+00 0. -1.
        -24    2    1    2    0    0 -0.67471461438E+02  0.55371615730E+02 -0.77145957141E+02  0.13953441382E+03  0.76811066911E+02 0.  0.
         23    2    1    2    0    0  0.13250352673E+03 -0.43733286201E+02 -0.18753635669E+03  0.24703595807E+03  0.79919300443E+02 0.  0.
         11    1    3    3    0    0 -0.37856314503E+02  0.59855631875E+02 -0.82901045339E+02  0.10903385040E+03  0.00000000000E+00 0. -1.
        -12    1    3    3    0    0 -0.29615146935E+02 -0.44840161451E+01  0.57550881983E+01  0.30500563420E+02  0.00000000000E+00 0.  1.
        -13    1    4    4    0    0  0.53482634459E+02 -0.57593312444E+02 -0.11213825851E+03  0.13693929622E+03  0.00000000000E+00 0.  1.
         13    1    4    4    0    0  0.79020892274E+02  0.13860026242E+02 -0.75398098179E+02  0.11009666186E+03  0.00000000000E+00 0. -1.
         21    1    1    2  502  501 -0.65032065295E+02 -0.11638329529E+02 -0.31154101026E+03  0.31846887023E+03  0.00000000000E+00 0. -1.
<scales pt_clust_5="13000.00000" pt_clust_6="13000.00000" pt_clust_7="13000.00000" pt_clust_8="13000.00000" pt_clust_9="66.06527"></scales>
<clustering>
<clus scale="   66.065">  2  9  1 -1</clus>
<clus scale="   76.811">  5  6 -1 -1</clus>
<clus scale="   79.919">  7  8 -1 -1</clus>
<clus scale="  128.423">  1  5  2 -1</clus>
<clus scale="   66.065">  2  5  1 -1</clus>
</clustering>
</event>
<event>
 9    1  0.2374319E-005  0.2285804E+03  0.7546771E-02  0.1128140E+00
          1   -1    0    0  502    0  0.00000000000E+00  0.00000000000E+00  0.71050608016E+03  0.71050608016E+03  0.00000000000E+00 0. -1.
         -2   -1    0    0    0  501 -0.00000000000E+00 -0.00000000000E+00 -0.93755987824E+02  0.93755987824E+02  0.00000000000E+00 0.  1.
         23    2    1    2    0    0 -0.31353168751E+02 -0.21130238488E+03  0.21553198826E+03  0.31607317753E+03  0.88410952638E+02 0.  0.
        -24    2    1    2    0    0  0.64284493902E+02  0.19896406125E+03  0.26315300097E+03  0.34571545748E+03  0.80935046765E+02 0.  0.
         11    1    4    4    0    0  0.79892773113E+02  0.16570805311E+03  0.19364343743E+03  0.26709510464E+03  0.00000000000E+00 0. -1.
        -12    1    4    4    0    0 -0.15608279211E+02  0.33256008140E+02  0.69509563547E+02  0.78620352847E+02  0.00000000000E+00 0.  1.
        -11    1    3    3    0    0  0.25512307746E+02 -0.12548449156E+03  0.11311500769E+03  0.17085736868E+03  0.00000000000E+00 0. -1.
         11    1    3    3    0    0 -0.56865476497E+02 -0.85817893319E+02  0.10241698057E+03  0.14521580885E+03  0.00000000000E+00 0.  1.
         21    1    1    2  502  501 -0.32931325151E+02  0.12338323630E+02  0.13806510310E+03  0.14247343297E+03  0.00000000000E+00 0. -1.
<scales pt_clust_5="13000.00000" pt_clust_6="13000.00000" pt_clust_7="13000.00000" pt_clust_8="13000.00000" pt_clust_9="35.16684"></scales>
<clustering>
<clus scale="   35.167">  1  9  2 -1</clus>
<clus scale="   80.935">  5  6 -1 -1</clus>
<clus scale="   88.411">  7  8 -1 -1</clus>
<clus scale="  225.794">  1  5  2 -1</clus>
<clus scale="   35.167">  1  5  2 -1</clus>
</clustering>
</event>
<event>
 9    1  0.2374319E-005  0.2710160E+03  0.7546771E-02  0.1101354E+00
         -2   -1    0    0    0  501 -0.00000000000E+00  0.00000000000E+00  0.71549308300E+02  0.71549308300E+02  0.00000000000E+00 0.  1.
          1   -1    0    0  502    0  0.00000000000E+00 -0.00000000000E+00 -0.16584949546E+04  0.16584949546E+04  0.00000000000E+00 0. -1.
        -24    2    1    2    0    0 -0.23595394054E+03  0.81396138558E+02 -0.27316222890E+03  0.37851365567E+03  0.79720704952E+02 0.  0.
         23    2    1    2    0    0  0.26205273390E+03 -0.70684392812E+02 -0.11486813615E+04  0.11840356002E+04  0.93827040885E+02 0.  0.
         13    1    3    3    0    0 -0.14388660527E+03  0.15412089536E+02 -0.18558491849E+03  0.23533518575E+03  0.00000000000E+00 0. -1.
        -14    1    3    3    0    0 -0.92067335271E+02  0.65984049021E+02 -0.87577310411E+02  0.14317846992E+03  0.00000000000E+00 0.  1.
        -13    1    4    4    0    0  0.10560993346E+03  0.10630769086E+02 -0.53997754768E+03  0.55031102415E+03  0.00000000000E+00 0. -1.
         13    1    4    4    0    0  0.15644280044E+03 -0.81315161897E+02 -0.60870381383E+03  0.63372457609E+03  0.00000000000E+00 0.  1.
         21    1    1    2  502  501 -0.26098793361E+02 -0.10711745746E+02 -0.16510205594E+03  0.16749500705E+03  0.00000000000E+00 0. -1.
<scales pt_clust_5="13000.00000" pt_clust_6="13000.00000" pt_clust_7="13000.00000" pt_clust_8="13000.00000" pt_clust_9="28.21150"></scales>
<clustering>
<clus scale="   28.211">  2  9  1 -1</clus>
<clus scale="   79.721">  5  6 -1 -1</clus>
<clus scale="   93.827">  7  8 -1 -1</clus>
<clus scale="  266.461">  1  5  2 -1</clus>
<clus scale="   28.211">  2  5  1 -1</clus>
</clustering>
</event>
<event>
 9    1  0.2374319E-005  0.1182072E+03  0.7546771E-02  0.1249206E+00
         -2   -1    0    0    0  501 -0.00000000000E+00  0.00000000000E+00  0.44360487556E+03  0.44360487556E+03  0.00000000000E+00 0.  1.
          1   -1    0    0  502    0  0.00000000000E+00 -0.00000000000E+00 -0.48839727903E+02  0.48839727903E+02  0.00000000000E+00 0. -1.
         23    2    1    2    0    0 -0.73441449507E+02 -0.25238986216E+01  0.25507340406E+03  0.28030140208E+03  0.90035648387E+02 0.  0.
        -24    2    1    2    0    0  0.81917446857E+02 -0.35573619391E+02  0.98205765425E+02  0.15518400726E+03  0.80385031266E+02 0.  0.
         13    1    4    4    0    0  0.89790346476E+02 -0.24809252411E+02  0.51147749884E+02  0.10627275118E+03  0.00000000000E+00 0. -1.
        -14    1    4    4    0    0 -0.78728996192E+01 -0.10764366980E+02  0.47058015541E+02  0.48911256082E+02  0.00000000000E+00 0.  1.
        -11    1    3    3    0    0 -0.35922504726E+02 -0.44695564247E+02  0.15700501297E+03  0.16714871793E+03  0.00000000000E+00 0. -1.
         11    1    3    3    0    0 -0.37518944780E+02  0.42171665625E+02  0.98068391091E+02  0.11315268415E+03  0.00000000000E+00 0.  1.
         21    1    1    2  502  501 -0.84759973500E+01  0.38097518013E+02  0.41485978177E+02  0.56959194122E+02  0.00000000000E+00 0. -1.
<scales pt_clust_5="13000.00000" pt_clust_6="13000.00000" pt_clust_7="13000.00000" pt_clust_8="13000.00000" pt_clust_9="39.02901"></scales>
<clustering>
<clus scale="   39.029">  2  9  1 -1</clus>
<clus scale="   80.385">  5  6 -1 -1</clus>
<clus scale="   90.036">  7  8 -1 -1</clus>
<clus scale="  111.033">  2  5  1 -1</clus>
<clus scale="   39.029">  2  5  1 -1</clus>
</clustering>
</event>
<event>
 9    1  0.2374319E-005  0.9707649E+02  0.7546771E-02  0.1292228E+00
         -2   -1    0    0    0  501 -0.00000000000E+00  0.00000000000E+00  0.30612334702E+03  0.30612334702E+03  0.00000000000E+00 0.  1.
          1   -1    0    0  502    0  0.00000000000E+00 -0.00000000000E+00 -0.66070015986E+02  0.66070015986E+02  0.00000000000E+00 0. -1.
        -24    2    1    2    0    0  0.35855990259E+02 -0.33759845804E+02  0.15177554601E+03  0.17900783364E+03  0.81133278678E+02 0.  0.
         23    2    1    2    0    0  0.76744032738E+00  0.30665662935E+02 -0.10655404424E+01  0.96577665093E+02  0.91570400078E+02 0.  0.
         13    1    3    3    0    0  0.34279832773E+02  0.22360605532E+01  0.14856758659E+02  0.37427665965E+02  0.00000000000E+00 0. -1.
        -14    1    3    3    0    0  0.15761574859E+01 -0.35995906358E+02  0.13691878736E+03  0.14158016767E+03  0.00000000000E+00 0.  1.
        -13    1    4    4    0    0 -0.29290228956E+02  0.34714865598E+02  0.28985988173E+02  0.53881600906E+02  0.00000000000E+00 0. -1.
         13    1    4    4    0    0  0.30057669284E+02 -0.40492026623E+01 -0.30051528616E+02  0.42696064188E+02  0.00000000000E+00 0.  1.
         21    1    1    2  502  501 -0.36623430586E+02  0.30941828690E+01  0.89343325459E+02  0.96607864274E+02  0.00000000000E+00 0.  1.
<scales pt_clust_5="13000.00000" pt_clust_6="13000.00000" pt_clust_7="13000.00000" pt_clust_8="13000.00000" pt_clust_9="36.75391"></scales>
<clustering>
<clus scale="   36.754">  1  9  2 -1</clus>
<clus scale="   81.133">  5  6 -1 -1</clus>
<clus scale="   87.300">  1  5  2 -1</clus>
<clus scale="   91.570">  7  8 -1 -1</clus>
<clus scale="   97.076">  2  5  1 -1</clus>
</clustering>
</event>
<event>
 9    1  0.2374319E-005  0.1094415E+03  0.7546771E-02  0.1265574E+00
         -4   -1    0    0    0  501 -0.00000000000E+00  0.00000000000E+00  0.10590198355E+03  0.10590198355E+03  0.00000000000E+00 0.  1.
          3   -1    0    0  502    0  0.00000000000E+00 -0.00000000000E+00 -0.22822995335E+03  0.22822995335E+03  0.00000000000E+00 0. -1.
        -24    2    1    2    0    0 -0.15487978753E+02 -0.60549454689E+02  0.52515086457E+02  0.11494885403E+03  0.80927688641E+02 0.  0.
         23    2    1    2    0    0  0.31090344458E+02  0.45026711248E+02 -0.16210136438E+03  0.19375199773E+03  0.90933877330E+02 0.  0.
         11    1    3    3    0    0 -0.16266843120E+02 -0.18689809103E+02 -0.19579313396E+02  0.31579560834E+02  0.00000000000E+00 0. -1.
        -12    1    3    3    0    0  0.77886436627E+00 -0.41859645586E+02  0.72094399853E+02  0.83369293198E+02  0.00000000000E+00 0.  1.
        -13    1    4    4    0    0  0.21300830182E+02 -0.24146188167E+02 -0.78219044110E+02  0.84587130410E+02  0.00000000000E+00 0.  1.
         13    1    4    4    0    0  0.97895142766E+01  0.69172899415E+02 -0.83882320271E+02  0.10916486732E+03  0.00000000000E+00 0. -1.
         21    1    1    2  502  501 -0.15602365705E+02  0.15522743441E+02 -0.12741691872E+02  0.25431085138E+02  0.00000000000E+00 0. -1.
<scales pt_clust_5="13000.00000" pt_clust_6="13000.00000" pt_clust_7="13000.00000" pt_clust_8="13000.00000" pt_clust_9="22.00885"></scales>
<clustering>
<clus scale="   22.009">  2  9  1 -1</clus>
<clus scale="   80.928">  5  6 -1 -1</clus>
<clus scale="   90.934">  7  8 -1 -1</clus>
<clus scale="  101.281">  1  5  2 -1</clus>
<clus scale="   22.009">  2  5  1 -1</clus>
</clustering>
</event>
<event>
 9    1  0.2374319E-005  0.2191384E+03  0.7546771E-02  0.1135413E+00
         -2   -1    0    0    0  501 -0.00000000000E+00  0.00000000000E+00  0.29514399320E+03  0.29514399320E+03  0.00000000000E+00 0.  1.
          1   -1    0    0  502    0  0.00000000000E+00 -0.00000000000E+00 -0.28395949040E+03  0.28395949040E+03  0.00000000000E+00 0. -1.
         23    2    1    2    0    0  0.17843661097E+03  0.80877825150E+02  0.17366925534E+03  0.27773773013E+03  0.92716717767E+02 0.  0.
        -24    2    1    2    0    0 -0.18205090601E+03 -0.10199403464E+03 -0.12051030859E+03  0.25424026804E+03  0.81055930907E+02 0.  0.
         13    1    4    4    0    0 -0.17848634186E+03 -0.83177313150E+02 -0.12665059377E+03  0.23412862396E+03  0.00000000000E+00 0. -1.
        -14    1    4    4    0    0 -0.35645641425E+01 -0.18816721493E+02  0.61402851858E+01  0.20111644076E+02  0.00000000000E+00 0.  1.
        -13    1    3    3    0    0  0.39836059195E+02  0.63270385081E+02  0.80173296222E+02  0.10962577556E+03  0.00000000000E+00 0. -1.
         13    1    3    3    0    0  0.13860055177E+03  0.17607440069E+02  0.93495959120E+02  0.16811195457E+03  0.00000000000E+00 0.  1.
         21    1    1    2  502  501  0.36142950362E+01  0.21116209493E+02 -0.41974443959E+02  0.47125485436E+02  0.00000000000E+00 0.  1.
<scales pt_clust_5="13000.00000" pt_clust_6="13000.00000" pt_clust_7="13000.00000" pt_clust_8="13000.00000" pt_clust_9="21.42329"></scales>
<clustering>
<clus scale="   21.423">  2  9  1 -1</clus>
<clus scale="   81.056">  5  6 -1 -1</clus>
<clus scale="   92.717">  7  8 -1 -1</clus>
<clus scale="  214.465">  2  5  1 -1</clus>
<clus scale="   21.423">  2  5  1 -1</clus>
</clustering>
</event>
<event>
 9    1  0.2374319E-005  0.9674258E+02  0.7546771E-02  0.1292796E+00
         -2   -1    0    0    0  501 -0.00000000000E+00  0.00000000000E+00  0.39973655191E+02  0.39973655191E+02  0.00000000000E+00 0.  1.
          1   -1    0    0  502    0  0.00000000000E+00 -0.00000000000E+00 -0.36923177354E+03  0.36923177354E+03  0.00000000000E+00 0. -1.
         23    2    1    2    0    0 -0.28329456938E+02  0.89337395211E+01 -0.76472128894E+02  0.12217409976E+03  0.90532614692E+02 0.  0.
        -24    2    1    2    0    0  0.27372183862E+02 -0.33510334847E+02 -0.11370729576E+03  0.14579461827E+03  0.80340168139E+02 0.  0.
         11    1    4    4    0    0  0.49461466333E+02 -0.35822035681E+02 -0.10590912957E+03  0.12225546458E+03  0.00000000000E+00 0. -1.
        -12    1    4    4    0    0 -0.22089282471E+02  0.23117008342E+01 -0.77981661933E+01  0.23539153698E+02  0.00000000000E+00 0.  1.
        -11    1    3    3    0    0 -0.55477880455E+02 -0.63595689333E+01 -0.71337860294E+02  0.90594313553E+02  0.00000000000E+00 0. -1.
         11    1    3    3    0    0  0.27148423518E+02  0.15293308454E+02 -0.51342686005E+01  0.31579786210E+02  0.00000000000E+00 0.  1.
         21    1    1    2  502  501  0.95727307505E+00  0.24576595326E+02 -0.13907869369E+03  0.14123671069E+03  0.00000000000E+00 0. -1.
<scales pt_clust_5="13000.00000" pt_clust_6="13000.00000" pt_clust_7="13000.00000" pt_clust_8="13000.00000" pt_clust_9="24.59523"></scales>
<clustering>
<clus scale="   24.595">  2  9  1 -1</clus>
<clus scale="   80.340">  5  6 -1 -1</clus>
<clus scale="   87.278">  2  5  1 -1</clus>
<clus scale="   90.533">  7  8 -1 -1</clus>
<clus scale="   24.595">  2  5  1 -1</clus>
</clustering>
</event>
<event>
 9    1  0.2374319E-005  0.1198974E+03  0.7546771E-02  0.1246551E+00
         -2   -1    0    0    0  501 -0.00000000000E+00  0.00000000000E+00  0.29527491092E+03  0.29527491092E+03  0.00000000000E+00 0.  1.
          1   -1    0    0  502    0  0.00000000000E+00 -0.00000000000E+00 -0.70829394230E+02  0.70829394230E+02  0.00000000000E+00 0. -1.
        -24    2    1    2    0    0  0.66664013691E+02 -0.52265621136E+02  0.19734068028E+03  0.22922242011E+03  0.80148536549E+02 0.  0.
         23    2    1    2    0    0 -0.50778410823E+02  0.36274401735E+02  0.30347239538E+02  0.11410943119E+03  0.90585474063E+02 0.  0.
         11    1    3    3    0    0  0.39752637522E+02 -0.34057062712E+02  0.33403704398E+02  0.62096402295E+02  0.00000000000E+00 0. -1.
        -12    1    3    3    0    0  0.26911376170E+02 -0.18208558424E+02  0.16393697589E+03  0.16712601781E+03  0.00000000000E+00 0.  1.
        -11    1    4    4    0    0 -0.71958824420E+02  0.39272762679E+02  0.39310246324E+02  0.90915992908E+02  0.00000000000E+00 0. -1.
         11    1    4    4    0    0  0.21180413598E+02 -0.29983609440E+01 -0.89630067857E+01  0.23193438278E+02  0.00000000000E+00 0.  1.
         21    1    1    2  502  501 -0.15885602869E+02  0.15991219400E+02 -0.32424031350E+01  0.22772453853E+02  0.00000000000E+00 0. -1.
<scales pt_clust_5="13000.00000" pt_clust_6="13000.00000" pt_clust_7="13000.00000" pt_clust_8="13000.00000" pt_clust_9="22.54044"></scales>
<clustering>
<clus scale="   22.540">  2  9  1 -1</clus>
<clus scale="   80.149">  5  6 -1 -1</clus>
<clus scale="   90.585">  7  8 -1 -1</clus>
<clus scale="  112.221">  1  5  2 -1</clus>
<clus scale="   22.540">  2  5  1 -1</clus>
</clustering>
</event>
<event>
 9    1  0.2374319E-005  0.1786347E+03  0.7546771E-02  0.1170526E+00
         -2   -1    0    0    0  501 -0.00000000000E+00  0.00000000000E+00  0.67387708555E+03  0.67387708555E+03  0.00000000000E+00 0.  1.
          1   -1    0    0  502    0  0.00000000000E+00 -0.00000000000E+00 -0.77036656149E+03  0.77036656149E+03  0.00000000000E+00 0. -1.
        -24    2    1    2    0    0 -0.17565632096E+02 -0.14972598008E+03  0.57077901266E+03  0.59595634933E+03  0.81540593976E+02 0.  0.
         23    2    1    2    0    0 -0.79442543266E+02  0.26092171576E+03 -0.63489761561E+03  0.69721462930E+03  0.92854712120E+02 0.  0.
         11    1    3    3    0    0 -0.19862593076E+02 -0.34048192955E+02  0.56943993686E+02  0.69256194410E+02  0.00000000000E+00 0. -1.
        -12    1    3    3    0    0  0.22969609800E+01 -0.11567778712E+03  0.51383501898E+03  0.52670015492E+03  0.00000000000E+00 0.  1.
        -11    1    4    4    0    0 -0.98591070352E+02  0.24091093129E+03 -0.56770410795E+03  0.62453681249E+03  0.00000000000E+00 0. -1.
         11    1    4    4    0    0  0.19148527086E+02  0.20010784472E+02 -0.67193507662E+02  0.72677816813E+02  0.00000000000E+00 0.  1.
         21    1    1    2  502  501  0.97008175362E+02 -0.11119573569E+03 -0.32370872997E+02  0.15107266841E+03  0.00000000000E+00 0.  1.
<scales pt_clust_5="13000.00000" pt_clust_6="13000.00000" pt_clust_7="13000.00000" pt_clust_8="13000.00000" pt_clust_9="147.56381"></scales>
<clustering>
<clus scale="   81.541">  5  6 -1 -1</clus>
<clus scale="   92.855">  7  8 -1 -1</clus>
<clus scale="  147.564">  2  9  1 -1</clus>
<clus scale="  173.024">  1  5  2 -1</clus>
<clus scale="  147.564">  2  5  1 -1</clus>
</clustering>
</event>
<event>
 9    1  0.2374319E-005  0.2538256E+03  0.7546771E-02  0.1111181E+00
          1   -1    0    0  502    0  0.00000000000E+00  0.00000000000E+00  0.63353665417E+03  0.63353665417E+03  0.00000000000E+00 0. -1.
         -2   -1    0    0    0  501 -0.00000000000E+00 -0.00000000000E+00 -0.24896795315E+03  0.24896795315E+03  0.00000000000E+00 0.  1.
         23    2    1    2    0    0 -0.23434986937E+03 -0.51471588844E+02 -0.98463833697E+02  0.27440374189E+03  0.89627569904E+02 0.  0.
        -24    2    1    2    0    0  0.22847605215E+03 -0.57742392950E+02  0.38536072561E+03  0.46146533820E+03  0.94402749820E+02 0.  0.
         11    1    4    4    0    0  0.67545764898E+02  0.16928624230E+02  0.16117551347E+03  0.17557492651E+03  0.00000000000E+00 0. -1.
        -12    1    4    4    0    0  0.16093028725E+03 -0.74671017180E+02  0.22418521213E+03  0.28589041170E+03  0.00000000000E+00 0.  1.
        -13    1    3    3    0    0 -0.24137735503E+02 -0.35440215273E+02 -0.31485112650E+02  0.53197288017E+02  0.00000000000E+00 0. -1.
         13    1    3    3    0    0 -0.21021213386E+03 -0.16031373571E+02 -0.66978721047E+02  0.22120645387E+03  0.00000000000E+00 0.  1.
         21    1    1    2  502  501  0.58738172171E+01  0.10921398179E+03  0.97671809111E+02  0.14663552722E+03  0.00000000000E+00 0.  1.
<scales pt_clust_5="13000.00000" pt_clust_6="13000.00000" pt_clust_7="13000.00000" pt_clust_8="13000.00000" pt_clust_9="109.37182"></scales>
<clustering>
<clus scale="   89.628">  7  8 -1 -1</clus>
<clus scale="   94.403">  5  6 -1 -1</clus>
<clus scale="  109.372">  1  9  2 -1</clus>
<clus scale="  252.089">  2  7  1 -1</clus>
<clus scale="  109.372">  1  5  2 -1</clus>
</clustering>
</event>
<event>
 9    1  0.2374319E-005  0.8957301E+02  0.7546771E-02  0.1308140E+00
         -2   -1    0    0    0  501 -0.00000000000E+00  0.00000000000E+00  0.31484085731E+03  0.31484085731E+03  0.00000000000E+00 0.  1.
          1   -1    0    0  502    0  0.00000000000E+00 -0.00000000000E+00 -0.67412724643E+02  0.67412724643E+02  0.00000000000E+00 0. -1.
         23    2    1    2    0    0 -0.13634913148E+02 -0.75810036613E+01  0.25502264021E+03  0.27014895026E+03  0.87752640040E+02 0.  0.
        -24    2    1    2    0    0  0.19052084776E+02  0.27055489193E+02  0.61938101060E+01  0.87635895743E+02  0.80911714289E+02 0.  0.
         11    1    4    4    0    0  0.36016153949E+02  0.39712401721E+01 -0.25958107950E+02  0.44573057581E+02  0.00000000000E+00 0. -1.
        -12    1    4    4    0    0 -0.16964069174E+02  0.23084249021E+02  0.32151918056E+02  0.43062838161E+02  0.00000000000E+00 0.  1.
        -13    1    3    3    0    0  0.34948082432E+02 -0.12259071971E+02  0.14730634795E+03  0.15189079452E+03  0.00000000000E+00 0. -1.
         13    1    3    3    0    0 -0.48582995580E+02  0.46780683093E+01  0.10771629226E+03  0.11825815574E+03  0.00000000000E+00 0.  1.
         21    1    1    2  502  501 -0.54171716280E+01 -0.19474485532E+02 -0.13788317653E+02  0.24468735947E+02  0.00000000000E+00 0.  1.
<scales pt_clust_5="13000.00000" pt_clust_6="13000.00000" pt_clust_7="13000.00000" pt_clust_8="13000.00000" pt_clust_9="20.21389"></scales>
<clustering>
<clus scale="   20.214">  2  9  1 -1</clus>
<clus scale="   80.912">  5  6 -1 -1</clus>
<clus scale="   82.882">  2  5  1 -1</clus>
<clus scale="   87.753">  7  8 -1 -1</clus>
<clus scale="   20.214">  2  5  1 -1</clus>
</clustering>
</event>
<event>
 9    1  0.2374319E-005  0.1372576E+03  0.7546771E-02  0.1218533E+00
          1   -1    0    0  502    0  0.00000000000E+00  0.00000000000E+00  0.96264807984E+02  0.96264807984E+02  0.00000000000E+00 0. -1.
         -2   -1    0    0    0  501 -0.00000000000E+00 -0.00000000000E+00 -0.23645572504E+03  0.23645572504E+03  0.00000000000E+00 0.  1.
        -24    2    1    2    0    0 -0.38757521189E+02 -0.90994330724E+02 -0.75322402807E+02  0.14813915616E+03  0.80558249426E+02 0.  0.
         23    2    1    2    0    0  0.58888522869E+02  0.98845553356E+02 -0.72590534365E+02  0.16163516759E+03  0.87282530781E+02 0.  0.
         13    1    3    3    0    0  0.16307285203E+02 -0.37016313097E+02 -0.55225861164E+02  0.68454588797E+02  0.00000000000E+00 0. -1.
        -14    1    3    3    0    0 -0.55064806393E+02 -0.53978017627E+02 -0.20096541644E+02  0.79684567364E+02  0.00000000000E+00 0.  1.
        -13    1    4    4    0    0  0.56683358080E+02  0.38104328217E+02 -0.74178102074E+02  0.10083319761E+03  0.00000000000E+00 0.  1.
         13    1    4    4    0    0  0.22051647896E+01  0.60741225139E+02  0.15875677092E+01  0.60801969988E+02  0.00000000000E+00 0. -1.
         21    1    1    2  502  501 -0.20131001680E+02 -0.78512226320E+01  0.77220201127E+01  0.22946209275E+02  0.00000000000E+00 0. -1.
<scales pt_clust_5="13000.00000" pt_clust_6="13000.00000" pt_clust_7="13000.00000" pt_clust_8="13000.00000" pt_clust_9="21.60784"></scales>
<clustering>
<clus scale="   21.608">  1  9  2 -1</clus>
<clus scale="   80.558">  5  6 -1 -1</clus>
<clus scale="   87.283">  7  8 -1 -1</clus>
<clus scale="  133.083">  2  5  1 -1</clus>
<clus scale="   21.608">  1  5  2 -1</clus>
</clustering>
</event>
<event>
 9    1  0.2374319E-005  0.1505030E+03  0.7546771E-02  0.1202795E+00
         -2   -1    0    0    0  501 -0.00000000000E+00  0.00000000000E+00  0.30115821870E+02  0.30115821870E+02  0.00000000000E+00 0.  1.
          1   -1    0    0  502    0  0.00000000000E+00 -0.00000000000E+00 -0.10250277936E+04  0.10250277936E+04  0.00000000000E+00 0. -1.
         23    2    1    2    0    0  0.41849761446E+02  0.95910018407E+02 -0.28963982792E+03  0.32228502665E+03  0.95006706712E+02 0.  0.
        -24    2    1    2    0    0 -0.44766195804E+02 -0.13326749753E+03 -0.58520207273E+03  0.60707739466E+03  0.79481186404E+02 0.  0.
         11    1    4    4    0    0 -0.62928315836E+02 -0.65645115871E+02 -0.35503786221E+03  0.36649848264E+03  0.00000000000E+00 0. -1.
        -12    1    4    4    0    0  0.18162120032E+02 -0.67622381662E+02 -0.23016421052E+03  0.24057891202E+03  0.00000000000E+00 0.  1.
        -13    1    3    3    0    0  0.77418294042E+01  0.40380187202E+02 -0.21614500208E+02  0.46450856399E+02  0.00000000000E+00 0.  1.
         13    1    3    3    0    0  0.34107932041E+02  0.55529831205E+02 -0.26802532771E+03  0.27583417025E+03  0.00000000000E+00 0. -1.
         21    1    1    2  502  501  0.29164343581E+01  0.37357479125E+02 -0.12007007108E+03  0.12578119416E+03  0.00000000000E+00 0. -1.
<scales pt_clust_5="13000.00000" pt_clust_6="13000.00000" pt_clust_7="13000.00000" pt_clust_8="13000.00000" pt_clust_9="37.47115"></scales>
<clustering>
<clus scale="   37.471">  2  9  1 -1</clus>
<clus scale="   79.481">  5  6 -1 -1</clus>
<clus scale="   95.007">  7  8 -1 -1</clus>
<clus scale="  141.217">  2  5  1 -1</clus>
<clus scale="   37.471">  2  5  1 -1</clus>
</clustering>
</event>
<event>
 9    1  0.2374319E-005  0.1748077E+03  0.7546771E-02  0.1174104E+00
          1   -1    0    0  502    0  0.00000000000E+00  0.00000000000E+00  0.75345337802E+03  0.75345337802E+03  0.00000000000E+00 0. -1.
         -2   -1    0    0    0  501 -0.00000000000E+00 -0.00000000000E+00 -0.11423465647E+03  0.11423465647E+03  0.00000000000E+00 0.  1.
        -24    2    1    2    0    0 -0.49112970793E+02 -0.17642374156E+03  0.21585446364E+02  0.20102670104E+03  0.80052373786E+02 0.  0.
         23    2    1    2    0    0  0.18035056040E+02  0.14482697129E+03  0.59023404899E+03  0.61455653258E+03  0.89461635880E+02 0.  0.
         11    1    3    3    0    0 -0.46693761496E+02 -0.65517615948E+02 -0.19408537710E+02  0.82762048659E+02  0.00000000000E+00 0. -1.
        -12    1    3    3    0    0 -0.24192092978E+01 -0.11090612561E+03  0.40993984074E+02  0.11826465238E+03  0.00000000000E+00 0.  1.
        -11    1    4    4    0    0  0.23608625398E+02  0.70389581666E+02  0.14288353318E+03  0.16102100625E+03  0.00000000000E+00 0.  1.
         11    1    4    4    0    0 -0.55735693581E+01  0.74437389619E+02  0.44735051581E+03  0.45353552633E+03  0.00000000000E+00 0. -1.
         21    1    1    2  502  501  0.31077914754E+02  0.31596770273E+02  0.27399226197E+02  0.52104800866E+02  0.00000000000E+00 0. -1.
<scales pt_clust_5="13000.00000" pt_clust_6="13000.00000" pt_clust_7="13000.00000" pt_clust_8="13000.00000" pt_clust_9="44.31921"></scales>
<clustering>
<clus scale="   44.319">  2  9  1 -1</clus>
<clus scale="   80.052">  5  6 -1 -1</clus>
<clus scale="   89.462">  7  8 -1 -1</clus>
<clus scale="  170.184">  2  5  1 -1</clus>
<clus scale="  174.808">  1  5  2 -1</clus>
</clustering>
</event>
<event>
 9    1  0.2374319E-005  0.4032754E+03  0.7546771E-02  0.1079005E+00
         -2   -1    0    0    0  501 -0.00000000000E+00  0.00000000000E+00  0.87493270698E+03  0.87493270698E+03  0.00000000000E+00 0.  1.
          1   -1    0    0  502    0  0.00000000000E+00 -0.00000000000E+00 -0.16326220847E+04  0.16326220847E+04  0.00000000000E+00 0. -1.
        -24    2    1    2    0    0  0.90316026538E+02 -0.85990227876E+02  0.18733738035E+03  0.23750801493E+03  0.75917449490E+02 0.  0.
         23    2    1    2    0    0  0.30532118210E+03  0.95509566794E+02  0.59395540156E+03  0.68099501349E+03  0.92887500633E+02 0.  0.
         13    1    3    3    0    0 -0.27657935701E+01 -0.41383879860E+02  0.68746683258E+02  0.80289361595E+02  0.00000000000E+00 0. -1.
        -14    1    3    3    0    0  0.93081820108E+02 -0.44606348016E+02  0.11859069710E+03  0.15721865333E+03  0.00000000000E+00 0.  1.
        -13    1    4    4    0    0  0.16053735393E+03  0.55187622624E+02  0.40793367348E+03  0.44184589809E+03  0.00000000000E+00 0.  1.
         13    1    4    4    0    0  0.14478382817E+03  0.40321944170E+02  0.18602172807E+03  0.23914911540E+03  0.00000000000E+00 0. -1.
         21    1    1    2  502  501 -0.39563720864E+03 -0.95193389183E+01 -0.15389821596E+04  0.15890517632E+04  0.00000000000E+00 0. -1.
<scales pt_clust_5="13000.00000" pt_clust_6="13000.00000" pt_clust_7="13000.00000" pt_clust_8="13000.00000" pt_clust_9="392.43215"></scales>
<clustering>
<clus scale="   75.917">  5  6 -1 -1</clus>
<clus scale="   92.888">  7  8 -1 -1</clus>
<clus scale="  145.996">  1  5  2 -1</clus>
<clus scale="  392.432">  2  9  1 -1</clus>
<clus scale="  392.432">  2  5  1 -1</clus>
</clustering>
</event>
<event>
 9    1  0.2374319E-005  0.1182417E+03  0.7546771E-02  0.1249835E+00
         -2   -1    0    0    0  501 -0.00000000000E+00  0.00000000000E+00  0.39866274072E+03  0.39866274072E+03  0.00000000000E+00 0.  1.
          1   -1    0    0  502    0  0.00000000000E+00 -0.00000000000E+00 -0.16227366518E+03  0.16227366518E+03  0.00000000000E+00 0. -1.
        -24    2    1    2    0    0  0.41940127593E+02 -0.65396135215E+02  0.33225472982E+03  0.35049428560E+03  0.80108738259E+02 0.  0.
         23    2    1    2    0    0 -0.20752957899E+02  0.54851641299E+02  0.29460385144E+01  0.10883585502E+03  0.91636108493E+02 0.  0.
         13    1    3    3    0    0  0.35829040311E+02 -0.41861949720E+01  0.50242353975E+02  0.61850937672E+02  0.00000000000E+00 0. -1.
        -14    1    3    3    0    0  0.61110872827E+01 -0.61209940243E+02  0.28201237584E+03  0.28864334792E+03  0.00000000000E+00 0.  1.
        -11    1    4    4    0    0 -0.11694195980E+01  0.61227376106E+02  0.35150047521E+02  0.70609383001E+02  0.00000000000E+00 0.  1.
         11    1    4    4    0    0 -0.19583538301E+02 -0.63757348070E+01 -0.32204009007E+02  0.38226472016E+02  0.00000000000E+00 0. -1.
         21    1    1    2  502  501 -0.21187169695E+02  0.10544493916E+02 -0.98811692797E+02  0.10160626528E+03  0.00000000000E+00 0. -1.
<scales pt_clust_5="13000.00000" pt_clust_6="13000.00000" pt_clust_7="13000.00000" pt_clust_8="13000.00000" pt_clust_9="23.66606"></scales>
<clustering>
<clus scale="   23.666">  2  9  1 -1</clus>
<clus scale="   80.109">  5  6 -1 -1</clus>
<clus scale="   91.636">  7  8 -1 -1</clus>
<clus scale="  109.551">  1  5  2 -1</clus>
<clus scale="   23.666">  2  5  1 -1</clus>
</clustering>
</event>
<event>
 9    1  0.2374319E-005  0.1790826E+03  0.7546771E-02  0.1170284E+00
          1   -1    0    0  502    0  0.00000000000E+00  0.00000000000E+00  0.17644530401E+03  0.17644530401E+03  0.00000000000E+00 0. -1.
         -2   -1    0    0    0  501 -0.00000000000E+00 -0.00000000000E+00 -0.38236370365E+03  0.38236370365E+03  0.00000000000E+00 0.  1.
        -24    2    1    2    0    0 -0.15543251658E+03  0.15546516594E+02 -0.30193455922E+03  0.34922975958E+03  0.79974905654E+02 0.  0.
         23    2    1    2    0    0  0.13412539821E+03 -0.19258839229E+02  0.80774153078E+02  0.18311997003E+03  0.92994270173E+02 0.  0.
         13    1    3    3    0    0 -0.29485293442E+02 -0.28756822834E+02 -0.57811117613E+02  0.70982129501E+02  0.00000000000E+00 0. -1.
        -14    1    3    3    0    0 -0.12594722313E+03  0.44303339429E+02 -0.24412344161E+03  0.27824763008E+03  0.00000000000E+00 0.  1.
        -13    1    4    4    0    0  0.10092695360E+03 -0.19431624337E+02  0.10111865409E+03  0.14418328680E+03  0.00000000000E+00 0. -1.
         13    1    4    4    0    0  0.33198444611E+02  0.17278510803E+00 -0.20344501016E+02  0.38936683229E+02  0.00000000000E+00 0.  1.
         21    1    1    2  502  501  0.21307118369E+02  0.37123226350E+01  0.15242006512E+02  0.26459278053E+02  0.00000000000E+00 0. -1.
<scales pt_clust_5="13000.00000" pt_clust_6="13000.00000" pt_clust_7="13000.00000" pt_clust_8="13000.00000" pt_clust_9="21.62810"></scales>
<clustering>
<clus scale="   21.628">  1  9  2 -1</clus>
<clus scale="   79.975">  5  6 -1 -1</clus>
<clus scale="   92.994">  7  8 -1 -1</clus>
<clus scale="  172.681">  2  5  1 -1</clus>
<clus scale="   21.628">  1  5  2 -1</clus>
</clustering>
</event>
<event>
 9    1  0.2374319E-005  0.9625791E+02  0.7546771E-02  0.1292497E+00
          1   -1    0    0  502    0  0.00000000000E+00  0.00000000000E+00  0.70762463025E+02  0.70762463025E+02  0.00000000000E+00 0. -1.
         -2   -1    0    0    0  501 -0.00000000000E+00 -0.00000000000E+00 -0.32677362836E+03  0.32677362836E+03  0.00000000000E+00 0.  1.
        -24    2    1    2    0    0 -0.86614899266E+01 -0.51686889882E+02 -0.21473074783E+03  0.23539581734E+03  0.80965058899E+02 0.  0.
         23    2    1    2    0    0 -0.38396867754E+01  0.35831839011E+01 -0.61871849191E+02  0.10834201192E+03  0.88782224706E+02 0.  0.
         13    1    3    3    0    0  0.33958065376E+02 -0.11538994403E+02 -0.59295961447E+02  0.69298698688E+02  0.00000000000E+00 0. -1.
        -14    1    3    3    0    0 -0.42619555302E+02 -0.40147895479E+02 -0.15543478638E+03  0.16609711865E+03  0.00000000000E+00 0.  1.
        -13    1    4    4    0    0  0.20801122676E+02 -0.23348061883E+02  0.54683187192E+01  0.31744624866E+02  0.00000000000E+00 0.  1.
         13    1    4    4    0    0 -0.24640809451E+02  0.26931245784E+02 -0.67340167910E+02  0.76597387057E+02  0.00000000000E+00 0. -1.
         21    1    1    2  502  501  0.12501176702E+02  0.48103705981E+02  0.20591431692E+02  0.53798262120E+02  0.00000000000E+00 0. -1.
<scales pt_clust_5="13000.00000" pt_clust_6="13000.00000" pt_clust_7="13000.00000" pt_clust_8="13000.00000" pt_clust_9="49.70157"></scales>
<clustering>
<clus scale="   49.702">  1  9  2 -1</clus>
<clus scale="   80.965">  5  6 -1 -1</clus>
<clus scale="   88.782">  7  8 -1 -1</clus>
<clus scale="   89.099">  2  5  1 -1</clus>
<clus scale="   49.702">  1  5  2 -1</clus>
</clustering>
</event>
<event>
 9    1  0.2374319E-005  0.9740598E+02  0.7546771E-02  0.1290932E+00
          1   -1    0    0  502    0  0.00000000000E+00  0.00000000000E+00  0.14681689740E+03  0.14681689740E+03  0.00000000000E+00 0. -1.
         -2   -1    0    0    0  501 -0.00000000000E+00 -0.00000000000E+00 -0.31748573013E+03  0.31748573013E+03  0.00000000000E+00 0.  1.
         23    2    1    2    0    0  0.18792056284E+02  0.27130223921E+02 -0.22890699961E+03  0.24897395428E+03  0.92197749472E+02 0.  0.
        -24    2    1    2    0    0  0.21506184665E+02  0.29008781870E+02  0.99875617970E+02  0.13464897613E+03  0.82771869039E+02 0.  0.
         13    1    4    4    0    0 -0.56203330246E+01  0.39802168933E+02  0.11848700853E+02  0.41906950581E+02  0.00000000000E+00 0. -1.
        -14    1    4    4    0    0  0.27126517690E+02 -0.10793387063E+02  0.88026917117E+02  0.92742025551E+02  0.00000000000E+00 0.  1.
        -13    1    3    3    0    0 -0.17850235867E+02 -0.15520698180E+02 -0.15492422714E+02  0.28276105709E+02  0.00000000000E+00 0.  1.
         13    1    3    3    0    0  0.36642292152E+02  0.42650922100E+02 -0.21341457690E+03  0.22069784857E+03  0.00000000000E+00 0. -1.
         21    1    1    2  502  501 -0.40298240950E+02 -0.56139005791E+02 -0.41637451082E+02  0.80679697120E+02  0.00000000000E+00 0.  1.
<scales pt_clust_5="13000.00000" pt_clust_6="13000.00000" pt_clust_7="13000.00000" pt_clust_8="13000.00000" pt_clust_9="69.10525"></scales>
<clustering>
<clus scale="   69.105">  2  9  1 -1</clus>
<clus scale="   82.772">  5  6 -1 -1</clus>
<clus scale="   88.536">  1  5  2 -1</clus>
<clus scale="   92.198">  7  8 -1 -1</clus>
<clus scale="   88.536">  1  5  2 -1</clus>
</clustering>
</event>
<event>
 9    1  0.2374319E-005  0.9732890E+02  0.7546771E-02  0.1296091E+00
         -2   -1    0    0    0  501 -0.00000000000E+00  0.00000000000E+00  0.50619674413E+03  0.50619674413E+03  0.00000000000E+00 0.  1.
          1   -1    0    0  502    0  0.00000000000E+00 -0.00000000000E+00 -0.54657606447E+02  0.54657606447E+02  0.00000000000E+00 0. -1.
        -24    2    1    2    0    0  0.33053034683E+02  0.57755380449E+02  0.31479459432E+03  0.33141387864E+03  0.79443912726E+02 0.  0.
         23    2    1    2    0    0 -0.30471969844E+01 -0.25168809098E+01  0.22481902524E+02  0.99027308418E+02  0.96360530158E+02 0.  0.
         11    1    3    3    0    0 -0.23792002963E+02  0.20759180299E+01  0.64770829454E+02  0.69033536697E+02  0.00000000000E+00 0. -1.
        -12    1    3    3    0    0  0.56845037647E+02  0.55679462419E+02  0.25002376486E+03  0.26238034194E+03  0.00000000000E+00 0.  1.
        -13    1    4    4    0    0 -0.11324138554E+02 -0.48330879283E+02  0.80665167638E+01  0.50290940526E+02  0.00000000000E+00 0.  1.
         13    1    4    4    0    0  0.82769415700E+01  0.45813998373E+02  0.14415385760E+02  0.48736367892E+02  0.00000000000E+00 0. -1.
         21    1    1    2  502  501 -0.30005837699E+02 -0.55238499539E+02  0.11426264084E+03  0.13041316352E+03  0.00000000000E+00 0.  1.
<scales pt_clust_5="13000.00000" pt_clust_6="13000.00000" pt_clust_7="13000.00000" pt_clust_8="13000.00000" pt_clust_9="62.86209"></scales>
<clustering>
<clus scale="   62.862">  1  9  2 -1</clus>
<clus scale="   79.444">  5  6 -1 -1</clus>
<clus scale="   80.616">  1  5  2 -1</clus>
<clus scale="   96.361">  7  8 -1 -1</clus>
<clus scale="   97.329">  2  5  1 -1</clus>
</clustering>
</event>
<event>
 9    1  0.2374319E-005  0.1119026E+03  0.7546771E-02  0.1260086E+00
         -2   -1    0    0    0  501 -0.00000000000E+00  0.00000000000E+00  0.25918844082E+02  0.25918844082E+02  0.00000000000E+00 0.  1.
          1   -1    0    0  502    0  0.00000000000E+00 -0.00000000000E+00 -0.65571050519E+03  0.65571050519E+03  0.00000000000E+00 0. -1.
         23    2    1    2    0    0  0.35162032792E+02 -0.56328205868E+02 -0.26478460411E+03  0.28752164133E+03  0.90269442978E+02 0.  0.
        -24    2    1    2    0    0 -0.64599419355E+02  0.30339600389E+02 -0.25306181664E+03  0.27547506411E+03  0.82174519002E+02 0.  0.
         11    1    4    4    0    0 -0.44967722088E+02  0.36461799535E+02 -0.24748790262E+03  0.25416888244E+03  0.00000000000E+00 0. -1.
        -12    1    4    4    0    0 -0.19631697268E+02 -0.61221991460E+01 -0.55739140159E+01  0.21306181672E+02  0.00000000000E+00 0.  1.
        -13    1    3    3    0    0  0.50553650949E+02 -0.72247915943E+02 -0.22958256677E+03  0.24593411302E+03  0.00000000000E+00 0. -1.
         13    1    3    3    0    0 -0.15391618157E+02  0.15919710076E+02 -0.35202037337E+02  0.41587528312E+02  0.00000000000E+00 0.  1.
         21    1    1    2  502  501  0.29437386563E+02  0.25988605479E+02 -0.11194524036E+03  0.11863264383E+03  0.00000000000E+00 0.  1.
<scales pt_clust_5="13000.00000" pt_clust_6="13000.00000" pt_clust_7="13000.00000" pt_clust_8="13000.00000" pt_clust_9="39.26789"></scales>
<clustering>
<clus scale="   39.268">  2  9  1 -1</clus>
<clus scale="   82.175">  5  6 -1 -1</clus>
<clus scale="   90.269">  7  8 -1 -1</clus>
<clus scale="  105.481">  2  5  1 -1</clus>
<clus scale="   39.268">  2  5  1 -1</clus>
</clustering>
</event>
<event>
 9    1  0.2374319E-005  0.1695164E+03  0.7546771E-02  0.1179780E+00
          1   -1    0    0  502    0  0.00000000000E+00  0.00000000000E+00  0.40046471779E+03  0.40046471779E+03  0.00000000000E+00 0. -1.
         -2   -1    0    0    0  501 -0.00000000000E+00 -0.00000000000E+00 -0.11582472545E+03  0.11582472545E+03  0.00000000000E+00 0.  1.
        -24    2    1    2    0    0  0.29313661708E+02 -0.16432365746E+03  0.41966762510E+02  0.19007332961E+03  0.80654239246E+02 0.  0.
         23    2    1    2    0    0 -0.51143029967E+02  0.91506235065E+02  0.18216845506E+03  0.22905786080E+03  0.91066772236E+02 0.  0.
         13    1    3    3    0    0  0.40024347662E+02 -0.87006817069E+02  0.55741854813E+02  0.11081195333E+03  0.00000000000E+00 0. -1.
        -14    1    3    3    0    0 -0.10710685954E+02 -0.77316840394E+02 -0.13775092303E+02  0.79261376282E+02  0.00000000000E+00 0.  1.
        -13    1    4    4    0    0 -0.22414692306E+02  0.50673682305E+02  0.19245548511E+02  0.58656897693E+02  0.00000000000E+00 0.  1.
         13    1    4    4    0    0 -0.28728337662E+02  0.40832552760E+02  0.16292290655E+03  0.17040096311E+03  0.00000000000E+00 0. -1.
         21    1    1    2  502  501  0.21829368260E+02  0.72817422399E+02  0.60504774767E+02  0.97158252830E+02  0.00000000000E+00 0. -1.
<scales pt_clust_5="13000.00000" pt_clust_6="13000.00000" pt_clust_7="13000.00000" pt_clust_8="13000.00000" pt_clust_9="76.01907"></scales>
<clustering>
<clus scale="   76.019">  1  9  2 -1</clus>
<clus scale="   80.654">  5  6 -1 -1</clus>
<clus scale="   91.067">  7  8 -1 -1</clus>
<clus scale="  164.158">  2  5  1 -1</clus>
<clus scale="   76.019">  1  5  2 -1</clus>
</clustering>
</event>
<event>
 9    1  0.2374319E-005  0.1080585E+03  0.7546771E-02  0.1269500E+00
          1   -1    0    0  502    0  0.00000000000E+00  0.00000000000E+00  0.35825532319E+02  0.35825532319E+02  0.00000000000E+00 0. -1.
         -2   -1    0    0    0  501 -0.00000000000E+00 -0.00000000000E+00 -0.55780426660E+03  0.55780426660E+03  0.00000000000E+00 0.  1.
        -24    2    1    2    0    0  0.45408807543E+02 -0.24438416176E+02 -0.35440307686E+03  0.36687485041E+03  0.79601626830E+02 0.  0.
         23    2    1    2    0    0 -0.59827181114E+02 -0.68962920848E+01 -0.91413605350E+02  0.14314626705E+03  0.92236414082E+02 0.  0.
         11    1    3    3    0    0 -0.19534419714E+02  0.57609075870E+01 -0.12192720238E+03  0.12361644021E+03  0.00000000000E+00 0. -1.
        -12    1    3    3    0    0  0.64943227257E+02 -0.30199323763E+02 -0.23247587448E+03  0.24325841021E+03  0.00000000000E+00 0.  1.
        -13    1    4    4    0    0 -0.17205668939E-01  0.29905404520E+02 -0.27366050113E+01  0.30030360013E+02  0.00000000000E+00 0.  1.
         13    1    4    4    0    0 -0.59809975445E+02 -0.36801696604E+02 -0.88677000338E+02  0.11311590704E+03  0.00000000000E+00 0. -1.
         21    1    1    2  502  501  0.14418373571E+02  0.31334708261E+02 -0.76162052077E+02  0.83608681456E+02  0.00000000000E+00 0. -1.
<scales pt_clust_5="13000.00000" pt_clust_6="13000.00000" pt_clust_7="13000.00000" pt_clust_8="13000.00000" pt_clust_9="34.49280"></scales>
<clustering>
<clus scale="   34.493">  2  9  1 -1</clus>
<clus scale="   79.602">  5  6 -1 -1</clus>
<clus scale="   92.236">  7  8 -1 -1</clus>
<clus scale="   97.496">  2  5  1 -1</clus>
<clus scale="  108.058">  1  5  2 -1</clus>
</clustering>
</event>
<event>
 9    1  0.2374319E-005  0.9508545E+02  0.7546771E-02  0.1297120E+00
         -2   -1    0    0    0  501 -0.00000000000E+00  0.00000000000E+00  0.27884836149E+03  0.27884836149E+03  0.00000000000E+00 0.  1.
          1   -1    0    0  502    0  0.00000000000E+00 -0.00000000000E+00 -0.63583017374E+02  0.63583017374E+02  0.00000000000E+00 0. -1.
        -24    2    1    2    0    0  0.10646869878E+02 -0.26865067408E+02  0.19291284345E+03  0.21113743851E+03  0.80799536446E+02 0.  0.
         23    2    1    2    0    0  0.17984989736E+02  0.19823403872E+02  0.31510013631E+02  0.10041954232E+03  0.91513804011E+02 0.  0.
         11    1    3    3    0    0  0.77359442352E+01 -0.52427687066E+02  0.16441121747E+03  0.17274129684E+03  0.00000000000E+00 0. -1.
        -12    1    3    3    0    0  0.29109256430E+01  0.25562619658E+02  0.28501625972E+02  0.38396141667E+02  0.00000000000E+00 0.  1.
        -11    1    4    4    0    0 -0.57302803955E+01  0.52626004351E+02  0.77986599229E+01  0.53508424982E+02  0.00000000000E+00 0.  1.
         11    1    4    4    0    0  0.23715270131E+02 -0.32802600479E+02  0.23711353708E+02  0.46911117342E+02  0.00000000000E+00 0. -1.
         21    1    1    2  502  501 -0.28631859614E+02  0.70416635360E+01 -0.91575129567E+01  0.30874398033E+02  0.00000000000E+00 0.  1.
<scales pt_clust_5="13000.00000" pt_clust_6="13000.00000" pt_clust_7="13000.00000" pt_clust_8="13000.00000" pt_clust_9="29.48505"></scales>
<clustering>
<clus scale="   29.485">  2  9  1 -1</clus>
<clus scale="   80.800">  5  6 -1 -1</clus>
<clus scale="   84.824">  1  5  2 -1</clus>
<clus scale="   91.514">  7  8 -1 -1</clus>
<clus scale="   29.485">  2  5  1 -1</clus>
</clustering>
</event>
<event>
 9    1  0.2374319E-005  0.1899969E+03  0.7546771E-02  0.1182993E+00
          1   -1    0    0  502    0  0.00000000000E+00  0.00000000000E+00  0.18707166029E+03  0.18707166029E+03  0.00000000000E+00 0. -1.
         -2   -1    0    0    0  501 -0.00000000000E+00 -0.00000000000E+00 -0.72117252225E+03  0.72117252225E+03  0.00000000000E+00 0.  1.
        -24    2    1    2    0    0 -0.69975971329E+02  0.18491715149E+02 -0.51173120655E+03  0.52310366461E+03  0.80808638668E+02 0.  0.
         23    2    1    2    0    0 -0.11881828192E+03 -0.30124555003E+02 -0.99058792126E+02  0.18103315228E+03  0.89079094025E+02 0.  0.
         13    1    3    3    0    0 -0.47385106440E+02 -0.12664721056E+02 -0.12220110449E+03  0.13167708005E+03  0.00000000000E+00 0. -1.
        -14    1    3    3    0    0 -0.22590864889E+02  0.31156436205E+02 -0.38953010206E+03  0.39142658456E+03  0.00000000000E+00 0.  1.
        -13    1    4    4    0    0 -0.39226072476E+02  0.31939324341E+02 -0.34158716691E+02  0.61037882722E+02  0.00000000000E+00 0.  1.
         13    1    4    4    0    0 -0.79592209447E+02 -0.62063879344E+02 -0.64900075435E+02  0.11999526955E+03  0.00000000000E+00 0. -1.
         21    1    1    2  502  501  0.18879425325E+03  0.11632839853E+02  0.76689136708E+02  0.20410736565E+03  0.00000000000E+00 0. -1.
<scales pt_clust_5="13000.00000" pt_clust_6="13000.00000" pt_clust_7="13000.00000" pt_clust_8="13000.00000" pt_clust_9="167.82053"></scales>
<clustering>
<clus scale="   80.809">  5  6 -1 -1</clus>
<clus scale="   89.079">  7  8 -1 -1</clus>
<clus scale="  108.483">  2  5  1 -1</clus>
<clus scale="  167.821">  1  9  2 -1</clus>
<clus scale="  167.821">  1  5  2 -1</clus>
</clustering>
</event>
<event>
 9    1  0.2374319E-005  0.9950973E+02  0.7546771E-02  0.1289521E+00
          1   -1    0    0  502    0  0.00000000000E+00  0.00000000000E+00  0.43540090832E+03  0.43540090832E+03  0.00000000000E+00 0. -1.
         -2   -1    0    0    0  501 -0.00000000000E+00 -0.00000000000E+00 -0.72791347238E+02  0.72791347238E+02  0.00000000000E+00 0.  1.
         23    2    1    2    0    0  0.10839401434E+02 -0.25956760518E+02 -0.23231012547E+02  0.10206427659E+03  0.95321511587E+02 0.  0.
        -24    2    1    2    0    0 -0.42155942448E+02  0.14822684306E+02  0.30956971668E+03  0.32292979982E+03  0.80333123135E+02 0.  0.
         11    1    4    4    0    0 -0.55332778373E+02  0.34591036798E+02  0.18646647213E+03  0.19755505921E+03  0.00000000000E+00 0. -1.
        -12    1    4    4    0    0  0.13176835925E+02 -0.19768352493E+02  0.12310324455E+03  0.12537474061E+03  0.00000000000E+00 0.  1.
        -13    1    3    3    0    0 -0.31599202173E+02 -0.14106890125E+01  0.19391003890E+02  0.37101356489E+02  0.00000000000E+00 0. -1.
         13    1    3    3    0    0  0.42438603606E+02 -0.24546071506E+02 -0.42622016437E+02  0.64962920098E+02  0.00000000000E+00 0.  1.
         21    1    1    2  502  501  0.31316541015E+02  0.11134076212E+02  0.76270856945E+02  0.83198179147E+02  0.00000000000E+00 0. -1.
<scales pt_clust_5="13000.00000" pt_clust_6="13000.00000" pt_clust_7="13000.00000" pt_clust_8="13000.00000" pt_clust_9="33.23693"></scales>
<clustering>
<clus scale="   33.237">  1  9  2 -1</clus>
<clus scale="   80.333">  5  6 -1 -1</clus>
<clus scale="   85.261">  1  5  2 -1</clus>
<clus scale="   95.322">  7  8 -1 -1</clus>
<clus scale="   33.237">  1  5  2 -1</clus>
</clustering>
</event>
<event>
 9    1  0.2374319E-005  0.1025141E+03  0.7546771E-02  0.1284327E+00
          1   -1    0    0  502    0  0.00000000000E+00  0.00000000000E+00  0.21208172906E+03  0.21208172906E+03  0.00000000000E+00 0. -1.
         -2   -1    0    0    0  501 -0.00000000000E+00 -0.00000000000E+00 -0.98649375980E+02  0.98649375980E+02  0.00000000000E+00 0.  1.
        -24    2    1    2    0    0  0.17936044979E+02  0.27528913153E+02 -0.55577126305E+02  0.10313736556E+03  0.80429823063E+02 0.  0.
         23    2    1    2    0    0 -0.30091549067E+01 -0.14024057610E+02  0.15132493251E+03  0.18079940484E+03  0.97895149962E+02 0.  0.
         13    1    3    3    0    0  0.38977600768E+02 -0.42979946187E+01 -0.46281926618E+01  0.39486026474E+02  0.00000000000E+00 0. -1.
        -14    1    3    3    0    0 -0.21041555789E+02  0.31826907772E+02 -0.50948933643E+02  0.63651339088E+02  0.00000000000E+00 0.  1.
        -13    1    4    4    0    0  0.32460779951E+02 -0.36703681548E+02  0.11570295556E+03  0.12565045324E+03  0.00000000000E+00 0. -1.
         13    1    4    4    0    0 -0.35469934858E+02  0.22679623938E+02  0.35621976954E+02  0.55148951603E+02  0.00000000000E+00 0.  1.
         21    1    1    2  502  501 -0.14926890073E+02 -0.13504855543E+02  0.17684546875E+02  0.26794334637E+02  0.00000000000E+00 0.  1.
<scales pt_clust_5="13000.00000" pt_clust_6="13000.00000" pt_clust_7="13000.00000" pt_clust_8="13000.00000" pt_clust_9="20.12941"></scales>
<clustering>
<clus scale="   20.129">  1  9  2 -1</clus>
<clus scale="   80.430">  5  6 -1 -1</clus>
<clus scale="   85.992">  2  5  1 -1</clus>
<clus scale="   97.895">  7  8 -1 -1</clus>
<clus scale="   20.129">  1  5  2 -1</clus>
</clustering>
</event>
<event>
 9    1  0.2374319E-005  0.1779543E+03  0.7546771E-02  0.1187417E+00
         -4   -1    0    0    0  501 -0.00000000000E+00  0.00000000000E+00  0.76091119517E+03  0.76091119517E+03  0.00000000000E+00 0.  1.
          3   -1    0    0  502    0  0.00000000000E+00 -0.00000000000E+00 -0.34406494239E+03  0.34406494239E+03  0.00000000000E+00 0. -1.
         23    2    1    2    0    0 -0.18626447317E+02 -0.74808157522E+02  0.14756421469E+03  0.18997020425E+03  0.91489212871E+02 0.  0.
        -24    2    1    2    0    0 -0.76820346845E+01 -0.79331227918E+02  0.56657522740E+03  0.57909772148E+03  0.89410431951E+02 0.  0.
         11    1    4    4    0    0 -0.20812239716E+02  0.81867098302E+01  0.47121676834E+02  0.52159600913E+02  0.00000000000E+00 0. -1.
        -12    1    4    4    0    0  0.13130205031E+02 -0.87517937748E+02  0.51945355056E+03  0.52693812056E+03  0.00000000000E+00 0.  1.
        -13    1    3    3    0    0  0.34488465628E+02 -0.50084424014E+02  0.81180229917E+02  0.10143043685E+03  0.00000000000E+00 0.  1.
         13    1    3    3    0    0 -0.53114912946E+02 -0.24723733508E+02  0.66383984778E+02  0.88539767397E+02  0.00000000000E+00 0. -1.
         21    1    1    2  502  501  0.26308482002E+02  0.15413938544E+03 -0.29729318931E+03  0.33590821183E+03  0.00000000000E+00 0. -1.
<scales pt_clust_5="13000.00000" pt_clust_6="13000.00000" pt_clust_7="13000.00000" pt_clust_8="13000.00000" pt_clust_9="153.86193"></scales>
<clustering>
<clus scale="   89.410">  5  6 -1 -1</clus>
<clus scale="   91.489">  7  8 -1 -1</clus>
<clus scale="  119.639">  1  7  2 -1</clus>
<clus scale="  153.862">  2  9  1 -1</clus>
<clus scale="  153.862">  2  5  1 -1</clus>
</clustering>
</event>
<event>
 9    1  0.2967393E-005  0.9904945E+02  0.7546771E-02  0.1284009E+00
          1   -1    0    0  502    0  0.00000000000E+00  0.00000000000E+00  0.56872604517E+03  0.56872604517E+03  0.00000000000E+00 0. -1.
         -2   -1    0    0    0  501 -0.00000000000E+00 -0.00000000000E+00 -0.24380060373E+03  0.24380060373E+03  0.00000000000E+00 0.  1.
         23    2    1    2    0    0  0.39149978585E+02 -0.18208769571E+02 -0.22001544200E+03  0.24140733843E+03  0.89478646721E+02 0.  0.
        -24    2    1    2    0    0  0.81217516072E+01  0.44604037935E+02  0.46168152349E+03  0.47180441890E+03  0.85988938329E+02 0.  0.
         11    1    4    4    0    0  0.33893119615E+02  0.58736509906E+02  0.32380076300E+03  0.33082571737E+03  0.00000000000E+00 0. -1.
        -12    1    4    4    0    0 -0.25771368007E+02 -0.14132471971E+02  0.13788076049E+03  0.14097870154E+03  0.00000000000E+00 0.  1.
        -13    1    3    3    0    0  0.19312990664E+02 -0.32773256821E+02 -0.21220563364E+03  0.21558828568E+03  0.00000000000E+00 0.  1.
         13    1    3    3    0    0  0.19836987920E+02  0.14564487250E+02 -0.78098083529E+01  0.25819052754E+02  0.00000000000E+00 0. -1.
         21    1    1    2  502  501 -0.47271730192E+02 -0.26395268364E+02  0.83259359948E+02  0.99314891564E+02  0.00000000000E+00 0.  1.
<scales pt_clust_5="13000.00000" pt_clust_6="13000.00000" pt_clust_7="13000.00000" pt_clust_8="13000.00000" pt_clust_9="54.14173"></scales>
<clustering>
<clus scale="   54.142">  1  9  2 -1</clus>
<clus scale="   85.989">  5  6 -1 -1</clus>
<clus scale="   89.479">  7  8 -1 -1</clus>
<clus scale="   95.909">  1  5  2 -1</clus>
<clus scale="   54.142">  1  5  2 -1</clus>
</clustering>
</event>
<event>
 9    1  0.2374319E-005  0.1054821E+03  0.7546771E-02  0.1275929E+00
         -2   -1    0    0    0  501 -0.00000000000E+00  0.00000000000E+00  0.50223285629E+03  0.50223285629E+03  0.00000000000E+00 0.  1.
          1   -1    0    0  502    0  0.00000000000E+00 -0.00000000000E+00 -0.55939763529E+02  0.55939763529E+02  0.00000000000E+00 0. -1.
        -24    2    1    2    0    0  0.31647046136E+02 -0.52743977662E+02  0.36432015208E+03  0.37772112696E+03  0.78489577849E+02 0.  0.
         23    2    1    2    0    0 -0.30993017441E-01  0.13395853021E+02  0.88796859055E+02  0.12951608681E+03  0.93327834677E+02 0.  0.
         13    1    3    3    0    0 -0.19288260183E+02 -0.39327356428E+02  0.11888964379E+03  0.12670211263E+03  0.00000000000E+00 0. -1.
        -14    1    3    3    0    0  0.50935306319E+02 -0.13416621235E+02  0.24543050829E+03  0.25101901433E+03  0.00000000000E+00 0.  1.
        -13    1    4    4    0    0 -0.71677776169E+00 -0.23613749038E+02  0.89426840239E+02  0.92494771036E+02  0.00000000000E+00 0.  1.
         13    1    4    4    0    0  0.68578474425E+00  0.37009602058E+02 -0.62998118385E+00  0.37021315772E+02  0.00000000000E+00 0. -1.
         21    1    1    2  502  501 -0.31616053119E+02  0.39348124642E+02 -0.68239183740E+01  0.50935406051E+02  0.00000000000E+00 0. -1.
<scales pt_clust_5="13000.00000" pt_clust_6="13000.00000" pt_clust_7="13000.00000" pt_clust_8="13000.00000" pt_clust_9="50.47623"></scales>
<clustering>
<clus scale="   50.476">  2  9  1 -1</clus>
<clus scale="   78.490">  5  6 -1 -1</clus>
<clus scale="   92.612">  1  5  2 -1</clus>
<clus scale="   93.328">  7  8 -1 -1</clus>
<clus scale="   50.476">  2  5  1 -1</clus>
</clustering>
</event>
<event>
 9    1  0.2374319E-005  0.1241674E+03  0.7546771E-02  0.1238501E+00
         -2   -1    0    0    0  501 -0.00000000000E+00  0.00000000000E+00  0.94303656907E+02  0.94303656907E+02  0.00000000000E+00 0.  1.
          1   -1    0    0  502    0  0.00000000000E+00 -0.00000000000E+00 -0.41553680625E+03  0.41553680625E+03  0.00000000000E+00 0. -1.
        -24    2    1    2    0    0  0.61457534835E+02  0.67293162919E+02  0.37781065818E+02  0.12627650226E+03  0.78822253995E+02 0.  0.
         23    2    1    2    0    0 -0.58264354932E+02 -0.46943609101E+02 -0.30323231574E+03  0.32410034983E+03  0.86560741441E+02 0.  0.
         11    1    3    3    0    0  0.18367542590E+02 -0.14764628414E+02 -0.51668600624E+01  0.24125864045E+02  0.00000000000E+00 0. -1.
        -12    1    3    3    0    0  0.43089992245E+02  0.82057791333E+02  0.42947925880E+02  0.10215063821E+03  0.00000000000E+00 0.  1.
        -13    1    4    4    0    0 -0.79234458289E+02 -0.41562032048E+02 -0.20781493659E+03  0.22625770652E+03  0.00000000000E+00 0. -1.
         13    1    4    4    0    0  0.20970103357E+02 -0.53815770537E+01 -0.95417379151E+02  0.97842643313E+02  0.00000000000E+00 0.  1.
         21    1    1    2  502  501 -0.31931799021E+01 -0.20349553818E+02 -0.55781899421E+02  0.59463611070E+02  0.00000000000E+00 0. -1.
<scales pt_clust_5="13000.00000" pt_clust_6="13000.00000" pt_clust_7="13000.00000" pt_clust_8="13000.00000" pt_clust_9="20.59856"></scales>
<clustering>
<clus scale="   20.599">  2  9  1 -1</clus>
<clus scale="   78.822">  5  6 -1 -1</clus>
<clus scale="   86.561">  7  8 -1 -1</clus>
<clus scale="  118.902">  1  5  2 -1</clus>
<clus scale="   20.599">  2  5  1 -1</clus>
</clustering>
</event>
<event>
 9    1  0.2374319E-005  0.9658087E+02  0.7546771E-02  0.1293780E+00
          1   -1    0    0  502    0  0.00000000000E+00  0.00000000000E+00  0.88033127589E+02  0.88033127589E+02  0.00000000000E+00 0. -1.
         -2   -1    0    0    0  501 -0.00000000000E+00 -0.00000000000E+00 -0.30330046875E+03  0.30330046875E+03  0.00000000000E+00 0.  1.
        -24    2    1    2    0    0  0.15807758943E+02  0.29904637571E+02 -0.23446370467E+03  0.25008509879E+03  0.80157066027E+02 0.  0.
         23    2    1    2    0    0 -0.26732389340E+02  0.31149041086E+01  0.37065563412E+02  0.10214675863E+03  0.91300498575E+02 0.  0.
         13    1    3    3    0    0  0.13515816609E+02 -0.22482200204E+02 -0.34382880184E+02  0.43247070124E+02  0.00000000000E+00 0. -1.
        -14    1    3    3    0    0  0.22919423339E+01  0.52386837775E+02 -0.20008082449E+03  0.20683802866E+03  0.00000000000E+00 0.  1.
        -13    1    4    4    0    0 -0.67035737474E+00  0.43330642570E+02  0.31754799147E+01  0.43452015342E+02  0.00000000000E+00 0.  1.
         13    1    4    4    0    0 -0.26062031965E+02 -0.40215738462E+02  0.33890083497E+02  0.58694743288E+02  0.00000000000E+00 0. -1.
         21    1    1    2  502  501  0.10924630397E+02 -0.33019541680E+02 -0.17869199904E+02  0.39101738929E+02  0.00000000000E+00 0. -1.
<scales pt_clust_5="13000.00000" pt_clust_6="13000.00000" pt_clust_7="13000.00000" pt_clust_8="13000.00000" pt_clust_9="34.77985"></scales>
<clustering>
<clus scale="   34.780">  1  9  2 -1</clus>
<clus scale="   80.157">  5  6 -1 -1</clus>
<clus scale="   86.123">  2  5  1 -1</clus>
<clus scale="   91.300">  7  8 -1 -1</clus>
<clus scale="   34.780">  1  5  2 -1</clus>
</clustering>
</event>
<event>
 9    1  0.2374319E-005  0.1029148E+03  0.7546771E-02  0.1279052E+00
         -2   -1    0    0    0  501 -0.00000000000E+00  0.00000000000E+00  0.40915533803E+03  0.40915533803E+03  0.00000000000E+00 0.  1.
          1   -1    0    0  502    0  0.00000000000E+00 -0.00000000000E+00 -0.12434956367E+03  0.12434956367E+03  0.00000000000E+00 0. -1.
        -24    2    1    2    0    0 -0.25981397639E+01  0.52618370018E+02  0.36407148139E+03  0.37644845434E+03  0.79937175454E+02 0.  0.
         23    2    1    2    0    0  0.68481092789E+01 -0.87616248583E+01 -0.46802016489E+02  0.10232649633E+03  0.90314010165E+02 0.  0.
         13    1    3    3    0    0  0.28929772932E+02  0.29725728762E+02  0.84036848160E+02  0.93716287597E+02  0.00000000000E+00 0. -1.
        -14    1    3    3    0    0 -0.31527912696E+02  0.22892641256E+02  0.28003463323E+03  0.28273216674E+03  0.00000000000E+00 0.  1.
        -13    1    4    4    0    0  0.29769270243E+02  0.32315997826E+02 -0.23630101295E+02  0.49889025381E+02  0.00000000000E+00 0.  1.
         13    1    4    4    0    0 -0.22921160964E+02 -0.41077622684E+02 -0.23171915194E+02  0.52437470945E+02  0.00000000000E+00 0. -1.
         21    1    1    2  502  501 -0.42499695149E+01 -0.43856745159E+02 -0.32463690545E+02  0.54729951038E+02  0.00000000000E+00 0. -1.
<scales pt_clust_5="13000.00000" pt_clust_6="13000.00000" pt_clust_7="13000.00000" pt_clust_8="13000.00000" pt_clust_9="44.06219"></scales>
<clustering>
<clus scale="   44.062">  2  9  1 -1</clus>
<clus scale="   79.937">  5  6 -1 -1</clus>
<clus scale="   90.314">  7  8 -1 -1</clus>
<clus scale="   93.940">  1  5  2 -1</clus>
<clus scale="   44.062">  2  5  1 -1</clus>
</clustering>
</event>
<event>
 9    1  0.2374319E-005  0.1002493E+03  0.7546771E-02  0.1285893E+00
         -2   -1    0    0    0  501 -0.00000000000E+00  0.00000000000E+00  0.40853427315E+03  0.40853427315E+03  0.00000000000E+00 0.  1.
          1   -1    0    0  502    0  0.00000000000E+00 -0.00000000000E+00 -0.47885194505E+02  0.47885194505E+02  0.00000000000E+00 0. -1.
        -24    2    1    2    0    0 -0.14210565130E+02  0.48117048442E+02  0.25491904959E+03  0.27197183908E+03  0.80422440272E+02 0.  0.
         23    2    1    2    0    0  0.15479694824E+02  0.54233522218E+01  0.47134833815E+02  0.10506512358E+03  0.92455145518E+02 0.  0.
         13    1    3    3    0    0 -0.43157571976E+02  0.81630170937E+01  0.14457435767E+03  0.15109915871E+03  0.00000000000E+00 0. -1.
        -14    1    3    3    0    0  0.28947006846E+02  0.39954031348E+02  0.11034469192E+03  0.12087268037E+03  0.00000000000E+00 0.  1.
        -11    1    4    4    0    0  0.33475976539E+02  0.38916167369E+02  0.42727871821E+02  0.66789071848E+02  0.00000000000E+00 0.  1.
         11    1    4    4    0    0 -0.17996281715E+02 -0.33492815148E+02  0.44069619938E+01  0.38276051731E+02  0.00000000000E+00 0. -1.
         21    1    1    2  502  501 -0.12691296941E+01 -0.53540400664E+02  0.58595195238E+02  0.79382504989E+02  0.00000000000E+00 0. -1.
<scales pt_clust_5="13000.00000" pt_clust_6="13000.00000" pt_clust_7="13000.00000" pt_clust_8="13000.00000" pt_clust_9="53.55544"></scales>
<clustering>
<clus scale="   53.555">  2  9  1 -1</clus>
<clus scale="   80.422">  5  6 -1 -1</clus>
<clus scale="   89.273">  1  5  2 -1</clus>
<clus scale="   92.455">  7  8 -1 -1</clus>
<clus scale="   53.555">  2  5  1 -1</clus>
</clustering>
</event>
<event>
 9    1  0.2374319E-005  0.2481031E+03  0.7546771E-02  0.1115019E+00
         -2   -1    0    0    0  501 -0.00000000000E+00  0.00000000000E+00  0.19501176277E+03  0.19501176277E+03  0.00000000000E+00 0.  1.
          1   -1    0    0  502    0  0.00000000000E+00 -0.00000000000E+00 -0.11995705829E+04  0.11995705829E+04  0.00000000000E+00 0. -1.
         23    2    1    2    0    0 -0.97543226742E+02  0.14175945153E+03  0.10941779486E+03  0.22312553766E+03  0.90566707684E+02 0.  0.
        -24    2    1    2    0    0  0.15157462126E+03 -0.18121362568E+03 -0.10484048639E+04  0.10777782192E+04  0.81485503476E+02 0.  0.
         13    1    4    4    0    0  0.77123183393E+02 -0.14926701486E+03 -0.74831991811E+03  0.76694936403E+03  0.00000000000E+00 0. -1.
        -14    1    4    4    0    0  0.74451437866E+02 -0.31946610827E+02 -0.30008494580E+03  0.31082885522E+03  0.00000000000E+00 0.  1.
        -11    1    3    3    0    0  0.23098227167E+00  0.29520413675E+02  0.58985565009E+02  0.65960632621E+02  0.00000000000E+00 0. -1.
         11    1    3    3    0    0 -0.97774209014E+02  0.11223903786E+03  0.50432229853E+02  0.15716490504E+03  0.00000000000E+00 0.  1.
         21    1    1    2  502  501 -0.54031394517E+02  0.39454174154E+02 -0.65571751035E+02  0.93678588725E+02  0.00000000000E+00 0.  1.
<scales pt_clust_5="13000.00000" pt_clust_6="13000.00000" pt_clust_7="13000.00000" pt_clust_8="13000.00000" pt_clust_9="66.90309"></scales>
<clustering>
<clus scale="   66.903">  1  9  2 -1</clus>
<clus scale="   81.486">  5  6 -1 -1</clus>
<clus scale="   90.567">  7  8 -1 -1</clus>
<clus scale="  244.934">  2  5  1 -1</clus>
<clus scale="  244.934">  2  5  1 -1</clus>
</clustering>
</event>
<event>
 9    1  0.2374319E-005  0.9143772E+02  0.7546771E-02  0.1300459E+00
          1   -1    0    0  502    0  0.00000000000E+00  0.00000000000E+00  0.11605421320E+03  0.11605421320E+03  0.00000000000E+00 0. -1.
         -2   -1    0    0    0  501 -0.00000000000E+00 -0.00000000000E+00 -0.18496845209E+03  0.18496845209E+03  0.00000000000E+00 0.  1.
        -24    2    1    2    0    0  0.24187435510E+02  0.12509155701E+02 -0.10780099154E+03  0.14116361329E+03  0.86974714298E+02 0.  0.
         23    2    1    2    0    0  0.26707573797E+02 -0.35170291732E+02  0.21151109377E+02  0.10139212032E+03  0.88784845084E+02 0.  0.
         13    1    3    3    0    0  0.93702552771E+01 -0.37545746264E+02 -0.40887029119E+02  0.56295949202E+02  0.00000000000E+00 0. -1.
        -14    1    3    3    0    0  0.14817180233E+02  0.50054901965E+02 -0.66913962421E+02  0.84867664087E+02  0.00000000000E+00 0.  1.
        -13    1    4    4    0    0  0.46901889034E+02  0.93448175789E+01  0.21678313428E+02  0.52507733560E+02  0.00000000000E+00 0.  1.
         13    1    4    4    0    0 -0.20194315237E+02 -0.44515109311E+02 -0.52720405125E+00  0.48884386760E+02  0.00000000000E+00 0. -1.
         21    1    1    2  502  501 -0.50895009307E+02  0.22661136031E+02  0.17735643272E+02  0.58466931687E+02  0.00000000000E+00 0. -1.
<scales pt_clust_5="13000.00000" pt_clust_6="13000.00000" pt_clust_7="13000.00000" pt_clust_8="13000.00000" pt_clust_9="55.71202"></scales>
<clustering>
<clus scale="   55.712">  1  9  2 -1</clus>
<clus scale="   86.975">  5  6 -1 -1</clus>
<clus scale="   88.785">  7  8 -1 -1</clus>
<clus scale="   89.681">  2  5  1 -1</clus>
<clus scale="   55.712">  1  5  2 -1</clus>
</clustering>
</event>
<event>
 9    1  0.2374319E-005  0.9762939E+02  0.7546771E-02  0.1290207E+00
          1   -1    0    0  502    0  0.00000000000E+00  0.00000000000E+00  0.80581988786E+02  0.80581988786E+02  0.00000000000E+00 0. -1.
         -2   -1    0    0    0  501 -0.00000000000E+00 -0.00000000000E+00 -0.27512733272E+03  0.27512733272E+03  0.00000000000E+00 0.  1.
        -24    2    1    2    0    0  0.53861063740E+01  0.38552252783E+02 -0.20392108348E+03  0.22318308205E+03  0.81924315612E+02 0.  0.
         23    2    1    2    0    0  0.11672292146E+02 -0.12058555967E+02  0.26917311393E+02  0.96462245309E+02  0.91097595696E+02 0.  0.
         11    1    3    3    0    0  0.34139672971E+02 -0.87973639358E+01 -0.75688093734E+02  0.83496098207E+02  0.00000000000E+00 0. -1.
        -12    1    3    3    0    0 -0.28753566597E+02  0.47349616719E+02 -0.12823298975E+03  0.13968698385E+03  0.00000000000E+00 0.  1.
        -11    1    4    4    0    0  0.10399161524E+02 -0.46919277683E+02  0.36429306914E+02  0.60304689544E+02  0.00000000000E+00 0. -1.
         11    1    4    4    0    0  0.12731306219E+01  0.34860721716E+02 -0.95119955217E+01  0.36157555766E+02  0.00000000000E+00 0.  1.
         21    1    1    2  502  501 -0.17058398520E+02 -0.26493696816E+02 -0.17541571845E+02  0.36063994147E+02  0.00000000000E+00 0.  1.
<scales pt_clust_5="13000.00000" pt_clust_6="13000.00000" pt_clust_7="13000.00000" pt_clust_8="13000.00000" pt_clust_9="31.51039"></scales>
<clustering>
<clus scale="   31.510">  1  9  2 -1</clus>
<clus scale="   81.924">  5  6 -1 -1</clus>
<clus scale="   89.131">  2  5  1 -1</clus>
<clus scale="   91.098">  7  8 -1 -1</clus>
<clus scale="   31.510">  1  5  2 -1</clus>
</clustering>
</event>
<event>
 9    1  0.2374319E-005  0.1138638E+03  0.7546771E-02  0.1258158E+00
         -4   -1    0    0    0  501 -0.00000000000E+00  0.00000000000E+00  0.62903799915E+02  0.62903799915E+02  0.00000000000E+00 0.  1.
          3   -1    0    0  502    0  0.00000000000E+00 -0.00000000000E+00 -0.58372926423E+03  0.58372926423E+03  0.00000000000E+00 0. -1.
         23    2    1    2    0    0 -0.65060038333E+02 -0.21706330628E+02 -0.30141390702E+01  0.11532650959E+03  0.92666851695E+02 0.  0.
        -24    2    1    2    0    0  0.44452353940E+02  0.26215387304E+02 -0.37494950841E+03  0.38689565829E+03  0.80236265177E+02 0.  0.
         11    1    4    4    0    0  0.53363004972E+02 -0.11120464704E+02 -0.26174377537E+03  0.26735945650E+03  0.00000000000E+00 0. -1.
        -12    1    4    4    0    0 -0.89106510320E+01  0.37335852007E+02 -0.11320573304E+03  0.11953620180E+03  0.00000000000E+00 0.  1.
        -13    1    3    3    0    0 -0.28344934061E+02  0.33163962144E+02  0.16246508145E+02  0.46553546578E+02  0.00000000000E+00 0. -1.
         13    1    3    3    0    0 -0.36715104272E+02 -0.54870292772E+02 -0.19260647215E+02  0.68772963014E+02  0.00000000000E+00 0.  1.
         21    1    1    2  502  501  0.20607684393E+02 -0.45090566756E+01 -0.14286181684E+03  0.14441089626E+03  0.00000000000E+00 0. -1.
<scales pt_clust_5="13000.00000" pt_clust_6="13000.00000" pt_clust_7="13000.00000" pt_clust_8="13000.00000" pt_clust_9="21.09522"></scales>
<clustering>
<clus scale="   21.095">  2  9  1 -1</clus>
<clus scale="   80.236">  5  6 -1 -1</clus>
<clus scale="   92.667">  7  8 -1 -1</clus>
<clus scale="  103.998">  2  5  1 -1</clus>
<clus scale="   21.095">  2  5  1 -1</clus>
</clustering>
</event>
<event>
 9    1  0.2374319E-005  0.1009611E+03  0.7546771E-02  0.1284660E+00
         -2   -1    0    0    0  501 -0.00000000000E+00  0.00000000000E+00  0.51238331427E+03  0.51238331427E+03  0.00000000000E+00 0.  1.
          1   -1    0    0  502    0  0.00000000000E+00 -0.00000000000E+00 -0.20736361929E+03  0.20736361929E+03  0.00000000000E+00 0. -1.
        -24    2    1    2    0    0 -0.37383779235E+02 -0.82267589835E+00  0.45289360814E+03  0.46149101907E+03  0.80393511208E+02 0.  0.
         23    2    1    2    0    0  0.65084682471E+02 -0.61120700760E+01 -0.63447512933E+01  0.11387470243E+03  0.93025903338E+02 0.  0.
         13    1    3    3    0    0  0.17892240163E+01  0.33394266226E+02  0.12057949542E+03  0.12513110347E+03  0.00000000000E+00 0. -1.
        -14    1    3    3    0    0 -0.39173003251E+02 -0.34216942125E+02  0.33231411271E+03  0.33635991560E+03  0.00000000000E+00 0.  1.
        -13    1    4    4    0    0  0.45224173208E+02  0.11138673010E+02  0.39466032687E+02  0.61048043497E+02  0.00000000000E+00 0.  1.
         13    1    4    4    0    0  0.19860509263E+02 -0.17250743086E+02 -0.45810783981E+02  0.52826658934E+02  0.00000000000E+00 0. -1.
         21    1    1    2  502  501 -0.27700903236E+02  0.69347459744E+01 -0.14152916186E+03  0.14438121207E+03  0.00000000000E+00 0. -1.
<scales pt_clust_5="13000.00000" pt_clust_6="13000.00000" pt_clust_7="13000.00000" pt_clust_8="13000.00000" pt_clust_9="28.55575"></scales>
<clustering>
<clus scale="   28.556">  2  9  1 -1</clus>
<clus scale="   80.394">  5  6 -1 -1</clus>
<clus scale="   89.456">  1  5  2 -1</clus>
<clus scale="   93.026">  7  8 -1 -1</clus>
<clus scale="   28.556">  2  5  1 -1</clus>
</clustering>
</event>
<event>
 9    1  0.2374319E-005  0.1979190E+03  0.7546771E-02  0.1177996E+00
         -2   -1    0    0    0  501 -0.00000000000E+00  0.00000000000E+00  0.36568380571E+03  0.36568380571E+03  0.00000000000E+00 0.  1.
          1   -1    0    0  502    0  0.00000000000E+00 -0.00000000000E+00 -0.17060237682E+03  0.17060237682E+03  0.00000000000E+00 0. -1.
        -24    2    1    2    0    0  0.79888578150E+02 -0.16016842276E+03  0.10523464529E+03  0.22777430667E+03  0.93651992172E+02 0.  0.
         23    2    1    2    0    0 -0.52974133375E+02 -0.12057092608E+02 -0.96447228066E+01  0.10780169842E+03  0.92609682080E+02 0.  0.
         13    1    3    3    0    0  0.55143922184E+02 -0.16735536334E+03  0.90414399159E+02  0.19804906808E+03  0.00000000000E+00 0. -1.
        -14    1    3    3    0    0  0.24744655965E+02  0.71869405723E+01  0.14820246135E+02  0.29725238588E+02  0.00000000000E+00 0.  1.
        -11    1    4    4    0    0 -0.39072503966E+02 -0.47603212628E+02  0.13659563714E+02  0.63081773117E+02  0.00000000000E+00 0.  1.
         11    1    4    4    0    0 -0.13901629409E+02  0.35546120020E+02 -0.23304286520E+02  0.44719925301E+02  0.00000000000E+00 0. -1.
         21    1    1    2  502  501 -0.26914444774E+02  0.17222551537E+03  0.99491506403E+02  0.20071017744E+03  0.00000000000E+00 0.  1.
<scales pt_clust_5="13000.00000" pt_clust_6="13000.00000" pt_clust_7="13000.00000" pt_clust_8="13000.00000" pt_clust_9="174.35951"></scales>
<clustering>
<clus scale="   92.610">  7  8 -1 -1</clus>
<clus scale="   93.652">  5  6 -1 -1</clus>
<clus scale="  107.369">  2  7  1 -1</clus>
<clus scale="  174.360">  1  9  2 -1</clus>
<clus scale="  107.369">  2  5  1 -1</clus>
</clustering>
</event>
<event>
 9    1  0.2374319E-005  0.1993105E+03  0.7546771E-02  0.1150945E+00
         -2   -1    0    0    0  501 -0.00000000000E+00  0.00000000000E+00  0.46631361434E+03  0.46631361434E+03  0.00000000000E+00 0.  1.
          1   -1    0    0  502    0  0.00000000000E+00 -0.00000000000E+00 -0.47398016252E+03  0.47398016252E+03  0.00000000000E+00 0. -1.
         23    2    1    2    0    0  0.83235720494E+02 -0.15478775685E+03  0.38932239215E+03  0.43607138180E+03  0.87743319744E+02 0.  0.
        -24    2    1    2    0    0 -0.13923070100E+03  0.18587335875E+03 -0.32983550013E+03  0.41142510513E+03  0.80901584605E+02 0.  0.
         11    1    4    4    0    0 -0.14005712829E+03  0.16674889510E+03 -0.32577758540E+03  0.39185740819E+03  0.00000000000E+00 0. -1.
        -12    1    4    4    0    0  0.82642728681E+00  0.19124463646E+02 -0.40579147346E+01  0.19567696946E+02  0.00000000000E+00 0.  1.
        -13    1    3    3    0    0  0.65300842922E+02 -0.87586165899E+02  0.31888671026E+03  0.33708199377E+03  0.00000000000E+00 0.  1.
         13    1    3    3    0    0  0.17934877572E+02 -0.67201590947E+02  0.70435681892E+02  0.98989388032E+02  0.00000000000E+00 0. -1.
         21    1    1    2  502  501  0.55994980506E+02 -0.31085601904E+02 -0.67153440193E+02  0.92797289924E+02  0.00000000000E+00 0. -1.
<scales pt_clust_5="13000.00000" pt_clust_6="13000.00000" pt_clust_7="13000.00000" pt_clust_8="13000.00000" pt_clust_9="64.04493"></scales>
<clustering>
<clus scale="   64.045">  2  9  1 -1</clus>
<clus scale="   80.902">  5  6 -1 -1</clus>
<clus scale="   87.743">  7  8 -1 -1</clus>
<clus scale="  196.395">  2  5  1 -1</clus>
<clus scale="   64.045">  2  5  1 -1</clus>
</clustering>
</event>
<event>
 9    1  0.2374319E-005  0.1627342E+03  0.7546771E-02  0.1202366E+00
         -2   -1    0    0    0  501 -0.00000000000E+00  0.00000000000E+00  0.34176707991E+03  0.34176707991E+03  0.00000000000E+00 0.  1.
          1   -1    0    0  502    0  0.00000000000E+00 -0.00000000000E+00 -0.38692314318E+03  0.38692314318E+03  0.00000000000E+00 0. -1.
        -24    2    1    2    0    0  0.78609890566E+02  0.13258374042E+02  0.24998839276E+03  0.27423821011E+03  0.79731424122E+02 0.  0.
         23    2    1    2    0    0 -0.20239171521E+01  0.11285324959E+03 -0.24275837862E+02  0.14600532189E+03  0.89377209239E+02 0.  0.
         11    1    3    3    0    0  0.69601055997E+01  0.31327876267E+02  0.12487909093E+03  0.12893667536E+03  0.00000000000E+00 0. -1.
        -12    1    3    3    0    0  0.71649784966E+02 -0.18069502224E+02  0.12510930183E+03  0.14530153475E+03  0.00000000000E+00 0.  1.
        -13    1    4    4    0    0  0.10392986029E+02  0.29524869660E+02  0.31942560967E+02  0.44722022407E+02  0.00000000000E+00 0. -1.
         13    1    4    4    0    0 -0.12416903181E+02  0.83328379932E+02 -0.56218398829E+02  0.10128329948E+03  0.00000000000E+00 0.  1.
         21    1    1    2  502  501 -0.76585973414E+02 -0.12611162363E+03 -0.27086861817E+03  0.30844669109E+03  0.00000000000E+00 0. -1.
<scales pt_clust_5="13000.00000" pt_clust_6="13000.00000" pt_clust_7="13000.00000" pt_clust_8="13000.00000" pt_clust_9="135.99309"></scales>
<clustering>
<clus scale="   79.731">  5  6 -1 -1</clus>
<clus scale="   89.377">  7  8 -1 -1</clus>
<clus scale="  112.749">  1  5  2 -1</clus>
<clus scale="  135.993">  2  9  1 -1</clus>
<clus scale="  135.993">  2  5  1 -1</clus>
</clustering>
</event>
<event>
 9    1  0.2374319E-005  0.1476343E+03  0.7546771E-02  0.1206036E+00
         -2   -1    0    0    0  501 -0.00000000000E+00  0.00000000000E+00  0.30180330198E+03  0.30180330198E+03  0.00000000000E+00 0.  1.
          1   -1    0    0  502    0  0.00000000000E+00 -0.00000000000E+00 -0.10907320923E+03  0.10907320923E+03  0.00000000000E+00 0. -1.
        -24    2    1    2    0    0 -0.92653558343E+02  0.58825414350E+02  0.18027808363E+03  0.22556570341E+03  0.79590124210E+02 0.  0.
         23    2    1    2    0    0  0.11019099396E+03 -0.71885638405E+02  0.22571457535E+01  0.16118475674E+03  0.93090444943E+02 0.  0.
         11    1    3    3    0    0 -0.37156379047E+02  0.65534959910E+02  0.13064741628E+03  0.15081171989E+03  0.00000000000E+00 0. -1.
        -12    1    3    3    0    0 -0.55497179296E+02 -0.67095455597E+01  0.49630667343E+02  0.74753983522E+02  0.00000000000E+00 0.  1.
        -13    1    4    4    0    0  0.60301987284E+01 -0.52489003432E+02 -0.12274843300E+02  0.54241409974E+02  0.00000000000E+00 0. -1.
         13    1    4    4    0    0  0.10416079523E+03 -0.19396634973E+02  0.14531989054E+02  0.10694334677E+03  0.00000000000E+00 0.  1.
         21    1    1    2  502  501 -0.17537435618E+02  0.13060224055E+02  0.10194863375E+02  0.24126051058E+02  0.00000000000E+00 0.  1.
<scales pt_clust_5="13000.00000" pt_clust_6="13000.00000" pt_clust_7="13000.00000" pt_clust_8="13000.00000" pt_clust_9="21.86621"></scales>
<clustering>
<clus scale="   21.866">  2  9  1 -1</clus>
<clus scale="   79.590">  5  6 -1 -1</clus>
<clus scale="   93.090">  7  8 -1 -1</clus>
<clus scale="  139.516">  1  5  2 -1</clus>
<clus scale="   21.866">  2  5  1 -1</clus>
</clustering>
</event>
<event>
 9    1  0.2374319E-005  0.1037214E+03  0.7546771E-02  0.1278746E+00
         -2   -1    0    0    0  501 -0.00000000000E+00  0.00000000000E+00  0.15936454808E+02  0.15936454808E+02  0.00000000000E+00 0.  1.
          1   -1    0    0  502    0  0.00000000000E+00 -0.00000000000E+00 -0.15100503711E+04  0.15100503711E+04  0.00000000000E+00 0. -1.
         23    2    1    2    0    0  0.40618505492E+02 -0.26315707623E+02 -0.21021490275E+03  0.23497899342E+03  0.93179625217E+02 0.  0.
        -24    2    1    2    0    0 -0.59080930690E+01  0.46550735280E+02 -0.99366659152E+03  0.99800761428E+03  0.80274694267E+02 0.  0.
         13    1    4    4    0    0  0.20828746649E+02  0.36885278428E+02 -0.23360733205E+03  0.23741681920E+03  0.00000000000E+00 0. -1.
        -14    1    4    4    0    0 -0.26736839718E+02  0.96654568511E+01 -0.76005925947E+03  0.76059079508E+03  0.00000000000E+00 0.  1.
        -13    1    3    3    0    0  0.46783340222E+02 -0.55551127313E+02 -0.17013456360E+03  0.18498750877E+03  0.00000000000E+00 0.  1.
         13    1    3    3    0    0 -0.61648347302E+01  0.29235419690E+02 -0.40080339140E+02  0.49991484648E+02  0.00000000000E+00 0. -1.
         21    1    1    2  502  501 -0.34710412423E+02 -0.20235027657E+02 -0.29023242199E+03  0.29300021818E+03  0.00000000000E+00 0. -1.
<scales pt_clust_5="13000.00000" pt_clust_6="13000.00000" pt_clust_7="13000.00000" pt_clust_8="13000.00000" pt_clust_9="40.17797"></scales>
<clustering>
<clus scale="   40.178">  2  9  1 -1</clus>
<clus scale="   80.275">  5  6 -1 -1</clus>
<clus scale="   92.302">  2  5  1 -1</clus>
<clus scale="   93.180">  7  8 -1 -1</clus>
<clus scale="   40.178">  2  5  1 -1</clus>
</clustering>
</event>
<event>
 9    1  0.2374319E-005  0.1107131E+03  0.7546771E-02  0.1262360E+00
          1   -1    0    0  502    0  0.00000000000E+00  0.00000000000E+00  0.40598004247E+03  0.40598004247E+03  0.00000000000E+00 0. -1.
         -2   -1    0    0    0  501 -0.00000000000E+00 -0.00000000000E+00 -0.53210611692E+02  0.53210611692E+02  0.00000000000E+00 0.  1.
        -24    2    1    2    0    0  0.31688402616E+01 -0.58499073456E+02  0.38474052156E+02  0.10706711350E+03  0.80937821567E+02 0.  0.
         23    2    1    2    0    0 -0.29745178626E+01  0.88458141204E+02  0.22213697445E+03  0.25521763289E+03  0.89204900195E+02 0.  0.
         11    1    3    3    0    0 -0.56935361748E+01 -0.67320182463E+02  0.54455974405E+02  0.86774860815E+02  0.00000000000E+00 0. -1.
        -12    1    3    3    0    0  0.88623764364E+01  0.88211090073E+01 -0.15981922249E+02  0.20292252684E+02  0.00000000000E+00 0.  1.
        -11    1    4    4    0    0 -0.34339733398E+02  0.23506098978E+02  0.13928029269E+03  0.14536421125E+03  0.00000000000E+00 0.  1.
         11    1    4    4    0    0  0.31365215536E+02  0.64952042227E+02  0.82856681758E+02  0.10985342164E+03  0.00000000000E+00 0. -1.
         21    1    1    2  502  501 -0.19432239897E+00 -0.29959067748E+02  0.92158404176E+02  0.96905907776E+02  0.00000000000E+00 0. -1.
<scales pt_clust_5="13000.00000" pt_clust_6="13000.00000" pt_clust_7="13000.00000" pt_clust_8="13000.00000" pt_clust_9="29.95970"></scales>
<clustering>
<clus scale="   29.960">  1  9  2 -1</clus>
<clus scale="   80.938">  5  6 -1 -1</clus>
<clus scale="   89.205">  7  8 -1 -1</clus>
<clus scale="  104.167">  2  5  1 -1</clus>
<clus scale="   29.960">  1  5  2 -1</clus>
</clustering>
</event>
<event>
 9    1  0.2374319E-005  0.1464182E+03  0.7546771E-02  0.1207708E+00
         -4   -1    0    0    0  501 -0.00000000000E+00  0.00000000000E+00  0.19247765756E+03  0.19247765756E+03  0.00000000000E+00 0.  1.
          3   -1    0    0  502    0  0.00000000000E+00 -0.00000000000E+00 -0.20917971466E+03  0.20917971466E+03  0.00000000000E+00 0. -1.
         23    2    1    2    0    0 -0.94677422290E+02 -0.74844294136E+02  0.11786357449E+03  0.19232699859E+03  0.92370826227E+02 0.  0.
        -24    2    1    2    0    0  0.84294521373E+02  0.36812430191E+02 -0.97873368899E+02  0.15547362431E+03  0.78307918932E+02 0.  0.
         13    1    4    4    0    0  0.39543012602E+02  0.78702871645E+01 -0.93711066210E+02  0.10201644571E+03  0.00000000000E+00 0. -1.
        -14    1    4    4    0    0  0.44751508771E+02  0.28942143027E+02 -0.41623026888E+01  0.53457178601E+02  0.00000000000E+00 0.  1.
        -11    1    3    3    0    0 -0.99404400140E+02 -0.25807727675E+02  0.78344463580E+02  0.12917092764E+03  0.00000000000E+00 0.  1.
         11    1    3    3    0    0  0.47269778494E+01 -0.49036566461E+02  0.39519110907E+02  0.63156070941E+02  0.00000000000E+00 0. -1.
         21    1    1    2  502  501  0.10382900917E+02  0.38031863944E+02 -0.36692262691E+02  0.53856749325E+02  0.00000000000E+00 0.  1.
<scales pt_clust_5="13000.00000" pt_clust_6="13000.00000" pt_clust_7="13000.00000" pt_clust_8="13000.00000" pt_clust_9="39.42369"></scales>
<clustering>
<clus scale="   39.424">  2  9  1 -1</clus>
<clus scale="   78.308">  5  6 -1 -1</clus>
<clus scale="   92.371">  7  8 -1 -1</clus>
<clus scale="  137.978">  2  5  1 -1</clus>
<clus scale="   39.424">  2  5  1 -1</clus>
</clustering>
</event>
<event>
 9    1  0.2374319E-005  0.9327979E+02  0.7546771E-02  0.1299571E+00
          1   -1    0    0  502    0  0.00000000000E+00  0.00000000000E+00  0.39224529115E+03  0.39224529115E+03  0.00000000000E+00 0. -1.
         -2   -1    0    0    0  501 -0.00000000000E+00 -0.00000000000E+00 -0.86333200235E+02  0.86333200235E+02  0.00000000000E+00 0.  1.
        -24    2    1    2    0    0 -0.42376251494E+01 -0.23864136442E+02 -0.39981539526E+02  0.95944062364E+02  0.83781174049E+02 0.  0.
         23    2    1    2    0    0 -0.38567181749E+01 -0.34410262771E+02  0.26628938195E+03  0.28364826648E+03  0.91363907957E+02 0.  0.
         13    1    3    3    0    0  0.68296351199E+01 -0.28384438345E+02  0.19607407929E+02  0.35167750877E+02  0.00000000000E+00 0. -1.
        -14    1    3    3    0    0 -0.11067260269E+02  0.45203019034E+01 -0.59588947455E+02  0.60776311487E+02  0.00000000000E+00 0.  1.
        -11    1    4    4    0    0  0.30014320616E+02  0.15593869883E+02  0.62096142111E+02  0.70710388806E+02  0.00000000000E+00 0. -1.
         11    1    4    4    0    0 -0.33871038791E+02 -0.50004132654E+02  0.20419323984E+03  0.21293787767E+03  0.00000000000E+00 0.  1.
         21    1    1    2  502  501  0.80943433243E+01  0.58274399213E+02  0.79604248489E+02  0.98986162543E+02  0.00000000000E+00 0. -1.
<scales pt_clust_5="13000.00000" pt_clust_6="13000.00000" pt_clust_7="13000.00000" pt_clust_8="13000.00000" pt_clust_9="58.83387"></scales>
<clustering>
<clus scale="   58.834">  1  9  2 -1</clus>
<clus scale="   83.781">  5  6 -1 -1</clus>
<clus scale="   85.866">  2  5  1 -1</clus>
<clus scale="   91.364">  7  8 -1 -1</clus>
<clus scale="   58.834">  1  5  2 -1</clus>
</clustering>
</event>
<event>
 9    1  0.2374319E-005  0.1704527E+03  0.7546771E-02  0.1179224E+00
          3   -1    0    0  502    0  0.00000000000E+00  0.00000000000E+00  0.30074300945E+03  0.30074300945E+03  0.00000000000E+00 0. -1.
         -4   -1    0    0    0  501 -0.00000000000E+00 -0.00000000000E+00 -0.13072112017E+03  0.13072112017E+03  0.00000000000E+00 0.  1.
        -24    2    1    2    0    0 -0.67250349252E+02 -0.15477327509E+03  0.64497152945E+02  0.19773300565E+03  0.80380859841E+02 0.  0.
         23    2    1    2    0    0  0.31028227986E+02  0.12184934338E+03  0.95972767753E+02  0.18385861197E+03  0.93718747496E+02 0.  0.
         13    1    3    3    0    0 -0.74655668467E+02 -0.11724025037E+03  0.75168468434E+02  0.15801596054E+03  0.00000000000E+00 0. -1.
        -14    1    3    3    0    0  0.74053192151E+01 -0.37533024725E+02 -0.10671315489E+02  0.39717045106E+02  0.00000000000E+00 0.  1.
        -11    1    4    4    0    0 -0.27883537228E+02  0.59694513487E+02  0.18640442788E+02  0.68471838709E+02  0.00000000000E+00 0.  1.
         11    1    4    4    0    0  0.58911765214E+02  0.62154829890E+02  0.77332324965E+02  0.11538677326E+03  0.00000000000E+00 0. -1.
         21    1    1    2  502  501  0.36222121266E+02  0.32923931714E+02  0.95519685815E+01  0.49872511991E+02  0.00000000000E+00 0. -1.
<scales pt_clust_5="13000.00000" pt_clust_6="13000.00000" pt_clust_7="13000.00000" pt_clust_8="13000.00000" pt_clust_9="48.94923"></scales>
<clustering>
<clus scale="   48.949">  2  9  1 -1</clus>
<clus scale="   80.381">  5  6 -1 -1</clus>
<clus scale="   93.719">  7  8 -1 -1</clus>
<clus scale="  163.499">  2  5  1 -1</clus>
<clus scale="  170.453">  1  5  2 -1</clus>
</clustering>
</event>
<event>
 9    1  0.2374319E-005  0.1527072E+03  0.7546771E-02  0.1199152E+00
         -2   -1    0    0    0  501 -0.00000000000E+00  0.00000000000E+00  0.41274907437E+03  0.41274907437E+03  0.00000000000E+00 0.  1.
          1   -1    0    0  502    0  0.00000000000E+00 -0.00000000000E+00 -0.62550485252E+02  0.62550485252E+02  0.00000000000E+00 0. -1.
         23    2    1    2    0    0 -0.10901743076E+03 -0.22096237285E+02  0.18305221207E+03  0.23278881388E+03  0.91156325137E+02 0.  0.
        -24    2    1    2    0    0  0.12942755340E+03  0.25749249537E+02  0.13996219782E+03  0.20832160704E+03  0.79962239283E+02 0.  0.
         11    1    4    4    0    0  0.91866060000E+02 -0.45210432012E+01  0.46316208123E+02  0.10298059985E+03  0.00000000000E+00 0. -1.
        -12    1    4    4    0    0  0.37561493400E+02  0.30270292738E+02  0.93645989696E+02  0.10534100719E+03  0.00000000000E+00 0.  1.
        -11    1    3    3    0    0 -0.11156924797E+03 -0.44294459832E+02  0.16509641198E+03  0.20412378968E+03  0.00000000000E+00 0.  1.
         11    1    3    3    0    0  0.25518172176E+01  0.22198222547E+02  0.17955800088E+02  0.28665024196E+02  0.00000000000E+00 0. -1.
         21    1    1    2  502  501 -0.20410122642E+02 -0.36530122521E+01  0.27184179227E+02  0.34189138700E+02  0.00000000000E+00 0.  1.
<scales pt_clust_5="13000.00000" pt_clust_6="13000.00000" pt_clust_7="13000.00000" pt_clust_8="13000.00000" pt_clust_9="20.73445"></scales>
<clustering>
<clus scale="   20.734">  1  9  2 -1</clus>
<clus scale="   79.962">  5  6 -1 -1</clus>
<clus scale="   91.156">  7  8 -1 -1</clus>
<clus scale="  146.301">  2  5  1 -1</clus>
<clus scale="  146.301">  2  5  1 -1</clus>
</clustering>
</event>
<event>
 9    1  0.2374319E-005  0.1472211E+03  0.7546771E-02  0.1214954E+00
         -4   -1    0    0    0  501 -0.00000000000E+00  0.00000000000E+00  0.40858778100E+03  0.40858778100E+03  0.00000000000E+00 0.  1.
          3   -1    0    0  502    0  0.00000000000E+00 -0.00000000000E+00 -0.11864779830E+03  0.11864779830E+03  0.00000000000E+00 0. -1.
        -24    2    1    2    0    0 -0.62772417223E+02 -0.49442158743E+02  0.19773995328E+03  0.22941345400E+03  0.84525382751E+02 0.  0.
         23    2    1    2    0    0 -0.69956014154E+02  0.53991237679E+02  0.10382809575E+03  0.16450767544E+03  0.92052181669E+02 0.  0.
         13    1    3    3    0    0 -0.13995270700E+02 -0.39873678246E+02  0.23776968418E+02  0.48488370214E+02  0.00000000000E+00 0. -1.
        -14    1    3    3    0    0 -0.48777146523E+02 -0.95684804963E+01  0.17396298486E+03  0.18092508379E+03  0.00000000000E+00 0.  1.
        -11    1    4    4    0    0 -0.38564598394E+02  0.54295922621E+01 -0.69365301696E+01  0.39557858540E+02  0.00000000000E+00 0.  1.
         11    1    4    4    0    0 -0.31391415760E+02  0.48561645417E+02  0.11076462592E+03  0.12494981690E+03  0.00000000000E+00 0. -1.
         21    1    1    2  502  501  0.13272843138E+03 -0.45490789361E+01 -0.11628066327E+02  0.13331444986E+03  0.00000000000E+00 0. -1.
<scales pt_clust_5="13000.00000" pt_clust_6="13000.00000" pt_clust_7="13000.00000" pt_clust_8="13000.00000" pt_clust_9="114.89324"></scales>
<clustering>
<clus scale="   84.525">  5  6 -1 -1</clus>
<clus scale="   92.052">  7  8 -1 -1</clus>
<clus scale="  116.316">  1  5  2 -1</clus>
<clus scale="  114.893">  2  9  1 -1</clus>
<clus scale="  114.893">  2  5  1 -1</clus>
</clustering>
</event>
<event>
 9    1  0.2374319E-005  0.1143478E+03  0.7546771E-02  0.1256799E+00
          1   -1    0    0  502    0  0.00000000000E+00  0.00000000000E+00  0.34169968487E+03  0.34169968487E+03  0.00000000000E+00 0. -1.
         -2   -1    0    0    0  501 -0.00000000000E+00 -0.00000000000E+00 -0.60311077300E+02  0.60311077300E+02  0.00000000000E+00 0.  1.
        -24    2    1    2    0    0 -0.71238027201E+02 -0.48096259697E+01  0.27122222591E+02  0.11121764333E+03  0.80844048691E+02 0.  0.
         23    2    1    2    0    0  0.56745140214E+02 -0.22168789722E+02  0.20153476953E+03  0.22981359806E+03  0.92122528994E+02 0.  0.
         11    1    3    3    0    0 -0.17932795515E+02  0.20622776921E+02 -0.21455492761E+02  0.34745104008E+02  0.00000000000E+00 0. -1.
        -12    1    3    3    0    0 -0.53305231685E+02 -0.25432402891E+02  0.48577715352E+02  0.76472539324E+02  0.00000000000E+00 0.  1.
        -11    1    4    4    0    0  0.73571931803E+02 -0.33930716053E+02  0.11371034744E+03  0.13962150893E+03  0.00000000000E+00 0.  1.
         11    1    4    4    0    0 -0.16826791590E+02  0.11761926331E+02  0.87824422087E+02  0.90192089127E+02  0.00000000000E+00 0. -1.
         21    1    1    2  502  501  0.14492886987E+02  0.26978415692E+02  0.52731615452E+02  0.60979520781E+02  0.00000000000E+00 0. -1.
<scales pt_clust_5="13000.00000" pt_clust_6="13000.00000" pt_clust_7="13000.00000" pt_clust_8="13000.00000" pt_clust_9="30.62481"></scales>
<clustering>
<clus scale="   30.625">  1  9  2 -1</clus>
<clus scale="   80.844">  5  6 -1 -1</clus>
<clus scale="   92.123">  7  8 -1 -1</clus>
<clus scale="  105.473">  2  5  1 -1</clus>
<clus scale="   30.625">  1  5  2 -1</clus>
</clustering>
</event>
<event>
 9    1  0.2374319E-005  0.1303535E+03  0.7546771E-02  0.1242550E+00
          1   -1    0    0  502    0  0.00000000000E+00  0.00000000000E+00  0.10711459538E+03  0.10711459538E+03  0.00000000000E+00 0. -1.
         -2   -1    0    0    0  501 -0.00000000000E+00 -0.00000000000E+00 -0.33313933799E+03  0.33313933799E+03  0.00000000000E+00 0.  1.
         23    2    1    2    0    0  0.57861936890E+00 -0.23255138004E+02 -0.17170040931E+03  0.19606437717E+03  0.91755507693E+02 0.  0.
        -24    2    1    2    0    0 -0.17518750147E+02 -0.86634225923E+02 -0.67310576907E+01  0.12324427842E+03  0.85623882876E+02 0.  0.
         11    1    4    4    0    0  0.24046587202E+02 -0.57290230172E+01 -0.19380324962E+02  0.31411097664E+02  0.00000000000E+00 0. -1.
        -12    1    4    4    0    0 -0.41565337349E+02 -0.80905202906E+02  0.12649267271E+02  0.91833180761E+02  0.00000000000E+00 0.  1.
        -11    1    3    3    0    0 -0.16018203425E+02  0.29300833660E+02 -0.33597046583E+02  0.47369644639E+02  0.00000000000E+00 0. -1.
         11    1    3    3    0    0  0.16596822794E+02 -0.52555971664E+02 -0.13810336273E+03  0.14869473253E+03  0.00000000000E+00 0.  1.
         21    1    1    2  502  501  0.16940130778E+02  0.10988936393E+03 -0.47593275606E+02  0.12094527778E+03  0.00000000000E+00 0. -1.
<scales pt_clust_5="13000.00000" pt_clust_6="13000.00000" pt_clust_7="13000.00000" pt_clust_8="13000.00000" pt_clust_9="98.28826"></scales>
<clustering>
<clus scale="   85.624">  5  6 -1 -1</clus>
<clus scale="   91.756">  7  8 -1 -1</clus>
<clus scale="   94.658">  2  7  1 -1</clus>
<clus scale="   98.288">  2  9  1 -1</clus>
<clus scale="  130.353">  1  5  2 -1</clus>
</clustering>
</event>
<event>
 9    1  0.2374319E-005  0.1436535E+03  0.7546771E-02  0.1211151E+00
         -2   -1    0    0    0  501 -0.00000000000E+00  0.00000000000E+00  0.95364499626E+02  0.95364499626E+02  0.00000000000E+00 0.  1.
          1   -1    0    0  502    0  0.00000000000E+00 -0.00000000000E+00 -0.38632194060E+03  0.38632194060E+03  0.00000000000E+00 0. -1.
        -24    2    1    2    0    0 -0.61739084847E+02  0.87080305347E+02  0.46131628965E+01  0.13361807050E+03  0.80235985160E+02 0.  0.
         23    2    1    2    0    0  0.85691140823E+02 -0.85242920494E+02 -0.21230374626E+03  0.26140553718E+03  0.93008854862E+02 0.  0.
         13    1    3    3    0    0  0.15362550758E+02  0.40445145450E+02 -0.16166387580E+01  0.43294702646E+02  0.00000000000E+00 0. -1.
        -14    1    3    3    0    0 -0.77101635605E+02  0.46635159897E+02  0.62298016545E+01  0.90323367852E+02  0.00000000000E+00 0.  1.
        -11    1    4    4    0    0  0.47897512799E+02 -0.32417312062E+02 -0.17960208853E+03  0.18868482731E+03  0.00000000000E+00 0. -1.
         11    1    4    4    0    0  0.37793628025E+02 -0.52825608432E+02 -0.32701657730E+02  0.72720709868E+02  0.00000000000E+00 0.  1.
         21    1    1    2  502  501 -0.23952055976E+02 -0.18373848530E+01 -0.83266857620E+02  0.86662832555E+02  0.00000000000E+00 0. -1.
<scales pt_clust_5="13000.00000" pt_clust_6="13000.00000" pt_clust_7="13000.00000" pt_clust_8="13000.00000" pt_clust_9="24.02243"></scales>
<clustering>
<clus scale="   24.022">  2  9  1 -1</clus>
<clus scale="   80.236">  5  6 -1 -1</clus>
<clus scale="   93.009">  7  8 -1 -1</clus>
<clus scale="  135.733">  1  5  2 -1</clus>
<clus scale="   24.022">  2  5  1 -1</clus>
</clustering>
</event>
<event>
 9    1  0.2374319E-005  0.8758581E+02  0.7546771E-02  0.1310990E+00
          1   -1    0    0  502    0  0.00000000000E+00  0.00000000000E+00  0.28672968583E+03  0.28672968583E+03  0.00000000000E+00 0. -1.
         -2   -1    0    0    0  501 -0.00000000000E+00 -0.00000000000E+00 -0.61926346584E+02  0.61926346584E+02  0.00000000000E+00 0.  1.
        -24    2    1    2    0    0  0.30139505205E+01  0.16120163243E+02  0.26464186742E+02  0.89679706522E+02  0.84102039341E+02 0.  0.
         23    2    1    2    0    0 -0.49081299210E+01  0.47796711872E+02  0.14306110222E+03  0.17445048556E+03  0.87509299734E+02 0.  0.
         13    1    3    3    0    0  0.28182272949E+01 -0.21837971705E+02  0.42973530069E+02  0.48286268233E+02  0.00000000000E+00 0. -1.
        -14    1    3    3    0    0  0.19572322564E+00  0.37958134948E+02 -0.16509343327E+02  0.41393438289E+02  0.00000000000E+00 0.  1.
        -13    1    4    4    0    0 -0.32839080947E+02  0.60721571173E+02  0.10067061549E+03  0.12206591361E+03  0.00000000000E+00 0.  1.
         13    1    4    4    0    0  0.27930951026E+02 -0.12924859301E+02  0.42390486729E+02  0.52384571949E+02  0.00000000000E+00 0. -1.
         21    1    1    2  502  501  0.18941794004E+01 -0.63916875115E+02  0.55278050288E+02  0.84525840331E+02  0.00000000000E+00 0. -1.
<scales pt_clust_5="13000.00000" pt_clust_6="13000.00000" pt_clust_7="13000.00000" pt_clust_8="13000.00000" pt_clust_9="63.94494"></scales>
<clustering>
<clus scale="   63.945">  1  9  2 -1</clus>
<clus scale="   84.102">  5  6 -1 -1</clus>
<clus scale="   84.182">  2  5  1 -1</clus>
<clus scale="   87.509">  7  8 -1 -1</clus>
<clus scale="   63.945">  1  5  2 -1</clus>
</clustering>
</event>
<event>
 9    1  0.2374319E-005  0.1324692E+03  0.7546771E-02  0.1227472E+00
         -2   -1    0    0    0  501 -0.00000000000E+00  0.00000000000E+00  0.14964309270E+03  0.14964309270E+03  0.00000000000E+00 0.  1.
          1   -1    0    0  502    0  0.00000000000E+00 -0.00000000000E+00 -0.16902028987E+03  0.16902028987E+03  0.00000000000E+00 0. -1.
         23    2    1    2    0    0  0.59607194060E+02  0.47560793599E+02  0.14769580401E+02  0.12090596195E+03  0.92655622918E+02 0.  0.
        -24    2    1    2    0    0 -0.10284176191E+03 -0.67024964565E+02 -0.14015709428E+02  0.14624682255E+03  0.78249083868E+02 0.  0.
         13    1    4    4    0    0 -0.10870551844E+03 -0.57808742808E+02 -0.30153610205E+02  0.12675953886E+03  0.00000000000E+00 0. -1.
        -14    1    4    4    0    0  0.58637565226E+01 -0.92162217577E+01  0.16137900778E+02  0.19487283688E+02  0.00000000000E+00 0.  1.
        -13    1    3    3    0    0  0.67324020083E+02  0.67880010446E+02  0.18530842143E+01  0.95622452485E+02  0.00000000000E+00 0. -1.
         13    1    3    3    0    0 -0.77168260224E+01 -0.20319216847E+02  0.12916496186E+02  0.25283509465E+02  0.00000000000E+00 0.  1.
         21    1    1    2  502  501  0.43234567853E+02  0.19464170967E+02 -0.20131068146E+02  0.51510598070E+02  0.00000000000E+00 0. -1.
<scales pt_clust_5="13000.00000" pt_clust_6="13000.00000" pt_clust_7="13000.00000" pt_clust_8="13000.00000" pt_clust_9="47.41394"></scales>
<clustering>
<clus scale="   47.414">  2  9  1 -1</clus>
<clus scale="   78.249">  5  6 -1 -1</clus>
<clus scale="   92.656">  7  8 -1 -1</clus>
<clus scale="  122.825">  2  5  1 -1</clus>
<clus scale="   47.414">  2  5  1 -1</clus>
</clustering>
</event>
<event>
 9    1  0.2374319E-005  0.1527266E+03  0.7546771E-02  0.1199152E+00
         -2   -1    0    0    0  501 -0.00000000000E+00  0.00000000000E+00  0.87400419640E+02  0.87400419640E+02  0.00000000000E+00 0.  1.
          1   -1    0    0  502    0  0.00000000000E+00 -0.00000000000E+00 -0.43391956929E+03  0.43391956929E+03  0.00000000000E+00 0. -1.
        -24    2    1    2    0    0  0.12656483766E+03  0.75264783758E+01 -0.14708575798E+02  0.15011867059E+03  0.79018776558E+02 0.  0.
         23    2    1    2    0    0 -0.10863736331E+03 -0.21417812552E+02 -0.27309598386E+03  0.30825875261E+03  0.90450222566E+02 0.  0.
         11    1    3    3    0    0  0.84667833590E+01 -0.22021581978E+02 -0.15765244492E+02  0.28375683730E+02  0.00000000000E+00 0. -1.
        -12    1    3    3    0    0  0.11809805430E+03  0.29548060354E+02  0.10566686943E+01  0.12174298686E+03  0.00000000000E+00 0.  1.
        -13    1    4    4    0    0 -0.72616928098E+02 -0.45576159764E+02 -0.10983297826E+03  0.13933301008E+03  0.00000000000E+00 0.  1.
         13    1    4    4    0    0 -0.36020435209E+02  0.24158347212E+02 -0.16326300559E+03  0.16892574253E+03  0.00000000000E+00 0. -1.
         21    1    1    2  502  501 -0.17927474357E+02  0.13891334176E+02 -0.58714589999E+02  0.62942565731E+02  0.00000000000E+00 0. -1.
<scales pt_clust_5="13000.00000" pt_clust_6="13000.00000" pt_clust_7="13000.00000" pt_clust_8="13000.00000" pt_clust_9="22.67958"></scales>
<clustering>
<clus scale="   22.680">  2  9  1 -1</clus>
<clus scale="   79.019">  5  6 -1 -1</clus>
<clus scale="   90.450">  7  8 -1 -1</clus>
<clus scale="  146.247">  1  5  2 -1</clus>
<clus scale="   22.680">  2  5  1 -1</clus>
</clustering>
</event>
<event>
 9    1  0.2374319E-005  0.1154287E+03  0.7546771E-02  0.1255140E+00
          1   -1    0    0  502    0  0.00000000000E+00  0.00000000000E+00  0.31940511628E+02  0.31940511628E+02  0.00000000000E+00 0. -1.
         -2   -1    0    0    0  501 -0.00000000000E+00 -0.00000000000E+00 -0.74761878935E+03  0.74761878935E+03  0.00000000000E+00 0.  1.
        -24    2    1    2    0    0 -0.62260771124E+02  0.43159475966E+02 -0.55868386990E+03  0.56951820183E+03  0.80524355008E+02 0.  0.
         23    2    1    2    0    0  0.37137755013E+02 -0.18599167151E+02 -0.96380939225E+02  0.13998135833E+03  0.92630196843E+02 0.  0.
         11    1    3    3    0    0 -0.40922371872E+02  0.47730419376E+02 -0.18884045874E+03  0.19903153597E+03  0.00000000000E+00 0. -1.
        -12    1    3    3    0    0 -0.21338399253E+02 -0.45709434096E+01 -0.36984341115E+03  0.37048666586E+03  0.00000000000E+00 0.  1.
        -11    1    4    4    0    0  0.54503258725E+02  0.83214556523E+01 -0.22677021865E+02  0.59616265871E+02  0.00000000000E+00 0. -1.
         11    1    4    4    0    0 -0.17365503712E+02 -0.26920622803E+02 -0.73703917360E+02  0.80365092456E+02  0.00000000000E+00 0.  1.
         21    1    1    2  502  501  0.25123016112E+02 -0.24560308815E+02 -0.60613468598E+02  0.70059740815E+02  0.00000000000E+00 0.  1.
<scales pt_clust_5="13000.00000" pt_clust_6="13000.00000" pt_clust_7="13000.00000" pt_clust_8="13000.00000" pt_clust_9="35.13367"></scales>
<clustering>
<clus scale="   35.134">  1  9  2 -1</clus>
<clus scale="   80.524">  5  6 -1 -1</clus>
<clus scale="   92.630">  7  8 -1 -1</clus>
<clus scale="  105.960">  2  5  1 -1</clus>
<clus scale="   35.134">  1  5  2 -1</clus>
</clustering>
</event>
<event>
 9    1  0.2374319E-005  0.9626366E+02  0.7546771E-02  0.1293320E+00
          1   -1    0    0  502    0  0.00000000000E+00  0.00000000000E+00  0.11195934915E+03  0.11195934915E+03  0.00000000000E+00 0. -1.
         -2   -1    0    0    0  501 -0.00000000000E+00 -0.00000000000E+00 -0.43576846255E+03  0.43576846255E+03  0.00000000000E+00 0.  1.
         23    2    1    2    0    0 -0.48980070646E+01 -0.34196997841E+02 -0.29947558257E+03  0.31459312484E+03  0.89943229332E+02 0.  0.
        -24    2    1    2    0    0  0.86046537508E+02  0.86867469604E+00 -0.67138225326E+02  0.13552268459E+03  0.80337385601E+02 0.  0.
         11    1    4    4    0    0  0.18182333108E+02  0.36442792304E+02 -0.18226286819E+02  0.44619187346E+02  0.00000000000E+00 0. -1.
        -12    1    4    4    0    0  0.67864204400E+02 -0.35574117608E+02 -0.48911938506E+02  0.90903497242E+02  0.00000000000E+00 0.  1.
        -11    1    3    3    0    0 -0.14107826278E+02  0.28757091113E+02 -0.83189344012E+02  0.89142963877E+02  0.00000000000E+00 0. -1.
         11    1    3    3    0    0  0.92098192134E+01 -0.62954088955E+02 -0.21628623856E+03  0.22545016096E+03  0.00000000000E+00 0.  1.
         21    1    1    2  502  501 -0.81148530443E+02  0.33328323145E+02  0.42804694500E+02  0.97612002275E+02  0.00000000000E+00 0. -1.
<scales pt_clust_5="13000.00000" pt_clust_6="13000.00000" pt_clust_7="13000.00000" pt_clust_8="13000.00000" pt_clust_9="87.72606"></scales>
<clustering>
<clus scale="   80.337">  5  6 -1 -1</clus>
<clus scale="   87.726">  1  9  2 -1</clus>
<clus scale="   87.726">  1  5  2 -1</clus>
<clus scale="   89.943">  7  8 -1 -1</clus>
<clus scale="   87.726">  1  5  2 -1</clus>
</clustering>
</event>
<event>
 9    1  0.2374319E-005  0.9883292E+02  0.7546771E-02  0.1286537E+00
         -2   -1    0    0    0  501 -0.00000000000E+00  0.00000000000E+00  0.17004750311E+03  0.17004750311E+03  0.00000000000E+00 0.  1.
          1   -1    0    0  502    0  0.00000000000E+00 -0.00000000000E+00 -0.93889878592E+02  0.93889878592E+02  0.00000000000E+00 0. -1.
         23    2    1    2    0    0  0.13464369458E+00  0.26381709615E+02  0.97458158950E+02  0.13750837197E+03  0.93351201840E+02 0.  0.
        -24    2    1    2    0    0  0.42607112903E+01 -0.48163751626E+02 -0.50565822430E+01  0.98903703521E+02  0.86130557381E+02 0.  0.
         11    1    4    4    0    0 -0.95767815237E+01 -0.63645880560E+02  0.19016045851E+02  0.67112762247E+02  0.00000000000E+00 0. -1.
        -12    1    4    4    0    0  0.13837492814E+02  0.15482128934E+02 -0.24072628094E+02  0.31790941273E+02  0.00000000000E+00 0.  1.
        -11    1    3    3    0    0 -0.26782525583E+01 -0.21672152706E+02 -0.66361544440E+01  0.22823097632E+02  0.00000000000E+00 0. -1.
         11    1    3    3    0    0  0.28128962529E+01  0.48053862321E+02  0.10409431339E+03  0.11468527434E+03  0.00000000000E+00 0.  1.
         21    1    1    2  502  501 -0.43953549849E+01  0.21782042011E+02 -0.16243952184E+02  0.27525306215E+02  0.00000000000E+00 0.  1.
<scales pt_clust_5="13000.00000" pt_clust_6="13000.00000" pt_clust_7="13000.00000" pt_clust_8="13000.00000" pt_clust_9="22.22108"></scales>
<clustering>
<clus scale="   22.221">  2  9  1 -1</clus>
<clus scale="   86.131">  5  6 -1 -1</clus>
<clus scale="   92.043">  2  5  1 -1</clus>
<clus scale="   93.351">  7  8 -1 -1</clus>
<clus scale="   22.221">  2  5  1 -1</clus>
</clustering>
</event>
<event>
 9    1  0.2374319E-005  0.1025621E+03  0.7546771E-02  0.1276664E+00
         -2   -1    0    0    0  501 -0.00000000000E+00  0.00000000000E+00  0.11604020747E+04  0.11604020747E+04  0.00000000000E+00 0.  1.
          1   -1    0    0  502    0  0.00000000000E+00 -0.00000000000E+00 -0.35004959026E+02  0.35004959026E+02  0.00000000000E+00 0. -1.
        -24    2    1    2    0    0  0.18842492218E+02  0.58123221830E+02  0.96937137609E+03  0.97485478669E+03  0.83232457196E+02 0.  0.
         23    2    1    2    0    0 -0.66397103834E+01 -0.23511411481E+02  0.15985492260E+03  0.18365308788E+03  0.87051640918E+02 0.  0.
         13    1    3    3    0    0  0.17442599420E+02  0.41010217836E+02  0.18487656345E+03  0.19017209563E+03  0.00000000000E+00 0. -1.
        -14    1    3    3    0    0  0.13998927982E+01  0.17113003994E+02  0.78449481264E+03  0.78468269106E+03  0.00000000000E+00 0.  1.
        -11    1    4    4    0    0 -0.40410032305E+02  0.98691794383E+01  0.59121359774E+02  0.72289048930E+02  0.00000000000E+00 0.  1.
         11    1    4    4    0    0  0.33770321922E+02 -0.33380590919E+02  0.10073356282E+03  0.11136403895E+03  0.00000000000E+00 0. -1.
         21    1    1    2  502  501 -0.12202781835E+02 -0.34611810349E+02 -0.38291830521E+01  0.36899159110E+02  0.00000000000E+00 0. -1.
<scales pt_clust_5="13000.00000" pt_clust_6="13000.00000" pt_clust_7="13000.00000" pt_clust_8="13000.00000" pt_clust_9="36.69994"></scales>
<clustering>
<clus scale="   36.700">  2  9  1 -1</clus>
<clus scale="   83.232">  5  6 -1 -1</clus>
<clus scale="   87.052">  7  8 -1 -1</clus>
<clus scale="   99.341">  1  5  2 -1</clus>
<clus scale="   36.700">  2  5  1 -1</clus>
</clustering>
</event>
<event>
 9    1  0.2374319E-005  0.1172339E+03  0.7546771E-02  0.1253006E+00
         -2   -1    0    0    0  501 -0.00000000000E+00  0.00000000000E+00  0.78095956790E+02  0.78095956790E+02  0.00000000000E+00 0.  1.
          1   -1    0    0  502    0  0.00000000000E+00 -0.00000000000E+00 -0.23172468664E+03  0.23172468664E+03  0.00000000000E+00 0. -1.
         23    2    1    2    0    0  0.70103334411E+02 -0.38127316567E+02 -0.30167890264E+02  0.12334751303E+03  0.89086124636E+02 0.  0.
        -24    2    1    2    0    0 -0.72865977891E+02  0.12946415495E+02 -0.64560890641E+02  0.12235672093E+03  0.72979436479E+02 0.  0.
         11    1    4    4    0    0 -0.53398731656E+02 -0.22444468266E+02 -0.56994916980E+02  0.81262532940E+02  0.00000000000E+00 0. -1.
        -12    1    4    4    0    0 -0.19467246235E+02  0.35390883761E+02 -0.75659736609E+01  0.41094187993E+02  0.00000000000E+00 0.  1.
        -11    1    3    3    0    0  0.41036927396E+02  0.25805776873E+02 -0.19764826597E+02  0.52350892070E+02  0.00000000000E+00 0. -1.
         11    1    3    3    0    0  0.29066407015E+02 -0.63933093440E+02 -0.10403063668E+02  0.70996620957E+02  0.00000000000E+00 0.  1.
         21    1    1    2  502  501  0.27626434800E+01  0.25180901073E+02 -0.58899948947E+02  0.64116409473E+02  0.00000000000E+00 0.  1.
<scales pt_clust_5="13000.00000" pt_clust_6="13000.00000" pt_clust_7="13000.00000" pt_clust_8="13000.00000" pt_clust_9="25.33200"></scales>
<clustering>
<clus scale="   25.332">  2  9  1 -1</clus>
<clus scale="   72.979">  5  6 -1 -1</clus>
<clus scale="   89.086">  7  8 -1 -1</clus>
<clus scale="  105.515">  2  5  1 -1</clus>
<clus scale="   25.332">  2  5  1 -1</clus>
</clustering>
</event>
<event>
 9    1  0.2374319E-005  0.9159998E+02  0.7546771E-02  0.1305536E+00
          1   -1    0    0  502    0  0.00000000000E+00  0.00000000000E+00  0.74110829455E+02  0.74110829455E+02  0.00000000000E+00 0. -1.
         -2   -1    0    0    0  501 -0.00000000000E+00 -0.00000000000E+00 -0.32854469018E+03  0.32854469018E+03  0.00000000000E+00 0.  1.
        -24    2    1    2    0    0 -0.13040923463E+02 -0.10229484758E+02 -0.23552159130E+03  0.24937175750E+03  0.80256746942E+02 0.  0.
         23    2    1    2    0    0 -0.38437963061E+02  0.17462524774E+02 -0.10056402556E+02  0.10055029075E+03  0.90701780370E+02 0.  0.
         11    1    3    3    0    0 -0.38917810124E+02  0.16821159317E+02 -0.96594301166E+02  0.10548936612E+03  0.00000000000E+00 0. -1.
        -12    1    3    3    0    0  0.25876886661E+02 -0.27050644075E+02 -0.13892729013E+03  0.14388239139E+03  0.00000000000E+00 0.  1.
        -11    1    4    4    0    0 -0.64031043914E+02  0.21786073053E+02  0.91626861174E+01  0.68253662032E+02  0.00000000000E+00 0. -1.
         11    1    4    4    0    0  0.25593080853E+02 -0.43235482793E+01 -0.19219088673E+02  0.32296628721E+02  0.00000000000E+00 0.  1.
         21    1    1    2  502  501  0.51478886524E+02 -0.72330400157E+01 -0.88558668709E+01  0.52733471379E+02  0.00000000000E+00 0.  1.
<scales pt_clust_5="13000.00000" pt_clust_6="13000.00000" pt_clust_7="13000.00000" pt_clust_8="13000.00000" pt_clust_9="51.98454"></scales>
<clustering>
<clus scale="   51.985">  1  9  2 -1</clus>
<clus scale="   80.257">  5  6 -1 -1</clus>
<clus scale="   81.270">  2  5  1 -1</clus>
<clus scale="   90.702">  7  8 -1 -1</clus>
<clus scale="   51.985">  1  5  2 -1</clus>
</clustering>
</event>
<event>
 9    1  0.2374319E-005  0.9648159E+02  0.7546771E-02  0.1293100E+00
          1   -1    0    0  502    0  0.00000000000E+00  0.00000000000E+00  0.42407264722E+02  0.42407264722E+02  0.00000000000E+00 0. -1.
         -2   -1    0    0    0  501 -0.00000000000E+00 -0.00000000000E+00 -0.95677030220E+03  0.95677030220E+03  0.00000000000E+00 0.  1.
        -24    2    1    2    0    0  0.77517764675E+02 -0.46282858029E+02 -0.53881329800E+03  0.55229305488E+03  0.80973709230E+02 0.  0.
         23    2    1    2    0    0  0.38342826556E+01  0.30707775938E+02 -0.44421240907E+02  0.10555355629E+03  0.90612567419E+02 0.  0.
         13    1    3    3    0    0  0.74303563538E+02  0.54077255084E+00 -0.32358700790E+03  0.33200883071E+03  0.00000000000E+00 0. -1.
        -14    1    3    3    0    0  0.32142011368E+01 -0.46823630580E+02 -0.21522629010E+03  0.22028422417E+03  0.00000000000E+00 0.  1.
        -11    1    4    4    0    0 -0.10918692595E+02  0.53227840939E+02 -0.85839958573E+00  0.54342964116E+02  0.00000000000E+00 0.  1.
         11    1    4    4    0    0  0.14752975251E+02 -0.22520065001E+02 -0.43562841321E+02  0.51210592170E+02  0.00000000000E+00 0. -1.
         21    1    1    2  502  501 -0.81352047331E+02  0.15575082090E+02 -0.33112849857E+03  0.34133095575E+03  0.00000000000E+00 0.  1.
<scales pt_clust_5="13000.00000" pt_clust_6="13000.00000" pt_clust_7="13000.00000" pt_clust_8="13000.00000" pt_clust_9="82.82958"></scales>
<clustering>
<clus scale="   80.974">  5  6 -1 -1</clus>
<clus scale="   82.830">  2  9  1 -1</clus>
<clus scale="   87.492">  2  5  1 -1</clus>
<clus scale="   90.613">  7  8 -1 -1</clus>
<clus scale="   96.482">  1  5  2 -1</clus>
</clustering>
</event>
<event>
 9    1  0.2374319E-005  0.1217248E+03  0.7546771E-02  0.1251275E+00
         -2   -1    0    0    0  501 -0.00000000000E+00  0.00000000000E+00  0.13219645327E+03  0.13219645327E+03  0.00000000000E+00 0.  1.
          1   -1    0    0  502    0  0.00000000000E+00 -0.00000000000E+00 -0.44477110399E+03  0.44477110399E+03  0.00000000000E+00 0. -1.
         23    2    1    2    0    0 -0.25262499772E+01 -0.77134610904E+02  0.69252660439E+02  0.13846410059E+03  0.91761898611E+02 0.  0.
        -24    2    1    2    0    0 -0.63642847871E+02 -0.85476803421E+01 -0.24713968681E+03  0.26570137134E+03  0.73455558052E+02 0.  0.
         13    1    4    4    0    0  0.27375027038E+01 -0.20523451238E+02 -0.12003593056E+03  0.12180858179E+03  0.00000000000E+00 0. -1.
        -14    1    4    4    0    0 -0.66380350575E+02  0.11975770896E+02 -0.12710375625E+03  0.14389278955E+03  0.00000000000E+00 0.  1.
        -11    1    3    3    0    0 -0.39401583819E+02 -0.64938986193E+02  0.63892467169E+02  0.99256254695E+02  0.00000000000E+00 0.  1.
         11    1    3    3    0    0  0.36875333842E+02 -0.12195624711E+02  0.53601932706E+01  0.39207845897E+02  0.00000000000E+00 0. -1.
         21    1    1    2  502  501  0.66169097848E+02  0.85682291246E+02 -0.13468762434E+03  0.17280208533E+03  0.00000000000E+00 0. -1.
<scales pt_clust_5="13000.00000" pt_clust_6="13000.00000" pt_clust_7="13000.00000" pt_clust_8="13000.00000" pt_clust_9="79.97925"></scales>
<clustering>
<clus scale="   73.456">  5  6 -1 -1</clus>
<clus scale="   91.762">  7  8 -1 -1</clus>
<clus scale="   97.566">  2  5  1 -1</clus>
<clus scale="   79.979">  2  9  1 -1</clus>
<clus scale="   97.566">  2  5  1 -1</clus>
</clustering>
</event>
<event>
 9    1  0.2374319E-005  0.1004868E+03  0.7546771E-02  0.1284410E+00
          1   -1    0    0  502    0  0.00000000000E+00  0.00000000000E+00  0.10273040630E+03  0.10273040630E+03  0.00000000000E+00 0. -1.
         -2   -1    0    0    0  501 -0.00000000000E+00 -0.00000000000E+00 -0.21635880110E+03  0.21635880110E+03  0.00000000000E+00 0.  1.
         23    2    1    2    0    0  0.60511878140E+01  0.95256216987E+02 -0.79415368585E+02  0.15366736840E+03  0.90534499478E+02 0.  0.
        -24    2    1    2    0    0  0.12586908440E+02 -0.23721439952E+02 -0.11620640822E+01  0.84446725190E+02  0.80054743925E+02 0.  0.
         13    1    4    4    0    0 -0.29115771267E+02 -0.75729081033E+01  0.18797822716E+02  0.35474430404E+02  0.00000000000E+00 0. -1.
        -14    1    4    4    0    0  0.41702679707E+02 -0.16148531849E+02 -0.19959886798E+02  0.48972294786E+02  0.00000000000E+00 0.  1.
        -11    1    3    3    0    0 -0.18386784069E+02 -0.11455411945E+02 -0.17845287346E+02  0.28066965844E+02  0.00000000000E+00 0. -1.
         11    1    3    3    0    0  0.24437971883E+02  0.10671162893E+03 -0.61570081239E+02  0.12560040256E+03  0.00000000000E+00 0.  1.
         21    1    1    2  502  501 -0.18638096254E+02 -0.71534777035E+02 -0.33050962138E+02  0.80975113804E+02  0.00000000000E+00 0.  1.
<scales pt_clust_5="13000.00000" pt_clust_6="13000.00000" pt_clust_7="13000.00000" pt_clust_8="13000.00000" pt_clust_9="73.92295"></scales>
<clustering>
<clus scale="   73.923">  2  9  1 -1</clus>
<clus scale="   80.055">  5  6 -1 -1</clus>
<clus scale="   90.534">  7  8 -1 -1</clus>
<clus scale="   91.158">  1  5  2 -1</clus>
<clus scale="   91.158">  1  5  2 -1</clus>
</clustering>
</event>
<event>
 9    1  0.2374319E-005  0.9883159E+02  0.7546771E-02  0.1287076E+00
          1   -1    0    0  502    0  0.00000000000E+00  0.00000000000E+00  0.57953676542E+03  0.57953676542E+03  0.00000000000E+00 0. -1.
         -2   -1    0    0    0  501 -0.00000000000E+00 -0.00000000000E+00 -0.35596565456E+02  0.35596565456E+02  0.00000000000E+00 0.  1.
         23    2    1    2    0    0 -0.28795630784E+02 -0.29350214644E+02  0.58554447202E+02  0.11620486517E+03  0.91565954102E+02 0.  0.
        -24    2    1    2    0    0  0.15017993440E+02  0.97798503311E+01  0.43372490620E+03  0.44199283962E+03  0.83181671166E+02 0.  0.
         13    1    4    4    0    0  0.37565758857E+02  0.33662392329E+02  0.30504754251E+03  0.30918982210E+03  0.00000000000E+00 0. -1.
        -14    1    4    4    0    0 -0.22547765417E+02 -0.23882541998E+02  0.12867736368E+03  0.13280301752E+03  0.00000000000E+00 0.  1.
        -13    1    3    3    0    0 -0.40059376680E+02 -0.42863852003E+01  0.74310846604E+02  0.84529454518E+02  0.00000000000E+00 0. -1.
         13    1    3    3    0    0  0.11263745896E+02 -0.25063829443E+02 -0.15756399402E+02  0.31675410654E+02  0.00000000000E+00 0.  1.
         21    1    1    2  502  501  0.13777637344E+02  0.19570364313E+02  0.51660846562E+02  0.56935626084E+02  0.00000000000E+00 0.  1.
<scales pt_clust_5="13000.00000" pt_clust_6="13000.00000" pt_clust_7="13000.00000" pt_clust_8="13000.00000" pt_clust_9="23.93371"></scales>
<clustering>
<clus scale="   23.934">  1  9  2 -1</clus>
<clus scale="   83.182">  5  6 -1 -1</clus>
<clus scale="   91.118">  1  5  2 -1</clus>
<clus scale="   91.566">  7  8 -1 -1</clus>
<clus scale="   23.934">  1  5  2 -1</clus>
</clustering>
</event>
<event>
 9    1  0.2374319E-005  0.2414655E+03  0.7546771E-02  0.1119467E+00
         -2   -1    0    0    0  501 -0.00000000000E+00  0.00000000000E+00  0.57590063802E+03  0.57590063802E+03  0.00000000000E+00 0.  1.
          1   -1    0    0  502    0  0.00000000000E+00 -0.00000000000E+00 -0.68030622906E+03  0.68030622906E+03  0.00000000000E+00 0. -1.
        -24    2    1    2    0    0  0.21861186275E+03 -0.43167999320E+02  0.50090533398E+03  0.55417145885E+03  0.80902592615E+02 0.  0.
         23    2    1    2    0    0 -0.21244634399E+03  0.11427733212E+03 -0.33738734478E+03  0.42476731471E+03  0.91674933959E+02 0.  0.
         11    1    3    3    0    0  0.11629749174E+03 -0.21072734487E+02  0.16957213679E+03  0.20669754788E+03  0.00000000000E+00 0. -1.
        -12    1    3    3    0    0  0.10231437101E+03 -0.22095264833E+02  0.33133319720E+03  0.34747391098E+03  0.00000000000E+00 0.  1.
        -11    1    4    4    0    0 -0.25880487124E+02  0.32569247367E+02 -0.16612640373E+02  0.44794366923E+02  0.00000000000E+00 0.  1.
         11    1    4    4    0    0 -0.18656585687E+03  0.81708084753E+02 -0.32077470441E+03  0.37997294779E+03  0.00000000000E+00 0. -1.
         21    1    1    2  502  501 -0.61655187636E+01 -0.71109332800E+02 -0.26792358024E+03  0.27726809351E+03  0.00000000000E+00 0. -1.
<scales pt_clust_5="13000.00000" pt_clust_6="13000.00000" pt_clust_7="13000.00000" pt_clust_8="13000.00000" pt_clust_9="71.37612"></scales>
<clustering>
<clus scale="   71.376">  2  9  1 -1</clus>
<clus scale="   80.903">  5  6 -1 -1</clus>
<clus scale="   91.675">  7  8 -1 -1</clus>
<clus scale="  237.585">  1  5  2 -1</clus>
<clus scale="   71.376">  2  5  1 -1</clus>
</clustering>
</event>
<event>
 9    1  0.2374319E-005  0.1242132E+03  0.7546771E-02  0.1238990E+00
          1   -1    0    0  502    0  0.00000000000E+00  0.00000000000E+00  0.12587480975E+03  0.12587480975E+03  0.00000000000E+00 0. -1.
         -2   -1    0    0    0  501 -0.00000000000E+00 -0.00000000000E+00 -0.37672546800E+03  0.37672546800E+03  0.00000000000E+00 0.  1.
        -24    2    1    2    0    0  0.80996904073E+02 -0.17888450102E+02 -0.30230901902E+03  0.32361671012E+03  0.80352579138E+02 0.  0.
         23    2    1    2    0    0 -0.10762855126E+03  0.24977271314E+02  0.33997808527E+02  0.14635893119E+03  0.89762556936E+02 0.  0.
         13    1    3    3    0    0  0.28848513344E+02 -0.45842010385E+02 -0.11364947324E+03  0.12589650276E+03  0.00000000000E+00 0. -1.
        -14    1    3    3    0    0  0.52148390729E+02  0.27953560282E+02 -0.18865954578E+03  0.19772020737E+03  0.00000000000E+00 0.  1.
        -11    1    4    4    0    0 -0.97548253976E+02  0.51741623139E+02  0.39425838361E+02  0.11724868506E+03  0.00000000000E+00 0. -1.
         11    1    4    4    0    0 -0.10080297281E+02 -0.26764351825E+02 -0.54280298341E+01  0.29110246130E+02  0.00000000000E+00 0.  1.
         21    1    1    2  502  501  0.26631647185E+02 -0.70888212121E+01  0.17460552237E+02  0.32624636433E+02  0.00000000000E+00 0. -1.
<scales pt_clust_5="13000.00000" pt_clust_6="13000.00000" pt_clust_7="13000.00000" pt_clust_8="13000.00000" pt_clust_9="27.55896"></scales>
<clustering>
<clus scale="   27.559">  1  9  2 -1</clus>
<clus scale="   80.353">  5  6 -1 -1</clus>
<clus scale="   89.763">  7  8 -1 -1</clus>
<clus scale="  117.593">  2  5  1 -1</clus>
<clus scale="   27.559">  1  5  2 -1</clus>
</clustering>
</event>
<event>
 9    1  0.2374319E-005  0.1012815E+03  0.7546771E-02  0.1279983E+00
         -2   -1    0    0    0  501 -0.00000000000E+00  0.00000000000E+00  0.41312386148E+03  0.41312386148E+03  0.00000000000E+00 0.  1.
          1   -1    0    0  502    0  0.00000000000E+00 -0.00000000000E+00 -0.15787242925E+03  0.15787242925E+03  0.00000000000E+00 0. -1.
        -24    2    1    2    0    0 -0.47991992593E+02 -0.18497024965E+02  0.35863396977E+03  0.37136704543E+03  0.81546225404E+02 0.  0.
         23    2    1    2    0    0  0.76005401943E+02 -0.72937195296E+01 -0.11159889046E+03  0.16067514332E+03  0.86788074414E+02 0.  0.
         11    1    3    3    0    0 -0.17936477319E+02  0.12688545700E+02  0.19191072948E+02  0.29172138960E+02  0.00000000000E+00 0. -1.
        -12    1    3    3    0    0 -0.30055515275E+02 -0.31185570665E+02  0.33944289682E+03  0.34219490647E+03  0.00000000000E+00 0.  1.
        -13    1    4    4    0    0  0.33178160596E+02 -0.36619973428E+02 -0.16081636573E+02  0.51965679340E+02  0.00000000000E+00 0.  1.
         13    1    4    4    0    0  0.42827241347E+02  0.29326253898E+02 -0.95517253888E+02  0.10870946398E+03  0.00000000000E+00 0. -1.
         21    1    1    2  502  501 -0.28013409350E+02  0.25790744495E+02  0.82163529329E+01  0.38954101973E+02  0.00000000000E+00 0. -1.
<scales pt_clust_5="13000.00000" pt_clust_6="13000.00000" pt_clust_7="13000.00000" pt_clust_8="13000.00000" pt_clust_9="38.07773"></scales>
<clustering>
<clus scale="   38.078">  2  9  1 -1</clus>
<clus scale="   81.546">  5  6 -1 -1</clus>
<clus scale="   86.788">  7  8 -1 -1</clus>
<clus scale="   96.827">  1  5  2 -1</clus>
<clus scale="   38.078">  2  5  1 -1</clus>
</clustering>
</event>
<event>
 9    1  0.2374319E-005  0.1021055E+03  0.7546771E-02  0.1282777E+00
         -2   -1    0    0    0  501 -0.00000000000E+00  0.00000000000E+00  0.27522400888E+03  0.27522400888E+03  0.00000000000E+00 0.  1.
          1   -1    0    0  502    0  0.00000000000E+00 -0.00000000000E+00 -0.40869972141E+03  0.40869972141E+03  0.00000000000E+00 0. -1.
         23    2    1    2    0    0  0.43135956765E+01 -0.46742475812E+02  0.24397858532E+03  0.26466352338E+03  0.91201778298E+02 0.  0.
        -24    2    1    2    0    0  0.50490865109E+02  0.34997476226E+02 -0.11739584252E+03  0.15323037000E+03  0.76965002738E+02 0.  0.
         13    1    4    4    0    0  0.16099431676E+02  0.33721155148E+02 -0.11240739417E+03  0.11845560463E+03  0.00000000000E+00 0. -1.
        -14    1    4    4    0    0  0.34391433433E+02  0.12763210773E+01 -0.49884483493E+01  0.34774765362E+02  0.00000000000E+00 0.  1.
        -13    1    3    3    0    0  0.23887137042E+02 -0.68939569093E+02  0.17579427523E+03  0.19033361948E+03  0.00000000000E+00 0.  1.
         13    1    3    3    0    0 -0.19573541366E+02  0.22197093281E+02  0.68184310089E+02  0.74329903902E+02  0.00000000000E+00 0. -1.
         21    1    1    2  502  501 -0.54804460785E+02  0.11744999586E+02 -0.26005845533E+03  0.26602983690E+03  0.00000000000E+00 0. -1.
<scales pt_clust_5="13000.00000" pt_clust_6="13000.00000" pt_clust_7="13000.00000" pt_clust_8="13000.00000" pt_clust_9="56.04885"></scales>
<clustering>
<clus scale="   56.049">  2  9  1 -1</clus>
<clus scale="   76.965">  5  6 -1 -1</clus>
<clus scale="   89.618">  2  5  1 -1</clus>
<clus scale="   91.202">  7  8 -1 -1</clus>
<clus scale="   56.049">  2  5  1 -1</clus>
</clustering>
</event>
<event>
 9    1  0.2374319E-005  0.9576882E+02  0.7546771E-02  0.1291845E+00
          1   -1    0    0  502    0  0.00000000000E+00  0.00000000000E+00  0.57610091623E+03  0.57610091623E+03  0.00000000000E+00 0. -1.
         -2   -1    0    0    0  501 -0.00000000000E+00 -0.00000000000E+00 -0.62092940772E+02  0.62092940772E+02  0.00000000000E+00 0.  1.
         23    2    1    2    0    0  0.13152820872E+02  0.51366585878E+02  0.24708848079E+02  0.10542823620E+03  0.87710107590E+02 0.  0.
        -24    2    1    2    0    0  0.63395882417E+02 -0.10986183309E+01  0.15829691179E+03  0.18932852428E+03  0.82262585401E+02 0.  0.
         11    1    4    4    0    0 -0.88141750294E+01 -0.20132966035E+02  0.71634837080E+02  0.74930473682E+02  0.00000000000E+00 0. -1.
        -12    1    4    4    0    0  0.72210057447E+02  0.19034347704E+02  0.86662074706E+02  0.11439805060E+03  0.00000000000E+00 0.  1.
        -13    1    3    3    0    0  0.34772136303E+02 -0.84759248065E+01 -0.32316129623E+01  0.35935860735E+02  0.00000000000E+00 0. -1.
         13    1    3    3    0    0 -0.21619315431E+02  0.59842510684E+02  0.27940461041E+02  0.69492375466E+02  0.00000000000E+00 0.  1.
         21    1    1    2  502  501 -0.76548703290E+02 -0.50267967547E+02  0.33100221559E+03  0.34343709652E+03  0.00000000000E+00 0. -1.
<scales pt_clust_5="13000.00000" pt_clust_6="13000.00000" pt_clust_7="13000.00000" pt_clust_8="13000.00000" pt_clust_9="91.57823"></scales>
<clustering>
<clus scale="   82.263">  5  6 -1 -1</clus>
<clus scale="   87.710">  7  8 -1 -1</clus>
<clus scale="   91.578">  1  9  2 -1</clus>
<clus scale="   91.578">  1  5  2 -1</clus>
<clus scale="   91.578">  1  5  2 -1</clus>
</clustering>
</event>
<event>
 9    1  0.2374319E-005  0.1028407E+03  0.7546771E-02  0.1280402E+00
         -2   -1    0    0    0  501 -0.00000000000E+00  0.00000000000E+00  0.35284888288E+02  0.35284888288E+02  0.00000000000E+00 0.  1.
          1   -1    0    0  502    0  0.00000000000E+00 -0.00000000000E+00 -0.67980549372E+03  0.67980549372E+03  0.00000000000E+00 0. -1.
         23    2    1    2    0    0  0.29969999269E+02 -0.44157148704E+01 -0.76408695974E+02  0.12427116534E+03  0.93205870636E+02 0.  0.
        -24    2    1    2    0    0 -0.27127917849E+02  0.38575165301E+02 -0.53514040883E+03  0.54325804202E+03  0.80808884081E+02 0.  0.
         11    1    4    4    0    0 -0.41674865497E+02  0.56670793431E+02 -0.40317243749E+03  0.40926322531E+03  0.00000000000E+00 0. -1.
        -12    1    4    4    0    0  0.14546947647E+02 -0.18095628131E+02 -0.13196797135E+03  0.13399481671E+03  0.00000000000E+00 0.  1.
        -13    1    3    3    0    0  0.44231371258E+02 -0.34874031104E+02 -0.22336667276E+02  0.60593225313E+02  0.00000000000E+00 0.  1.
         13    1    3    3    0    0 -0.14261371989E+02  0.30458316234E+02 -0.54072028698E+02  0.63677940029E+02  0.00000000000E+00 0. -1.
         21    1    1    2  502  501 -0.28420814198E+01 -0.34159450430E+02 -0.32971500628E+02  0.47561174651E+02  0.00000000000E+00 0.  1.
<scales pt_clust_5="13000.00000" pt_clust_6="13000.00000" pt_clust_7="13000.00000" pt_clust_8="13000.00000" pt_clust_9="34.27748"></scales>
<clustering>
<clus scale="   34.277">  1  9  2 -1</clus>
<clus scale="   80.809">  5  6 -1 -1</clus>
<clus scale="   91.755">  2  5  1 -1</clus>
<clus scale="   93.206">  7  8 -1 -1</clus>
<clus scale="   91.755">  2  5  1 -1</clus>
</clustering>
</event>
<event>
 9    1  0.2374319E-005  0.1901481E+03  0.7546771E-02  0.1183850E+00
          1   -1    0    0  502    0  0.00000000000E+00  0.00000000000E+00  0.49648340750E+03  0.49648340750E+03  0.00000000000E+00 0. -1.
         -2   -1    0    0    0  501 -0.00000000000E+00 -0.00000000000E+00 -0.16171589696E+03  0.16171589696E+03  0.00000000000E+00 0.  1.
        -24    2    1    2    0    0  0.52512054449E+02 -0.44554594366E+02 -0.59608788362E+02  0.12176065164E+03  0.80807307200E+02 0.  0.
         23    2    1    2    0    0  0.12890430721E+03 -0.35720588029E+02  0.14214300505E+03  0.21553736627E+03  0.91429981658E+02 0.  0.
         13    1    3    3    0    0 -0.16619619283E+02 -0.29057087934E+02 -0.30087349169E+02  0.45008606780E+02  0.00000000000E+00 0. -1.
        -14    1    3    3    0    0  0.69131673731E+02 -0.15497506432E+02 -0.29521439193E+02  0.76752044862E+02  0.00000000000E+00 0.  1.
        -13    1    4    4    0    0  0.11306187135E+03 -0.63342928667E+02  0.12108761172E+03  0.17736268795E+03  0.00000000000E+00 0.  1.
         13    1    4    4    0    0  0.15842435866E+02  0.27622340638E+02  0.21055393331E+02  0.38174678319E+02  0.00000000000E+00 0. -1.
         21    1    1    2  502  501 -0.18141636166E+03  0.80275182395E+02  0.25223329385E+03  0.32090128655E+03  0.00000000000E+00 0. -1.
<scales pt_clust_5="13000.00000" pt_clust_6="13000.00000" pt_clust_7="13000.00000" pt_clust_8="13000.00000" pt_clust_9="166.72385"></scales>
<clustering>
<clus scale="   80.807">  5  6 -1 -1</clus>
<clus scale="   91.430">  7  8 -1 -1</clus>
<clus scale="  106.172">  2  5  1 -1</clus>
<clus scale="  166.724">  2  9  1 -1</clus>
<clus scale="  190.148">  1  5  2 -1</clus>
</clustering>
</event>
<event>
 9    1  0.2374319E-005  0.1394306E+03  0.7546771E-02  0.1217278E+00
          1   -1    0    0  502    0  0.00000000000E+00  0.00000000000E+00  0.10455029761E+03  0.10455029761E+03  0.00000000000E+00 0. -1.
         -2   -1    0    0    0  501 -0.00000000000E+00 -0.00000000000E+00 -0.52441804236E+03  0.52441804236E+03  0.00000000000E+00 0.  1.
        -24    2    1    2    0    0  0.84333399647E+02 -0.59179465976E+02 -0.41340697164E+03  0.43352667906E+03  0.80160624809E+02 0.  0.
         23    2    1    2    0    0 -0.54511141863E+02  0.96177354846E+02 -0.18514676960E+02  0.14641608148E+03  0.94198341183E+02 0.  0.
         11    1    3    3    0    0  0.84177188902E+02 -0.43196083129E+02 -0.22028032994E+03  0.23973970153E+03  0.00000000000E+00 0. -1.
        -12    1    3    3    0    0  0.15621074534E+00 -0.15983382847E+02 -0.19312664169E+03  0.19378697753E+03  0.00000000000E+00 0.  1.
        -11    1    4    4    0    0 -0.64552659516E+02  0.38730657874E+02  0.18271094488E+02  0.77465751167E+02  0.00000000000E+00 0. -1.
         11    1    4    4    0    0  0.10041517654E+02  0.57446696971E+02 -0.36785771449E+02  0.68950330317E+02  0.00000000000E+00 0.  1.
         21    1    1    2  502  501 -0.29822257784E+02 -0.36997888869E+02  0.12053903848E+02  0.49025579427E+02  0.00000000000E+00 0. -1.
<scales pt_clust_5="13000.00000" pt_clust_6="13000.00000" pt_clust_7="13000.00000" pt_clust_8="13000.00000" pt_clust_9="47.52064"></scales>
<clustering>
<clus scale="   47.521">  1  9  2 -1</clus>
<clus scale="   80.161">  5  6 -1 -1</clus>
<clus scale="   94.198">  7  8 -1 -1</clus>
<clus scale="  130.358">  2  5  1 -1</clus>
<clus scale="   47.521">  1  5  2 -1</clus>
</clustering>
</event>
<event>
 9    1  0.2374319E-005  0.2004253E+03  0.7546771E-02  0.1151081E+00
         -2   -1    0    0    0  501 -0.00000000000E+00  0.00000000000E+00  0.78756016161E+03  0.78756016161E+03  0.00000000000E+00 0.  1.
          1   -1    0    0  502    0  0.00000000000E+00 -0.00000000000E+00 -0.60450621252E+02  0.60450621252E+02  0.00000000000E+00 0. -1.
        -24    2    1    2    0    0  0.12523644746E+03 -0.13364013368E+03  0.45291575934E+03  0.49505583524E+03  0.80023383083E+02 0.  0.
         23    2    1    2    0    0 -0.12739386933E+03  0.10266197754E+03  0.24500601393E+03  0.31033774013E+03  0.97534027451E+02 0.  0.
         13    1    3    3    0    0  0.46385664125E+02 -0.96216483662E+02  0.18916637726E+03  0.21723986708E+03  0.00000000000E+00 0. -1.
        -14    1    3    3    0    0  0.78850783335E+02 -0.37423650020E+02  0.26374938208E+03  0.27781596815E+03  0.00000000000E+00 0.  1.
        -13    1    4    4    0    0 -0.14330285745E+03  0.84722650365E+02  0.21244482528E+03  0.26990079701E+03  0.00000000000E+00 0. -1.
         13    1    4    4    0    0  0.15908988120E+02  0.17939327172E+02  0.32561188650E+02  0.40436943117E+02  0.00000000000E+00 0.  1.
         21    1    1    2  502  501  0.21574218747E+01  0.30978156144E+02  0.29187767087E+02  0.42617207496E+02  0.00000000000E+00 0. -1.
<scales pt_clust_5="13000.00000" pt_clust_6="13000.00000" pt_clust_7="13000.00000" pt_clust_8="13000.00000" pt_clust_9="31.05319"></scales>
<clustering>
<clus scale="   31.053">  2  9  1 -1</clus>
<clus scale="   80.023">  5  6 -1 -1</clus>
<clus scale="   97.534">  7  8 -1 -1</clus>
<clus scale="  192.513">  1  5  2 -1</clus>
<clus scale="   31.053">  2  5  1 -1</clus>
</clustering>
</event>
<event>
 9    1  0.2374319E-005  0.2367063E+03  0.7546771E-02  0.1122770E+00
          1   -1    0    0  502    0  0.00000000000E+00  0.00000000000E+00  0.62639206946E+03  0.62639206946E+03  0.00000000000E+00 0. -1.
         -2   -1    0    0    0  501 -0.00000000000E+00 -0.00000000000E+00 -0.13894032037E+03  0.13894032037E+03  0.00000000000E+00 0.  1.
        -24    2    1    2    0    0 -0.12226198298E+03 -0.16500633510E+03  0.68397893510E+02  0.23040762768E+03  0.78957709905E+02 0.  0.
         23    2    1    2    0    0  0.13920239361E+03  0.20225433012E+03  0.25396212800E+03  0.36483752229E+03  0.91244368441E+02 0.  0.
         11    1    3    3    0    0 -0.47379497085E+01 -0.44664226156E+02  0.39340453652E+02  0.59707726125E+02  0.00000000000E+00 0. -1.
        -12    1    3    3    0    0 -0.11752403327E+03 -0.12034210895E+03  0.29057439859E+02  0.17069990156E+03  0.00000000000E+00 0.  1.
        -13    1    4    4    0    0  0.14189788498E+03  0.17554871276E+03  0.18848745168E+03  0.29407461597E+03  0.00000000000E+00 0.  1.
         13    1    4    4    0    0 -0.26954913700E+01  0.26705617356E+02  0.65474676315E+02  0.70762906318E+02  0.00000000000E+00 0. -1.
         21    1    1    2  502  501 -0.16940410638E+02 -0.37247995015E+02  0.16509172759E+03  0.17008723986E+03  0.00000000000E+00 0.  1.
<scales pt_clust_5="13000.00000" pt_clust_6="13000.00000" pt_clust_7="13000.00000" pt_clust_8="13000.00000" pt_clust_9="40.91932"></scales>
<clustering>
<clus scale="   40.919">  1  9  2 -1</clus>
<clus scale="   78.958">  5  6 -1 -1</clus>
<clus scale="   91.244">  7  8 -1 -1</clus>
<clus scale="  232.247">  2  5  1 -1</clus>
<clus scale="   40.919">  1  5  2 -1</clus>
</clustering>
</event>
<event>
 9    1  0.2374319E-005  0.9993778E+02  0.7546771E-02  0.1293606E+00
         -2   -1    0    0    0  501 -0.00000000000E+00  0.00000000000E+00  0.20591540241E+03  0.20591540241E+03  0.00000000000E+00 0.  1.
          1   -1    0    0  502    0  0.00000000000E+00 -0.00000000000E+00 -0.16117594476E+03  0.16117594476E+03  0.00000000000E+00 0. -1.
         23    2    1    2    0    0  0.30402716308E+02  0.27684030051E+02  0.14467816407E+03  0.17811237173E+03  0.95401861225E+02 0.  0.
        -24    2    1    2    0    0 -0.51356235246E+01 -0.70245268876E+01  0.10915568913E+02  0.73419850292E+02  0.72080553309E+02 0.  0.
         11    1    4    4    0    0 -0.31885794473E+02 -0.24438215886E+02  0.10395031856E+02  0.41496830869E+02  0.00000000000E+00 0. -1.
        -12    1    4    4    0    0  0.26750170948E+02  0.17413688998E+02  0.52053705718E+00  0.31923019424E+02  0.00000000000E+00 0.  1.
        -13    1    3    3    0    0  0.56962411809E+02 -0.96307925887E+01  0.73786289573E+02  0.93711712469E+02  0.00000000000E+00 0.  1.
         13    1    3    3    0    0 -0.26559695501E+02  0.37314822640E+02  0.70891874493E+02  0.84400659256E+02  0.00000000000E+00 0. -1.
         21    1    1    2  502  501 -0.25267092784E+02 -0.20659503163E+02 -0.11085427532E+03  0.11555912515E+03  0.00000000000E+00 0. -1.
<scales pt_clust_5="13000.00000" pt_clust_6="13000.00000" pt_clust_7="13000.00000" pt_clust_8="13000.00000" pt_clust_9="32.63803"></scales>
<clustering>
<clus scale="   32.638">  2  9  1 -1</clus>
<clus scale="   72.081">  5  6 -1 -1</clus>
<clus scale="   77.985">  2  5  1 -1</clus>
<clus scale="   95.402">  7  8 -1 -1</clus>
<clus scale="   32.638">  2  5  1 -1</clus>
</clustering>
</event>
<event>
 9    1  0.2374319E-005  0.1234977E+03  0.7546771E-02  0.1240481E+00
          1   -1    0    0  502    0  0.00000000000E+00  0.00000000000E+00  0.41058369235E+03  0.41058369235E+03  0.00000000000E+00 0. -1.
         -2   -1    0    0    0  501 -0.00000000000E+00 -0.00000000000E+00 -0.48808657371E+02  0.48808657371E+02  0.00000000000E+00 0.  1.
        -24    2    1    2    0    0  0.43347480440E+02 -0.88015002947E+02  0.16286531706E+03  0.20701012975E+03  0.81868415846E+02 0.  0.
         23    2    1    2    0    0 -0.88899993553E+01  0.70136616936E+02  0.15694007251E+03  0.19521224687E+03  0.92083971701E+02 0.  0.
         13    1    3    3    0    0  0.42474556732E+02 -0.28061065790E+01  0.53895598714E+02  0.68678218996E+02  0.00000000000E+00 0. -1.
        -14    1    3    3    0    0  0.87292370761E+00 -0.85208896368E+02  0.10896971834E+03  0.13833191075E+03  0.00000000000E+00 0.  1.
        -13    1    4    4    0    0  0.11910421300E+02  0.87920915285E+02  0.12048418239E+03  0.14962748306E+03  0.00000000000E+00 0. -1.
         13    1    4    4    0    0 -0.20800420655E+02 -0.17784298349E+02  0.36455890114E+02  0.45584763806E+02  0.00000000000E+00 0.  1.
         21    1    1    2  502  501 -0.34457481084E+02  0.17878386011E+02  0.41969645412E+02  0.57169973107E+02  0.00000000000E+00 0.  1.
<scales pt_clust_5="13000.00000" pt_clust_6="13000.00000" pt_clust_7="13000.00000" pt_clust_8="13000.00000" pt_clust_9="38.81951"></scales>
<clustering>
<clus scale="   38.820">  2  9  1 -1</clus>
<clus scale="   81.868">  5  6 -1 -1</clus>
<clus scale="   92.084">  7  8 -1 -1</clus>
<clus scale="  116.080">  2  5  1 -1</clus>
<clus scale="  123.498">  1  5  2 -1</clus>
</clustering>
</event>
<event>
 9    1  0.2374319E-005  0.1136751E+03  0.7546771E-02  0.1255751E+00
          1   -1    0    0  502    0  0.00000000000E+00  0.00000000000E+00  0.52600074354E+03  0.52600074354E+03  0.00000000000E+00 0. -1.
         -2   -1    0    0    0  501 -0.00000000000E+00 -0.00000000000E+00 -0.61374231430E+02  0.61374231430E+02  0.00000000000E+00 0.  1.
        -24    2    1    2    0    0  0.79065679069E+02 -0.14690409357E+02  0.11334659654E+02  0.11356433000E+03  0.79380052940E+02 0.  0.
         23    2    1    2    0    0 -0.53151735873E+02  0.12369492891E+02  0.26222556784E+03  0.28098107197E+03  0.84911736515E+02 0.  0.
         13    1    3    3    0    0  0.23493326380E+01 -0.28680674570E+02  0.20085748806E+02  0.35093272328E+02  0.00000000000E+00 0. -1.
        -14    1    3    3    0    0  0.76716346431E+02  0.13990265212E+02 -0.87510891521E+01  0.78471057670E+02  0.00000000000E+00 0.  1.
        -11    1    4    4    0    0 -0.66400824248E+01  0.41347942564E+02  0.74991746359E+02  0.85892404035E+02  0.00000000000E+00 0.  1.
         11    1    4    4    0    0 -0.46511653448E+02 -0.28978449674E+02  0.18723382148E+03  0.19508866794E+03  0.00000000000E+00 0. -1.
         21    1    1    2  502  501 -0.25913943196E+02  0.23209164666E+01  0.19106628462E+03  0.19282957300E+03  0.00000000000E+00 0. -1.
<scales pt_clust_5="13000.00000" pt_clust_6="13000.00000" pt_clust_7="13000.00000" pt_clust_8="13000.00000" pt_clust_9="26.01767"></scales>
<clustering>
<clus scale="   26.018">  1  9  2 -1</clus>
<clus scale="   79.380">  5  6 -1 -1</clus>
<clus scale="   84.912">  7  8 -1 -1</clus>
<clus scale="  109.605">  2  5  1 -1</clus>
<clus scale="   26.018">  1  5  2 -1</clus>
</clustering>
</event>
<event>
 9    1  0.2374319E-005  0.1214465E+03  0.7546771E-02  0.1243617E+00
         -4   -1    0    0    0  501 -0.00000000000E+00  0.00000000000E+00  0.17398994410E+03  0.17398994410E+03  0.00000000000E+00 0.  1.
          3   -1    0    0  502    0  0.00000000000E+00 -0.00000000000E+00 -0.16749881575E+03  0.16749881575E+03  0.00000000000E+00 0. -1.
        -24    2    1    2    0    0  0.83062931421E+02 -0.35363805086E+02  0.98253500217E+02  0.15702159470E+03  0.82776697261E+02 0.  0.
         23    2    1    2    0    0 -0.77096329689E+02  0.74274656803E+01 -0.98053140367E+02  0.15521629912E+03  0.92079693093E+02 0.  0.
         13    1    3    3    0    0  0.37979247965E+02 -0.96218847415E+01 -0.68707414002E+01  0.39777016345E+02  0.00000000000E+00 0. -1.
        -14    1    3    3    0    0  0.45083683457E+02 -0.25741920344E+02  0.10512424162E+03  0.11724457835E+03  0.00000000000E+00 0.  1.
        -13    1    4    4    0    0 -0.14313313303E+02  0.20954803477E+02  0.11785156526E+02  0.27979718384E+02  0.00000000000E+00 0.  1.
         13    1    4    4    0    0 -0.62783016386E+02 -0.13527337797E+02 -0.10983829689E+03  0.12723658074E+03  0.00000000000E+00 0. -1.
         21    1    1    2  502  501 -0.59666017322E+01  0.27936339405E+02  0.62907684994E+01  0.29250866037E+02  0.00000000000E+00 0. -1.
<scales pt_clust_5="13000.00000" pt_clust_6="13000.00000" pt_clust_7="13000.00000" pt_clust_8="13000.00000" pt_clust_9="28.56640"></scales>
<clustering>
<clus scale="   28.566">  1  9  2 -1</clus>
<clus scale="   82.777">  5  6 -1 -1</clus>
<clus scale="   92.080">  7  8 -1 -1</clus>
<clus scale="  114.554">  1  5  2 -1</clus>
<clus scale="  121.446">  2  5  1 -1</clus>
</clustering>
</event>
<event>
 9    1  0.2585486E-005  0.1302862E+03  0.7546771E-02  0.1229242E+00
         -4   -1    0    0    0  501 -0.00000000000E+00  0.00000000000E+00  0.78480329390E+03  0.78480329390E+03  0.00000000000E+00 0.  1.
          3   -1    0    0  502    0  0.00000000000E+00 -0.00000000000E+00 -0.13495161297E+03  0.13495161297E+03  0.00000000000E+00 0. -1.
        -24    2    1    2    0    0 -0.97634557001E+01  0.95580923660E+02  0.73028035763E+03  0.74094004373E+03  0.80322534964E+02 0.  0.
         23    2    1    2    0    0  0.33129904402E+02 -0.70332024009E+02 -0.82770194556E+02  0.14433326567E+03  0.89089855232E+02 0.  0.
         11    1    3    3    0    0 -0.20010204307E+02  0.15728692133E+02  0.51959285995E+02  0.57858166526E+02  0.00000000000E+00 0. -1.
        -12    1    3    3    0    0  0.10246748607E+02  0.79852231527E+02  0.67832107163E+03  0.68308187720E+03  0.00000000000E+00 0.  1.
        -13    1    4    4    0    0  0.21164103638E+02 -0.90090493410E+02 -0.77337001168E+02  0.12060359877E+03  0.00000000000E+00 0. -1.
         13    1    4    4    0    0  0.11965800763E+02  0.19758469401E+02 -0.54331933879E+01  0.23729666904E+02  0.00000000000E+00 0.  1.
         21    1    1    2  502  501 -0.23366448701E+02 -0.25248899651E+02  0.23415178522E+01  0.34481597474E+02  0.00000000000E+00 0. -1.
<scales pt_clust_5="13000.00000" pt_clust_6="13000.00000" pt_clust_7="13000.00000" pt_clust_8="13000.00000" pt_clust_9="34.40200"></scales>
<clustering>
<clus scale="   34.402">  2  9  1 -1</clus>
<clus scale="   80.323">  5  6 -1 -1</clus>
<clus scale="   89.090">  7  8 -1 -1</clus>
<clus scale="  124.456">  1  5  2 -1</clus>
<clus scale="   34.402">  2  5  1 -1</clus>
</clustering>
</event>
<event>
 9    1  0.2374319E-005  0.2161095E+03  0.7546771E-02  0.1137159E+00
          3   -1    0    0  502    0  0.00000000000E+00  0.00000000000E+00  0.51030725277E+03  0.51030725277E+03  0.00000000000E+00 0. -1.
         -4   -1    0    0    0  501 -0.00000000000E+00 -0.00000000000E+00 -0.28875743404E+03  0.28875743404E+03  0.00000000000E+00 0.  1.
         23    2    1    2    0    0  0.17844147222E+03 -0.68803238674E+02 -0.19235579450E+03  0.28591350077E+03  0.90391003877E+02 0.  0.
        -24    2    1    2    0    0 -0.22778035867E+03  0.71839041020E+02  0.34895005299E+03  0.43152541426E+03  0.86042454989E+02 0.  0.
         11    1    4    4    0    0 -0.13142385558E+03  0.43207637210E+02  0.27118972799E+03  0.30443882521E+03  0.00000000000E+00 0. -1.
        -12    1    4    4    0    0 -0.96356503088E+02  0.28631403811E+02  0.77760324996E+02  0.12708658904E+03  0.00000000000E+00 0.  1.
        -11    1    3    3    0    0  0.10199818383E+03 -0.25998487282E+02 -0.16199774690E+03  0.19319115105E+03  0.00000000000E+00 0.  1.
         11    1    3    3    0    0  0.76443288392E+02 -0.42804751393E+02 -0.30358047604E+02  0.92722349713E+02  0.00000000000E+00 0. -1.
         21    1    1    2  502  501  0.49338886449E+02 -0.30358023459E+01  0.64955560248E+02  0.81625771782E+02  0.00000000000E+00 0.  1.
<scales pt_clust_5="13000.00000" pt_clust_6="13000.00000" pt_clust_7="13000.00000" pt_clust_8="13000.00000" pt_clust_9="49.43219"></scales>
<clustering>
<clus scale="   49.432">  1  9  2 -1</clus>
<clus scale="   86.042">  5  6 -1 -1</clus>
<clus scale="   90.391">  7  8 -1 -1</clus>
<clus scale="  214.327">  1  5  2 -1</clus>
<clus scale="   49.432">  1  5  2 -1</clus>
</clustering>
</event>
<event>
 9    1  0.2374319E-005  0.1733864E+03  0.7546771E-02  0.1176397E+00
         -2   -1    0    0    0  501 -0.00000000000E+00  0.00000000000E+00  0.17823046537E+03  0.17823046537E+03  0.00000000000E+00 0.  1.
          1   -1    0    0  502    0  0.00000000000E+00 -0.00000000000E+00 -0.65641704565E+03  0.65641704565E+03  0.00000000000E+00 0. -1.
        -24    2    1    2    0    0 -0.27844285135E+02 -0.14377486199E+03  0.10917907619E+03  0.19768703969E+03  0.75588225482E+02 0.  0.
         23    2    1    2    0    0 -0.16021676176E+02  0.16341880723E+03 -0.52873766388E+03  0.56114920132E+03  0.91446751041E+02 0.  0.
         13    1    3    3    0    0 -0.46222713206E+02 -0.88294437849E+02  0.40684124142E+02  0.10764592388E+03  0.00000000000E+00 0. -1.
        -14    1    3    3    0    0  0.18378428071E+02 -0.55480424139E+02  0.68494952044E+02  0.90041115811E+02  0.00000000000E+00 0.  1.
        -13    1    4    4    0    0 -0.36244369241E+02  0.18326373408E+02 -0.94209239051E+02  0.10259089134E+03  0.00000000000E+00 0.  1.
         13    1    4    4    0    0  0.20222693066E+02  0.14509243382E+03 -0.43452842482E+03  0.45855830998E+03  0.00000000000E+00 0. -1.
         21    1    1    2  502  501  0.43865961310E+02 -0.19643945240E+02 -0.58627992589E+02  0.75811270015E+02  0.00000000000E+00 0. -1.
<scales pt_clust_5="13000.00000" pt_clust_6="13000.00000" pt_clust_7="13000.00000" pt_clust_8="13000.00000" pt_clust_9="48.06357"></scales>
<clustering>
<clus scale="   48.064">  2  9  1 -1</clus>
<clus scale="   75.588">  5  6 -1 -1</clus>
<clus scale="   91.447">  7  8 -1 -1</clus>
<clus scale="  165.571">  1  5  2 -1</clus>
<clus scale="   48.064">  2  5  1 -1</clus>
</clustering>
</event>
<event>
 9    1  0.2374319E-005  0.1291110E+03  0.7546771E-02  0.1231233E+00
          1   -1    0    0  502    0  0.00000000000E+00  0.00000000000E+00  0.63884472649E+02  0.63884472649E+02  0.00000000000E+00 0. -1.
         -2   -1    0    0    0  501 -0.00000000000E+00 -0.00000000000E+00 -0.48531708959E+03  0.48531708959E+03  0.00000000000E+00 0.  1.
        -24    2    1    2    0    0 -0.70845501266E+02 -0.63127076451E+02 -0.31603632010E+03  0.33948013972E+03  0.79772782380E+02 0.  0.
         23    2    1    2    0    0  0.82821446677E+02  0.40079555846E+02 -0.12354105681E+03  0.17803792856E+03  0.89271207355E+02 0.  0.
         13    1    3    3    0    0 -0.37941658683E+02  0.13440992820E+02 -0.90872763463E+02  0.99388575254E+02  0.00000000000E+00 0. -1.
        -14    1    3    3    0    0 -0.32903842583E+02 -0.76568069271E+02 -0.22516355664E+03  0.24009156447E+03  0.00000000000E+00 0.  1.
        -11    1    4    4    0    0  0.51605082717E+02  0.61725849108E+02 -0.11281507865E+03  0.13856553317E+03  0.00000000000E+00 0.  1.
         11    1    4    4    0    0  0.31216363959E+02 -0.21646293262E+02 -0.10725978158E+02  0.39472395396E+02  0.00000000000E+00 0. -1.
         21    1    1    2  502  501 -0.11975945411E+02  0.23047520605E+02  0.18144759977E+02  0.31683493954E+02  0.00000000000E+00 0. -1.
<scales pt_clust_5="13000.00000" pt_clust_6="13000.00000" pt_clust_7="13000.00000" pt_clust_8="13000.00000" pt_clust_9="25.97328"></scales>
<clustering>
<clus scale="   25.973">  1  9  2 -1</clus>
<clus scale="   79.773">  5  6 -1 -1</clus>
<clus scale="   89.271">  7  8 -1 -1</clus>
<clus scale="  122.735">  2  5  1 -1</clus>
<clus scale="   25.973">  1  5  2 -1</clus>
</clustering>
</event>
<event>
 9    1  0.2374319E-005  0.1102094E+03  0.7546771E-02  0.1264631E+00
         -2   -1    0    0    0  501 -0.00000000000E+00  0.00000000000E+00  0.72467031949E+02  0.72467031949E+02  0.00000000000E+00 0.  1.
          1   -1    0    0  502    0  0.00000000000E+00 -0.00000000000E+00 -0.27749039785E+03  0.27749039785E+03  0.00000000000E+00 0. -1.
         23    2    1    2    0    0 -0.23268759153E+02 -0.66242114831E+02 -0.60608142972E+02  0.13041308645E+03  0.91677550103E+02 0.  0.
        -24    2    1    2    0    0  0.60205343191E+02  0.23290423001E+02 -0.64603590363E+02  0.12167169260E+03  0.80394338984E+02 0.  0.
         11    1    4    4    0    0  0.70138767989E+02  0.21902613526E+02 -0.76526011931E+02  0.10609147825E+03  0.00000000000E+00 0. -1.
        -12    1    4    4    0    0 -0.99334247979E+01  0.13878094753E+01  0.11922421568E+02  0.15580214357E+02  0.00000000000E+00 0.  1.
        -13    1    3    3    0    0 -0.35649448423E+02  0.10356558509E+02 -0.26738451593E+02  0.45750259787E+02  0.00000000000E+00 0. -1.
         13    1    3    3    0    0  0.12380689270E+02 -0.76598673340E+02 -0.33869691380E+02  0.84662826662E+02  0.00000000000E+00 0.  1.
         21    1    1    2  502  501 -0.36936584039E+02  0.42951691830E+02 -0.79811632565E+02  0.97872650747E+02  0.00000000000E+00 0. -1.
<scales pt_clust_5="13000.00000" pt_clust_6="13000.00000" pt_clust_7="13000.00000" pt_clust_8="13000.00000" pt_clust_9="56.64944"></scales>
<clustering>
<clus scale="   56.649">  2  9  1 -1</clus>
<clus scale="   80.394">  5  6 -1 -1</clus>
<clus scale="   91.678">  7  8 -1 -1</clus>
<clus scale="  101.018">  2  5  1 -1</clus>
<clus scale="   56.649">  2  5  1 -1</clus>
</clustering>
</event>
<event>
 9    1  0.2374319E-005  0.1564044E+03  0.7546771E-02  0.1195997E+00
          3   -1    0    0  502    0  0.00000000000E+00  0.00000000000E+00  0.46100542379E+03  0.46100542379E+03  0.00000000000E+00 0. -1.
         -4   -1    0    0    0  501 -0.00000000000E+00 -0.00000000000E+00 -0.28478484483E+03  0.28478484483E+03  0.00000000000E+00 0.  1.
         23    2    1    2    0    0 -0.14453818421E+03 -0.95657351587E+01 -0.22310606367E+03  0.28300113912E+03  0.96594715760E+02 0.  0.
        -24    2    1    2    0    0  0.11891128106E+03 -0.28138990704E+02  0.39014806931E+03  0.41628503586E+03  0.78396553057E+02 0.  0.
         11    1    4    4    0    0  0.11739143781E+03 -0.46725723594E+02  0.34662743403E+03  0.36893715039E+03  0.00000000000E+00 0. -1.
        -12    1    4    4    0    0  0.15198432528E+01  0.18586732890E+02  0.43520635288E+02  0.47347885474E+02  0.00000000000E+00 0.  1.
        -11    1    3    3    0    0 -0.21925760847E+02  0.11951672331E+02  0.27373732224E+01  0.25121199660E+02  0.00000000000E+00 0. -1.
         11    1    3    3    0    0 -0.12261242336E+03 -0.21517407490E+02 -0.22584343689E+03  0.25787993946E+03  0.00000000000E+00 0.  1.
         21    1    1    2  502  501  0.25626903143E+02  0.37704725863E+02  0.91785733158E+01  0.46504093639E+02  0.00000000000E+00 0.  1.
<scales pt_clust_5="13000.00000" pt_clust_6="13000.00000" pt_clust_7="13000.00000" pt_clust_8="13000.00000" pt_clust_9="45.58930"></scales>
<clustering>
<clus scale="   45.589">  2  9  1 -1</clus>
<clus scale="   78.397">  5  6 -1 -1</clus>
<clus scale="   96.595">  7  8 -1 -1</clus>
<clus scale="  145.869">  1  5  2 -1</clus>
<clus scale="  145.869">  1  5  2 -1</clus>
</clustering>
</event>
<event>
 9    1  0.2374319E-005  0.1911045E+03  0.7546771E-02  0.1183495E+00
         -2   -1    0    0    0  501 -0.00000000000E+00  0.00000000000E+00  0.23329120818E+03  0.23329120818E+03  0.00000000000E+00 0.  1.
          1   -1    0    0  502    0  0.00000000000E+00 -0.00000000000E+00 -0.55933047553E+03  0.55933047553E+03  0.00000000000E+00 0. -1.
         23    2    1    2    0    0 -0.17529383357E+03 -0.23539981963E+02  0.16244464583E+03  0.25719463875E+03  0.92080184633E+02 0.  0.
        -24    2    1    2    0    0  0.61758890200E+02  0.26288372599E+02 -0.22236724963E+03  0.24609019000E+03  0.81289291128E+02 0.  0.
         13    1    4    4    0    0  0.69440148959E+02  0.26049180808E+02 -0.22580387338E+03  0.23767179753E+03  0.00000000000E+00 0. -1.
        -14    1    4    4    0    0 -0.76812587593E+01  0.23919179081E+00  0.34366237531E+01  0.84183924629E+01  0.00000000000E+00 0.  1.
        -13    1    3    3    0    0 -0.84990368607E+02  0.26386313679E+02  0.41438792678E+02  0.98167071078E+02  0.00000000000E+00 0.  1.
         13    1    3    3    0    0 -0.90303464965E+02 -0.49926295643E+02  0.12100585316E+03  0.15902756767E+03  0.00000000000E+00 0. -1.
         21    1    1    2  502  501  0.11353494337E+03 -0.27483906354E+01 -0.26611666356E+03  0.28933685497E+03  0.00000000000E+00 0. -1.
<scales pt_clust_5="13000.00000" pt_clust_6="13000.00000" pt_clust_7="13000.00000" pt_clust_8="13000.00000" pt_clust_9="167.45800"></scales>
<clustering>
<clus scale="   81.289">  5  6 -1 -1</clus>
<clus scale="   92.080">  7  8 -1 -1</clus>
<clus scale="  105.419">  2  5  1 -1</clus>
<clus scale="  167.458">  2  9  1 -1</clus>
<clus scale="  105.419">  2  5  1 -1</clus>
</clustering>
</event>
<event>
 9    1  0.2374319E-005  0.1275401E+03  0.7546771E-02  0.1234909E+00
         -2   -1    0    0    0  501 -0.00000000000E+00  0.00000000000E+00  0.16147984653E+03  0.16147984653E+03  0.00000000000E+00 0.  1.
          1   -1    0    0  502    0  0.00000000000E+00 -0.00000000000E+00 -0.46963273005E+03  0.46963273005E+03  0.00000000000E+00 0. -1.
        -24    2    1    2    0    0 -0.44848819580E+02 -0.14082993528E+03  0.64065392557E+02  0.17959191972E+03  0.79400225537E+02 0.  0.
         23    2    1    2    0    0  0.41779964118E+02  0.71116480115E+02 -0.35979778395E+03  0.38064292884E+03  0.92905730716E+02 0.  0.
         11    1    3    3    0    0 -0.31041726311E+02 -0.96700814593E+02  0.12190082680E+01  0.10156831345E+03  0.00000000000E+00 0. -1.
        -12    1    3    3    0    0 -0.13807093269E+02 -0.44129120689E+02  0.62846384289E+02  0.78023606271E+02  0.00000000000E+00 0.  1.
        -11    1    4    4    0    0 -0.24238137000E+02  0.42990620028E+02 -0.18998288022E+03  0.19628850061E+03  0.00000000000E+00 0. -1.
         11    1    4    4    0    0  0.66018101119E+02  0.28125860087E+02 -0.16981490373E+03  0.18435442823E+03  0.00000000000E+00 0.  1.
         21    1    1    2  502  501  0.30688554619E+01  0.69713455167E+02 -0.12420492130E+02  0.70877728025E+02  0.00000000000E+00 0.  1.
<scales pt_clust_5="13000.00000" pt_clust_6="13000.00000" pt_clust_7="13000.00000" pt_clust_8="13000.00000" pt_clust_9="69.78097"></scales>
<clustering>
<clus scale="   69.781">  1  9  2 -1</clus>
<clus scale="   79.400">  5  6 -1 -1</clus>
<clus scale="   92.906">  7  8 -1 -1</clus>
<clus scale="  118.065">  1  5  2 -1</clus>
<clus scale="  127.540">  2  5  1 -1</clus>
</clustering>
</event>
<event>
 9    1  0.2374319E-005  0.4145014E+03  0.7546771E-02  0.1039061E+00
          1   -1    0    0  502    0  0.00000000000E+00  0.00000000000E+00  0.18574707467E+04  0.18574707467E+04  0.00000000000E+00 0. -1.
         -2   -1    0    0    0  501 -0.00000000000E+00 -0.00000000000E+00 -0.21503542782E+03  0.21503542782E+03  0.00000000000E+00 0.  1.
        -24    2    1    2    0    0  0.30498793755E+03  0.28786541442E+03  0.62894421993E+02  0.43149922883E+03  0.79697787281E+02 0.  0.
         23    2    1    2    0    0 -0.24349570831E+03 -0.23290278399E+03  0.10880534808E+04  0.11426475722E+04  0.90825273793E+02 0.  0.
         13    1    3    3    0    0  0.80358115312E+02  0.80930940086E+02  0.53403793079E+02  0.12593335092E+03  0.00000000000E+00 0. -1.
        -14    1    3    3    0    0  0.22462982224E+03  0.20693447433E+03  0.94906289135E+01  0.30556587791E+03  0.00000000000E+00 0.  1.
        -11    1    4    4    0    0 -0.57134868055E+02 -0.58705760349E+02  0.41203110933E+03  0.42009569684E+03  0.00000000000E+00 0.  1.
         11    1    4    4    0    0 -0.18636084026E+03 -0.17419702364E+03  0.67602237150E+03  0.72255187537E+03  0.00000000000E+00 0. -1.
         21    1    1    2  502  501 -0.61492229239E+02 -0.54962630433E+02  0.49148741610E+03  0.49835937353E+03  0.00000000000E+00 0. -1.
<scales pt_clust_5="13000.00000" pt_clust_6="13000.00000" pt_clust_7="13000.00000" pt_clust_8="13000.00000" pt_clust_9="82.47536"></scales>
<clustering>
<clus scale="   79.698">  5  6 -1 -1</clus>
<clus scale="   82.475">  1  9  2 -1</clus>
<clus scale="   90.825">  7  8 -1 -1</clus>
<clus scale="  412.206">  2  5  1 -1</clus>
<clus scale="   82.475">  1  5  2 -1</clus>
</clustering>
</event>
<event>
 9    1  0.2374319E-005  0.1010415E+03  0.7546771E-02  0.1283058E+00
         -2   -1    0    0    0  501 -0.00000000000E+00  0.00000000000E+00  0.62001317780E+02  0.62001317780E+02  0.00000000000E+00 0.  1.
          1   -1    0    0  502    0  0.00000000000E+00 -0.00000000000E+00 -0.28474810079E+03  0.28474810079E+03  0.00000000000E+00 0. -1.
        -24    2    1    2    0    0  0.78122413822E+00  0.46218496134E+02 -0.41775893119E+02  0.10156462472E+03  0.80208403876E+02 0.  0.
         23    2    1    2    0    0 -0.39440015309E+02 -0.35365249254E+02 -0.67136888470E+02  0.12447657134E+03  0.90447992551E+02 0.  0.
         13    1    3    3    0    0 -0.29049634443E+02  0.44870864524E+02 -0.42709297852E+01  0.53623843443E+02  0.00000000000E+00 0. -1.
        -14    1    3    3    0    0  0.29830858581E+02  0.13476316101E+01 -0.37504963334E+02  0.47940781276E+02  0.00000000000E+00 0.  1.
        -13    1    4    4    0    0 -0.48612917698E+02  0.10540532161E+02 -0.58644448270E+02  0.76899219100E+02  0.00000000000E+00 0. -1.
         13    1    4    4    0    0  0.91729023891E+01 -0.45905781415E+02 -0.84924402004E+01  0.47577352239E+02  0.00000000000E+00 0.  1.
         21    1    1    2  502  501  0.38658791171E+02 -0.10853246880E+02 -0.11383400142E+03  0.12070822251E+03  0.00000000000E+00 0.  1.
<scales pt_clust_5="13000.00000" pt_clust_6="13000.00000" pt_clust_7="13000.00000" pt_clust_8="13000.00000" pt_clust_9="40.15339"></scales>
<clustering>
<clus scale="   40.153">  2  9  1 -1</clus>
<clus scale="   80.208">  5  6 -1 -1</clus>
<clus scale="   90.448">  7  8 -1 -1</clus>
<clus scale="   91.989">  1  5  2 -1</clus>
<clus scale="   40.153">  2  5  1 -1</clus>
</clustering>
</event>
<event>
 9    1  0.2374319E-005  0.1542263E+03  0.7546771E-02  0.1196480E+00
         -2   -1    0    0    0  501 -0.00000000000E+00  0.00000000000E+00  0.59710125306E+03  0.59710125306E+03  0.00000000000E+00 0.  1.
          1   -1    0    0  502    0  0.00000000000E+00 -0.00000000000E+00 -0.43543060104E+03  0.43543060104E+03  0.00000000000E+00 0. -1.
         23    2    1    2    0    0  0.12139555413E+03  0.33043050271E+02  0.55641020242E+03  0.57713057919E+03  0.87513817980E+02 0.  0.
        -24    2    1    2    0    0 -0.15440364835E+03 -0.37488333552E+02 -0.25108487953E+03  0.30793616280E+03  0.80840595339E+02 0.  0.
         13    1    4    4    0    0 -0.12285680379E+03  0.69897672604E+00 -0.13972665260E+03  0.18605864735E+03  0.00000000000E+00 0. -1.
        -14    1    4    4    0    0 -0.31546844563E+02 -0.38187310278E+02 -0.11135822693E+03  0.12187751546E+03  0.00000000000E+00 0.  1.
        -13    1    3    3    0    0  0.41251971399E+02 -0.10923614177E+02  0.68305948035E+02  0.80540381349E+02  0.00000000000E+00 0. -1.
         13    1    3    3    0    0  0.80143582734E+02  0.43966664448E+02  0.48810425439E+03  0.49659019784E+03  0.00000000000E+00 0.  1.
         21    1    1    2  502  501  0.33008094219E+02  0.44452832805E+01 -0.14365467087E+03  0.14746511211E+03  0.00000000000E+00 0. -1.
<scales pt_clust_5="13000.00000" pt_clust_6="13000.00000" pt_clust_7="13000.00000" pt_clust_8="13000.00000" pt_clust_9="33.30608"></scales>
<clustering>
<clus scale="   33.306">  2  9  1 -1</clus>
<clus scale="   80.841">  5  6 -1 -1</clus>
<clus scale="   87.514">  7  8 -1 -1</clus>
<clus scale="  150.540">  2  5  1 -1</clus>
<clus scale="   33.306">  2  5  1 -1</clus>
</clustering>
</event>
<event>
 9    1  0.2374319E-005  0.9747344E+02  0.7546771E-02  0.1292623E+00
         -2   -1    0    0    0  501 -0.00000000000E+00  0.00000000000E+00  0.48745229621E+03  0.48745229621E+03  0.00000000000E+00 0.  1.
          1   -1    0    0  502    0  0.00000000000E+00 -0.00000000000E+00 -0.85494851697E+02  0.85494851697E+02  0.00000000000E+00 0. -1.
        -24    2    1    2    0    0  0.19628781947E+02  0.18819616999E+02  0.42535576180E+03  0.43383138809E+03  0.80886847736E+02 0.  0.
         23    2    1    2    0    0 -0.16826780098E+02 -0.43480821711E+02 -0.37118341866E+02  0.11075618812E+03  0.93356518353E+02 0.  0.
         13    1    3    3    0    0 -0.29767041756E+02  0.20105221615E+02  0.17749534004E+03  0.18109360134E+03  0.00000000000E+00 0. -1.
        -14    1    3    3    0    0  0.49395823703E+02 -0.12856046159E+01  0.24786042176E+03  0.25273778675E+03  0.00000000000E+00 0.  1.
        -11    1    4    4    0    0 -0.40559135176E+02 -0.46235294711E+02  0.56541204650E+01  0.61763379129E+02  0.00000000000E+00 0.  1.
         11    1    4    4    0    0  0.23732355077E+02  0.27544730006E+01 -0.42772462331E+02  0.48992808991E+02  0.00000000000E+00 0. -1.
         21    1    1    2  502  501 -0.28020018491E+01  0.24661204711E+02  0.13720024585E+02  0.28359571696E+02  0.00000000000E+00 0. -1.
<scales pt_clust_5="13000.00000" pt_clust_6="13000.00000" pt_clust_7="13000.00000" pt_clust_8="13000.00000" pt_clust_9="24.81988"></scales>
<clustering>
<clus scale="   24.820">  2  9  1 -1</clus>
<clus scale="   80.887">  5  6 -1 -1</clus>
<clus scale="   85.606">  1  5  2 -1</clus>
<clus scale="   93.357">  7  8 -1 -1</clus>
<clus scale="   24.820">  2  5  1 -1</clus>
</clustering>
</event>
<event>
 9    1  0.2374319E-005  0.1405360E+03  0.7546771E-02  0.1214954E+00
         -4   -1    0    0    0  501 -0.00000000000E+00  0.00000000000E+00  0.57721439709E+03  0.57721439709E+03  0.00000000000E+00 0.  1.
          3   -1    0    0  502    0  0.00000000000E+00 -0.00000000000E+00 -0.27810403264E+03  0.27810403264E+03  0.00000000000E+00 0. -1.
        -24    2    1    2    0    0  0.67909178219E+02 -0.88110376536E+02  0.47295645028E+03  0.49251123511E+03  0.80649971519E+02 0.  0.
         23    2    1    2    0    0 -0.17148314878E+02  0.91899008113E+02  0.44825644525E+02  0.13828916720E+03  0.91515370095E+02 0.  0.
         13    1    3    3    0    0 -0.56784280747E+01 -0.44445277941E+02  0.95661917945E+02  0.10563536255E+03  0.00000000000E+00 0. -1.
        -14    1    3    3    0    0  0.73587606294E+02 -0.43665098595E+02  0.37729453234E+03  0.38687587256E+03  0.00000000000E+00 0.  1.
        -11    1    4    4    0    0 -0.21854024538E+02  0.39443742435E+02 -0.24427944852E+02  0.51284809598E+02  0.00000000000E+00 0.  1.
         11    1    4    4    0    0  0.47057096603E+01  0.52455265678E+02  0.69253589378E+02  0.87004357606E+02  0.00000000000E+00 0. -1.
         21    1    1    2  502  501 -0.50760863342E+02 -0.37886315774E+01 -0.21867173036E+03  0.22451802741E+03  0.00000000000E+00 0. -1.
<scales pt_clust_5="13000.00000" pt_clust_6="13000.00000" pt_clust_7="13000.00000" pt_clust_8="13000.00000" pt_clust_9="50.90205"></scales>
<clustering>
<clus scale="   50.902">  2  9  1 -1</clus>
<clus scale="   80.650">  5  6 -1 -1</clus>
<clus scale="   91.515">  7  8 -1 -1</clus>
<clus scale="  133.715">  1  5  2 -1</clus>
<clus scale="   50.902">  2  5  1 -1</clus>
</clustering>
</event>
<event>
 9    1  0.2374319E-005  0.1012348E+03  0.7546771E-02  0.1278740E+00
         -2   -1    0    0    0  501 -0.00000000000E+00  0.00000000000E+00  0.62959685325E+03  0.62959685325E+03  0.00000000000E+00 0.  1.
          1   -1    0    0  502    0  0.00000000000E+00 -0.00000000000E+00 -0.24571401781E+02  0.24571401781E+02  0.00000000000E+00 0. -1.
        -24    2    1    2    0    0 -0.39517829798E+02 -0.51113198734E+02  0.42380960687E+03  0.43621392285E+03  0.80584028529E+02 0.  0.
         23    2    1    2    0    0  0.36977673931E+02  0.26362685508E+02  0.15662647133E+03  0.18297322908E+03  0.82975969300E+02 0.  0.
         11    1    3    3    0    0 -0.38645472295E+02  0.91197687120E+01  0.11722487568E+03  0.12376717735E+03  0.00000000000E+00 0. -1.
        -12    1    3    3    0    0 -0.87235750317E+00 -0.60232967446E+02  0.30658473119E+03  0.31244674550E+03  0.00000000000E+00 0.  1.
        -11    1    4    4    0    0  0.42698376409E+00 -0.25373698759E+02  0.77882809947E+02  0.81912996460E+02  0.00000000000E+00 0.  1.
         11    1    4    4    0    0  0.36550690167E+02  0.51736384267E+02  0.78743661385E+02  0.10106023262E+03  0.00000000000E+00 0. -1.
         21    1    1    2  502  501  0.25401558667E+01  0.24750513226E+02  0.24589373266E+02  0.34981103105E+02  0.00000000000E+00 0. -1.
<scales pt_clust_5="13000.00000" pt_clust_6="13000.00000" pt_clust_7="13000.00000" pt_clust_8="13000.00000" pt_clust_9="24.88052"></scales>
<clustering>
<clus scale="   24.881">  2  9  1 -1</clus>
<clus scale="   80.584">  5  6 -1 -1</clus>
<clus scale="   82.976">  7  8 -1 -1</clus>
<clus scale="   99.284">  1  5  2 -1</clus>
<clus scale="   24.881">  2  5  1 -1</clus>
</clustering>
</event>
<event>
 9    1  0.2374319E-005  0.1643283E+03  0.7546771E-02  0.1184990E+00
         -2   -1    0    0    0  501 -0.00000000000E+00  0.00000000000E+00  0.10891701088E+03  0.10891701088E+03  0.00000000000E+00 0.  1.
          1   -1    0    0  502    0  0.00000000000E+00 -0.00000000000E+00 -0.98943053698E+03  0.98943053698E+03  0.00000000000E+00 0. -1.
        -24    2    1    2    0    0 -0.92879433411E+02 -0.81936807807E+02 -0.31677579163E+02  0.15228248585E+03  0.82742110500E+02 0.  0.
         23    2    1    2    0    0  0.56059086192E+02  0.18819079056E+03 -0.22417335776E+03  0.31136119631E+03  0.90187058059E+02 0.  0.
         13    1    3    3    0    0 -0.15080854200E+01 -0.25630899545E+02 -0.36755939489E+02  0.44835437109E+02  0.00000000000E+00 0. -1.
        -14    1    3    3    0    0 -0.91371347991E+02 -0.56305908262E+02  0.50783603259E+01  0.10744704874E+03  0.00000000000E+00 0.  1.
        -13    1    4    4    0    0  0.74632282342E+01  0.15088404575E+03 -0.18412833071E+03  0.23816997545E+03  0.00000000000E+00 0. -1.
         13    1    4    4    0    0  0.48595857958E+02  0.37306744804E+02 -0.40045027058E+02  0.73191220858E+02  0.00000000000E+00 0.  1.
         21    1    1    2  502  501  0.36820347218E+02 -0.10625398275E+03 -0.62466258918E+03  0.63470386570E+03  0.00000000000E+00 0.  1.
<scales pt_clust_5="13000.00000" pt_clust_6="13000.00000" pt_clust_7="13000.00000" pt_clust_8="13000.00000" pt_clust_9="112.45286"></scales>
<clustering>
<clus scale="   82.742">  5  6 -1 -1</clus>
<clus scale="   90.187">  7  8 -1 -1</clus>
<clus scale="  112.453">  2  9  1 -1</clus>
<clus scale="  160.363">  1  5  2 -1</clus>
<clus scale="  112.453">  2  5  1 -1</clus>
</clustering>
</event>
<event>
 9    1  0.2374319E-005  0.9505372E+02  0.7546771E-02  0.1299150E+00
          1   -1    0    0  502    0  0.00000000000E+00  0.00000000000E+00  0.39856774325E+03  0.39856774325E+03  0.00000000000E+00 0. -1.
         -2   -1    0    0    0  501 -0.00000000000E+00 -0.00000000000E+00 -0.34151811492E+02  0.34151811492E+02  0.00000000000E+00 0.  1.
        -24    2    1    2    0    0  0.12260574906E+02 -0.10911501777E+02  0.50502400714E+02  0.95742191280E+02  0.79666129222E+02 0.  0.
         23    2    1    2    0    0 -0.31484425185E+02 -0.18801918912E+01  0.23571292727E+03  0.25543891684E+03  0.93239755496E+02 0.  0.
         13    1    3    3    0    0  0.33229369250E+01 -0.33130709431E+02  0.61075885609E+02  0.69562559039E+02  0.00000000000E+00 0. -1.
        -14    1    3    3    0    0  0.89376379813E+01  0.22219207654E+02 -0.10573484895E+02  0.26179632241E+02  0.00000000000E+00 0.  1.
        -11    1    4    4    0    0 -0.31189896491E+02 -0.44676738855E+02  0.15098102037E+03  0.16051195952E+03  0.00000000000E+00 0. -1.
         11    1    4    4    0    0 -0.29452869329E+00  0.42796546964E+02  0.84731906899E+02  0.94926957320E+02  0.00000000000E+00 0.  1.
         21    1    1    2  502  501  0.19223850278E+02  0.12791693668E+02  0.78200603773E+02  0.81538446618E+02  0.00000000000E+00 0.  1.
<scales pt_clust_5="13000.00000" pt_clust_6="13000.00000" pt_clust_7="13000.00000" pt_clust_8="13000.00000" pt_clust_9="23.09077"></scales>
<clustering>
<clus scale="   23.091">  1  9  2 -1</clus>
<clus scale="   79.666">  5  6 -1 -1</clus>
<clus scale="   81.782">  2  5  1 -1</clus>
<clus scale="   93.240">  7  8 -1 -1</clus>
<clus scale="   23.091">  1  5  2 -1</clus>
</clustering>
</event>
<event>
 9    1  0.2374319E-005  0.9980861E+02  0.7546771E-02  0.1288516E+00
         -2   -1    0    0    0  501 -0.00000000000E+00  0.00000000000E+00  0.17930494812E+03  0.17930494812E+03  0.00000000000E+00 0.  1.
          1   -1    0    0  502    0  0.00000000000E+00 -0.00000000000E+00 -0.16972538707E+03  0.16972538707E+03  0.00000000000E+00 0. -1.
         23    2    1    2    0    0  0.40329976123E+02 -0.35028792018E+02  0.12746717858E+03  0.16470778629E+03  0.89594921762E+02 0.  0.
        -24    2    1    2    0    0 -0.11899594029E+02 -0.20721892619E+02 -0.77719224789E+02  0.10995908180E+03  0.74025161912E+02 0.  0.
         11    1    4    4    0    0 -0.36986784738E+02  0.64991653631E+01 -0.54757738621E+02  0.66397826279E+02  0.00000000000E+00 0. -1.
        -12    1    4    4    0    0  0.25087190709E+02 -0.27221057982E+02 -0.22961486168E+02  0.43561255518E+02  0.00000000000E+00 0.  1.
        -11    1    3    3    0    0 -0.15861362440E+02 -0.31087654869E+02  0.13204141753E+02  0.37314534208E+02  0.00000000000E+00 0. -1.
         11    1    3    3    0    0  0.56191338563E+02 -0.39411371495E+01  0.11426303683E+03  0.12739325208E+03  0.00000000000E+00 0.  1.
         21    1    1    2  502  501 -0.28430382094E+02  0.55750684637E+02 -0.40168392740E+02  0.74363467098E+02  0.00000000000E+00 0. -1.
<scales pt_clust_5="13000.00000" pt_clust_6="13000.00000" pt_clust_7="13000.00000" pt_clust_8="13000.00000" pt_clust_9="62.58135"></scales>
<clustering>
<clus scale="   62.581">  2  9  1 -1</clus>
<clus scale="   74.025">  5  6 -1 -1</clus>
<clus scale="   86.106">  2  5  1 -1</clus>
<clus scale="   89.595">  7  8 -1 -1</clus>
<clus scale="   62.581">  2  5  1 -1</clus>
</clustering>
</event>
<event>
 9    1  0.2374319E-005  0.1029596E+03  0.7546771E-02  0.1278766E+00
          1   -1    0    0  502    0  0.00000000000E+00  0.00000000000E+00  0.23594251738E+03  0.23594251738E+03  0.00000000000E+00 0. -1.
         -2   -1    0    0    0  501 -0.00000000000E+00 -0.00000000000E+00 -0.83594005674E+02  0.83594005674E+02  0.00000000000E+00 0.  1.
        -24    2    1    2    0    0  0.29012961166E+02 -0.25088848956E+02 -0.14172857312E+01  0.91519250861E+02  0.83081660563E+02 0.  0.
         23    2    1    2    0    0 -0.49009508563E+02  0.28442316567E+02  0.45450473427E+02  0.11782055233E+03  0.92763353301E+02 0.  0.
         13    1    3    3    0    0 -0.18762656904E+01 -0.48098612626E+02 -0.15405634730E+02  0.50540384752E+02  0.00000000000E+00 0. -1.
        -14    1    3    3    0    0  0.30889226856E+02  0.23009763670E+02  0.13988348999E+02  0.40978866110E+02  0.00000000000E+00 0.  1.
        -13    1    4    4    0    0 -0.21834265271E+02 -0.17908572825E+02 -0.18905867196E+02  0.33983583316E+02  0.00000000000E+00 0.  1.
         13    1    4    4    0    0 -0.27175243292E+02  0.46350889392E+02  0.64356340622E+02  0.83836969016E+02  0.00000000000E+00 0. -1.
         21    1    1    2  502  501  0.19996547397E+02 -0.33534676112E+01  0.10831532401E+03  0.11019671986E+03  0.00000000000E+00 0.  1.
<scales pt_clust_5="13000.00000" pt_clust_6="13000.00000" pt_clust_7="13000.00000" pt_clust_8="13000.00000" pt_clust_9="20.27579"></scales>
<clustering>
<clus scale="   20.276">  1  9  2 -1</clus>
<clus scale="   83.082">  5  6 -1 -1</clus>
<clus scale="   92.763">  7  8 -1 -1</clus>
<clus scale="   94.330">  2  5  1 -1</clus>
<clus scale="   20.276">  1  5  2 -1</clus>
</clustering>
</event>
<event>
 9    1  0.2374319E-005  0.1002650E+03  0.7546771E-02  0.1290379E+00
          1   -1    0    0  502    0  0.00000000000E+00  0.00000000000E+00  0.86092283556E+02  0.86092283556E+02  0.00000000000E+00 0. -1.
         -2   -1    0    0    0  501 -0.00000000000E+00 -0.00000000000E+00 -0.25612493257E+03  0.25612493257E+03  0.00000000000E+00 0.  1.
        -24    2    1    2    0    0  0.10982738567E+02 -0.10079472552E+01 -0.12866318429E+03  0.15143370073E+03  0.79096866061E+02 0.  0.
         23    2    1    2    0    0 -0.46272412935E+02 -0.45997687360E+02 -0.55886273464E+02  0.13023908098E+03  0.97887788880E+02 0.  0.
         13    1    3    3    0    0 -0.17461774081E+01 -0.37428264222E+02 -0.86591662297E+02  0.94350623090E+02  0.00000000000E+00 0. -1.
        -14    1    3    3    0    0  0.12728915975E+02  0.36420316967E+02 -0.42071521998E+02  0.57083077642E+02  0.00000000000E+00 0.  1.
        -13    1    4    4    0    0 -0.18707180505E+02  0.10675716469E+02 -0.63223571940E+02  0.66791837626E+02  0.00000000000E+00 0.  1.
         13    1    4    4    0    0 -0.27565232429E+02 -0.56673403829E+02  0.73372984759E+01  0.63447243355E+02  0.00000000000E+00 0. -1.
         21    1    1    2  502  501  0.35289674367E+02  0.47005634615E+02  0.14516808743E+02  0.60544434415E+02  0.00000000000E+00 0.  1.
<scales pt_clust_5="13000.00000" pt_clust_6="13000.00000" pt_clust_7="13000.00000" pt_clust_8="13000.00000" pt_clust_9="58.77832"></scales>
<clustering>
<clus scale="   58.778">  1  9  2 -1</clus>
<clus scale="   79.097">  5  6 -1 -1</clus>
<clus scale="   82.021">  2  5  1 -1</clus>
<clus scale="   97.888">  7  8 -1 -1</clus>
<clus scale="   58.778">  1  5  2 -1</clus>
</clustering>
</event>
<event>
 9    1  0.2374319E-005  0.1361947E+03  0.7546771E-02  0.1230735E+00
          1   -1    0    0  502    0  0.00000000000E+00  0.00000000000E+00  0.78153414959E+03  0.78153414959E+03  0.00000000000E+00 0. -1.
         -2   -1    0    0    0  501 -0.00000000000E+00 -0.00000000000E+00 -0.88257519883E+02  0.88257519883E+02  0.00000000000E+00 0.  1.
         23    2    1    2    0    0  0.51540377831E+02  0.82995832689E+01 -0.25061665151E+02  0.10857410039E+03  0.91842008834E+02 0.  0.
        -24    2    1    2    0    0  0.74212337128E+02 -0.45900288916E+02  0.29145067793E+03  0.31460745291E+03  0.80125178639E+02 0.  0.
         11    1    4    4    0    0 -0.10380819978E+02 -0.28703871596E+02  0.55155313696E+02  0.63037943311E+02  0.00000000000E+00 0. -1.
        -12    1    4    4    0    0  0.84593157107E+02 -0.17196417320E+02  0.23629536424E+03  0.25156950960E+03  0.00000000000E+00 0.  1.
        -13    1    3    3    0    0  0.51649618063E+02  0.32497570980E+02 -0.46124152639E+02  0.76493219454E+02  0.00000000000E+00 0.  1.
         13    1    3    3    0    0 -0.10924023186E+00 -0.24197987711E+02  0.21062487488E+02  0.32080880940E+02  0.00000000000E+00 0. -1.
         21    1    1    2  502  501 -0.12575271496E+03  0.37600705647E+02  0.42688761692E+03  0.44661011617E+03  0.00000000000E+00 0. -1.
<scales pt_clust_5="13000.00000" pt_clust_6="13000.00000" pt_clust_7="13000.00000" pt_clust_8="13000.00000" pt_clust_9="110.13152"></scales>
<clustering>
<clus scale="   80.125">  5  6 -1 -1</clus>
<clus scale="   91.842">  7  8 -1 -1</clus>
<clus scale="  105.642">  2  7  1 -1</clus>
<clus scale="  110.132">  2  9  1 -1</clus>
<clus scale="  136.195">  1  5  2 -1</clus>
</clustering>
</event>
<event>
 9    1  0.2374319E-005  0.1184226E+03  0.7546771E-02  0.1250609E+00
         -4   -1    0    0    0  501 -0.00000000000E+00  0.00000000000E+00  0.59104454903E+02  0.59104454903E+02  0.00000000000E+00 0.  1.
          3   -1    0    0  502    0  0.00000000000E+00 -0.00000000000E+00 -0.94795612459E+03  0.94795612459E+03  0.00000000000E+00 0. -1.
        -24    2    1    2    0    0 -0.90634743686E+02 -0.19175654925E+01 -0.32931380904E+02  0.12007505875E+03  0.71520696754E+02 0.  0.
         23    2    1    2    0    0 -0.24221337538E+02  0.50816189212E+02 -0.42434481098E+03  0.43771902095E+03  0.91435575245E+02 0.  0.
         13    1    3    3    0    0 -0.57983855316E+02 -0.22059218231E+02 -0.48425760169E+02  0.78700640621E+02  0.00000000000E+00 0. -1.
        -14    1    3    3    0    0 -0.32650888370E+02  0.20141652738E+02  0.15494379264E+02  0.41374418125E+02  0.00000000000E+00 0.  1.
        -13    1    4    4    0    0  0.19323498424E+02 -0.17472834286E+02 -0.89166178933E+02  0.92894052527E+02  0.00000000000E+00 0. -1.
         13    1    4    4    0    0 -0.43544835963E+02  0.68289023498E+02 -0.33517863205E+03  0.34482496842E+03  0.00000000000E+00 0.  1.
         21    1    1    2  502  501  0.11485608122E+03 -0.48898623720E+02 -0.43157547781E+03  0.44926649980E+03  0.00000000000E+00 0. -1.
<scales pt_clust_5="13000.00000" pt_clust_6="13000.00000" pt_clust_7="13000.00000" pt_clust_8="13000.00000" pt_clust_9="94.38588"></scales>
<clustering>
<clus scale="   71.521">  5  6 -1 -1</clus>
<clus scale="   91.436">  7  8 -1 -1</clus>
<clus scale="  107.375">  2  7  1 -1</clus>
<clus scale="   94.386">  2  9  1 -1</clus>
<clus scale="  107.375">  2  5  1 -1</clus>
</clustering>
</event>
<event>
 9    1  0.2374319E-005  0.1084336E+03  0.7546771E-02  0.1269162E+00
          1   -1    0    0  502    0  0.00000000000E+00  0.00000000000E+00  0.35919574393E+02  0.35919574393E+02  0.00000000000E+00 0. -1.
         -2   -1    0    0    0  501 -0.00000000000E+00 -0.00000000000E+00 -0.70226370983E+03  0.70226370983E+03  0.00000000000E+00 0.  1.
         23    2    1    2    0    0 -0.79320332967E+01  0.19738255553E+02 -0.43434536176E+03  0.44355208983E+03  0.87350141550E+02 0.  0.
        -24    2    1    2    0    0  0.29800870542E+02 -0.67731747489E+02 -0.72490270232E+02  0.12662945636E+03  0.72831987725E+02 0.  0.
         13    1    4    4    0    0  0.42013406499E+02 -0.77353136623E+02 -0.64654460321E+02  0.10921919845E+03  0.00000000000E+00 0. -1.
        -14    1    4    4    0    0 -0.12212535957E+02  0.96213891338E+01 -0.78358099109E+01  0.17410257905E+02  0.00000000000E+00 0.  1.
        -11    1    3    3    0    0 -0.47682678677E+02  0.13710527833E+02 -0.23038768309E+03  0.23566947392E+03  0.00000000000E+00 0.  1.
         11    1    3    3    0    0  0.39750645381E+02  0.60277277203E+01 -0.20395767866E+03  0.20788261591E+03  0.00000000000E+00 0. -1.
         21    1    1    2  502  501 -0.21868837246E+02  0.47993491936E+02 -0.15950850345E+03  0.16800173804E+03  0.00000000000E+00 0.  1.
<scales pt_clust_5="13000.00000" pt_clust_6="13000.00000" pt_clust_7="13000.00000" pt_clust_8="13000.00000" pt_clust_9="52.74108"></scales>
<clustering>
<clus scale="   52.741">  2  9  1 -1</clus>
<clus scale="   72.832">  5  6 -1 -1</clus>
<clus scale="   87.350">  7  8 -1 -1</clus>
<clus scale="   97.120">  1  5  2 -1</clus>
<clus scale="   97.120">  1  5  2 -1</clus>
</clustering>
</event>
<event>
 9    1  0.2374319E-005  0.1630737E+03  0.7546771E-02  0.1186680E+00
          1   -1    0    0  502    0  0.00000000000E+00  0.00000000000E+00  0.40378886868E+03  0.40378886868E+03  0.00000000000E+00 0. -1.
         -2   -1    0    0    0  501 -0.00000000000E+00 -0.00000000000E+00 -0.77428848461E+02  0.77428848461E+02  0.00000000000E+00 0.  1.
        -24    2    1    2    0    0  0.14308902975E+03  0.14991372736E+02  0.10180952324E+03  0.19447283860E+03  0.82190597027E+02 0.  0.
         23    2    1    2    0    0 -0.11985942266E+03 -0.25052232556E+02  0.18841913175E+03  0.24262786257E+03  0.91501994110E+02 0.  0.
         11    1    3    3    0    0  0.46693190717E+02 -0.16257164269E+02  0.74690710660E+02  0.89572605792E+02  0.00000000000E+00 0. -1.
        -12    1    3    3    0    0  0.96395839030E+02  0.31248537005E+02  0.27118812582E+02  0.10490023281E+03  0.00000000000E+00 0.  1.
        -13    1    4    4    0    0 -0.19457514952E+02 -0.26434223846E+02  0.45626387133E+01  0.33138810335E+02  0.00000000000E+00 0.  1.
         13    1    4    4    0    0 -0.10040190771E+03  0.13819912895E+01  0.18385649304E+03  0.20948905223E+03  0.00000000000E+00 0. -1.
         21    1    1    2  502  501 -0.23229607088E+02  0.10060859820E+02  0.36131365227E+02  0.44117015980E+02  0.00000000000E+00 0. -1.
<scales pt_clust_5="13000.00000" pt_clust_6="13000.00000" pt_clust_7="13000.00000" pt_clust_8="13000.00000" pt_clust_9="25.31473"></scales>
<clustering>
<clus scale="   25.315">  1  9  2 -1</clus>
<clus scale="   82.191">  5  6 -1 -1</clus>
<clus scale="   91.502">  7  8 -1 -1</clus>
<clus scale="  158.037">  2  5  1 -1</clus>
<clus scale="   25.315">  1  5  2 -1</clus>
</clustering>
</event>
<event>
 9    1  0.2374319E-005  0.1314713E+03  0.7546771E-02  0.1229836E+00
          1   -1    0    0  502    0  0.00000000000E+00  0.00000000000E+00  0.39432159888E+03  0.39432159888E+03  0.00000000000E+00 0. -1.
         -2   -1    0    0    0  501 -0.00000000000E+00 -0.00000000000E+00 -0.70476265383E+02  0.70476265383E+02  0.00000000000E+00 0.  1.
         23    2    1    2    0    0 -0.64523209466E+02 -0.14663709058E+02  0.86464856407E+02  0.14480482731E+03  0.95467259803E+02 0.  0.
        -24    2    1    2    0    0  0.11612372598E+03  0.44475903081E+02  0.12570550669E+03  0.19341231477E+03  0.78381269446E+02 0.  0.
         13    1    4    4    0    0  0.43213405790E+02 -0.15419316498E+02  0.70428678354E+02  0.84055651184E+02  0.00000000000E+00 0. -1.
        -14    1    4    4    0    0  0.72910320192E+02  0.59895219579E+02  0.55276828340E+02  0.10935666358E+03  0.00000000000E+00 0.  1.
        -11    1    3    3    0    0 -0.83188800058E+02 -0.24300913493E+02  0.43478583672E+02  0.96960291304E+02  0.00000000000E+00 0.  1.
         11    1    3    3    0    0  0.18665590593E+02  0.96372044349E+01  0.42986272735E+02  0.47844536001E+02  0.00000000000E+00 0. -1.
         21    1    1    2  502  501 -0.51600516516E+02 -0.29812194023E+02  0.11167497040E+03  0.12658072219E+03  0.00000000000E+00 0. -1.
<scales pt_clust_5="13000.00000" pt_clust_6="13000.00000" pt_clust_7="13000.00000" pt_clust_8="13000.00000" pt_clust_9="59.59346"></scales>
<clustering>
<clus scale="   59.593">  1  9  2 -1</clus>
<clus scale="   78.381">  5  6 -1 -1</clus>
<clus scale="   95.467">  7  8 -1 -1</clus>
<clus scale="  119.643">  1  5  2 -1</clus>
<clus scale="   59.593">  1  5  2 -1</clus>
</clustering>
</event>
<event>
 9    1  0.2374319E-005  0.9583739E+02  0.7546771E-02  0.1292533E+00
         -4   -1    0    0    0  501 -0.00000000000E+00  0.00000000000E+00  0.28748841170E+02  0.28748841170E+02  0.00000000000E+00 0.  1.
          3   -1    0    0  502    0  0.00000000000E+00 -0.00000000000E+00 -0.52077685018E+03  0.52077685018E+03  0.00000000000E+00 0. -1.
        -24    2    1    2    0    0  0.51934244096E+02 -0.36557997534E+02 -0.17103266261E+03  0.19924868586E+03  0.80088789757E+02 0.  0.
         23    2    1    2    0    0 -0.32858028173E+01  0.20220705551E+02 -0.21013911669E+03  0.22811857715E+03  0.86371079910E+02 0.  0.
         13    1    3    3    0    0 -0.21362062052E+02 -0.11368736751E+02 -0.32644920175E+02  0.40635903874E+02  0.00000000000E+00 0. -1.
        -14    1    3    3    0    0  0.73296306148E+02 -0.25189260783E+02 -0.13838774244E+03  0.15861278199E+03  0.00000000000E+00 0.  1.
        -13    1    4    4    0    0 -0.15360817785E+02  0.51449110742E+02 -0.10762115974E+03  0.12027169136E+03  0.00000000000E+00 0. -1.
         13    1    4    4    0    0  0.12075014968E+02 -0.31228405190E+02 -0.10251795695E+03  0.10784688579E+03  0.00000000000E+00 0.  1.
         21    1    1    2  502  501 -0.48648441279E+02  0.16337291983E+02 -0.11085622971E+03  0.12215842833E+03  0.00000000000E+00 0. -1.
<scales pt_clust_5="13000.00000" pt_clust_6="13000.00000" pt_clust_7="13000.00000" pt_clust_8="13000.00000" pt_clust_9="51.31840"></scales>
<clustering>
<clus scale="   51.318">  2  9  1 -1</clus>
<clus scale="   80.089">  5  6 -1 -1</clus>
<clus scale="   86.371">  7  8 -1 -1</clus>
<clus scale="   90.217">  1  5  2 -1</clus>
<clus scale="   51.318">  2  5  1 -1</clus>
</clustering>
</event>
<event>
 9    1  0.2374319E-005  0.2217070E+03  0.7546771E-02  0.1133709E+00
         -2   -1    0    0    0  501 -0.00000000000E+00  0.00000000000E+00  0.20590469875E+03  0.20590469875E+03  0.00000000000E+00 0.  1.
          1   -1    0    0  502    0  0.00000000000E+00 -0.00000000000E+00 -0.35757636221E+03  0.35757636221E+03  0.00000000000E+00 0. -1.
         23    2    1    2    0    0 -0.12239987341E+03  0.12864176139E+03 -0.23491541272E+02  0.20226335543E+03  0.93958398540E+02 0.  0.
        -24    2    1    2    0    0  0.18772973374E+03 -0.13607685453E+03 -0.35493611920E+02  0.24757765781E+03  0.79218286336E+02 0.  0.
         11    1    4    4    0    0  0.10658473365E+03 -0.11098816379E+03 -0.49180596186E+02  0.16154692504E+03  0.00000000000E+00 0. -1.
        -12    1    4    4    0    0  0.81145000086E+02 -0.25088690740E+02  0.13686984266E+02  0.86030732766E+02  0.00000000000E+00 0.  1.
        -13    1    3    3    0    0 -0.91192654474E+02  0.94938342847E+02  0.26598519907E+02  0.13430141635E+03  0.00000000000E+00 0.  1.
         13    1    3    3    0    0 -0.31207218932E+02  0.33703418546E+02 -0.50090061179E+02  0.67961939084E+02  0.00000000000E+00 0. -1.
         21    1    1    2  502  501 -0.65329860332E+02  0.74350931349E+01 -0.92686510270E+02  0.11364004773E+03  0.00000000000E+00 0. -1.
<scales pt_clust_5="13000.00000" pt_clust_6="13000.00000" pt_clust_7="13000.00000" pt_clust_8="13000.00000" pt_clust_9="65.75159"></scales>
<clustering>
<clus scale="   65.752">  2  9  1 -1</clus>
<clus scale="   79.218">  5  6 -1 -1</clus>
<clus scale="   93.958">  7  8 -1 -1</clus>
<clus scale="  215.873">  2  5  1 -1</clus>
<clus scale="   65.752">  2  5  1 -1</clus>
</clustering>
</event>
<event>
 9    1  0.2374319E-005  0.2141354E+03  0.7546771E-02  0.1175769E+00
         -2   -1    0    0    0  501 -0.00000000000E+00  0.00000000000E+00  0.17289870587E+03  0.17289870587E+03  0.00000000000E+00 0.  1.
          1   -1    0    0  502    0  0.00000000000E+00 -0.00000000000E+00 -0.50307473602E+03  0.50307473602E+03  0.00000000000E+00 0. -1.
        -24    2    1    2    0    0  0.18151359857E+02 -0.33380545749E+02 -0.87669877609E+01  0.89584080869E+02  0.80651811955E+02 0.  0.
         23    2    1    2    0    0  0.13997541150E+02 -0.18594734844E+03 -0.29930909602E+03  0.36361888579E+03  0.88658962291E+02 0.  0.
         11    1    3    3    0    0  0.49987407810E+02 -0.26306436857E+02 -0.40459159015E+01  0.56631607739E+02  0.00000000000E+00 0. -1.
        -12    1    3    3    0    0 -0.31836047953E+02 -0.70741088912E+01 -0.47210718594E+01  0.32952473130E+02  0.00000000000E+00 0.  1.
        -11    1    4    4    0    0  0.32597753637E+02 -0.24418833743E+02 -0.37129203396E+02  0.55113253654E+02  0.00000000000E+00 0.  1.
         11    1    4    4    0    0 -0.18600212487E+02 -0.16152851469E+03 -0.26217989262E+03  0.30850563214E+03  0.00000000000E+00 0. -1.
         21    1    1    2  502  501 -0.32148901007E+02  0.21932789419E+03 -0.22099946376E+02  0.22277047523E+03  0.00000000000E+00 0.  1.
<scales pt_clust_5="13000.00000" pt_clust_6="13000.00000" pt_clust_7="13000.00000" pt_clust_8="13000.00000" pt_clust_9="194.91936"></scales>
<clustering>
<clus scale="   80.652">  5  6 -1 -1</clus>
<clus scale="   88.659">  7  8 -1 -1</clus>
<clus scale="   89.154">  1  5  2 -1</clus>
<clus scale="  194.919">  1  9  2 -1</clus>
<clus scale="  214.135">  2  5  1 -1</clus>
</clustering>
</event>
<event>
 9    1  0.2374319E-005  0.1716482E+03  0.7546771E-02  0.1177566E+00
          1   -1    0    0  502    0  0.00000000000E+00  0.00000000000E+00  0.52264934971E+03  0.52264934971E+03  0.00000000000E+00 0. -1.
         -2   -1    0    0    0  501 -0.00000000000E+00 -0.00000000000E+00 -0.11779704257E+03  0.11779704257E+03  0.00000000000E+00 0.  1.
         23    2    1    2    0    0 -0.53647820045E+02  0.14087881955E+03 -0.17983060661E+02  0.17693833861E+03  0.90878241654E+02 0.  0.
        -24    2    1    2    0    0  0.69425172032E+02 -0.10625435816E+03  0.30992087824E+03  0.34435495840E+03  0.80122053555E+02 0.  0.
         13    1    4    4    0    0  0.61837396649E+02 -0.10066326790E+03  0.31290833918E+03  0.33446761556E+03  0.00000000000E+00 0. -1.
        -14    1    4    4    0    0  0.75877753831E+01 -0.55910902565E+01 -0.29874609427E+01  0.98873428385E+01  0.00000000000E+00 0.  1.
        -11    1    3    3    0    0 -0.29937063692E+02  0.13095070579E+03 -0.43025198526E+02  0.14105134823E+03  0.00000000000E+00 0.  1.
         11    1    3    3    0    0 -0.23710756352E+02  0.99281137591E+01  0.25042137865E+02  0.35886990379E+02  0.00000000000E+00 0. -1.
         21    1    1    2  502  501 -0.15777351988E+02 -0.34624461389E+02  0.11291448956E+03  0.11915309528E+03  0.00000000000E+00 0.  1.
<scales pt_clust_5="13000.00000" pt_clust_6="13000.00000" pt_clust_7="13000.00000" pt_clust_8="13000.00000" pt_clust_9="38.04968"></scales>
<clustering>
<clus scale="   38.050">  1  9  2 -1</clus>
<clus scale="   80.122">  5  6 -1 -1</clus>
<clus scale="   90.878">  7  8 -1 -1</clus>
<clus scale="  166.204">  1  5  2 -1</clus>
<clus scale="   38.050">  1  5  2 -1</clus>
</clustering>
</event>
<event>
 9    1  0.2374319E-005  0.9389001E+02  0.7546771E-02  0.1301608E+00
          1   -1    0    0  502    0  0.00000000000E+00  0.00000000000E+00  0.51158314864E+03  0.51158314864E+03  0.00000000000E+00 0. -1.
         -2   -1    0    0    0  501 -0.00000000000E+00 -0.00000000000E+00 -0.29155183382E+02  0.29155183382E+02  0.00000000000E+00 0.  1.
        -24    2    1    2    0    0  0.87204574270E+01  0.15420962456E+00  0.62492790746E+02  0.10174111999E+03  0.79811255120E+02 0.  0.
         23    2    1    2    0    0 -0.35995355414E+02  0.47732726474E+00  0.30309190602E+03  0.31901109496E+03  0.92776515108E+02 0.  0.
         11    1    3    3    0    0  0.44364764826E+02 -0.28501671403E+01  0.32677871389E+02  0.55174261112E+02  0.00000000000E+00 0. -1.
        -12    1    3    3    0    0 -0.35644307399E+02  0.30043767649E+01  0.29814919357E+02  0.46566858880E+02  0.00000000000E+00 0.  1.
        -11    1    4    4    0    0 -0.44399512201E+02 -0.20095619446E+02  0.28812514832E+03  0.29221781550E+03  0.00000000000E+00 0. -1.
         11    1    4    4    0    0  0.84041567868E+01  0.20572946710E+02  0.14966757707E+02  0.26793279454E+02  0.00000000000E+00 0.  1.
         21    1    1    2  502  501  0.27274897987E+02 -0.63153688930E+00  0.11684326849E+03  0.11998611707E+03  0.00000000000E+00 0.  1.
<scales pt_clust_5="13000.00000" pt_clust_6="13000.00000" pt_clust_7="13000.00000" pt_clust_8="13000.00000" pt_clust_9="27.28221"></scales>
<clustering>
<clus scale="   27.282">  1  9  2 -1</clus>
<clus scale="   79.811">  5  6 -1 -1</clus>
<clus scale="   81.103">  2  5  1 -1</clus>
<clus scale="   92.777">  7  8 -1 -1</clus>
<clus scale="   27.282">  1  5  2 -1</clus>
</clustering>
</event>
<event>
 9    1  0.2374319E-005  0.1129478E+03  0.7546771E-02  0.1255274E+00
         -2   -1    0    0    0  501 -0.00000000000E+00  0.00000000000E+00  0.20038324494E+03  0.20038324494E+03  0.00000000000E+00 0.  1.
          1   -1    0    0  502    0  0.00000000000E+00 -0.00000000000E+00 -0.88828459563E+02  0.88828459563E+02  0.00000000000E+00 0. -1.
         23    2    1    2    0    0  0.33463831206E+02 -0.63339565881E+02  0.80075086265E+02  0.13871314480E+03  0.87735901968E+02 0.  0.
        -24    2    1    2    0    0 -0.62092045943E+01  0.73589943856E+02  0.37977992825E+02  0.12066380244E+03  0.87540797469E+02 0.  0.
         11    1    4    4    0    0  0.40281267974E+02  0.42069473739E+02  0.16591817513E+02  0.60561618032E+02  0.00000000000E+00 0. -1.
        -12    1    4    4    0    0 -0.46490472568E+02  0.31520470117E+02  0.21386175311E+02  0.60102184407E+02  0.00000000000E+00 0.  1.
        -11    1    3    3    0    0 -0.10643717267E+02 -0.53204735308E+02  0.98160814702E+01  0.55139713745E+02  0.00000000000E+00 0. -1.
         11    1    3    3    0    0  0.44107548473E+02 -0.10134830573E+02  0.70259004795E+02  0.83573431052E+02  0.00000000000E+00 0.  1.
         21    1    1    2  502  501 -0.27254626611E+02 -0.10250377975E+02 -0.64982937089E+01  0.29834757272E+02  0.00000000000E+00 0. -1.
<scales pt_clust_5="13000.00000" pt_clust_6="13000.00000" pt_clust_7="13000.00000" pt_clust_8="13000.00000" pt_clust_9="29.11846"></scales>
<clustering>
<clus scale="   29.118">  2  9  1 -1</clus>
<clus scale="   87.541">  5  6 -1 -1</clus>
<clus scale="   87.736">  7  8 -1 -1</clus>
<clus scale="  112.796">  2  5  1 -1</clus>
<clus scale="   29.118">  2  5  1 -1</clus>
</clustering>
</event>
<event>
 9    1  0.2374319E-005  0.1046910E+03  0.7546771E-02  0.1276867E+00
          3   -1    0    0  502    0  0.00000000000E+00  0.00000000000E+00  0.51680712169E+03  0.51680712169E+03  0.00000000000E+00 0. -1.
         -4   -1    0    0    0  501 -0.00000000000E+00 -0.00000000000E+00 -0.15324382870E+03  0.15324382870E+03  0.00000000000E+00 0.  1.
        -24    2    1    2    0    0 -0.34497690949E+02 -0.27999099796E+02 -0.10352745426E+03  0.13791817766E+03  0.79557838545E+02 0.  0.
         23    2    1    2    0    0  0.12092957919E+03  0.34770649767E+01  0.20823728237E+03  0.25813109795E+03  0.92913103801E+02 0.  0.
         11    1    3    3    0    0 -0.22665812427E+01  0.27130173496E+02 -0.32807343065E+02  0.42632211571E+02  0.00000000000E+00 0. -1.
        -12    1    3    3    0    0 -0.32231109706E+02 -0.55129273292E+02 -0.70720111195E+02  0.95285966092E+02  0.00000000000E+00 0.  1.
        -13    1    4    4    0    0  0.55441577099E+02 -0.25283142339E+02  0.33985860088E+02  0.69771372666E+02  0.00000000000E+00 0.  1.
         13    1    4    4    0    0  0.65488002088E+02  0.28760207316E+02  0.17425142229E+03  0.18835972529E+03  0.00000000000E+00 0. -1.
         21    1    1    2  502  501 -0.86431888238E+02  0.24522034820E+02  0.25885346488E+03  0.27400167477E+03  0.00000000000E+00 0. -1.
<scales pt_clust_5="13000.00000" pt_clust_6="13000.00000" pt_clust_7="13000.00000" pt_clust_8="13000.00000" pt_clust_9="89.84321"></scales>
<clustering>
<clus scale="   79.558">  5  6 -1 -1</clus>
<clus scale="   89.843">  1  9  2 -1</clus>
<clus scale="   92.913">  7  8 -1 -1</clus>
<clus scale="   93.042">  2  5  1 -1</clus>
<clus scale="   89.843">  1  5  2 -1</clus>
</clustering>
</event>
<event>
 9    1  0.2374319E-005  0.9212336E+02  0.7546771E-02  0.1302510E+00
         -2   -1    0    0    0  501 -0.00000000000E+00  0.00000000000E+00  0.10503729679E+03  0.10503729679E+03  0.00000000000E+00 0.  1.
          1   -1    0    0  502    0  0.00000000000E+00 -0.00000000000E+00 -0.17174291451E+03  0.17174291451E+03  0.00000000000E+00 0. -1.
         23    2    1    2    0    0 -0.83813855552E+01  0.16506573266E+02  0.44059573752E+02  0.96471733420E+02  0.83802355128E+02 0.  0.
        -24    2    1    2    0    0  0.14010636339E+01  0.16338887112E+02 -0.11337045006E+03  0.14662856496E+03  0.91532261548E+02 0.  0.
         11    1    4    4    0    0  0.21348264260E+02 -0.56991077623E+01 -0.11476338823E+03  0.11687114055E+03  0.00000000000E+00 0. -1.
        -12    1    4    4    0    0 -0.19947200626E+02  0.22037994874E+02  0.13929381643E+01  0.29757424412E+02  0.00000000000E+00 0.  1.
        -13    1    3    3    0    0  0.15275084436E+02  0.43917233081E+02  0.11785433844E+02  0.47968197974E+02  0.00000000000E+00 0.  1.
         13    1    3    3    0    0 -0.23656469991E+02 -0.27410659815E+02  0.32274139907E+02  0.48503535445E+02  0.00000000000E+00 0. -1.
         21    1    1    2  502  501  0.69803219214E+01 -0.32845460377E+02  0.26052585960E+01  0.33679912914E+02  0.00000000000E+00 0. -1.
<scales pt_clust_5="13000.00000" pt_clust_6="13000.00000" pt_clust_7="13000.00000" pt_clust_8="13000.00000" pt_clust_9="33.57900"></scales>
<clustering>
<clus scale="   33.579">  1  9  2 -1</clus>
<clus scale="   83.802">  7  8 -1 -1</clus>
<clus scale="   84.448">  1  7  2 -1</clus>
<clus scale="   91.532">  5  6 -1 -1</clus>
<clus scale="   92.123">  2  5  1 -1</clus>
</clustering>
</event>
<event>
 9    1  0.2374319E-005  0.9974419E+02  0.7546771E-02  0.1284300E+00
          1   -1    0    0  502    0  0.00000000000E+00  0.00000000000E+00  0.53454600931E+03  0.53454600931E+03  0.00000000000E+00 0. -1.
         -2   -1    0    0    0  501 -0.00000000000E+00 -0.00000000000E+00 -0.49618961446E+02  0.49618961446E+02  0.00000000000E+00 0.  1.
         23    2    1    2    0    0  0.49923636212E+02 -0.17025795695E+01  0.26182753018E+02  0.10604786124E+03  0.89807260777E+02 0.  0.
        -24    2    1    2    0    0 -0.70189833203E+01 -0.98430980191E+01  0.36397230177E+03  0.37344694862E+03  0.82708126990E+02 0.  0.
         13    1    4    4    0    0 -0.35230825909E+02  0.19629784504E+02  0.22594059125E+03  0.22951185222E+03  0.00000000000E+00 0. -1.
        -14    1    4    4    0    0  0.28211842589E+02 -0.29472882524E+02  0.13803171052E+03  0.14393509640E+03  0.00000000000E+00 0.  1.
        -13    1    3    3    0    0 -0.49400481032E+00 -0.30686060030E+02 -0.15611629974E+02  0.34432561789E+02  0.00000000000E+00 0. -1.
         13    1    3    3    0    0  0.50417641023E+02  0.28983480461E+02  0.41794382991E+02  0.71615299451E+02  0.00000000000E+00 0.  1.
         21    1    1    2  502  501 -0.42904652892E+02  0.11545677589E+02  0.94771993076E+02  0.10467016090E+03  0.00000000000E+00 0. -1.
<scales pt_clust_5="13000.00000" pt_clust_6="13000.00000" pt_clust_7="13000.00000" pt_clust_8="13000.00000" pt_clust_9="44.43098"></scales>
<clustering>
<clus scale="   44.431">  1  9  2 -1</clus>
<clus scale="   82.708">  5  6 -1 -1</clus>
<clus scale="   89.807">  7  8 -1 -1</clus>
<clus scale="   93.403">  1  5  2 -1</clus>
<clus scale="   44.431">  1  5  2 -1</clus>
</clustering>
</event>
<event>
 9    1  0.2374319E-005  0.1122421E+03  0.7546771E-02  0.1268733E+00
         -2   -1    0    0    0  501 -0.00000000000E+00  0.00000000000E+00  0.76329576430E+03  0.76329576430E+03  0.00000000000E+00 0.  1.
          1   -1    0    0  502    0  0.00000000000E+00 -0.00000000000E+00 -0.41571574500E+02  0.41571574500E+02  0.00000000000E+00 0. -1.
        -24    2    1    2    0    0  0.52822797778E+02  0.28887131785E+02  0.66782789488E+03  0.67720318557E+03  0.94791049264E+02 0.  0.
         23    2    1    2    0    0 -0.61714263117E+02 -0.10050337729E+02  0.27565188999E+02  0.94090203427E+02  0.64679727704E+02 0.  0.
         11    1    3    3    0    0  0.40558776454E+02  0.15334678811E+02  0.98972843977E+02  0.10805457217E+03  0.00000000000E+00 0. -1.
        -12    1    3    3    0    0  0.12264021324E+02  0.13552452974E+02  0.56885505090E+03  0.56914861340E+03  0.00000000000E+00 0.  1.
        -11    1    4    4    0    0 -0.38715421112E+02  0.34115992188E+01  0.47087617537E+02  0.61055438467E+02  0.00000000000E+00 0.  1.
         11    1    4    4    0    0 -0.22998842005E+02 -0.13461936948E+02 -0.19522428538E+02  0.33034764961E+02  0.00000000000E+00 0. -1.
         21    1    1    2  502  501  0.88914653391E+01 -0.18836794056E+02  0.26331105922E+02  0.33573949801E+02  0.00000000000E+00 0.  1.
<scales pt_clust_5="13000.00000" pt_clust_6="13000.00000" pt_clust_7="13000.00000" pt_clust_8="13000.00000" pt_clust_9="20.82986"></scales>
<clustering>
<clus scale="   20.830">  2  9  1 -1</clus>
<clus scale="   64.680">  7  8 -1 -1</clus>
<clus scale="   88.297">  2  7  1 -1</clus>
<clus scale="   94.791">  5  6 -1 -1</clus>
<clus scale="   20.830">  2  5  1 -1</clus>
</clustering>
</event>
<event>
 9    1  0.2374319E-005  0.1221507E+03  0.7546771E-02  0.1248323E+00
         -2   -1    0    0    0  501 -0.00000000000E+00  0.00000000000E+00  0.38236421260E+02  0.38236421260E+02  0.00000000000E+00 0.  1.
          1   -1    0    0  502    0  0.00000000000E+00 -0.00000000000E+00 -0.76527941831E+03  0.76527941831E+03  0.00000000000E+00 0. -1.
         23    2    1    2    0    0 -0.60470419182E+02  0.30181174776E+02 -0.96300147000E+02  0.15446689556E+03  0.10009359922E+03 0.  0.
        -24    2    1    2    0    0  0.56408988856E+02 -0.64445120866E+02 -0.54287958313E+03  0.55465367457E+03  0.74748306404E+02 0.  0.
         11    1    4    4    0    0  0.69239428040E+02 -0.68615841228E+02 -0.50775013575E+03  0.51702266142E+03  0.00000000000E+00 0. -1.
        -12    1    4    4    0    0 -0.12830439185E+02  0.41707203617E+01 -0.35129447376E+02  0.37631013154E+02  0.00000000000E+00 0.  1.
        -11    1    3    3    0    0 -0.53649609945E+02 -0.28851294420E+02 -0.42206691885E+02  0.74108587066E+02  0.00000000000E+00 0.  1.
         11    1    3    3    0    0 -0.68208092369E+01  0.59032469197E+02 -0.54093455114E+02  0.80358308496E+02  0.00000000000E+00 0. -1.
         21    1    1    2  502  501  0.40614303265E+01  0.34263946090E+02 -0.87863266924E+02  0.94395269439E+02  0.00000000000E+00 0.  1.
<scales pt_clust_5="13000.00000" pt_clust_6="13000.00000" pt_clust_7="13000.00000" pt_clust_8="13000.00000" pt_clust_9="34.50381"></scales>
<clustering>
<clus scale="   34.504">  2  9  1 -1</clus>
<clus scale="   74.748">  5  6 -1 -1</clus>
<clus scale="  100.094">  7  8 -1 -1</clus>
<clus scale="  102.418">  2  5  1 -1</clus>
<clus scale="   34.504">  2  5  1 -1</clus>
</clustering>
</event>
<event>
 9    1  0.2374319E-005  0.8584212E+02  0.7546771E-02  0.1313668E+00
          1   -1    0    0  502    0  0.00000000000E+00  0.00000000000E+00  0.30641782085E+03  0.30641782085E+03  0.00000000000E+00 0. -1.
         -2   -1    0    0    0  501 -0.00000000000E+00 -0.00000000000E+00 -0.17742520195E+03  0.17742520195E+03  0.00000000000E+00 0.  1.
        -24    2    1    2    0    0 -0.21860879701E+02  0.15217547109E+02 -0.14299036411E+03  0.16677957247E+03  0.81607044822E+02 0.  0.
         23    2    1    2    0    0  0.41876857039E+01  0.40203253291E+02  0.22266371021E+03  0.24079945113E+03  0.82288574739E+02 0.  0.
         13    1    3    3    0    0 -0.80019584566E+01  0.44109967966E+02 -0.44333354225E+02  0.63048924733E+02  0.00000000000E+00 0. -1.
        -14    1    3    3    0    0 -0.13858921244E+02 -0.28892420857E+02 -0.98657009886E+02  0.10373064774E+03  0.00000000000E+00 0.  1.
        -11    1    4    4    0    0 -0.29740361742E+02 -0.97099950569E+01  0.72589268141E+02  0.79044133051E+02  0.00000000000E+00 0.  1.
         11    1    4    4    0    0  0.33928047446E+02  0.49913248348E+02  0.15007444207E+03  0.16175531808E+03  0.00000000000E+00 0. -1.
         21    1    1    2  502  501  0.17673193997E+02 -0.55420800400E+02  0.49319272803E+02  0.76263999192E+02  0.00000000000E+00 0. -1.
<scales pt_clust_5="13000.00000" pt_clust_6="13000.00000" pt_clust_7="13000.00000" pt_clust_8="13000.00000" pt_clust_9="58.17050"></scales>
<clustering>
<clus scale="   58.170">  1  9  2 -1</clus>
<clus scale="   81.607">  5  6 -1 -1</clus>
<clus scale="   82.289">  7  8 -1 -1</clus>
<clus scale="   85.189">  2  5  1 -1</clus>
<clus scale="   58.170">  1  5  2 -1</clus>
</clustering>
</event>
<event>
 9    1  0.2374319E-005  0.1012724E+03  0.7546771E-02  0.1283382E+00
         -2   -1    0    0    0  501 -0.00000000000E+00  0.00000000000E+00  0.39167481696E+03  0.39167481696E+03  0.00000000000E+00 0.  1.
          1   -1    0    0  502    0  0.00000000000E+00 -0.00000000000E+00 -0.12538873805E+03  0.12538873805E+03  0.00000000000E+00 0. -1.
         23    2    1    2    0    0 -0.31486035727E+02 -0.55724015374E+02  0.27064880950E+03  0.29301891653E+03  0.92264679195E+02 0.  0.
        -24    2    1    2    0    0 -0.18000060265E+02  0.14724565903E+02  0.81376011651E+02  0.11689539454E+03  0.80632890199E+02 0.  0.
         13    1    4    4    0    0  0.31369105370E+02 -0.17736370679E+01  0.24895217010E+02  0.40086636054E+02  0.00000000000E+00 0. -1.
        -14    1    4    4    0    0 -0.49369165635E+02  0.16498202971E+02  0.56480794641E+02  0.76808758485E+02  0.00000000000E+00 0.  1.
        -13    1    3    3    0    0 -0.44474767479E+02 -0.17119012460E+02  0.51698444665E+02  0.70312123498E+02  0.00000000000E+00 0. -1.
         13    1    3    3    0    0  0.12988731752E+02 -0.38605002914E+02  0.21895036484E+03  0.22270679304E+03  0.00000000000E+00 0.  1.
         21    1    1    2  502  501  0.49486095992E+02  0.40999449471E+02 -0.85738742247E+02  0.10714924393E+03  0.00000000000E+00 0. -1.
<scales pt_clust_5="13000.00000" pt_clust_6="13000.00000" pt_clust_7="13000.00000" pt_clust_8="13000.00000" pt_clust_9="64.26374"></scales>
<clustering>
<clus scale="   64.264">  2  9  1 -1</clus>
<clus scale="   80.633">  5  6 -1 -1</clus>
<clus scale="   90.802">  2  5  1 -1</clus>
<clus scale="   92.265">  7  8 -1 -1</clus>
<clus scale="   64.264">  2  5  1 -1</clus>
</clustering>
</event>
<event>
 9    1  0.2374319E-005  0.9259493E+02  0.7546771E-02  0.1302168E+00
          1   -1    0    0  502    0  0.00000000000E+00  0.00000000000E+00  0.46414796886E+03  0.46414796886E+03  0.00000000000E+00 0. -1.
         -2   -1    0    0    0  501 -0.00000000000E+00 -0.00000000000E+00 -0.47424229863E+02  0.47424229863E+02  0.00000000000E+00 0.  1.
         23    2    1    2    0    0 -0.26656777099E+02  0.13184250819E+02  0.26793395336E+02  0.98488695502E+02  0.89987381743E+02 0.  0.
        -24    2    1    2    0    0 -0.11510130033E+02 -0.21890751742E+02  0.33588551532E+03  0.34635000767E+03  0.80793318445E+02 0.  0.
         11    1    4    4    0    0 -0.24841722246E+02 -0.43729815624E+02  0.13919443079E+03  0.14800168074E+03  0.00000000000E+00 0. -1.
        -12    1    4    4    0    0  0.13331592213E+02  0.21839063882E+02  0.19669108453E+03  0.19834832693E+03  0.00000000000E+00 0.  1.
        -11    1    3    3    0    0 -0.12738801563E+02 -0.26114547629E+02  0.44538890673E+02  0.53178561898E+02  0.00000000000E+00 0. -1.
         11    1    3    3    0    0 -0.13917975536E+02  0.39298798448E+02 -0.17745495337E+02  0.45310133604E+02  0.00000000000E+00 0.  1.
         21    1    1    2  502  501  0.38166907132E+02  0.87065009233E+01  0.54044828342E+02  0.66733495555E+02  0.00000000000E+00 0.  1.
<scales pt_clust_5="13000.00000" pt_clust_6="13000.00000" pt_clust_7="13000.00000" pt_clust_8="13000.00000" pt_clust_9="39.14736"></scales>
<clustering>
<clus scale="   39.147">  2  9  1 -1</clus>
<clus scale="   80.793">  5  6 -1 -1</clus>
<clus scale="   83.688">  1  5  2 -1</clus>
<clus scale="   89.987">  7  8 -1 -1</clus>
<clus scale="   83.688">  1  5  2 -1</clus>
</clustering>
</event>
<event>
 9    1  0.2374319E-005  0.1002823E+03  0.7546771E-02  0.1283741E+00
          1   -1    0    0  502    0  0.00000000000E+00  0.00000000000E+00  0.57052909949E+03  0.57052909949E+03  0.00000000000E+00 0. -1.
         -2   -1    0    0    0  501 -0.00000000000E+00 -0.00000000000E+00 -0.37155187236E+02  0.37155187236E+02  0.00000000000E+00 0.  1.
         23    2    1    2    0    0 -0.37166277794E+02  0.15882390934E+02  0.59073983553E+02  0.11463211686E+03  0.89538841491E+02 0.  0.
        -24    2    1    2    0    0  0.51723045968E+02 -0.36297802502E+02  0.30436602072E+03  0.32127841864E+03  0.81168613174E+02 0.  0.
         13    1    4    4    0    0  0.42286391511E+02 -0.59521160192E+02  0.17697786318E+03  0.19144730730E+03  0.00000000000E+00 0. -1.
        -14    1    4    4    0    0  0.94366544564E+01  0.23223357690E+02  0.12738815755E+03  0.12983111134E+03  0.00000000000E+00 0.  1.
        -13    1    3    3    0    0 -0.43787253075E+02 -0.23003167016E+02  0.80082562877E+01  0.50105901782E+02  0.00000000000E+00 0.  1.
         13    1    3    3    0    0  0.66209752810E+01  0.38885557951E+02  0.51065727265E+02  0.64526215075E+02  0.00000000000E+00 0. -1.
         21    1    1    2  502  501 -0.14556768174E+02  0.20415411568E+02  0.16993390798E+03  0.17177375122E+03  0.00000000000E+00 0. -1.
<scales pt_clust_5="13000.00000" pt_clust_6="13000.00000" pt_clust_7="13000.00000" pt_clust_8="13000.00000" pt_clust_9="25.07366"></scales>
<clustering>
<clus scale="   25.074">  1  9  2 -1</clus>
<clus scale="   81.169">  5  6 -1 -1</clus>
<clus scale="   89.539">  7  8 -1 -1</clus>
<clus scale="   92.885">  1  5  2 -1</clus>
<clus scale="   25.074">  1  5  2 -1</clus>
</clustering>
</event>
<event>
 9    1  0.2374319E-005  0.2980923E+03  0.7546771E-02  0.1086668E+00
         -2   -1    0    0    0  501 -0.00000000000E+00  0.00000000000E+00  0.53034121667E+03  0.53034121667E+03  0.00000000000E+00 0.  1.
          1   -1    0    0  502    0  0.00000000000E+00 -0.00000000000E+00 -0.80526119435E+03  0.80526119435E+03  0.00000000000E+00 0. -1.
        -24    2    1    2    0    0  0.12161557946E+03 -0.25846156351E+03  0.45016467063E+03  0.53900126229E+03  0.79255290609E+02 0.  0.
         23    2    1    2    0    0 -0.98202714882E+02  0.23847073955E+03 -0.50586110805E+03  0.57522645308E+03  0.92075756083E+02 0.  0.
         11    1    3    3    0    0  0.10011843350E+03 -0.18642117015E+03  0.26474006309E+03  0.33891570400E+03  0.00000000000E+00 0. -1.
        -12    1    3    3    0    0  0.21497145967E+02 -0.72040393358E+02  0.18542460753E+03  0.20008555830E+03  0.00000000000E+00 0.  1.
        -13    1    4    4    0    0  0.11037471938E+02  0.79502664933E+02 -0.16782540813E+03  0.18603189815E+03  0.00000000000E+00 0.  1.
         13    1    4    4    0    0 -0.10924018682E+03  0.15896807462E+03 -0.33803569992E+03  0.38919455493E+03  0.00000000000E+00 0. -1.
         21    1    1    2  502  501 -0.23412864581E+02  0.19990823962E+02 -0.21922354026E+03  0.22137469565E+03  0.00000000000E+00 0.  1.
<scales pt_clust_5="13000.00000" pt_clust_6="13000.00000" pt_clust_7="13000.00000" pt_clust_8="13000.00000" pt_clust_9="30.78628"></scales>
<clustering>
<clus scale="   30.786">  2  9  1 -1</clus>
<clus scale="   79.255">  5  6 -1 -1</clus>
<clus scale="   92.076">  7  8 -1 -1</clus>
<clus scale="  294.385">  1  5  2 -1</clus>
<clus scale="   30.786">  2  5  1 -1</clus>
</clustering>
</event>
<event>
 9    1  0.2374319E-005  0.1405549E+03  0.7546771E-02  0.1214813E+00
         -2   -1    0    0    0  501 -0.00000000000E+00  0.00000000000E+00  0.31552038047E+03  0.31552038047E+03  0.00000000000E+00 0.  1.
          1   -1    0    0  502    0  0.00000000000E+00 -0.00000000000E+00 -0.27656244124E+03  0.27656244124E+03  0.00000000000E+00 0. -1.
        -24    2    1    2    0    0 -0.10643492392E+03  0.25449149589E+02  0.27641088101E+03  0.30817126461E+03  0.81181900350E+02 0.  0.
         23    2    1    2    0    0  0.74737872273E+02 -0.11182748751E+02 -0.16183125458E+03  0.20068372010E+03  0.91508453888E+02 0.  0.
         11    1    3    3    0    0 -0.89134061184E+01 -0.22595806216E+02  0.28344323608E+02  0.37328540662E+02  0.00000000000E+00 0. -1.
        -12    1    3    3    0    0 -0.97521517805E+02  0.48044955805E+02  0.24806655741E+03  0.27084272395E+03  0.00000000000E+00 0.  1.
        -11    1    4    4    0    0  0.19251550191E+02  0.59679751387E+01  0.76266729291E+01  0.21550059210E+02  0.00000000000E+00 0.  1.
         11    1    4    4    0    0  0.55486322083E+02 -0.17150723889E+02 -0.16945792751E+03  0.17913366089E+03  0.00000000000E+00 0. -1.
         21    1    1    2  502  501  0.31697051651E+02 -0.14266400838E+02 -0.75621687197E+02  0.83227836994E+02  0.00000000000E+00 0. -1.
<scales pt_clust_5="13000.00000" pt_clust_6="13000.00000" pt_clust_7="13000.00000" pt_clust_8="13000.00000" pt_clust_9="34.75965"></scales>
<clustering>
<clus scale="   34.760">  2  9  1 -1</clus>
<clus scale="   81.182">  5  6 -1 -1</clus>
<clus scale="   91.508">  7  8 -1 -1</clus>
<clus scale="  134.061">  1  5  2 -1</clus>
<clus scale="   34.760">  2  5  1 -1</clus>
</clustering>
</event>
<event>
 9    1  0.2374319E-005  0.1211033E+03  0.7546771E-02  0.1252212E+00
          1   -1    0    0  502    0  0.00000000000E+00  0.00000000000E+00  0.11713829322E+03  0.11713829322E+03  0.00000000000E+00 0. -1.
         -2   -1    0    0    0  501 -0.00000000000E+00 -0.00000000000E+00 -0.25114068057E+03  0.25114068057E+03  0.00000000000E+00 0.  1.
        -24    2    1    2    0    0 -0.41833519955E+02 -0.28955984942E+02 -0.17942169048E+03  0.20351704274E+03  0.81477304905E+02 0.  0.
         23    2    1    2    0    0  0.67239660556E+02  0.25650620869E+02  0.47944036379E+02  0.13901757847E+03  0.10884911666E+03 0.  0.
         13    1    3    3    0    0  0.32243300011E+01 -0.33930775819E+02 -0.24173174085E+02  0.41785597961E+02  0.00000000000E+00 0. -1.
        -14    1    3    3    0    0 -0.45057849956E+02  0.49747908773E+01 -0.15524851639E+03  0.16173144478E+03  0.00000000000E+00 0.  1.
        -11    1    4    4    0    0  0.36386960564E+02  0.34122043643E+02 -0.27577292318E+02  0.56998524657E+02  0.00000000000E+00 0.  1.
         11    1    4    4    0    0  0.30852699992E+02 -0.84714227747E+01  0.75521328697E+02  0.82019053815E+02  0.00000000000E+00 0. -1.
         21    1    1    2  502  501 -0.25406140601E+02  0.33053640730E+01 -0.25247332476E+01  0.25744352582E+02  0.00000000000E+00 0.  1.
<scales pt_clust_5="13000.00000" pt_clust_6="13000.00000" pt_clust_7="13000.00000" pt_clust_8="13000.00000" pt_clust_9="25.62025"></scales>
<clustering>
<clus scale="   25.620">  1  9  2 -1</clus>
<clus scale="   81.477">  5  6 -1 -1</clus>
<clus scale="   97.244">  2  5  1 -1</clus>
<clus scale="  108.849">  7  8 -1 -1</clus>
<clus scale="   25.620">  1  5  2 -1</clus>
</clustering>
</event>
<event>
 9    1  0.2374319E-005  0.1499555E+03  0.7546771E-02  0.1223489E+00
          1   -1    0    0  502    0  0.00000000000E+00  0.00000000000E+00  0.45969808641E+03  0.45969808641E+03  0.00000000000E+00 0. -1.
         -2   -1    0    0    0  501 -0.00000000000E+00 -0.00000000000E+00 -0.10905292700E+03  0.10905292700E+03  0.00000000000E+00 0.  1.
        -24    2    1    2    0    0 -0.33087111254E+02 -0.29948801200E+02 -0.30054035223E+02  0.96772630125E+02  0.80436367917E+02 0.  0.
         23    2    1    2    0    0  0.14325409806E+02 -0.10629733174E+03  0.21570580986E+03  0.25718120639E+03  0.90049077808E+02 0.  0.
         13    1    3    3    0    0 -0.43990099550E+02  0.11944085776E+02 -0.29053696556E+01  0.45675280144E+02  0.00000000000E+00 0. -1.
        -14    1    3    3    0    0  0.10902988295E+02 -0.41892886977E+02 -0.27148665567E+02  0.51097349981E+02  0.00000000000E+00 0.  1.
        -11    1    4    4    0    0 -0.27868719741E+02 -0.72006686522E+02  0.16781806192E+03  0.18472826084E+03  0.00000000000E+00 0.  1.
         11    1    4    4    0    0  0.42194129547E+02 -0.34290645215E+02  0.47887747939E+02  0.72452945559E+02  0.00000000000E+00 0. -1.
         21    1    1    2  502  501  0.18761701448E+02  0.13624613294E+03  0.16499338478E+03  0.21479717689E+03  0.00000000000E+00 0. -1.
<scales pt_clust_5="13000.00000" pt_clust_6="13000.00000" pt_clust_7="13000.00000" pt_clust_8="13000.00000" pt_clust_9="119.90755"></scales>
<clustering>
<clus scale="   80.436">  5  6 -1 -1</clus>
<clus scale="   90.049">  7  8 -1 -1</clus>
<clus scale="   91.987">  2  5  1 -1</clus>
<clus scale="  119.908">  2  9  1 -1</clus>
<clus scale="  149.956">  1  5  2 -1</clus>
</clustering>
</event>
<event>
 9    1  0.2374319E-005  0.1442790E+03  0.7546771E-02  0.1208715E+00
         -2   -1    0    0    0  501 -0.00000000000E+00  0.00000000000E+00  0.99531243772E+02  0.99531243772E+02  0.00000000000E+00 0.  1.
          1   -1    0    0  502    0  0.00000000000E+00 -0.00000000000E+00 -0.92169064813E+03  0.92169064813E+03  0.00000000000E+00 0. -1.
        -24    2    1    2    0    0  0.54131396862E+02  0.10082437630E+03  0.16484415387E+02  0.14097891812E+03  0.80669426806E+02 0.  0.
         23    2    1    2    0    0 -0.13592653510E+03 -0.71283345342E+02 -0.63212853616E+03  0.65616334618E+03  0.86061096807E+02 0.  0.
         11    1    3    3    0    0  0.40555326946E+02  0.43339692866E+01 -0.53101684358E+01  0.41130471944E+02  0.00000000000E+00 0. -1.
        -12    1    3    3    0    0  0.13576069916E+02  0.96490407010E+02  0.21794583822E+02  0.99848446174E+02  0.00000000000E+00 0.  1.
        -13    1    4    4    0    0 -0.38897307855E+02  0.17000947330E+02 -0.11281908848E+03  0.12054119418E+03  0.00000000000E+00 0.  1.
         13    1    4    4    0    0 -0.97029227250E+02 -0.88284292672E+02 -0.51930944768E+03  0.53562215200E+03  0.00000000000E+00 0. -1.
         21    1    1    2  502  501  0.81795138243E+02 -0.29541030955E+02 -0.20651528359E+03  0.22407962760E+03  0.00000000000E+00 0.  1.
<scales pt_clust_5="13000.00000" pt_clust_6="13000.00000" pt_clust_7="13000.00000" pt_clust_8="13000.00000" pt_clust_9="86.96618"></scales>
<clustering>
<clus scale="   80.669">  5  6 -1 -1</clus>
<clus scale="   86.061">  7  8 -1 -1</clus>
<clus scale="   86.966">  2  9  1 -1</clus>
<clus scale="  141.129">  1  5  2 -1</clus>
<clus scale="   86.966">  2  5  1 -1</clus>
</clustering>
</event>
<event>
 9    1  0.2374319E-005  0.1115434E+03  0.7546771E-02  0.1269420E+00
         -2   -1    0    0    0  501 -0.00000000000E+00  0.00000000000E+00  0.21984539711E+03  0.21984539711E+03  0.00000000000E+00 0.  1.
          1   -1    0    0  502    0  0.00000000000E+00 -0.00000000000E+00 -0.17418108812E+03  0.17418108812E+03  0.00000000000E+00 0. -1.
        -24    2    1    2    0    0  0.62842594346E+02  0.22753867033E+02  0.96651429085E+02  0.14185146466E+03  0.79456964156E+02 0.  0.
         23    2    1    2    0    0 -0.10657859090E+01  0.40369679081E+02  0.46073210243E+02  0.12094368338E+03  0.10427745183E+03 0.  0.
         13    1    3    3    0    0  0.40800135777E+02  0.14958294194E+02  0.10878479650E+01  0.43469357689E+02  0.00000000000E+00 0. -1.
        -14    1    3    3    0    0  0.22042458568E+02  0.77955728385E+01  0.95563581120E+02  0.98382106972E+02  0.00000000000E+00 0.  1.
        -13    1    4    4    0    0 -0.36430878787E+02  0.58248704925E+02  0.43320401801E+02  0.81220550151E+02  0.00000000000E+00 0.  1.
         13    1    4    4    0    0  0.35365092878E+02 -0.17879025844E+02  0.27528084415E+01  0.39723133231E+02  0.00000000000E+00 0. -1.
         21    1    1    2  502  501 -0.61776808437E+02 -0.63123546114E+02 -0.97060330339E+02  0.13123133719E+03  0.00000000000E+00 0. -1.
<scales pt_clust_5="13000.00000" pt_clust_6="13000.00000" pt_clust_7="13000.00000" pt_clust_8="13000.00000" pt_clust_9="88.32302"></scales>
<clustering>
<clus scale="   79.457">  5  6 -1 -1</clus>
<clus scale="   88.323">  2  9  1 -1</clus>
<clus scale="   88.778">  1  5  2 -1</clus>
<clus scale="  104.277">  7  8 -1 -1</clus>
<clus scale="   88.323">  2  5  1 -1</clus>
</clustering>
</event>
<event>
 9    1  0.2374319E-005  0.9492356E+02  0.7546771E-02  0.1296829E+00
          1   -1    0    0  502    0  0.00000000000E+00  0.00000000000E+00  0.58306352527E+03  0.58306352527E+03  0.00000000000E+00 0. -1.
         -2   -1    0    0    0  501 -0.00000000000E+00 -0.00000000000E+00 -0.32637552756E+02  0.32637552756E+02  0.00000000000E+00 0.  1.
        -24    2    1    2    0    0 -0.19004549950E+02 -0.21304213839E+02  0.67805810598E+02  0.10916671865E+03  0.80651733169E+02 0.  0.
         23    2    1    2    0    0  0.50846931502E+02 -0.15762641591E+02  0.32320616702E+03  0.33979890783E+03  0.90372562484E+02 0.  0.
         13    1    3    3    0    0 -0.29264473550E+02  0.11802208215E+02  0.67493487345E+02  0.74505519023E+02  0.00000000000E+00 0. -1.
        -14    1    3    3    0    0  0.10259923601E+02 -0.33106422054E+02  0.31232325241E+00  0.34661199623E+02  0.00000000000E+00 0.  1.
        -13    1    4    4    0    0  0.62640715505E+02 -0.39446854993E+02  0.18841386532E+03  0.20243442951E+03  0.00000000000E+00 0.  1.
         13    1    4    4    0    0 -0.11793784003E+02  0.23684213401E+02  0.13479230170E+03  0.13736447832E+03  0.00000000000E+00 0. -1.
         21    1    1    2  502  501 -0.31842381552E+02  0.37066855430E+02  0.15941399489E+03  0.16673545154E+03  0.00000000000E+00 0. -1.
<scales pt_clust_5="13000.00000" pt_clust_6="13000.00000" pt_clust_7="13000.00000" pt_clust_8="13000.00000" pt_clust_9="48.86603"></scales>
<clustering>
<clus scale="   48.866">  1  9  2 -1</clus>
<clus scale="   80.652">  5  6 -1 -1</clus>
<clus scale="   85.720">  2  5  1 -1</clus>
<clus scale="   90.373">  7  8 -1 -1</clus>
<clus scale="   48.866">  1  5  2 -1</clus>
</clustering>
</event>
<event>
 9    1  0.2374319E-005  0.1139261E+03  0.7546771E-02  0.1256755E+00
          1   -1    0    0  502    0  0.00000000000E+00  0.00000000000E+00  0.27069535807E+03  0.27069535807E+03  0.00000000000E+00 0. -1.
         -2   -1    0    0    0  501 -0.00000000000E+00 -0.00000000000E+00 -0.96282214967E+02  0.96282214967E+02  0.00000000000E+00 0.  1.
        -24    2    1    2    0    0  0.70764529161E+02 -0.52556077135E+01 -0.31088712620E+02  0.11254193922E+03  0.81632959227E+02 0.  0.
         23    2    1    2    0    0 -0.55794175470E+02  0.37801612110E+02  0.14210993669E+03  0.18162156037E+03  0.90825135246E+02 0.  0.
         13    1    3    3    0    0  0.37704459202E+02 -0.41232641595E+02 -0.24915249090E+01  0.55928209992E+02  0.00000000000E+00 0. -1.
        -14    1    3    3    0    0  0.33060069960E+02  0.35977033881E+02 -0.28597187711E+02  0.56613729232E+02  0.00000000000E+00 0.  1.
        -11    1    4    4    0    0  0.25350067588E+02  0.11087378116E+02  0.35053105272E+02  0.44657318207E+02  0.00000000000E+00 0. -1.
         11    1    4    4    0    0 -0.81144243058E+02  0.26714233994E+02  0.10705683142E+03  0.13696424217E+03  0.00000000000E+00 0.  1.
         21    1    1    2  502  501 -0.14970353691E+02 -0.32546004397E+02  0.63391919029E+02  0.72814073434E+02  0.00000000000E+00 0. -1.
<scales pt_clust_5="13000.00000" pt_clust_6="13000.00000" pt_clust_7="13000.00000" pt_clust_8="13000.00000" pt_clust_9="35.82393"></scales>
<clustering>
<clus scale="   35.824">  1  9  2 -1</clus>
<clus scale="   81.633">  5  6 -1 -1</clus>
<clus scale="   90.825">  7  8 -1 -1</clus>
<clus scale="  106.742">  2  5  1 -1</clus>
<clus scale="   35.824">  1  5  2 -1</clus>
</clustering>
</event>
<event>
 9    1  0.2374319E-005  0.2500864E+03  0.7546771E-02  0.1113305E+00
         -2   -1    0    0    0  501 -0.00000000000E+00  0.00000000000E+00  0.22979558183E+03  0.22979558183E+03  0.00000000000E+00 0.  1.
          1   -1    0    0  502    0  0.00000000000E+00 -0.00000000000E+00 -0.52574131651E+03  0.52574131651E+03  0.00000000000E+00 0. -1.
         23    2    1    2    0    0  0.40653789988E+02  0.23092897179E+03  0.53839052662E+02  0.25319768515E+03  0.78927203928E+02 0.  0.
        -24    2    1    2    0    0  0.10059558113E+02 -0.24635716291E+03 -0.15848443862E+03  0.30383053283E+03  0.80016429345E+02 0.  0.
         13    1    4    4    0    0 -0.29807625172E+02 -0.10802335421E+03 -0.93213744721E+02  0.14576124923E+03  0.00000000000E+00 0. -1.
        -14    1    4    4    0    0  0.39867183285E+02 -0.13833380871E+03 -0.65270693895E+02  0.15806928359E+03  0.00000000000E+00 0.  1.
        -11    1    3    3    0    0  0.61630314444E+02  0.19094933565E+03  0.32513245778E+02  0.20326597254E+03  0.00000000000E+00 0. -1.
         11    1    3    3    0    0 -0.20976524457E+02  0.39979636146E+02  0.21325806884E+02  0.49931712607E+02  0.00000000000E+00 0.  1.
         21    1    1    2  502  501 -0.50713348101E+02  0.15428191122E+02 -0.19130034873E+03  0.19850868036E+03  0.00000000000E+00 0. -1.
<scales pt_clust_5="13000.00000" pt_clust_6="13000.00000" pt_clust_7="13000.00000" pt_clust_8="13000.00000" pt_clust_9="53.00823"></scales>
<clustering>
<clus scale="   53.008">  2  9  1 -1</clus>
<clus scale="   78.927">  7  8 -1 -1</clus>
<clus scale="   80.016">  5  6 -1 -1</clus>
<clus scale="  249.740">  1  7  2 -1</clus>
<clus scale="   53.008">  2  5  1 -1</clus>
</clustering>
</event>
<event>
 9    1  0.2374319E-005  0.1371626E+03  0.7546771E-02  0.1218996E+00
          1   -1    0    0  502    0  0.00000000000E+00  0.00000000000E+00  0.32315841117E+03  0.32315841117E+03  0.00000000000E+00 0. -1.
         -2   -1    0    0    0  501 -0.00000000000E+00 -0.00000000000E+00 -0.19805870921E+03  0.19805870921E+03  0.00000000000E+00 0.  1.
         23    2    1    2    0    0 -0.96306543184E+02 -0.27967013730E+02 -0.12884662284E+03  0.18673999659E+03  0.90627093032E+02 0.  0.
        -24    2    1    2    0    0  0.99683862780E+02  0.69315301380E+02  0.10689220553E+03  0.18168314101E+03  0.82712372839E+02 0.  0.
         13    1    4    4    0    0  0.77205563442E+02  0.70964479295E+02  0.11688278635E+03  0.15702943066E+03  0.00000000000E+00 0. -1.
        -14    1    4    4    0    0  0.22478299338E+02 -0.16491779157E+01 -0.99905808216E+01  0.24653710351E+02  0.00000000000E+00 0.  1.
        -13    1    3    3    0    0 -0.19627133833E+02 -0.41977931382E+02 -0.14888028278E+02  0.48672625691E+02  0.00000000000E+00 0.  1.
         13    1    3    3    0    0 -0.76679409351E+02  0.14010917652E+02 -0.11395859456E+03  0.13806737090E+03  0.00000000000E+00 0. -1.
         21    1    1    2  502  501 -0.33773195957E+01 -0.41348287649E+02  0.14705411927E+03  0.15279398277E+03  0.00000000000E+00 0.  1.
<scales pt_clust_5="13000.00000" pt_clust_6="13000.00000" pt_clust_7="13000.00000" pt_clust_8="13000.00000" pt_clust_9="41.48599"></scales>
<clustering>
<clus scale="   41.486">  1  9  2 -1</clus>
<clus scale="   82.712">  5  6 -1 -1</clus>
<clus scale="   90.627">  7  8 -1 -1</clus>
<clus scale="  132.067">  1  5  2 -1</clus>
<clus scale="   41.486">  1  5  2 -1</clus>
</clustering>
</event>
<event>
 9    1  0.2374319E-005  0.1036732E+03  0.7546771E-02  0.1278090E+00
         -2   -1    0    0    0  501 -0.00000000000E+00  0.00000000000E+00  0.37718393179E+03  0.37718393179E+03  0.00000000000E+00 0.  1.
          1   -1    0    0  502    0  0.00000000000E+00 -0.00000000000E+00 -0.26534920494E+03  0.26534920494E+03  0.00000000000E+00 0. -1.
        -24    2    1    2    0    0 -0.44978671537E+02  0.40755686274E+02  0.33565052710E+03  0.35058469714E+03  0.81020038672E+02 0.  0.
         23    2    1    2    0    0  0.21719282796E+02 -0.41160701516E+02 -0.24148118517E+03  0.26273835526E+03  0.92478916179E+02 0.  0.
         11    1    3    3    0    0  0.23384401651E+02  0.16774298283E+02  0.93421786598E+02  0.97753964291E+02  0.00000000000E+00 0. -1.
        -12    1    3    3    0    0 -0.68363073188E+02  0.23981387991E+02  0.24222874050E+03  0.25283073284E+03  0.00000000000E+00 0.  1.
        -13    1    4    4    0    0  0.39360438871E+02  0.16407496030E+02 -0.11514952522E+03  0.12279195101E+03  0.00000000000E+00 0.  1.
         13    1    4    4    0    0 -0.17641156075E+02 -0.57568197546E+02 -0.12633165996E+03  0.13994640425E+03  0.00000000000E+00 0. -1.
         21    1    1    2  502  501  0.23259388740E+02  0.40501524201E+00  0.17665384933E+02  0.29210084333E+02  0.00000000000E+00 0.  1.
<scales pt_clust_5="13000.00000" pt_clust_6="13000.00000" pt_clust_7="13000.00000" pt_clust_8="13000.00000" pt_clust_9="23.26291"></scales>
<clustering>
<clus scale="   23.263">  1  9  2 -1</clus>
<clus scale="   81.020">  5  6 -1 -1</clus>
<clus scale="   92.479">  7  8 -1 -1</clus>
<clus scale="   93.595">  1  5  2 -1</clus>
<clus scale="  103.673">  2  5  1 -1</clus>
</clustering>
</event>
<event>
 9    1  0.2374319E-005  0.1428028E+03  0.7546771E-02  0.1212197E+00
         -4   -1    0    0    0  501 -0.00000000000E+00  0.00000000000E+00  0.32487255984E+03  0.32487255984E+03  0.00000000000E+00 0.  1.
          3   -1    0    0  502    0  0.00000000000E+00 -0.00000000000E+00 -0.10463193831E+03  0.10463193831E+03  0.00000000000E+00 0. -1.
        -24    2    1    2    0    0 -0.90517850082E+02  0.71245093323E+02  0.23144848153E+03  0.27011569354E+03  0.78260742300E+02 0.  0.
         23    2    1    2    0    0  0.72663779540E+02 -0.59808075758E+02  0.76045566173E+01  0.13104307786E+03  0.90870392271E+02 0.  0.
         13    1    3    3    0    0 -0.77376420864E+02  0.52939723866E+02  0.10128421982E+03  0.13801528195E+03  0.00000000000E+00 0. -1.
        -14    1    3    3    0    0 -0.13141429219E+02  0.18305369457E+02  0.13016426171E+03  0.13210041158E+03  0.00000000000E+00 0.  1.
        -13    1    4    4    0    0  0.91095962207E+02 -0.50057816871E+02 -0.90773762287E+01  0.10433914951E+03  0.00000000000E+00 0. -1.
         13    1    4    4    0    0 -0.18432182667E+02 -0.97502588861E+01  0.16681932846E+02  0.26703928357E+02  0.00000000000E+00 0.  1.
         21    1    1    2  502  501  0.17854070542E+02 -0.11437017566E+02 -0.18812416624E+02  0.28345726749E+02  0.00000000000E+00 0.  1.
<scales pt_clust_5="13000.00000" pt_clust_6="13000.00000" pt_clust_7="13000.00000" pt_clust_8="13000.00000" pt_clust_9="21.20314"></scales>
<clustering>
<clus scale="   21.203">  2  9  1 -1</clus>
<clus scale="   78.261">  5  6 -1 -1</clus>
<clus scale="   90.870">  7  8 -1 -1</clus>
<clus scale="  135.129">  1  5  2 -1</clus>
<clus scale="   21.203">  2  5  1 -1</clus>
</clustering>
</event>
<event>
 9    1  0.2374319E-005  0.1064166E+03  0.7546771E-02  0.1272882E+00
         -2   -1    0    0    0  501 -0.00000000000E+00  0.00000000000E+00  0.97744619279E+02  0.97744619279E+02  0.00000000000E+00 0.  1.
          1   -1    0    0  502    0  0.00000000000E+00 -0.00000000000E+00 -0.25764286016E+03  0.25764286016E+03  0.00000000000E+00 0. -1.
        -24    2    1    2    0    0 -0.12824172662E+02 -0.59693349026E+02  0.41930064203E+02  0.10860644141E+03  0.79432194409E+02 0.  0.
         23    2    1    2    0    0  0.19633888375E+02  0.13350300750E+02 -0.13714559495E+03  0.16691926155E+03  0.92137970250E+02 0.  0.
         13    1    3    3    0    0 -0.26209224741E+01 -0.73202431775E+02  0.51138987823E+02  0.89334547225E+02  0.00000000000E+00 0. -1.
        -14    1    3    3    0    0 -0.10203250188E+02  0.13509082750E+02 -0.92089236195E+01  0.19271894182E+02  0.00000000000E+00 0.  1.
        -11    1    4    4    0    0 -0.13880607987E+02  0.15680613158E+02  0.44360382403E+01  0.21406338836E+02  0.00000000000E+00 0.  1.
         11    1    4    4    0    0  0.33514496362E+02 -0.23303124079E+01 -0.14158163319E+03  0.14551292272E+03  0.00000000000E+00 0. -1.
         21    1    1    2  502  501 -0.68097157133E+01  0.46343048276E+02 -0.64682710143E+02  0.79861776483E+02  0.00000000000E+00 0.  1.
<scales pt_clust_5="13000.00000" pt_clust_6="13000.00000" pt_clust_7="13000.00000" pt_clust_8="13000.00000" pt_clust_9="46.84069"></scales>
<clustering>
<clus scale="   46.841">  2  9  1 -1</clus>
<clus scale="   79.432">  5  6 -1 -1</clus>
<clus scale="   92.138">  7  8 -1 -1</clus>
<clus scale="   95.627">  1  5  2 -1</clus>
<clus scale="   46.841">  2  5  1 -1</clus>
</clustering>
</event>
<event>
 9    1  0.2374319E-005  0.9625669E+02  0.7546771E-02  0.1294800E+00
         -2   -1    0    0    0  501 -0.00000000000E+00  0.00000000000E+00  0.31803625454E+02  0.31803625454E+02  0.00000000000E+00 0.  1.
          1   -1    0    0  502    0  0.00000000000E+00 -0.00000000000E+00 -0.62822841271E+03  0.62822841271E+03  0.00000000000E+00 0. -1.
        -24    2    1    2    0    0 -0.18564648458E+02 -0.21109404011E+02 -0.65099125132E+02  0.10694713702E+03  0.80059608505E+02 0.  0.
         23    2    1    2    0    0 -0.75940422111E+01  0.45372110779E+02 -0.26079278178E+03  0.28020948015E+03  0.91587006836E+02 0.  0.
         13    1    3    3    0    0 -0.45544916057E+01 -0.46582478331E+02 -0.15225112852E+02  0.49218642226E+02  0.00000000000E+00 0. -1.
        -14    1    3    3    0    0 -0.14010156852E+02  0.25473074320E+02 -0.49874012281E+02  0.57728494795E+02  0.00000000000E+00 0.  1.
        -13    1    4    4    0    0 -0.30691141821E+02 -0.54552964872E+01 -0.31881842288E+02  0.44588768919E+02  0.00000000000E+00 0.  1.
         13    1    4    4    0    0  0.23097099610E+02  0.50827407266E+02 -0.22891093949E+03  0.23562071123E+03  0.00000000000E+00 0. -1.
         21    1    1    2  502  501  0.26158690669E+02 -0.24262706768E+02 -0.27053288034E+03  0.27287542100E+03  0.00000000000E+00 0. -1.
<scales pt_clust_5="13000.00000" pt_clust_6="13000.00000" pt_clust_7="13000.00000" pt_clust_8="13000.00000" pt_clust_9="35.67851"></scales>
<clustering>
<clus scale="   35.679">  2  9  1 -1</clus>
<clus scale="   80.060">  5  6 -1 -1</clus>
<clus scale="   85.362">  1  5  2 -1</clus>
<clus scale="   91.587">  7  8 -1 -1</clus>
<clus scale="   35.679">  2  5  1 -1</clus>
</clustering>
</event>
<event>
 9    1  0.2374319E-005  0.1441685E+03  0.7546771E-02  0.1209947E+00
          1   -1    0    0  502    0  0.00000000000E+00  0.00000000000E+00  0.39373030487E+03  0.39373030487E+03  0.00000000000E+00 0. -1.
         -2   -1    0    0    0  501 -0.00000000000E+00 -0.00000000000E+00 -0.30132886589E+03  0.30132886589E+03  0.00000000000E+00 0.  1.
         23    2    1    2    0    0  0.99715453334E+02 -0.57254258078E+02 -0.26264524809E+03  0.30101588061E+03  0.91688670696E+02 0.  0.
        -24    2    1    2    0    0 -0.67037671899E+02  0.32920055185E+01  0.25290821956E+03  0.27399318127E+03  0.81269976643E+02 0.  0.
         11    1    4    4    0    0 -0.40645867603E+02 -0.18563184234E+02  0.22613565563E+03  0.23050816278E+03  0.00000000000E+00 0. -1.
        -12    1    4    4    0    0 -0.26391804296E+02  0.21855189753E+02  0.26772563939E+02  0.43485018489E+02  0.00000000000E+00 0.  1.
        -13    1    3    3    0    0  0.26382714407E+02 -0.61689755563E+02 -0.81663050832E+02  0.10569071592E+03  0.00000000000E+00 0. -1.
         13    1    3    3    0    0  0.73332738927E+02  0.44354974849E+01 -0.18098219725E+03  0.19532516469E+03  0.00000000000E+00 0.  1.
         21    1    1    2  502  501 -0.32677781435E+02  0.53962252560E+02  0.10213846750E+03  0.12005010888E+03  0.00000000000E+00 0. -1.
<scales pt_clust_5="13000.00000" pt_clust_6="13000.00000" pt_clust_7="13000.00000" pt_clust_8="13000.00000" pt_clust_9="63.08536"></scales>
<clustering>
<clus scale="   63.085">  1  9  2 -1</clus>
<clus scale="   81.270">  5  6 -1 -1</clus>
<clus scale="   91.689">  7  8 -1 -1</clus>
<clus scale="  137.777">  1  5  2 -1</clus>
<clus scale="   63.085">  1  5  2 -1</clus>
</clustering>
</event>
<event>
 9    1  0.2374319E-005  0.8341006E+02  0.7546771E-02  0.1319773E+00
          1   -1    0    0  502    0  0.00000000000E+00  0.00000000000E+00  0.61046991906E+02  0.61046991906E+02  0.00000000000E+00 0. -1.
         -2   -1    0    0    0  501 -0.00000000000E+00 -0.00000000000E+00 -0.24947326520E+03  0.24947326520E+03  0.00000000000E+00 0.  1.
        -24    2    1    2    0    0 -0.15181857820E+02  0.31494216900E+02 -0.85647926897E+02  0.12258337722E+03  0.80428492983E+02 0.  0.
         23    2    1    2    0    0 -0.42754640311E+02 -0.23149930270E+01 -0.71289184915E+02  0.11582840457E+03  0.80627247003E+02 0.  0.
         13    1    3    3    0    0  0.46505847606E+01  0.26556215630E+02  0.68806240649E+01  0.27824512839E+02  0.00000000000E+00 0. -1.
        -14    1    3    3    0    0 -0.19832442581E+02  0.49380012701E+01 -0.92528550962E+02  0.94758864379E+02  0.00000000000E+00 0.  1.
        -13    1    4    4    0    0 -0.36180708989E+02  0.34216873468E+02 -0.57899035146E+02  0.76368425437E+02  0.00000000000E+00 0.  1.
         13    1    4    4    0    0 -0.65739313219E+01 -0.36531866495E+02 -0.13390149769E+02  0.39459979136E+02  0.00000000000E+00 0. -1.
         21    1    1    2  502  501  0.57936498131E+02 -0.29179223873E+02 -0.31489161485E+02  0.72108475317E+02  0.00000000000E+00 0. -1.
<scales pt_clust_5="13000.00000" pt_clust_6="13000.00000" pt_clust_7="13000.00000" pt_clust_8="13000.00000" pt_clust_9="64.86960"></scales>
<clustering>
<clus scale="   64.870">  1  9  2 -1</clus>
<clus scale="   80.428">  5  6 -1 -1</clus>
<clus scale="   80.627">  7  8 -1 -1</clus>
<clus scale="   83.218">  2  5  1 -1</clus>
<clus scale="   64.870">  1  5  2 -1</clus>
</clustering>
</event>
<event>
 9    1  0.2374319E-005  0.1315644E+03  0.7546771E-02  0.1227771E+00
          1   -1    0    0  502    0  0.00000000000E+00  0.00000000000E+00  0.30199303187E+03  0.30199303187E+03  0.00000000000E+00 0. -1.
         -2   -1    0    0    0  501 -0.00000000000E+00 -0.00000000000E+00 -0.14523912604E+03  0.14523912604E+03  0.00000000000E+00 0.  1.
        -24    2    1    2    0    0  0.10036667014E+01 -0.93675866720E+02 -0.90289873114E+02  0.15321441710E+03  0.80908720588E+02 0.  0.
         23    2    1    2    0    0 -0.19576040857E+02  0.10254898237E+03  0.21947570982E+03  0.25961332688E+03  0.91268708387E+02 0.  0.
         13    1    3    3    0    0 -0.21133297055E+02  0.57625615251E+01 -0.15400866209E+02  0.26777043148E+02  0.00000000000E+00 0. -1.
        -14    1    3    3    0    0  0.22136963757E+02 -0.99438428245E+02 -0.74889006904E+02  0.12643737395E+03  0.00000000000E+00 0.  1.
        -11    1    4    4    0    0 -0.39851862679E+02  0.34775772845E+02  0.15544530369E+03  0.16419734400E+03  0.00000000000E+00 0.  1.
         11    1    4    4    0    0  0.20275821821E+02  0.67773209525E+02  0.64030406122E+02  0.95415982875E+02  0.00000000000E+00 0. -1.
         21    1    1    2  502  501  0.18572374156E+02 -0.88731156497E+01  0.27568069124E+02  0.34404413937E+02  0.00000000000E+00 0.  1.
<scales pt_clust_5="13000.00000" pt_clust_6="13000.00000" pt_clust_7="13000.00000" pt_clust_8="13000.00000" pt_clust_9="20.58313"></scales>
<clustering>
<clus scale="   20.583">  1  9  2 -1</clus>
<clus scale="   80.909">  5  6 -1 -1</clus>
<clus scale="   91.269">  7  8 -1 -1</clus>
<clus scale="  124.601">  2  5  1 -1</clus>
<clus scale="   20.583">  1  5  2 -1</clus>
</clustering>
</event>
<event>
 9    1  0.2374319E-005  0.1160533E+03  0.7546771E-02  0.1257015E+00
         -2   -1    0    0    0  501 -0.00000000000E+00  0.00000000000E+00  0.67040750383E+02  0.67040750383E+02  0.00000000000E+00 0.  1.
          1   -1    0    0  502    0  0.00000000000E+00 -0.00000000000E+00 -0.35716218901E+03  0.35716218901E+03  0.00000000000E+00 0. -1.
        -24    2    1    2    0    0 -0.32339369672E+02  0.46647534925E+02 -0.33012836777E+02  0.10246647853E+03  0.78661963391E+02 0.  0.
         23    2    1    2    0    0  0.53262603280E+02 -0.50459793480E+02 -0.86390544094E+02  0.14969876074E+03  0.97792112117E+02 0.  0.
         13    1    3    3    0    0  0.17795525187E+02  0.36748750187E+02 -0.31103317213E+02  0.51328040082E+02  0.00000000000E+00 0. -1.
        -14    1    3    3    0    0 -0.50134894858E+02  0.98987847376E+01 -0.19095195639E+01  0.51138438446E+02  0.00000000000E+00 0.  1.
        -13    1    4    4    0    0  0.45814498532E+00  0.27701366939E+02 -0.23495813408E+02  0.36326696449E+02  0.00000000000E+00 0. -1.
         13    1    4    4    0    0  0.52804458294E+02 -0.78161160419E+02 -0.62894730686E+02  0.11337206429E+03  0.00000000000E+00 0.  1.
         21    1    1    2  502  501 -0.20923233608E+02  0.38122585554E+01 -0.17071805775E+03  0.17203770012E+03  0.00000000000E+00 0. -1.
<scales pt_clust_5="13000.00000" pt_clust_6="13000.00000" pt_clust_7="13000.00000" pt_clust_8="13000.00000" pt_clust_9="21.26770"></scales>
<clustering>
<clus scale="   21.268">  2  9  1 -1</clus>
<clus scale="   78.662">  5  6 -1 -1</clus>
<clus scale="   97.792">  7  8 -1 -1</clus>
<clus scale="  100.463">  1  5  2 -1</clus>
<clus scale="   21.268">  2  5  1 -1</clus>
</clustering>
</event>
<event>
 9    1  0.2374319E-005  0.1506870E+03  0.7546771E-02  0.1200332E+00
         -2   -1    0    0    0  501 -0.00000000000E+00  0.00000000000E+00  0.16859851015E+03  0.16859851015E+03  0.00000000000E+00 0.  1.
          1   -1    0    0  502    0  0.00000000000E+00 -0.00000000000E+00 -0.18896057849E+03  0.18896057849E+03  0.00000000000E+00 0. -1.
        -24    2    1    2    0    0 -0.59858995565E+02  0.10872764475E+03  0.44928479099E+02  0.15751964247E+03  0.85959696631E+02 0.  0.
         23    2    1    2    0    0  0.86942338483E+02 -0.81659513336E+02 -0.41587759298E+02  0.15500597676E+03  0.89833539214E+02 0.  0.
         13    1    3    3    0    0 -0.45957856326E+00  0.69562838350E+02 -0.62966433647E+01  0.69848746656E+02  0.00000000000E+00 0. -1.
        -14    1    3    3    0    0 -0.59399417002E+02  0.39164806404E+02  0.51225122464E+02  0.87670895810E+02  0.00000000000E+00 0.  1.
        -11    1    4    4    0    0 -0.10130179559E+02 -0.41663654353E+02 -0.22047491836E+02  0.48213820925E+02  0.00000000000E+00 0. -1.
         11    1    4    4    0    0  0.97072518041E+02 -0.39995858983E+02 -0.19540267462E+02  0.10679215583E+03  0.00000000000E+00 0.  1.
         21    1    1    2  502  501 -0.27083342918E+02 -0.27068131417E+02 -0.23702788137E+02  0.45033469415E+02  0.00000000000E+00 0.  1.
<scales pt_clust_5="13000.00000" pt_clust_6="13000.00000" pt_clust_7="13000.00000" pt_clust_8="13000.00000" pt_clust_9="38.29088"></scales>
<clustering>
<clus scale="   38.291">  2  9  1 -1</clus>
<clus scale="   85.960">  5  6 -1 -1</clus>
<clus scale="   89.834">  7  8 -1 -1</clus>
<clus scale="  148.410">  1  5  2 -1</clus>
<clus scale="   38.291">  2  5  1 -1</clus>
</clustering>
</event>
<event>
 9    1  0.2374319E-005  0.2858022E+03  0.7546771E-02  0.1092945E+00
          1   -1    0    0  502    0  0.00000000000E+00  0.00000000000E+00  0.45633122185E+03  0.45633122185E+03  0.00000000000E+00 0. -1.
         -2   -1    0    0    0  501 -0.00000000000E+00 -0.00000000000E+00 -0.26062775887E+03  0.26062775887E+03  0.00000000000E+00 0.  1.
         23    2    1    2    0    0 -0.56575525726E+02  0.25828134091E+03 -0.25326920694E+02  0.28057649862E+03  0.90397331219E+02 0.  0.
        -24    2    1    2    0    0  0.14904718743E+02 -0.28431315506E+03  0.11139058558E+03  0.31623675047E+03  0.80880770336E+02 0.  0.
         11    1    4    4    0    0 -0.14385450420E+02 -0.22721906311E+02 -0.67307727310E+01  0.27722364829E+02  0.00000000000E+00 0. -1.
        -12    1    4    4    0    0  0.29290169163E+02 -0.26159124875E+03  0.11812135831E+03  0.28851438564E+03  0.00000000000E+00 0.  1.
        -11    1    3    3    0    0 -0.65412184699E+01  0.10119259347E+03 -0.51360880083E+02  0.11366911856E+03  0.00000000000E+00 0.  1.
         11    1    3    3    0    0 -0.50034307256E+02  0.15708874744E+03  0.26033959389E+02  0.16690738006E+03  0.00000000000E+00 0. -1.
         21    1    1    2  502  501  0.41670806983E+02  0.26031814151E+02  0.10963979809E+03  0.12014573163E+03  0.00000000000E+00 0.  1.
<scales pt_clust_5="13000.00000" pt_clust_6="13000.00000" pt_clust_7="13000.00000" pt_clust_8="13000.00000" pt_clust_9="49.13361"></scales>
<clustering>
<clus scale="   49.134">  1  9  2 -1</clus>
<clus scale="   80.881">  5  6 -1 -1</clus>
<clus scale="   90.397">  7  8 -1 -1</clus>
<clus scale="  282.936">  1  5  2 -1</clus>
<clus scale="   49.134">  1  5  2 -1</clus>
</clustering>
</event>
<event>
 9    1  0.2374319E-005  0.2178296E+03  0.7546771E-02  0.1136034E+00
         -2   -1    0    0    0  501 -0.00000000000E+00  0.00000000000E+00  0.42882846400E+03  0.42882846400E+03  0.00000000000E+00 0.  1.
          1   -1    0    0  502    0  0.00000000000E+00 -0.00000000000E+00 -0.15115844690E+03  0.15115844690E+03  0.00000000000E+00 0. -1.
        -24    2    1    2    0    0 -0.71060868204E+02 -0.19130691999E+03  0.26205586840E+03  0.34180331866E+03  0.80673699898E+02 0.  0.
         23    2    1    2    0    0  0.85401224004E+02  0.16895300816E+03  0.24710674202E+02  0.21011065235E+03  0.87734718221E+02 0.  0.
         11    1    3    3    0    0 -0.27622675037E+02 -0.81376401652E+02  0.51078716332E+02  0.99970826665E+02  0.00000000000E+00 0. -1.
        -12    1    3    3    0    0 -0.43438193167E+02 -0.10993051834E+03  0.21097715207E+03  0.24183249199E+03  0.00000000000E+00 0.  1.
        -11    1    4    4    0    0  0.42204400725E+02  0.15447820253E+02  0.23330261257E+02  0.50637413850E+02  0.00000000000E+00 0.  1.
         11    1    4    4    0    0  0.43196823279E+02  0.15350518791E+03  0.13804129451E+01  0.15947323850E+03  0.00000000000E+00 0. -1.
         21    1    1    2  502  501 -0.14340355800E+02  0.22353911831E+02 -0.90965255002E+01  0.28072939903E+02  0.00000000000E+00 0.  1.
<scales pt_clust_5="13000.00000" pt_clust_6="13000.00000" pt_clust_7="13000.00000" pt_clust_8="13000.00000" pt_clust_9="26.55830"></scales>
<clustering>
<clus scale="   26.558">  2  9  1 -1</clus>
<clus scale="   80.674">  5  6 -1 -1</clus>
<clus scale="   87.735">  7  8 -1 -1</clus>
<clus scale="  215.083">  1  5  2 -1</clus>
<clus scale="   26.558">  2  5  1 -1</clus>
</clustering>
</event>
<event>
 9    1  0.2374319E-005  0.1241970E+03  0.7546771E-02  0.1239097E+00
          1   -1    0    0  502    0  0.00000000000E+00  0.00000000000E+00  0.40009042547E+03  0.40009042547E+03  0.00000000000E+00 0. -1.
         -2   -1    0    0    0  501 -0.00000000000E+00 -0.00000000000E+00 -0.59614871695E+02  0.59614871695E+02  0.00000000000E+00 0.  1.
        -24    2    1    2    0    0 -0.78527100884E+02 -0.96053450347E+01  0.47612152749E+02  0.12231435634E+03  0.80219177574E+02 0.  0.
         23    2    1    2    0    0  0.10205313029E+03  0.18588792344E+02  0.21080528761E+03  0.25155557304E+03  0.89894117957E+02 0.  0.
         11    1    3    3    0    0 -0.42169424824E+02  0.21806522092E+02  0.56133271568E+02  0.73516861825E+02  0.00000000000E+00 0. -1.
        -12    1    3    3    0    0 -0.36357676060E+02 -0.31411867127E+02 -0.85211188181E+01  0.48797494514E+02  0.00000000000E+00 0.  1.
        -13    1    4    4    0    0  0.21051475332E+02  0.28463997628E+02  0.13709361076E+03  0.14159103745E+03  0.00000000000E+00 0. -1.
         13    1    4    4    0    0  0.81001654954E+02 -0.98752052841E+01  0.73711676849E+02  0.10996453559E+03  0.00000000000E+00 0.  1.
         21    1    1    2  502  501 -0.23526029402E+02 -0.89834473094E+01  0.82058113414E+02  0.85835367781E+02  0.00000000000E+00 0. -1.
<scales pt_clust_5="13000.00000" pt_clust_6="13000.00000" pt_clust_7="13000.00000" pt_clust_8="13000.00000" pt_clust_9="25.18286"></scales>
<clustering>
<clus scale="   25.183">  1  9  2 -1</clus>
<clus scale="   80.219">  5  6 -1 -1</clus>
<clus scale="   89.894">  7  8 -1 -1</clus>
<clus scale="  117.384">  2  5  1 -1</clus>
<clus scale="   25.183">  1  5  2 -1</clus>
</clustering>
</event>
<event>
 9    1  0.2374319E-005  0.1761900E+03  0.7546771E-02  0.1185800E+00
          1   -1    0    0  502    0  0.00000000000E+00  0.00000000000E+00  0.41891469851E+03  0.41891469851E+03  0.00000000000E+00 0. -1.
         -2   -1    0    0    0  501 -0.00000000000E+00 -0.00000000000E+00 -0.30567854059E+03  0.30567854059E+03  0.00000000000E+00 0.  1.
        -24    2    1    2    0    0 -0.85622455711E+02  0.48156933891E+02 -0.18653361568E+03  0.22610326517E+03  0.81716592799E+02 0.  0.
         23    2    1    2    0    0  0.16912230917E+03 -0.14977456541E+03  0.10948232568E+03  0.26717269961E+03  0.91433559907E+02 0.  0.
         11    1    3    3    0    0 -0.33247087307E+02  0.53244694424E+02 -0.51554736076E+02  0.81229656595E+02  0.00000000000E+00 0. -1.
        -12    1    3    3    0    0 -0.52375368404E+02 -0.50877605326E+01 -0.13497887961E+03  0.14487360858E+03  0.00000000000E+00 0.  1.
        -13    1    4    4    0    0  0.47169162735E+02 -0.96582078651E+02  0.27694014319E+02  0.11099543350E+03  0.00000000000E+00 0.  1.
         13    1    4    4    0    0  0.12195314643E+03 -0.53192486760E+02  0.81788311359E+02  0.15617726610E+03  0.00000000000E+00 0. -1.
         21    1    1    2  502  501 -0.83499853454E+02  0.10161763152E+03  0.19028744793E+03  0.23131727432E+03  0.00000000000E+00 0.  1.
<scales pt_clust_5="13000.00000" pt_clust_6="13000.00000" pt_clust_7="13000.00000" pt_clust_8="13000.00000" pt_clust_9="150.60819"></scales>
<clustering>
<clus scale="   81.717">  5  6 -1 -1</clus>
<clus scale="   91.434">  7  8 -1 -1</clus>
<clus scale="  127.781">  2  5  1 -1</clus>
<clus scale="  150.608">  1  9  2 -1</clus>
<clus scale="  150.608">  1  5  2 -1</clus>
</clustering>
</event>
<event>
 9    1  0.2374319E-005  0.1362250E+03  0.7546771E-02  0.1220272E+00
          3   -1    0    0  502    0  0.00000000000E+00  0.00000000000E+00  0.24872530156E+03  0.24872530156E+03  0.00000000000E+00 0. -1.
         -4   -1    0    0    0  501 -0.00000000000E+00 -0.00000000000E+00 -0.25999260645E+03  0.25999260645E+03  0.00000000000E+00 0.  1.
         23    2    1    2    0    0 -0.85224498605E+02 -0.69243130968E+02 -0.20236110421E+03  0.24666378218E+03  0.88516544182E+02 0.  0.
        -24    2    1    2    0    0  0.43459127555E+02  0.65558103146E+02  0.67002811740E+02  0.13107130693E+03  0.80645831027E+02 0.  0.
         11    1    4    4    0    0  0.72371111070E+01  0.71067794777E+02  0.61016342553E+02  0.93946800319E+02  0.00000000000E+00 0. -1.
        -12    1    4    4    0    0  0.36222016448E+02 -0.55096916308E+01  0.59864691874E+01  0.37124506606E+02  0.00000000000E+00 0.  1.
        -11    1    3    3    0    0 -0.47103866061E+02 -0.43475959729E+02 -0.18774429902E+03  0.19838562218E+03  0.00000000000E+00 0.  1.
         11    1    3    3    0    0 -0.38120632544E+02 -0.25767171239E+02 -0.14616805188E+02  0.48278160002E+02  0.00000000000E+00 0. -1.
         21    1    1    2  502  501  0.41765371050E+02  0.36850278223E+01  0.12409098758E+03  0.13098281890E+03  0.00000000000E+00 0. -1.
<scales pt_clust_5="13000.00000" pt_clust_6="13000.00000" pt_clust_7="13000.00000" pt_clust_8="13000.00000" pt_clust_9="41.92762"></scales>
<clustering>
<clus scale="   41.928">  1  9  2 -1</clus>
<clus scale="   80.646">  5  6 -1 -1</clus>
<clus scale="   88.517">  7  8 -1 -1</clus>
<clus scale="  131.247">  1  5  2 -1</clus>
<clus scale="   41.928">  1  5  2 -1</clus>
</clustering>
</event>
<event>
 9    1  0.2374319E-005  0.9470512E+02  0.7546771E-02  0.1296617E+00
         -2   -1    0    0    0  501 -0.00000000000E+00  0.00000000000E+00  0.87985479714E+02  0.87985479714E+02  0.00000000000E+00 0.  1.
          1   -1    0    0  502    0  0.00000000000E+00 -0.00000000000E+00 -0.31116355763E+03  0.31116355763E+03  0.00000000000E+00 0. -1.
        -24    2    1    2    0    0  0.66955751728E+01 -0.31186716796E+02 -0.33892202660E+01  0.87692502136E+02  0.81615231946E+02 0.  0.
         23    2    1    2    0    0 -0.43925134146E+02  0.73988490942E+00 -0.15333947001E+02  0.10142115695E+03  0.90117458387E+02 0.  0.
         13    1    3    3    0    0  0.12099153722E+01  0.27188812683E+02  0.71054530113E+01  0.28127973493E+02  0.00000000000E+00 0. -1.
        -14    1    3    3    0    0  0.54856598006E+01 -0.58375529479E+02 -0.10494673277E+02  0.59564528644E+02  0.00000000000E+00 0.  1.
        -11    1    4    4    0    0 -0.45925767299E+02 -0.23420620411E+02 -0.41182635798E+02  0.65982657219E+02  0.00000000000E+00 0.  1.
         11    1    4    4    0    0  0.20006331532E+01  0.24160505320E+02  0.25848688797E+02  0.35438499726E+02  0.00000000000E+00 0. -1.
         21    1    1    2  502  501  0.37229558973E+02  0.30446831887E+02 -0.20445491065E+03  0.21003537827E+03  0.00000000000E+00 0. -1.
<scales pt_clust_5="13000.00000" pt_clust_6="13000.00000" pt_clust_7="13000.00000" pt_clust_8="13000.00000" pt_clust_9="48.09417"></scales>
<clustering>
<clus scale="   48.094">  2  9  1 -1</clus>
<clus scale="   81.615">  5  6 -1 -1</clus>
<clus scale="   86.654">  1  5  2 -1</clus>
<clus scale="   90.117">  7  8 -1 -1</clus>
<clus scale="   48.094">  2  5  1 -1</clus>
</clustering>
</event>
<event>
 9    1  0.2374319E-005  0.1007939E+03  0.7546771E-02  0.1283283E+00
          1   -1    0    0  502    0  0.00000000000E+00  0.00000000000E+00  0.21619418628E+03  0.21619418628E+03  0.00000000000E+00 0. -1.
         -2   -1    0    0    0  501 -0.00000000000E+00 -0.00000000000E+00 -0.70400113584E+02  0.70400113584E+02  0.00000000000E+00 0.  1.
         23    2    1    2    0    0 -0.37213235628E+02 -0.21689983128E+02  0.12930793614E+02  0.10209701409E+03  0.91658685293E+02 0.  0.
        -24    2    1    2    0    0  0.46644350538E+02 -0.93202338677E+01  0.90760374339E+02  0.13136317173E+03  0.82196564048E+02 0.  0.
         11    1    4    4    0    0  0.76166279455E+01 -0.32529005384E+02  0.76970358677E+02  0.83908195830E+02  0.00000000000E+00 0. -1.
        -12    1    4    4    0    0  0.39027722592E+02  0.23208771516E+02  0.13790015662E+02  0.47454975903E+02  0.00000000000E+00 0.  1.
        -13    1    3    3    0    0 -0.46083830190E+02  0.14196204355E+02 -0.20366525154E+02  0.52345457969E+02  0.00000000000E+00 0.  1.
         13    1    3    3    0    0  0.88705945621E+01 -0.35886187482E+02  0.33297318767E+02  0.49751556126E+02  0.00000000000E+00 0. -1.
         21    1    1    2  502  501 -0.94311149094E+01  0.31010216995E+02  0.42102904747E+02  0.53134114038E+02  0.00000000000E+00 0.  1.
<scales pt_clust_5="13000.00000" pt_clust_6="13000.00000" pt_clust_7="13000.00000" pt_clust_8="13000.00000" pt_clust_9="32.41264"></scales>
<clustering>
<clus scale="   32.413">  1  9  2 -1</clus>
<clus scale="   82.197">  5  6 -1 -1</clus>
<clus scale="   91.659">  7  8 -1 -1</clus>
<clus scale="   92.273">  1  5  2 -1</clus>
<clus scale="   32.413">  1  5  2 -1</clus>
</clustering>
</event>
<event>
 9    1  0.2374319E-005  0.9897003E+02  0.7546771E-02  0.1288009E+00
          1   -1    0    0  502    0  0.00000000000E+00  0.00000000000E+00  0.34160932942E+03  0.34160932942E+03  0.00000000000E+00 0. -1.
         -2   -1    0    0    0  501 -0.00000000000E+00 -0.00000000000E+00 -0.61368710642E+02  0.61368710642E+02  0.00000000000E+00 0.  1.
        -24    2    1    2    0    0 -0.50263919394E+01  0.14148467224E+02 -0.70459658155E+01  0.81845148404E+02  0.80146983364E+02 0.  0.
         23    2    1    2    0    0  0.16438486590E+02 -0.40867309514E+02  0.26758967684E+03  0.28603160090E+03  0.90936685303E+02 0.  0.
         11    1    3    3    0    0 -0.12232996354E+02 -0.23744814238E+02  0.21146442058E+02  0.34068084987E+02  0.00000000000E+00 0. -1.
        -12    1    3    3    0    0  0.72066044149E+01  0.37893281461E+02 -0.28192407873E+02  0.47777063417E+02  0.00000000000E+00 0.  1.
        -13    1    4    4    0    0  0.49592148565E+02 -0.43179586207E+02  0.20314262904E+03  0.21351998875E+03  0.00000000000E+00 0. -1.
         13    1    4    4    0    0 -0.33153661975E+02  0.23122766936E+01  0.64447047802E+02  0.72511612148E+02  0.00000000000E+00 0.  1.
         21    1    1    2  502  501 -0.11412094650E+02  0.26718842290E+02  0.19696907750E+02  0.35101290753E+02  0.00000000000E+00 0. -1.
<scales pt_clust_5="13000.00000" pt_clust_6="13000.00000" pt_clust_7="13000.00000" pt_clust_8="13000.00000" pt_clust_9="29.05396"></scales>
<clustering>
<clus scale="   29.054">  2  9  1 -1</clus>
<clus scale="   80.147">  5  6 -1 -1</clus>
<clus scale="   89.158">  2  5  1 -1</clus>
<clus scale="   90.937">  7  8 -1 -1</clus>
<clus scale="   98.970">  1  5  2 -1</clus>
</clustering>
</event>
<event>
 9    1  0.2374319E-005  0.1069531E+03  0.7546771E-02  0.1269606E+00
          3   -1    0    0  502    0  0.00000000000E+00  0.00000000000E+00  0.39770143230E+03  0.39770143230E+03  0.00000000000E+00 0. -1.
         -4   -1    0    0    0  501 -0.00000000000E+00 -0.00000000000E+00 -0.56570615233E+02  0.56570615233E+02  0.00000000000E+00 0.  1.
         23    2    1    2    0    0 -0.51458934361E+02 -0.66209450509E+01  0.23850065232E+02  0.10687010648E+03  0.90335680703E+02 0.  0.
        -24    2    1    2    0    0  0.76748866842E+02  0.16436962529E+02  0.24318080712E+03  0.26849226680E+03  0.82405279458E+02 0.  0.
         11    1    4    4    0    0 -0.12814463176E+02  0.18840627455E+02  0.68228527110E+02  0.71932688125E+02  0.00000000000E+00 0. -1.
        -12    1    4    4    0    0  0.89563330017E+02 -0.24036649266E+01  0.17495228001E+03  0.19655957868E+03  0.00000000000E+00 0.  1.
        -13    1    3    3    0    0 -0.40144993042E+02  0.32470403525E+02 -0.11576586438E+02  0.52914694792E+02  0.00000000000E+00 0. -1.
         13    1    3    3    0    0 -0.11313941319E+02 -0.39091348576E+02  0.35426651670E+02  0.53955411686E+02  0.00000000000E+00 0.  1.
         21    1    1    2  502  501 -0.25289932481E+02 -0.98160174777E+01  0.74099944714E+02  0.78909674252E+02  0.00000000000E+00 0. -1.
<scales pt_clust_5="13000.00000" pt_clust_6="13000.00000" pt_clust_7="13000.00000" pt_clust_8="13000.00000" pt_clust_9="27.12812"></scales>
<clustering>
<clus scale="   27.128">  1  9  2 -1</clus>
<clus scale="   82.405">  5  6 -1 -1</clus>
<clus scale="   90.336">  7  8 -1 -1</clus>
<clus scale="  100.345">  1  5  2 -1</clus>
<clus scale="   27.128">  1  5  2 -1</clus>
</clustering>
</event>
<event>
 9    1  0.2374319E-005  0.1077026E+03  0.7546771E-02  0.1269572E+00
          3   -1    0    0  502    0  0.00000000000E+00  0.00000000000E+00  0.15585525489E+03  0.15585525489E+03  0.00000000000E+00 0. -1.
         -4   -1    0    0    0  501 -0.00000000000E+00 -0.00000000000E+00 -0.25154316797E+03  0.25154316797E+03  0.00000000000E+00 0.  1.
        -24    2    1    2    0    0 -0.22022186878E+02  0.58651517829E+02 -0.15818048337E+03  0.18841585148E+03  0.80959808015E+02 0.  0.
         23    2    1    2    0    0  0.63773650161E+02  0.17901806480E+02  0.66822174149E+02  0.13167654856E+03  0.92119256151E+02 0.  0.
         11    1    3    3    0    0  0.17092397029E+02  0.59105736393E+02 -0.11291428147E+03  0.12858955273E+03  0.00000000000E+00 0. -1.
        -12    1    3    3    0    0 -0.39114583907E+02 -0.45421856419E+00 -0.45266201892E+02  0.59826298753E+02  0.00000000000E+00 0.  1.
        -13    1    4    4    0    0  0.65454952911E+02 -0.13767541046E+02  0.11442355914E+02  0.67858850240E+02  0.00000000000E+00 0.  1.
         13    1    4    4    0    0 -0.16813027509E+01  0.31669347526E+02  0.55379818235E+02  0.63817698324E+02  0.00000000000E+00 0. -1.
         21    1    1    2  502  501 -0.41751463283E+02 -0.76553324309E+02 -0.43296038582E+01  0.87306022808E+02  0.00000000000E+00 0.  1.
<scales pt_clust_5="13000.00000" pt_clust_6="13000.00000" pt_clust_7="13000.00000" pt_clust_8="13000.00000" pt_clust_9="87.19860"></scales>
<clustering>
<clus scale="   80.960">  5  6 -1 -1</clus>
<clus scale="   87.199">  1  9  2 -1</clus>
<clus scale="   92.119">  7  8 -1 -1</clus>
<clus scale="   98.328">  2  5  1 -1</clus>
<clus scale="   87.199">  1  5  2 -1</clus>
</clustering>
</event>
<event>
 9    1  0.2374319E-005  0.1503723E+03  0.7546771E-02  0.1201726E+00
          1   -1    0    0  502    0  0.00000000000E+00  0.00000000000E+00  0.12806155752E+03  0.12806155752E+03  0.00000000000E+00 0. -1.
         -2   -1    0    0    0  501 -0.00000000000E+00 -0.00000000000E+00 -0.29228953521E+03  0.29228953521E+03  0.00000000000E+00 0.  1.
         23    2    1    2    0    0  0.10033513634E+03 -0.29039233722E+02 -0.11615880611E+03  0.18055348402E+03  0.90533284898E+02 0.  0.
        -24    2    1    2    0    0 -0.13321419952E+03  0.63072276729E+02 -0.76258941205E+02  0.18471636033E+03  0.81120728632E+02 0.  0.
         11    1    4    4    0    0 -0.58587555889E+02 -0.30714399838E+01  0.82920413634E+00  0.58673870062E+02  0.00000000000E+00 0. -1.
        -12    1    4    4    0    0 -0.74626643629E+02  0.66143716713E+02 -0.77088145341E+02  0.12604249026E+03  0.00000000000E+00 0.  1.
        -13    1    3    3    0    0  0.31767619008E+02 -0.55932641028E+02 -0.48757733149E+02  0.80715292799E+02  0.00000000000E+00 0. -1.
         13    1    3    3    0    0  0.68567517328E+02  0.26893407306E+02 -0.67401072965E+02  0.99838191219E+02  0.00000000000E+00 0.  1.
         21    1    1    2  502  501  0.32879063181E+02 -0.34033043007E+02  0.28189769629E+02  0.55081248386E+02  0.00000000000E+00 0. -1.
<scales pt_clust_5="13000.00000" pt_clust_6="13000.00000" pt_clust_7="13000.00000" pt_clust_8="13000.00000" pt_clust_9="47.32104"></scales>
<clustering>
<clus scale="   47.321">  1  9  2 -1</clus>
<clus scale="   81.121">  5  6 -1 -1</clus>
<clus scale="   90.533">  7  8 -1 -1</clus>
<clus scale="  144.900">  1  5  2 -1</clus>
<clus scale="   47.321">  1  5  2 -1</clus>
</clustering>
</event>
<event>
 9    1  0.2374319E-005  0.9745541E+02  0.7546771E-02  0.1286581E+00
          1   -1    0    0  502    0  0.00000000000E+00  0.00000000000E+00  0.23925296634E+03  0.23925296634E+03  0.00000000000E+00 0. -1.
         -2   -1    0    0    0  501 -0.00000000000E+00 -0.00000000000E+00 -0.92921089761E+02  0.92921089761E+02  0.00000000000E+00 0.  1.
        -24    2    1    2    0    0 -0.19959066591E+02 -0.33009429518E+02 -0.40076056932E+02  0.10465953446E+03  0.88654052570E+02 0.  0.
         23    2    1    2    0    0 -0.91469966244E+01  0.34183283055E+02  0.16487453906E+03  0.19128983497E+03  0.90310702275E+02 0.  0.
         13    1    3    3    0    0 -0.65265441684E+01 -0.59130498028E+02 -0.61830883392E+01  0.59810050638E+02  0.00000000000E+00 0. -1.
        -14    1    3    3    0    0 -0.13432522422E+02  0.26121068511E+02 -0.33892968593E+02  0.44849483819E+02  0.00000000000E+00 0.  1.
        -11    1    4    4    0    0  0.28883328425E+02  0.48130308440E+02  0.87576870119E+02  0.10402154311E+03  0.00000000000E+00 0.  1.
         11    1    4    4    0    0 -0.38030325049E+02 -0.13947025385E+02  0.77297668940E+02  0.87268291859E+02  0.00000000000E+00 0. -1.
         21    1    1    2  502  501  0.29106063215E+02 -0.11738535377E+01  0.21533394452E+02  0.36224686674E+02  0.00000000000E+00 0.  1.
<scales pt_clust_5="13000.00000" pt_clust_6="13000.00000" pt_clust_7="13000.00000" pt_clust_8="13000.00000" pt_clust_9="29.12972"></scales>
<clustering>
<clus scale="   29.130">  1  9  2 -1</clus>
<clus scale="   88.654">  5  6 -1 -1</clus>
<clus scale="   90.311">  7  8 -1 -1</clus>
<clus scale="   95.922">  2  5  1 -1</clus>
<clus scale="   29.130">  1  5  2 -1</clus>
</clustering>
</event>
<event>
 9    1  0.2374319E-005  0.9290765E+02  0.7546771E-02  0.1303675E+00
          1   -1    0    0  502    0  0.00000000000E+00  0.00000000000E+00  0.11794272405E+03  0.11794272405E+03  0.00000000000E+00 0. -1.
         -2   -1    0    0    0  501 -0.00000000000E+00 -0.00000000000E+00 -0.41508255162E+03  0.41508255162E+03  0.00000000000E+00 0.  1.
         23    2    1    2    0    0 -0.54904897653E+01 -0.88326966404E+01 -0.36196429900E+03  0.37361032922E+03  0.91969355436E+02 0.  0.
        -24    2    1    2    0    0 -0.10914870625E+02  0.51456469472E+02  0.24350219523E+02  0.98389649020E+02  0.79502749588E+02 0.  0.
         11    1    4    4    0    0  0.14554102607E+02  0.50344568103E+02  0.42186550024E+02  0.67276314131E+02  0.00000000000E+00 0. -1.
        -12    1    4    4    0    0 -0.25468973232E+02  0.11119013689E+01 -0.17836330501E+02  0.31113334888E+02  0.00000000000E+00 0.  1.
        -13    1    3    3    0    0  0.13765487469E+02  0.36519863690E+02 -0.21752736618E+03  0.22100077856E+03  0.00000000000E+00 0. -1.
         13    1    3    3    0    0 -0.19255977234E+02 -0.45352560331E+02 -0.14443693283E+03  0.15260955066E+03  0.00000000000E+00 0.  1.
         21    1    1    2  502  501  0.16405360391E+02 -0.42623772832E+02  0.40474251909E+02  0.61025297440E+02  0.00000000000E+00 0.  1.
<scales pt_clust_5="13000.00000" pt_clust_6="13000.00000" pt_clust_7="13000.00000" pt_clust_8="13000.00000" pt_clust_9="45.67189"></scales>
<clustering>
<clus scale="   45.672">  1  9  2 -1</clus>
<clus scale="   79.503">  5  6 -1 -1</clus>
<clus scale="   80.586">  1  5  2 -1</clus>
<clus scale="   91.969">  7  8 -1 -1</clus>
<clus scale="   45.672">  1  5  2 -1</clus>
</clustering>
</event>
<event>
 9    1  0.2374319E-005  0.1042818E+03  0.7546771E-02  0.1276566E+00
          1   -1    0    0  502    0  0.00000000000E+00  0.00000000000E+00  0.57803799685E+03  0.57803799685E+03  0.00000000000E+00 0. -1.
         -2   -1    0    0    0  501 -0.00000000000E+00 -0.00000000000E+00 -0.13913517880E+03  0.13913517880E+03  0.00000000000E+00 0.  1.
         23    2    1    2    0    0 -0.27463602774E+02  0.42730163797E+02 -0.11171520568E+03  0.15313336896E+03  0.91593805107E+02 0.  0.
        -24    2    1    2    0    0  0.20229082354E+02 -0.18783654286E+02  0.50400128617E+03  0.51113523388E+03  0.80497760313E+02 0.  0.
         13    1    4    4    0    0  0.42928113896E+02 -0.12611097498E+01  0.15150146167E+03  0.15747096954E+03  0.00000000000E+00 0. -1.
        -14    1    4    4    0    0 -0.22699031542E+02 -0.17522544536E+02  0.35249982449E+03  0.35366426434E+03  0.00000000000E+00 0.  1.
        -13    1    3    3    0    0  0.28788081180E+02  0.36736834303E+02 -0.37831160378E+02  0.60079491578E+02  0.00000000000E+00 0. -1.
         13    1    3    3    0    0 -0.56251683954E+02  0.59933294934E+01 -0.73884045298E+02  0.93053877381E+02  0.00000000000E+00 0.  1.
         21    1    1    2  502  501  0.72345204198E+01 -0.23946509511E+02  0.46616737562E+02  0.52904572812E+02  0.00000000000E+00 0.  1.
<scales pt_clust_5="13000.00000" pt_clust_6="13000.00000" pt_clust_7="13000.00000" pt_clust_8="13000.00000" pt_clust_9="25.01547"></scales>
<clustering>
<clus scale="   25.015">  1  9  2 -1</clus>
<clus scale="   80.498">  5  6 -1 -1</clus>
<clus scale="   91.594">  7  8 -1 -1</clus>
<clus scale="   94.685">  1  5  2 -1</clus>
<clus scale="   25.015">  1  5  2 -1</clus>
</clustering>
</event>
<event>
 9    1  0.2374319E-005  0.9440371E+02  0.7546771E-02  0.1299525E+00
         -4   -1    0    0    0  501 -0.00000000000E+00  0.00000000000E+00  0.92891715535E+02  0.92891715535E+02  0.00000000000E+00 0.  1.
          3   -1    0    0  502    0  0.00000000000E+00 -0.00000000000E+00 -0.19354520607E+03  0.19354520607E+03  0.00000000000E+00 0. -1.
         23    2    1    2    0    0  0.39124848793E+01  0.22652782656E+02  0.33580024781E+02  0.10073516858E+03  0.92149335449E+02 0.  0.
        -24    2    1    2    0    0 -0.23237194820E+02  0.40295308998E+00 -0.13103968449E+03  0.15544928337E+03  0.80330263262E+02 0.  0.
         13    1    4    4    0    0 -0.34655816744E+01  0.39580150065E+02 -0.63435445316E+02  0.74850880142E+02  0.00000000000E+00 0. -1.
        -14    1    4    4    0    0 -0.19771613146E+02 -0.39177196975E+02 -0.67604239170E+02  0.80598403228E+02  0.00000000000E+00 0.  1.
        -11    1    3    3    0    0  0.12536864770E+02 -0.24696239327E+02 -0.15713126617E+02  0.31843045760E+02  0.00000000000E+00 0.  1.
         11    1    3    3    0    0 -0.86243798909E+01  0.47349021983E+02  0.49293151398E+02  0.68892122815E+02  0.00000000000E+00 0. -1.
         21    1    1    2  502  501  0.19324709941E+02 -0.23055735746E+02 -0.31938308279E+01  0.30252469658E+02  0.00000000000E+00 0.  1.
<scales pt_clust_5="13000.00000" pt_clust_6="13000.00000" pt_clust_7="13000.00000" pt_clust_8="13000.00000" pt_clust_9="30.08341"></scales>
<clustering>
<clus scale="   30.083">  1  9  2 -1</clus>
<clus scale="   80.330">  5  6 -1 -1</clus>
<clus scale="   82.907">  2  5  1 -1</clus>
<clus scale="   92.149">  7  8 -1 -1</clus>
<clus scale="   82.907">  2  5  1 -1</clus>
</clustering>
</event>
<event>
 9    1  0.2374319E-005  0.1798438E+03  0.7546771E-02  0.1168800E+00
          1   -1    0    0  502    0  0.00000000000E+00  0.00000000000E+00  0.75826779502E+02  0.75826779502E+02  0.00000000000E+00 0. -1.
         -2   -1    0    0    0  501 -0.00000000000E+00 -0.00000000000E+00 -0.58464323506E+03  0.58464323506E+03  0.00000000000E+00 0.  1.
        -24    2    1    2    0    0 -0.13480954933E+03 -0.18267152698E+02 -0.20114625491E+03  0.25666633240E+03  0.83129338160E+02 0.  0.
         23    2    1    2    0    0  0.17098206643E+03  0.52448855757E+02 -0.28681710931E+03  0.34984359288E+03  0.90226026062E+02 0.  0.
         13    1    3    3    0    0 -0.11024030847E+03 -0.72786766096E+01 -0.90563515242E+02  0.14285536405E+03  0.00000000000E+00 0. -1.
        -14    1    3    3    0    0 -0.24569240858E+02 -0.10988476089E+02 -0.11058273967E+03  0.11381096835E+03  0.00000000000E+00 0.  1.
        -11    1    4    4    0    0  0.95645114279E+02  0.46762162993E+02 -0.91350234467E+02  0.14028383054E+03  0.00000000000E+00 0. -1.
         11    1    4    4    0    0  0.75336952147E+02  0.56866927640E+01 -0.19546687484E+03  0.20955976234E+03  0.00000000000E+00 0.  1.
         21    1    1    2  502  501 -0.36172517101E+02 -0.34181703058E+02 -0.20853091339E+02  0.53960089286E+02  0.00000000000E+00 0.  1.
<scales pt_clust_5="13000.00000" pt_clust_6="13000.00000" pt_clust_7="13000.00000" pt_clust_8="13000.00000" pt_clust_9="49.76786"></scales>
<clustering>
<clus scale="   49.768">  1  9  2 -1</clus>
<clus scale="   83.129">  5  6 -1 -1</clus>
<clus scale="   90.226">  7  8 -1 -1</clus>
<clus scale="  176.390">  2  5  1 -1</clus>
<clus scale="   49.768">  1  5  2 -1</clus>
</clustering>
</event>
<event>
 9    1  0.2374319E-005  0.1586734E+03  0.7546771E-02  0.1192291E+00
          1   -1    0    0  502    0  0.00000000000E+00  0.00000000000E+00  0.28596650189E+02  0.28596650189E+02  0.00000000000E+00 0. -1.
         -2   -1    0    0    0  501 -0.00000000000E+00 -0.00000000000E+00 -0.11372869087E+04  0.11372869087E+04  0.00000000000E+00 0.  1.
        -24    2    1    2    0    0 -0.48031435752E+02  0.10257353410E+03 -0.43098145299E+03  0.45239541441E+03  0.78027235251E+02 0.  0.
         23    2    1    2    0    0  0.68794922021E+02 -0.13127292051E+03 -0.63285252442E+03  0.65633166543E+03  0.91124181358E+02 0.  0.
         13    1    3    3    0    0  0.19323403806E+01  0.21978186548E+02 -0.17446047643E+02  0.28127196832E+02  0.00000000000E+00 0. -1.
        -14    1    3    3    0    0 -0.49963776132E+02  0.80595347555E+02 -0.41353540535E+03  0.42426821758E+03  0.00000000000E+00 0.  1.
        -11    1    4    4    0    0  0.44360599284E+02 -0.13927149580E+03 -0.49614318501E+03  0.51722574602E+03  0.00000000000E+00 0. -1.
         11    1    4    4    0    0  0.24434322737E+02  0.79985752885E+01 -0.13670933941E+03  0.13910591941E+03  0.00000000000E+00 0.  1.
         21    1    1    2  502  501 -0.20763486269E+02  0.28699386408E+02 -0.44856281082E+02  0.57156479027E+02  0.00000000000E+00 0.  1.
<scales pt_clust_5="13000.00000" pt_clust_6="13000.00000" pt_clust_7="13000.00000" pt_clust_8="13000.00000" pt_clust_9="35.42283"></scales>
<clustering>
<clus scale="   35.423">  1  9  2 -1</clus>
<clus scale="   78.027">  5  6 -1 -1</clus>
<clus scale="   91.124">  7  8 -1 -1</clus>
<clus scale="  151.532">  2  5  1 -1</clus>
<clus scale="   35.423">  1  5  2 -1</clus>
</clustering>
</event>
<event>
 9    1  0.2374319E-005  0.1301169E+03  0.7546771E-02  0.1230069E+00
         -2   -1    0    0    0  501 -0.00000000000E+00  0.00000000000E+00  0.27385583292E+03  0.27385583292E+03  0.00000000000E+00 0.  1.
          1   -1    0    0  502    0  0.00000000000E+00 -0.00000000000E+00 -0.71286390204E+02  0.71286390204E+02  0.00000000000E+00 0. -1.
         23    2    1    2    0    0  0.70414947332E+02  0.60266218750E+02  0.10100472177E+03  0.16452016506E+03  0.90965097483E+02 0.  0.
        -24    2    1    2    0    0 -0.84464562794E+02 -0.42765513820E+02  0.97539461839E+02  0.15782142039E+03  0.80190414493E+02 0.  0.
         11    1    4    4    0    0 -0.54145292661E+02 -0.31550653877E+02  0.86811617393E+01  0.63265464881E+02  0.00000000000E+00 0. -1.
        -12    1    4    4    0    0 -0.30319270133E+02 -0.11214859944E+02  0.88858300100E+02  0.94555955506E+02  0.00000000000E+00 0.  1.
        -11    1    3    3    0    0  0.27197336365E+02  0.16066838235E+02 -0.13533081129E+02  0.34365428574E+02  0.00000000000E+00 0.  1.
         11    1    3    3    0    0  0.43217610967E+02  0.44199380516E+02  0.11453780290E+03  0.13015473648E+03  0.00000000000E+00 0. -1.
         21    1    1    2  502  501  0.14049615462E+02 -0.17500704930E+02  0.40252591025E+01  0.22800637678E+02  0.00000000000E+00 0. -1.
<scales pt_clust_5="13000.00000" pt_clust_6="13000.00000" pt_clust_7="13000.00000" pt_clust_8="13000.00000" pt_clust_9="22.44251"></scales>
<clustering>
<clus scale="   22.443">  2  9  1 -1</clus>
<clus scale="   80.190">  5  6 -1 -1</clus>
<clus scale="   90.965">  7  8 -1 -1</clus>
<clus scale="  122.826">  2  5  1 -1</clus>
<clus scale="   22.443">  2  5  1 -1</clus>
</clustering>
</event>
<event>
 9    1  0.2374319E-005  0.2428828E+03  0.7546771E-02  0.1162549E+00
          1   -1    0    0  502    0  0.00000000000E+00  0.00000000000E+00  0.25086358475E+03  0.25086358475E+03  0.00000000000E+00 0. -1.
         -2   -1    0    0    0  501 -0.00000000000E+00 -0.00000000000E+00 -0.57063292219E+03  0.57063292219E+03  0.00000000000E+00 0.  1.
         23    2    1    2    0    0  0.21816147691E+03 -0.57307822186E+02 -0.43333614619E+03  0.49715833690E+03  0.92236543000E+02 0.  0.
        -24    2    1    2    0    0 -0.10356291026E+02 -0.17949307723E+02  0.27471779397E+02  0.87148404321E+02  0.80066942622E+02 0.  0.
         13    1    4    4    0    0 -0.18821374904E+02 -0.47697062662E+02  0.12456836731E+02  0.52767667385E+02  0.00000000000E+00 0. -1.
        -14    1    4    4    0    0  0.84650838786E+01  0.29747754939E+02  0.15014942666E+02  0.34380736936E+02  0.00000000000E+00 0.  1.
        -13    1    3    3    0    0  0.16987996979E+03 -0.78559267647E+02 -0.29796318492E+03  0.35187046229E+03  0.00000000000E+00 0.  1.
         13    1    3    3    0    0  0.48281507117E+02  0.21251445462E+02 -0.13537296127E+03  0.14528787461E+03  0.00000000000E+00 0. -1.
         21    1    1    2  502  501 -0.20780518588E+03  0.75257129909E+02  0.86095029355E+02  0.23718976572E+03  0.00000000000E+00 0. -1.
<scales pt_clust_5="13000.00000" pt_clust_6="13000.00000" pt_clust_7="13000.00000" pt_clust_8="13000.00000" pt_clust_9="224.68751"></scales>
<clustering>
<clus scale="   80.067">  5  6 -1 -1</clus>
<clus scale="   82.705">  1  5  2 -1</clus>
<clus scale="   92.237">  7  8 -1 -1</clus>
<clus scale="  224.688">  1  9  2 -1</clus>
<clus scale="   82.705">  1  5  2 -1</clus>
</clustering>
</event>
<event>
 9    1  0.2374319E-005  0.1490851E+03  0.7546771E-02  0.1204184E+00
         -2   -1    0    0    0  501 -0.00000000000E+00  0.00000000000E+00  0.42011365081E+03  0.42011365081E+03  0.00000000000E+00 0.  1.
          1   -1    0    0  502    0  0.00000000000E+00 -0.00000000000E+00 -0.10828211202E+03  0.10828211202E+03  0.00000000000E+00 0. -1.
        -24    2    1    2    0    0 -0.15034920881E+02  0.57222205536E+02  0.22323447710E+03  0.24375020310E+03  0.77974996589E+02 0.  0.
         23    2    1    2    0    0 -0.40242083112E+00 -0.13989547180E+03  0.70126102159E+01  0.16747387715E+03  0.91800968689E+02 0.  0.
         13    1    3    3    0    0  0.10208235507E+02  0.67066958587E+02  0.12969971206E+03  0.14637007999E+03  0.00000000000E+00 0. -1.
        -14    1    3    3    0    0 -0.25243156388E+02 -0.98447530503E+01  0.93534765034E+02  0.97380123110E+02  0.00000000000E+00 0.  1.
        -11    1    4    4    0    0 -0.27380971626E+02 -0.13515977216E+03 -0.39715423838E+01  0.13796251218E+03  0.00000000000E+00 0.  1.
         11    1    4    4    0    0  0.26978550795E+02 -0.47356996412E+01  0.10984152600E+02  0.29511364971E+02  0.00000000000E+00 0. -1.
         21    1    1    2  502  501  0.15437341712E+02  0.82673266268E+02  0.81584451477E+02  0.11717168258E+03  0.00000000000E+00 0. -1.
<scales pt_clust_5="13000.00000" pt_clust_6="13000.00000" pt_clust_7="13000.00000" pt_clust_8="13000.00000" pt_clust_9="84.10220"></scales>
<clustering>
<clus scale="   77.975">  5  6 -1 -1</clus>
<clus scale="   84.102">  1  9  2 -1</clus>
<clus scale="   91.801">  7  8 -1 -1</clus>
<clus scale="  140.993">  1  5  2 -1</clus>
<clus scale="  149.085">  2  5  1 -1</clus>
</clustering>
</event>
<event>
 9    1  0.2374319E-005  0.9701699E+02  0.7546771E-02  0.1292661E+00
         -4   -1    0    0    0  501 -0.00000000000E+00  0.00000000000E+00  0.20660205781E+02  0.20660205781E+02  0.00000000000E+00 0.  1.
          3   -1    0    0  502    0  0.00000000000E+00 -0.00000000000E+00 -0.56766149354E+03  0.56766149354E+03  0.00000000000E+00 0. -1.
        -24    2    1    2    0    0  0.33461867960E+02 -0.46518726589E+01 -0.17496132409E+03  0.19548552753E+03  0.80385259974E+02 0.  0.
         23    2    1    2    0    0 -0.30078709621E+02 -0.21644530732E+02 -0.27105167187E+03  0.28842553214E+03  0.91362269470E+02 0.  0.
         13    1    3    3    0    0  0.34460869227E+01  0.30286123133E+02 -0.11982421467E+03  0.12364047554E+03  0.00000000000E+00 0. -1.
        -14    1    3    3    0    0  0.30015781037E+02 -0.34937995792E+02 -0.55137109416E+02  0.71845051993E+02  0.00000000000E+00 0.  1.
        -13    1    4    4    0    0 -0.30808408782E+01 -0.51691028877E+02 -0.20098872870E+03  0.20755221779E+03  0.00000000000E+00 0. -1.
         13    1    4    4    0    0 -0.26997868743E+02  0.30046498145E+02 -0.70062943173E+02  0.80873314348E+02  0.00000000000E+00 0.  1.
         21    1    1    2  502  501 -0.33831583381E+01  0.26296403391E+02 -0.10098829180E+03  0.10441063965E+03  0.00000000000E+00 0.  1.
<scales pt_clust_5="13000.00000" pt_clust_6="13000.00000" pt_clust_7="13000.00000" pt_clust_8="13000.00000" pt_clust_9="26.51314"></scales>
<clustering>
<clus scale="   26.513">  2  9  1 -1</clus>
<clus scale="   80.385">  5  6 -1 -1</clus>
<clus scale="   86.758">  1  5  2 -1</clus>
<clus scale="   91.362">  7  8 -1 -1</clus>
<clus scale="   26.513">  2  5  1 -1</clus>
</clustering>
</event>
<event>
 9    1  0.2374319E-005  0.1797877E+03  0.7546771E-02  0.1169463E+00
          1   -1    0    0  502    0  0.00000000000E+00  0.00000000000E+00  0.54207925458E+03  0.54207925458E+03  0.00000000000E+00 0. -1.
         -2   -1    0    0    0  501 -0.00000000000E+00 -0.00000000000E+00 -0.65864120791E+03  0.65864120791E+03  0.00000000000E+00 0.  1.
         23    2    1    2    0    0  0.15765037522E+03  0.27629765854E+02 -0.59075169101E+03  0.61890456868E+03  0.91860001810E+02 0.  0.
        -24    2    1    2    0    0 -0.11922625988E+03  0.14437298931E+02  0.48130047613E+02  0.15196369820E+03  0.79706508152E+02 0.  0.
         13    1    4    4    0    0 -0.95304636549E+02 -0.93864871385E+01  0.63461482540E+02  0.11488446220E+03  0.00000000000E+00 0. -1.
        -14    1    4    4    0    0 -0.23921623333E+02  0.23823786070E+02 -0.15331434927E+02  0.37079236002E+02  0.00000000000E+00 0.  1.
        -13    1    3    3    0    0  0.83789053493E+02 -0.30853346370E+02 -0.32034399717E+03  0.33255497439E+03  0.00000000000E+00 0.  1.
         13    1    3    3    0    0  0.73861321723E+02  0.58483112224E+02 -0.27040769384E+03  0.28634959429E+03  0.00000000000E+00 0. -1.
         21    1    1    2  502  501 -0.38424115335E+02 -0.42067064785E+02  0.42605969007E+03  0.42985219562E+03  0.00000000000E+00 0. -1.
<scales pt_clust_5="13000.00000" pt_clust_6="13000.00000" pt_clust_7="13000.00000" pt_clust_8="13000.00000" pt_clust_9="56.97412"></scales>
<clustering>
<clus scale="   56.974">  1  9  2 -1</clus>
<clus scale="   79.707">  5  6 -1 -1</clus>
<clus scale="   91.860">  7  8 -1 -1</clus>
<clus scale="  173.892">  1  5  2 -1</clus>
<clus scale="   56.974">  1  5  2 -1</clus>
</clustering>
</event>
<event>
 9    1  0.2374319E-005  0.1613417E+03  0.7546771E-02  0.1188533E+00
          1   -1    0    0  502    0  0.00000000000E+00  0.00000000000E+00  0.72236685529E+03  0.72236685529E+03  0.00000000000E+00 0. -1.
         -2   -1    0    0    0  501 -0.00000000000E+00 -0.00000000000E+00 -0.45766444849E+02  0.45766444849E+02  0.00000000000E+00 0.  1.
        -24    2    1    2    0    0 -0.54504218020E+02  0.10806648243E+03  0.19218035169E+03  0.24165924760E+03  0.82564096105E+02 0.  0.
         23    2    1    2    0    0  0.77257067497E+02 -0.11731421653E+03  0.46763681231E+03  0.49672695005E+03  0.91226064299E+02 0.  0.
         13    1    3    3    0    0 -0.33068051034E+02  0.18967488313E+02  0.11722604766E+03  0.12326884385E+03  0.00000000000E+00 0. -1.
        -14    1    3    3    0    0 -0.21436166985E+02  0.89098994120E+02  0.74954304028E+02  0.11839040375E+03  0.00000000000E+00 0.  1.
        -11    1    4    4    0    0  0.77550825750E+01 -0.70279842737E+02  0.31194380280E+03  0.31985673934E+03  0.00000000000E+00 0. -1.
         11    1    4    4    0    0  0.69501984922E+02 -0.47034373790E+02  0.15569300951E+03  0.17687021071E+03  0.00000000000E+00 0.  1.
         21    1    1    2  502  501 -0.22752849478E+02  0.92477340942E+01  0.16783246439E+02  0.29747102485E+02  0.00000000000E+00 0.  1.
<scales pt_clust_5="13000.00000" pt_clust_6="13000.00000" pt_clust_7="13000.00000" pt_clust_8="13000.00000" pt_clust_9="24.56039"></scales>
<clustering>
<clus scale="   24.560">  2  9  1 -1</clus>
<clus scale="   82.564">  5  6 -1 -1</clus>
<clus scale="   91.226">  7  8 -1 -1</clus>
<clus scale="  156.607">  2  5  1 -1</clus>
<clus scale="  161.342">  1  5  2 -1</clus>
</clustering>
</event>
<event>
 9    1  0.2374319E-005  0.3373422E+03  0.7546771E-02  0.1105683E+00
         -2   -1    0    0    0  501 -0.00000000000E+00  0.00000000000E+00  0.16593456453E+03  0.16593456453E+03  0.00000000000E+00 0.  1.
          1   -1    0    0  502    0  0.00000000000E+00 -0.00000000000E+00 -0.10600244603E+04  0.10600244603E+04  0.00000000000E+00 0. -1.
        -24    2    1    2    0    0 -0.86623078919E+02  0.35154753913E+02 -0.90877239145E+02  0.15339578869E+03  0.80821908341E+02 0.  0.
         23    2    1    2    0    0 -0.25174477842E+03  0.18721959622E+02 -0.11145258017E+03  0.30059982347E+03  0.11921673964E+03 0.  0.
         13    1    3    3    0    0 -0.76285921487E+02  0.37778987844E+02 -0.10533272197E+03  0.13543181331E+03  0.00000000000E+00 0. -1.
        -14    1    3    3    0    0 -0.10337157432E+02 -0.26242339310E+01  0.14455482825E+02  0.17963975373E+02  0.00000000000E+00 0.  1.
        -11    1    4    4    0    0 -0.38531253663E+01  0.22289303868E+02 -0.34053393275E+02  0.40881453442E+02  0.00000000000E+00 0. -1.
         11    1    4    4    0    0 -0.24789165305E+03 -0.35673442459E+01 -0.77399186891E+02  0.25971837003E+03  0.00000000000E+00 0.  1.
         21    1    1    2  502  501  0.33836785734E+03 -0.53876713536E+02 -0.69176007648E+03  0.77196341271E+03  0.00000000000E+00 0. -1.
<scales pt_clust_5="13000.00000" pt_clust_6="13000.00000" pt_clust_7="13000.00000" pt_clust_8="13000.00000" pt_clust_9="315.57429"></scales>
<clustering>
<clus scale="   80.822">  5  6 -1 -1</clus>
<clus scale="  119.217">  7  8 -1 -1</clus>
<clus scale="  123.578">  1  5  2 -1</clus>
<clus scale="  315.574">  2  9  1 -1</clus>
<clus scale="  315.574">  2  5  1 -1</clus>
</clustering>
</event>
<event>
 9    1  0.2374319E-005  0.9682113E+02  0.7546771E-02  0.1291995E+00
         -2   -1    0    0    0  501 -0.00000000000E+00  0.00000000000E+00  0.20548335417E+03  0.20548335417E+03  0.00000000000E+00 0.  1.
          1   -1    0    0  502    0  0.00000000000E+00 -0.00000000000E+00 -0.17050163875E+03  0.17050163875E+03  0.00000000000E+00 0. -1.
        -24    2    1    2    0    0  0.29408523320E+02  0.22887155585E+02  0.16138105505E+03  0.18465920480E+03  0.81648599815E+02 0.  0.
         23    2    1    2    0    0  0.13974951067E+02 -0.11474239870E+02 -0.10960783164E+03  0.14342656854E+03  0.90721256441E+02 0.  0.
         11    1    3    3    0    0 -0.21251323743E+02 -0.13112246612E+02  0.68447201737E+02  0.72859928614E+02  0.00000000000E+00 0. -1.
        -12    1    3    3    0    0  0.50659847063E+02  0.35999402197E+02  0.92933853316E+02  0.11179927618E+03  0.00000000000E+00 0.  1.
        -11    1    4    4    0    0 -0.27063084937E+02 -0.41573749214E+01 -0.95610863012E+02  0.99454167627E+02  0.00000000000E+00 0. -1.
         11    1    4    4    0    0  0.41038036004E+02 -0.73168649483E+01 -0.13996968626E+02  0.43972400918E+02  0.00000000000E+00 0.  1.
         21    1    1    2  502  501 -0.43383474387E+02 -0.11412915715E+02 -0.16791507994E+02  0.47899219573E+02  0.00000000000E+00 0. -1.
<scales pt_clust_5="13000.00000" pt_clust_6="13000.00000" pt_clust_7="13000.00000" pt_clust_8="13000.00000" pt_clust_9="44.85956"></scales>
<clustering>
<clus scale="   44.860">  2  9  1 -1</clus>
<clus scale="   81.649">  5  6 -1 -1</clus>
<clus scale="   88.377">  1  5  2 -1</clus>
<clus scale="   90.721">  7  8 -1 -1</clus>
<clus scale="   44.860">  2  5  1 -1</clus>
</clustering>
</event>
<event>
 9    1  0.2374319E-005  0.9343401E+02  0.7546771E-02  0.1298746E+00
         -2   -1    0    0    0  501 -0.00000000000E+00  0.00000000000E+00  0.32879904582E+02  0.32879904582E+02  0.00000000000E+00 0.  1.
          1   -1    0    0  502    0  0.00000000000E+00 -0.00000000000E+00 -0.74357286891E+03  0.74357286891E+03  0.00000000000E+00 0. -1.
         23    2    1    2    0    0 -0.62510767370E+01 -0.23667119881E+02 -0.53677977381E+02  0.10702705863E+03  0.89298698197E+02 0.  0.
        -24    2    1    2    0    0 -0.21666385871E+01  0.50536462679E+02 -0.56509147399E+03  0.57328648380E+03  0.82282380582E+02 0.  0.
         13    1    4    4    0    0  0.25586251386E+02  0.33341486375E+02 -0.12282032700E+03  0.12981195514E+03  0.00000000000E+00 0. -1.
        -14    1    4    4    0    0 -0.27752889974E+02  0.17194976305E+02 -0.44227114699E+03  0.44347452866E+03  0.00000000000E+00 0.  1.
        -13    1    3    3    0    0 -0.10469397414E+02  0.28106276749E+02  0.30043632806E+01  0.30142947328E+02  0.00000000000E+00 0.  1.
         13    1    3    3    0    0  0.42183206771E+01 -0.51773396630E+02 -0.56682340661E+02  0.76884111303E+02  0.00000000000E+00 0. -1.
         21    1    1    2  502  501  0.84177153240E+01 -0.26869342798E+02 -0.91923512958E+02  0.96139231057E+02  0.00000000000E+00 0. -1.
<scales pt_clust_5="13000.00000" pt_clust_6="13000.00000" pt_clust_7="13000.00000" pt_clust_8="13000.00000" pt_clust_9="28.15705"></scales>
<clustering>
<clus scale="   28.157">  2  9  1 -1</clus>
<clus scale="   82.282">  5  6 -1 -1</clus>
<clus scale="   86.753">  2  5  1 -1</clus>
<clus scale="   89.299">  7  8 -1 -1</clus>
<clus scale="   28.157">  2  5  1 -1</clus>
</clustering>
</event>
<event>
 9    1  0.2374319E-005  0.1022452E+03  0.7546771E-02  0.1281310E+00
         -4   -1    0    0    0  501 -0.00000000000E+00  0.00000000000E+00  0.44064864307E+03  0.44064864307E+03  0.00000000000E+00 0.  1.
          3   -1    0    0  502    0  0.00000000000E+00 -0.00000000000E+00 -0.61238532554E+02  0.61238532554E+02  0.00000000000E+00 0. -1.
        -24    2    1    2    0    0 -0.41820793253E+02  0.20014129644E+02  0.37108253685E+03  0.38257084442E+03  0.80676252472E+02 0.  0.
         23    2    1    2    0    0  0.21835502618E+02 -0.74506538920E+01  0.41509526270E+01  0.95343493902E+02  0.92416719287E+02 0.  0.
         13    1    3    3    0    0  0.16410903469E+02 -0.17145490725E+02  0.83420274231E+02  0.86730777453E+02  0.00000000000E+00 0. -1.
        -14    1    3    3    0    0 -0.58231696721E+02  0.37159620369E+02  0.28766226262E+03  0.29584006697E+03  0.00000000000E+00 0.  1.
        -13    1    4    4    0    0  0.53473338212E+02 -0.12229052612E+01  0.22743855631E+02  0.58122081568E+02  0.00000000000E+00 0. -1.
         13    1    4    4    0    0 -0.31637835594E+02 -0.62277486308E+01 -0.18592903004E+02  0.37221412334E+02  0.00000000000E+00 0.  1.
         21    1    1    2  502  501  0.19985290634E+02 -0.12563475752E+02  0.41766210345E+01  0.23972837295E+02  0.00000000000E+00 0. -1.
<scales pt_clust_5="13000.00000" pt_clust_6="13000.00000" pt_clust_7="13000.00000" pt_clust_8="13000.00000" pt_clust_9="23.60620"></scales>
<clustering>
<clus scale="   23.606">  2  9  1 -1</clus>
<clus scale="   80.676">  5  6 -1 -1</clus>
<clus scale="   91.771">  1  5  2 -1</clus>
<clus scale="   92.417">  7  8 -1 -1</clus>
<clus scale="   23.606">  2  5  1 -1</clus>
</clustering>
</event>
<event>
 9    1  0.2374319E-005  0.3567421E+03  0.7546771E-02  0.1082348E+00
          1   -1    0    0  502    0  0.00000000000E+00  0.00000000000E+00  0.14736373333E+04  0.14736373333E+04  0.00000000000E+00 0. -1.
         -2   -1    0    0    0  501 -0.00000000000E+00 -0.00000000000E+00 -0.20884719761E+03  0.20884719761E+03  0.00000000000E+00 0.  1.
        -24    2    1    2    0    0  0.32872310080E+03 -0.18051556907E+02  0.92326716988E+02  0.35249788956E+03  0.85707664614E+02 0.  0.
         23    2    1    2    0    0  0.67819481081E+02 -0.16097362378E+03  0.35762154692E+03  0.40626411236E+03  0.81519130276E+02 0.  0.
         13    1    3    3    0    0  0.10837723213E+03  0.71735785774E+01  0.70840607798E+02  0.12967450169E+03  0.00000000000E+00 0. -1.
        -14    1    3    3    0    0  0.22034586866E+03 -0.25225135484E+02  0.21486109189E+02  0.22282338788E+03  0.00000000000E+00 0.  1.
        -13    1    4    4    0    0  0.26547481628E+02 -0.12481232688E+03  0.18205087468E+03  0.22231825542E+03  0.00000000000E+00 0.  1.
         13    1    4    4    0    0  0.41271999453E+02 -0.36161296894E+02  0.17557067224E+03  0.18394585694E+03  0.00000000000E+00 0. -1.
         21    1    1    2  502  501 -0.39654258188E+03  0.17902518068E+03  0.81484187181E+03  0.92372252902E+03  0.00000000000E+00 0. -1.
<scales pt_clust_5="13000.00000" pt_clust_6="13000.00000" pt_clust_7="13000.00000" pt_clust_8="13000.00000" pt_clust_9="346.29336"></scales>
<clustering>
<clus scale="   81.519">  7  8 -1 -1</clus>
<clus scale="   85.708">  5  6 -1 -1</clus>
<clus scale="  192.762">  1  7  2 -1</clus>
<clus scale="  346.293">  1  9  2 -1</clus>
<clus scale="  192.762">  1  5  2 -1</clus>
</clustering>
</event>
<event>
 9    1  0.2374319E-005  0.1158466E+03  0.7546771E-02  0.1256084E+00
         -4   -1    0    0    0  501 -0.00000000000E+00  0.00000000000E+00  0.43921136871E+03  0.43921136871E+03  0.00000000000E+00 0.  1.
          3   -1    0    0  502    0  0.00000000000E+00 -0.00000000000E+00 -0.13994263453E+03  0.13994263453E+03  0.00000000000E+00 0. -1.
        -24    2    1    2    0    0  0.51346288552E+02  0.43548278488E+02  0.33971493960E+03  0.35471781724E+03  0.76717636629E+02 0.  0.
         23    2    1    2    0    0 -0.72039592985E+02 -0.30360526535E+02  0.49301747570E+02  0.13139412715E+03  0.93393200006E+02 0.  0.
         11    1    3    3    0    0  0.46225701912E+02  0.49007373926E+02  0.34058380996E+03  0.34718276142E+03  0.00000000000E+00 0. -1.
        -12    1    3    3    0    0  0.51205866400E+01 -0.54590954374E+01 -0.86887036023E+00  0.75350558217E+01  0.00000000000E+00 0.  1.
        -11    1    4    4    0    0 -0.46235028758E+02  0.18874220111E+02  0.56427179139E+02  0.75352110884E+02  0.00000000000E+00 0.  1.
         11    1    4    4    0    0 -0.25804564227E+02 -0.49234746645E+02 -0.71254315699E+01  0.56042016267E+02  0.00000000000E+00 0. -1.
         21    1    1    2  502  501  0.20693304432E+02 -0.13187751954E+02 -0.89747952991E+02  0.93042058855E+02  0.00000000000E+00 0. -1.
<scales pt_clust_5="13000.00000" pt_clust_6="13000.00000" pt_clust_7="13000.00000" pt_clust_8="13000.00000" pt_clust_9="24.53833"></scales>
<clustering>
<clus scale="   24.538">  2  9  1 -1</clus>
<clus scale="   76.718">  5  6 -1 -1</clus>
<clus scale="   93.393">  7  8 -1 -1</clus>
<clus scale="  102.877">  1  5  2 -1</clus>
<clus scale="   24.538">  2  5  1 -1</clus>
</clustering>
</event>
<event>
 9    1  0.2374319E-005  0.1126117E+03  0.7546771E-02  0.1263663E+00
         -2   -1    0    0    0  501 -0.00000000000E+00  0.00000000000E+00  0.12274965792E+03  0.12274965792E+03  0.00000000000E+00 0.  1.
          1   -1    0    0  502    0  0.00000000000E+00 -0.00000000000E+00 -0.32485968828E+03  0.32485968828E+03  0.00000000000E+00 0. -1.
        -24    2    1    2    0    0 -0.47268250393E+02 -0.18875708484E+02  0.65467786145E+02  0.11638670733E+03  0.81665505292E+02 0.  0.
         23    2    1    2    0    0  0.22711729903E+02  0.79431266844E+02 -0.17634940180E+03  0.21900578632E+03  0.10019617808E+03 0.  0.
         11    1    3    3    0    0 -0.59438231516E+02 -0.34909491365E+02  0.29105241693E+02  0.74824401415E+02  0.00000000000E+00 0. -1.
        -12    1    3    3    0    0  0.12169981123E+02  0.16033782881E+02  0.36362544452E+02  0.41562305916E+02  0.00000000000E+00 0.  1.
        -11    1    4    4    0    0  0.55882539573E+01  0.54904367300E+02 -0.18055286139E+03  0.18879897745E+03  0.00000000000E+00 0.  1.
         11    1    4    4    0    0  0.17123475946E+02  0.24526899544E+02  0.42034595923E+01  0.30206808873E+02  0.00000000000E+00 0. -1.
         21    1    1    2  502  501  0.24556520490E+02 -0.60555558361E+02 -0.91228414705E+02  0.11221685255E+03  0.00000000000E+00 0. -1.
<scales pt_clust_5="13000.00000" pt_clust_6="13000.00000" pt_clust_7="13000.00000" pt_clust_8="13000.00000" pt_clust_9="65.34522"></scales>
<clustering>
<clus scale="   65.345">  2  9  1 -1</clus>
<clus scale="   81.666">  5  6 -1 -1</clus>
<clus scale="   96.495">  1  5  2 -1</clus>
<clus scale="  100.196">  7  8 -1 -1</clus>
<clus scale="   65.345">  2  5  1 -1</clus>
</clustering>
</event>
<event>
 9    1  0.2374319E-005  0.1131252E+03  0.7546771E-02  0.1266942E+00
         -4   -1    0    0    0  501 -0.00000000000E+00  0.00000000000E+00  0.27033554767E+03  0.27033554767E+03  0.00000000000E+00 0.  1.
          3   -1    0    0  502    0  0.00000000000E+00 -0.00000000000E+00 -0.99892258869E+02  0.99892258869E+02  0.00000000000E+00 0. -1.
        -24    2    1    2    0    0  0.40631262128E+02 -0.41238576496E+02  0.96710470551E+02  0.13806662738E+03  0.79736809751E+02 0.  0.
         23    2    1    2    0    0 -0.31818639235E+02 -0.53997840418E+02  0.27638046130E+02  0.12598978260E+03  0.10574200279E+03 0.  0.
         11    1    3    3    0    0  0.57327566816E+02 -0.52981821862E+02  0.78631325163E+02  0.11079895605E+03  0.00000000000E+00 0. -1.
        -12    1    3    3    0    0 -0.16696304688E+02  0.11743245366E+02  0.18079145388E+02  0.27267671333E+02  0.00000000000E+00 0.  1.
        -11    1    4    4    0    0  0.10130575898E+02 -0.70892680894E+02 -0.24786651181E+01  0.71655736359E+02  0.00000000000E+00 0. -1.
         11    1    4    4    0    0 -0.41949215133E+02  0.16894840477E+02  0.30116711248E+02  0.54334046245E+02  0.00000000000E+00 0.  1.
         21    1    1    2  502  501 -0.88126228927E+01  0.95236416914E+02  0.46094772118E+02  0.10617139655E+03  0.00000000000E+00 0.  1.
<scales pt_clust_5="13000.00000" pt_clust_6="13000.00000" pt_clust_7="13000.00000" pt_clust_8="13000.00000" pt_clust_9="95.64328"></scales>
<clustering>
<clus scale="   79.737">  5  6 -1 -1</clus>
<clus scale="   95.643">  2  9  1 -1</clus>
<clus scale="   89.297">  1  5  2 -1</clus>
<clus scale="  105.742">  7  8 -1 -1</clus>
<clus scale="   95.643">  2  5  1 -1</clus>
</clustering>
</event>
<event>
 9    1  0.2374319E-005  0.9879875E+02  0.7546771E-02  0.1289819E+00
          1   -1    0    0  502    0  0.00000000000E+00  0.00000000000E+00  0.54725074209E+03  0.54725074209E+03  0.00000000000E+00 0. -1.
         -2   -1    0    0    0  501 -0.00000000000E+00 -0.00000000000E+00 -0.42719739920E+02  0.42719739920E+02  0.00000000000E+00 0.  1.
         23    2    1    2    0    0  0.28923170388E+02  0.12199115673E+02  0.32047980119E+02  0.10345387170E+03  0.93221576540E+02 0.  0.
        -24    2    1    2    0    0 -0.44799090377E+02  0.57397555877E+01  0.37585284587E+03  0.38696140508E+03  0.80211370664E+02 0.  0.
         13    1    4    4    0    0 -0.46066260056E+02 -0.26575388541E+02  0.15773873011E+03  0.16646278433E+03  0.00000000000E+00 0. -1.
        -14    1    4    4    0    0  0.12671696795E+01  0.32315144128E+02  0.21811411576E+03  0.22049862075E+03  0.00000000000E+00 0.  1.
        -11    1    3    3    0    0 -0.16927963805E+02  0.29759582748E+02 -0.13191641608E+02  0.36690709073E+02  0.00000000000E+00 0.  1.
         11    1    3    3    0    0  0.45851134192E+02 -0.17560467076E+02  0.45239621727E+02  0.66763162632E+02  0.00000000000E+00 0. -1.
         21    1    1    2  502  501  0.15875919989E+02 -0.17938871260E+02  0.96630176182E+02  0.99555205221E+02  0.00000000000E+00 0. -1.
<scales pt_clust_5="13000.00000" pt_clust_6="13000.00000" pt_clust_7="13000.00000" pt_clust_8="13000.00000" pt_clust_9="23.95512"></scales>
<clustering>
<clus scale="   23.955">  1  9  2 -1</clus>
<clus scale="   80.211">  5  6 -1 -1</clus>
<clus scale="   86.630">  1  5  2 -1</clus>
<clus scale="   93.222">  7  8 -1 -1</clus>
<clus scale="   23.955">  1  5  2 -1</clus>
</clustering>
</event>
<event>
 9    1  0.2374319E-005  0.1450006E+03  0.7546771E-02  0.1227620E+00
         -2   -1    0    0    0  501 -0.00000000000E+00  0.00000000000E+00  0.20653939049E+03  0.20653939049E+03  0.00000000000E+00 0.  1.
          1   -1    0    0  502    0  0.00000000000E+00 -0.00000000000E+00 -0.21192180575E+03  0.21192180575E+03  0.00000000000E+00 0. -1.
         23    2    1    2    0    0 -0.58117012017E+02  0.11676395035E+03  0.10444862544E+03  0.18827886445E+03  0.86764095426E+02 0.  0.
        -24    2    1    2    0    0  0.37204461710E+02 -0.21046350036E+02 -0.91073508663E+02  0.13042743829E+03  0.83004890562E+02 0.  0.
         13    1    4    4    0    0  0.73368568459E+01  0.31000846860E+02 -0.20929461809E+02  0.38117244733E+02  0.00000000000E+00 0. -1.
        -14    1    4    4    0    0  0.29867604864E+02 -0.52047196896E+02 -0.70144046854E+02  0.92310193555E+02  0.00000000000E+00 0.  1.
        -13    1    3    3    0    0 -0.61710408442E+02  0.30315689901E+02  0.33996514770E+02  0.76700577447E+02  0.00000000000E+00 0.  1.
         13    1    3    3    0    0  0.35933964247E+01  0.86448260454E+02  0.70452110665E+02  0.11157828700E+03  0.00000000000E+00 0. -1.
         21    1    1    2  502  501  0.20912550307E+02 -0.95717600319E+02 -0.18757532029E+02  0.99754893509E+02  0.00000000000E+00 0.  1.
<scales pt_clust_5="13000.00000" pt_clust_6="13000.00000" pt_clust_7="13000.00000" pt_clust_8="13000.00000" pt_clust_9="116.17736"></scales>
<clustering>
<clus scale="   83.005">  5  6 -1 -1</clus>
<clus scale="   86.764">  7  8 -1 -1</clus>
<clus scale="   93.365">  2  5  1 -1</clus>
<clus scale="  116.177">  2  9  1 -1</clus>
<clus scale="   93.365">  2  5  1 -1</clus>
</clustering>
</event>
<event>
 9    1  0.2374319E-005  0.9323866E+02  0.7546771E-02  0.1302414E+00
         -2   -1    0    0    0  501 -0.00000000000E+00  0.00000000000E+00  0.71791688847E+02  0.71791688847E+02  0.00000000000E+00 0.  1.
          1   -1    0    0  502    0  0.00000000000E+00 -0.00000000000E+00 -0.27449914452E+03  0.27449914452E+03  0.00000000000E+00 0. -1.
        -24    2    1    2    0    0 -0.10896714960E+02  0.19587352889E+02  0.19210340342E+02  0.84876221789E+02  0.79577214446E+02 0.  0.
         23    2    1    2    0    0 -0.26019565744E+02 -0.89900750274E+01 -0.12620060847E+03  0.15827929236E+03  0.91476234949E+02 0.  0.
         13    1    3    3    0    0 -0.13101102141E+02 -0.27879324009E+02 -0.55409267115E+01  0.31298521583E+02  0.00000000000E+00 0. -1.
        -14    1    3    3    0    0  0.22043871809E+01  0.47466676898E+02  0.24751267054E+02  0.53577700205E+02  0.00000000000E+00 0.  1.
        -11    1    4    4    0    0  0.17733579474E+02 -0.34746202350E+02 -0.82629821221E+02  0.91375411209E+02  0.00000000000E+00 0. -1.
         11    1    4    4    0    0 -0.43753145218E+02  0.25756127323E+02 -0.43570787248E+02  0.66903881147E+02  0.00000000000E+00 0.  1.
         21    1    1    2  502  501  0.36916280704E+02 -0.10597277862E+02 -0.95717187550E+02  0.10313531922E+03  0.00000000000E+00 0. -1.
<scales pt_clust_5="13000.00000" pt_clust_6="13000.00000" pt_clust_7="13000.00000" pt_clust_8="13000.00000" pt_clust_9="38.40721"></scales>
<clustering>
<clus scale="   38.407">  2  9  1 -1</clus>
<clus scale="   79.577">  5  6 -1 -1</clus>
<clus scale="   81.597">  1  5  2 -1</clus>
<clus scale="   91.476">  7  8 -1 -1</clus>
<clus scale="   38.407">  2  5  1 -1</clus>
</clustering>
</event>
<event>
 9    1  0.2374319E-005  0.3502384E+03  0.7546771E-02  0.1062517E+00
         -2   -1    0    0    0  501 -0.00000000000E+00  0.00000000000E+00  0.21865410212E+03  0.21865410212E+03  0.00000000000E+00 0.  1.
          1   -1    0    0  502    0  0.00000000000E+00 -0.00000000000E+00 -0.50740383303E+03  0.50740383303E+03  0.00000000000E+00 0. -1.
        -24    2    1    2    0    0  0.14983610120E+03 -0.69876679653E+02 -0.11376738009E+03  0.21541451362E+03  0.78273803564E+02 0.  0.
         23    2    1    2    0    0  0.13541378750E+03  0.23398201874E+02 -0.14506686125E+03  0.22008760173E+03  0.92248514924E+02 0.  0.
         13    1    3    3    0    0  0.15219459921E+03 -0.50406315411E+02 -0.87546431275E+02  0.18267011329E+03  0.00000000000E+00 0. -1.
        -14    1    3    3    0    0 -0.23584980022E+01 -0.19470364242E+02 -0.26220948811E+02  0.32744400332E+02  0.00000000000E+00 0.  1.
        -13    1    4    4    0    0  0.12381475795E+03  0.52270807778E+02 -0.11795443897E+03  0.17881717285E+03  0.00000000000E+00 0. -1.
         13    1    4    4    0    0  0.11599029549E+02 -0.28872605904E+02 -0.27112422275E+02  0.41270428878E+02  0.00000000000E+00 0.  1.
         21    1    1    2  502  501 -0.28524988871E+03  0.46478477780E+02 -0.29915489577E+02  0.29055581980E+03  0.00000000000E+00 0.  1.
<scales pt_clust_5="13000.00000" pt_clust_6="13000.00000" pt_clust_7="13000.00000" pt_clust_8="13000.00000" pt_clust_9="289.01167"></scales>
<clustering>
<clus scale="   78.274">  5  6 -1 -1</clus>
<clus scale="   92.249">  7  8 -1 -1</clus>
<clus scale="  128.559">  5  7 -1 -1</clus>
<clus scale="  289.012">  1  9  2 -1</clus>
<clus scale="  350.238">  2  5  1 -1</clus>
</clustering>
</event>
<event>
 9    1  0.2374319E-005  0.1296685E+03  0.7546771E-02  0.1231062E+00
         -2   -1    0    0    0  501 -0.00000000000E+00  0.00000000000E+00  0.58077435152E+03  0.58077435152E+03  0.00000000000E+00 0.  1.
          1   -1    0    0  502    0  0.00000000000E+00 -0.00000000000E+00 -0.11121297012E+03  0.11121297012E+03  0.00000000000E+00 0. -1.
        -24    2    1    2    0    0 -0.32140184295E+02 -0.89259513011E+02  0.51820593528E+03  0.53252732149E+03  0.77766989560E+02 0.  0.
         23    2    1    2    0    0  0.21458732545E+02  0.71030784692E+02 -0.64349639798E+02  0.13313454343E+03  0.89878144928E+02 0.  0.
         11    1    3    3    0    0 -0.21777433632E+02 -0.10156066832E+03  0.47933883627E+03  0.49046360306E+03  0.00000000000E+00 0. -1.
        -12    1    3    3    0    0 -0.10362750663E+02  0.12301155307E+02  0.38867099004E+02  0.42063718430E+02  0.00000000000E+00 0.  1.
        -11    1    4    4    0    0 -0.70367649025E+01  0.83607878794E+02 -0.37062042252E+02  0.91724524706E+02  0.00000000000E+00 0.  1.
         11    1    4    4    0    0  0.28495497448E+02 -0.12577094102E+02 -0.27287597546E+02  0.41410018724E+02  0.00000000000E+00 0. -1.
         21    1    1    2  502  501  0.10681451749E+02  0.18228728318E+02  0.15705085924E+02  0.26325456719E+02  0.00000000000E+00 0. -1.
<scales pt_clust_5="13000.00000" pt_clust_6="13000.00000" pt_clust_7="13000.00000" pt_clust_8="13000.00000" pt_clust_9="21.12771"></scales>
<clustering>
<clus scale="   21.128">  2  9  1 -1</clus>
<clus scale="   77.767">  5  6 -1 -1</clus>
<clus scale="   89.878">  7  8 -1 -1</clus>
<clus scale="  121.588">  1  5  2 -1</clus>
<clus scale="   21.128">  2  5  1 -1</clus>
</clustering>
</event>
<event>
 9    1  0.2374319E-005  0.4094047E+03  0.7546771E-02  0.1040733E+00
         -2   -1    0    0    0  501 -0.00000000000E+00  0.00000000000E+00  0.54728118083E+03  0.54728118083E+03  0.00000000000E+00 0.  1.
          1   -1    0    0  502    0  0.00000000000E+00 -0.00000000000E+00 -0.49171714934E+03  0.49171714934E+03  0.00000000000E+00 0. -1.
         23    2    1    2    0    0  0.32675734132E+03  0.23744022971E+03  0.30599008813E+03  0.51480731197E+03  0.90820766512E+02 0.  0.
        -24    2    1    2    0    0 -0.27739743212E+03 -0.27136522289E+03 -0.19231232263E+03  0.44073736712E+03  0.81712776231E+02 0.  0.
         11    1    4    4    0    0 -0.28001773809E+03 -0.25846677266E+03 -0.19374949582E+03  0.42749722028E+03  0.00000000000E+00 0. -1.
        -12    1    4    4    0    0  0.26203059687E+01 -0.12898450222E+02  0.14371731916E+01  0.13240146838E+02  0.00000000000E+00 0.  1.
        -13    1    3    3    0    0  0.19963331476E+03  0.13820953186E+03  0.12747633683E+03  0.27423630596E+03  0.00000000000E+00 0. -1.
         13    1    3    3    0    0  0.12712402656E+03  0.99230697857E+02  0.17851375130E+03  0.24057100601E+03  0.00000000000E+00 0.  1.
         21    1    1    2  502  501 -0.49359909200E+02  0.33924993171E+02 -0.58113734014E+02  0.83453651082E+02  0.00000000000E+00 0.  1.
<scales pt_clust_5="13000.00000" pt_clust_6="13000.00000" pt_clust_7="13000.00000" pt_clust_8="13000.00000" pt_clust_9="59.89412"></scales>
<clustering>
<clus scale="   59.894">  2  9  1 -1</clus>
<clus scale="   81.713">  5  6 -1 -1</clus>
<clus scale="   90.821">  7  8 -1 -1</clus>
<clus scale="  407.481">  2  5  1 -1</clus>
<clus scale="   59.894">  2  5  1 -1</clus>
</clustering>
</event>
<event>
 9    1  0.2374319E-005  0.2283759E+03  0.7546771E-02  0.1156031E+00
         -2   -1    0    0    0  501 -0.00000000000E+00  0.00000000000E+00  0.13773662654E+03  0.13773662654E+03  0.00000000000E+00 0.  1.
          1   -1    0    0  502    0  0.00000000000E+00 -0.00000000000E+00 -0.10924961093E+04  0.10924961093E+04  0.00000000000E+00 0. -1.
         23    2    1    2    0    0  0.28036462497E+02  0.66294494111E+02 -0.95867980629E+02  0.15034409285E+03  0.90728569727E+02 0.  0.
        -24    2    1    2    0    0 -0.10093301770E+03 -0.25479146310E+03 -0.11638887671E+03  0.31037245484E+03  0.87627201070E+02 0.  0.
         11    1    4    4    0    0 -0.10485658416E+03 -0.16820726994E+03 -0.10057001434E+03  0.22226766901E+03  0.00000000000E+00 0. -1.
        -12    1    4    4    0    0  0.39235664565E+01 -0.86584193161E+02 -0.15818862373E+02  0.88104785829E+02  0.00000000000E+00 0.  1.
        -11    1    3    3    0    0 -0.38792504952E+01  0.74741693220E+02 -0.89589877551E+02  0.11673780643E+03  0.00000000000E+00 0.  1.
         11    1    3    3    0    0  0.31915712992E+02 -0.84471991087E+01 -0.62781030783E+01  0.33606286418E+02  0.00000000000E+00 0. -1.
         21    1    1    2  502  501  0.72896555207E+02  0.18849696899E+03 -0.74250262538E+03  0.76951618812E+03  0.00000000000E+00 0. -1.
<scales pt_clust_5="13000.00000" pt_clust_6="13000.00000" pt_clust_7="13000.00000" pt_clust_8="13000.00000" pt_clust_9="210.89579"></scales>
<clustering>
<clus scale="   87.627">  5  6 -1 -1</clus>
<clus scale="   90.729">  7  8 -1 -1</clus>
<clus scale="  115.813">  1  7  2 -1</clus>
<clus scale="  210.896">  2  9  1 -1</clus>
<clus scale="  210.896">  2  5  1 -1</clus>
</clustering>
</event>
<event>
 9    1  0.2374319E-005  0.1085468E+03  0.7546771E-02  0.1268600E+00
          1   -1    0    0  502    0  0.00000000000E+00  0.00000000000E+00  0.14141193480E+03  0.14141193480E+03  0.00000000000E+00 0. -1.
         -2   -1    0    0    0  501 -0.00000000000E+00 -0.00000000000E+00 -0.26945021338E+03  0.26945021338E+03  0.00000000000E+00 0.  1.
         23    2    1    2    0    0  0.35060445120E+02 -0.40065787727E+02 -0.19085866099E+03  0.21878078383E+03  0.92755057754E+02 0.  0.
        -24    2    1    2    0    0 -0.19025414911E+02  0.69837720009E+02 -0.13378334720E+02  0.10871629590E+03  0.80006122298E+02 0.  0.
         13    1    4    4    0    0  0.96045913118E+01  0.36022882579E+02  0.29132318757E+02  0.47313721474E+02  0.00000000000E+00 0. -1.
        -14    1    4    4    0    0 -0.28630006223E+02  0.33814837430E+02 -0.42510653477E+02  0.61402574423E+02  0.00000000000E+00 0.  1.
        -13    1    3    3    0    0  0.53454210795E+02 -0.21778464695E+02 -0.52542318185E+02  0.78053503293E+02  0.00000000000E+00 0. -1.
         13    1    3    3    0    0 -0.18393765675E+02 -0.18287323032E+02 -0.13831634281E+03  0.14072728053E+03  0.00000000000E+00 0.  1.
         21    1    1    2  502  501 -0.16035030209E+02 -0.29771932282E+02  0.76198717128E+02  0.83365068449E+02  0.00000000000E+00 0. -1.
<scales pt_clust_5="13000.00000" pt_clust_6="13000.00000" pt_clust_7="13000.00000" pt_clust_8="13000.00000" pt_clust_9="33.81553"></scales>
<clustering>
<clus scale="   33.816">  1  9  2 -1</clus>
<clus scale="   80.006">  5  6 -1 -1</clus>
<clus scale="   92.755">  7  8 -1 -1</clus>
<clus scale="   97.877">  1  5  2 -1</clus>
<clus scale="   33.816">  1  5  2 -1</clus>
</clustering>
</event>
<event>
 9    1  0.2374319E-005  0.1130689E+03  0.7546771E-02  0.1255291E+00
          1   -1    0    0  502    0  0.00000000000E+00  0.00000000000E+00  0.14542143180E+03  0.14542143180E+03  0.00000000000E+00 0. -1.
         -2   -1    0    0    0  501 -0.00000000000E+00 -0.00000000000E+00 -0.26093835363E+03  0.26093835363E+03  0.00000000000E+00 0.  1.
         23    2    1    2    0    0 -0.71970961587E+01  0.84352359140E+02 -0.17814897156E+03  0.21688831628E+03  0.90201812554E+02 0.  0.
        -24    2    1    2    0    0 -0.31365478424E+02 -0.24914897863E+02  0.48504996647E+01  0.98046136288E+02  0.89358671217E+02 0.  0.
         11    1    4    4    0    0  0.61645691634E+01  0.28123074450E+02  0.14706715887E+02  0.32329502342E+02  0.00000000000E+00 0. -1.
        -12    1    4    4    0    0 -0.37530047588E+02 -0.53037972313E+02 -0.98562162219E+01  0.65716633946E+02  0.00000000000E+00 0.  1.
        -13    1    3    3    0    0 -0.46557325033E+02  0.64237591714E+02 -0.11978657554E+03  0.14367629026E+03  0.00000000000E+00 0. -1.
         13    1    3    3    0    0  0.39360228874E+02  0.20114767427E+02 -0.58362396020E+02  0.73212026026E+02  0.00000000000E+00 0.  1.
         21    1    1    2  502  501  0.38562574583E+02 -0.59437461278E+02  0.57781550065E+02  0.91425332865E+02  0.00000000000E+00 0.  1.
<scales pt_clust_5="13000.00000" pt_clust_6="13000.00000" pt_clust_7="13000.00000" pt_clust_8="13000.00000" pt_clust_9="70.85114"></scales>
<clustering>
<clus scale="   70.851">  1  9  2 -1</clus>
<clus scale="   89.359">  5  6 -1 -1</clus>
<clus scale="   90.202">  7  8 -1 -1</clus>
<clus scale="  112.397">  1  5  2 -1</clus>
<clus scale="   70.851">  1  5  2 -1</clus>
</clustering>
</event>
<event>
 9    1  0.2374319E-005  0.3864811E+03  0.7546771E-02  0.1048688E+00
          1   -1    0    0  502    0  0.00000000000E+00  0.00000000000E+00  0.33791876982E+03  0.33791876982E+03  0.00000000000E+00 0. -1.
         -2   -1    0    0    0  501 -0.00000000000E+00 -0.00000000000E+00 -0.72559239250E+03  0.72559239250E+03  0.00000000000E+00 0.  1.
         23    2    1    2    0    0  0.37488961088E+03  0.74233107445E+02 -0.46381066650E+03  0.60768500304E+03  0.90044177877E+02 0.  0.
        -24    2    1    2    0    0 -0.35653864054E+03 -0.50987126722E+02 -0.45665906632E+01  0.36985982661E+03  0.83999692259E+02 0.  0.
         13    1    4    4    0    0 -0.33565812911E+03 -0.54597240455E+02 -0.24256825544E+02  0.34093347136E+03  0.00000000000E+00 0. -1.
        -14    1    4    4    0    0 -0.20880511428E+02  0.36101137332E+01  0.19690234881E+02  0.28926355255E+02  0.00000000000E+00 0.  1.
        -11    1    3    3    0    0  0.28887252447E+03  0.18750145998E+02 -0.32522465450E+03  0.43539634732E+03  0.00000000000E+00 0.  1.
         11    1    3    3    0    0  0.86017086417E+02  0.55482961447E+02 -0.13858601200E+03  0.17228865572E+03  0.00000000000E+00 0. -1.
         21    1    1    2  502  501 -0.18350970342E+02 -0.23245980723E+02  0.80703634489E+02  0.85966332666E+02  0.00000000000E+00 0. -1.
<scales pt_clust_5="13000.00000" pt_clust_6="13000.00000" pt_clust_7="13000.00000" pt_clust_8="13000.00000" pt_clust_9="29.61644"></scales>
<clustering>
<clus scale="   29.616">  1  9  2 -1</clus>
<clus scale="   84.000">  5  6 -1 -1</clus>
<clus scale="   90.044">  7  8 -1 -1</clus>
<clus scale="  385.118">  1  5  2 -1</clus>
<clus scale="   29.616">  1  5  2 -1</clus>
</clustering>
</event>
<event>
 9    1  0.2374319E-005  0.1013724E+03  0.7546771E-02  0.1280829E+00
         -2   -1    0    0    0  501 -0.00000000000E+00  0.00000000000E+00  0.80730628557E+02  0.80730628557E+02  0.00000000000E+00 0.  1.
          1   -1    0    0  502    0  0.00000000000E+00 -0.00000000000E+00 -0.41501872382E+03  0.41501872382E+03  0.00000000000E+00 0. -1.
        -24    2    1    2    0    0  0.53406089719E+02  0.10462064262E+02  0.28719523772E+02  0.10139308009E+03  0.80585857553E+02 0.  0.
         23    2    1    2    0    0 -0.21862167103E+02 -0.37489198356E+02 -0.16435294236E+03  0.19140513137E+03  0.87980908782E+02 0.  0.
         11    1    3    3    0    0  0.17992865952E+02 -0.33232553352E+02  0.24401488966E+02  0.44984202685E+02  0.00000000000E+00 0. -1.
        -12    1    3    3    0    0  0.35413223766E+02  0.43694617613E+02  0.43180348055E+01  0.56408877408E+02  0.00000000000E+00 0.  1.
        -11    1    4    4    0    0 -0.38427856467E+00 -0.63984877696E+02 -0.10599225780E+03  0.12380860615E+03  0.00000000000E+00 0.  1.
         11    1    4    4    0    0 -0.21477888539E+02  0.26495679340E+02 -0.58360684557E+02  0.67596525220E+02  0.00000000000E+00 0. -1.
         21    1    1    2  502  501 -0.31543922616E+02  0.27027134094E+02 -0.19865467668E+03  0.20295114092E+03  0.00000000000E+00 0. -1.
<scales pt_clust_5="13000.00000" pt_clust_6="13000.00000" pt_clust_7="13000.00000" pt_clust_8="13000.00000" pt_clust_9="41.53896"></scales>
<clustering>
<clus scale="   41.539">  2  9  1 -1</clus>
<clus scale="   80.586">  5  6 -1 -1</clus>
<clus scale="   87.981">  7  8 -1 -1</clus>
<clus scale="   95.025">  1  5  2 -1</clus>
<clus scale="   41.539">  2  5  1 -1</clus>
</clustering>
</event>
<event>
 9    1  0.2374319E-005  0.1044319E+03  0.7546771E-02  0.1281403E+00
         -2   -1    0    0    0  501 -0.00000000000E+00  0.00000000000E+00  0.21080054673E+03  0.21080054673E+03  0.00000000000E+00 0.  1.
          1   -1    0    0  502    0  0.00000000000E+00 -0.00000000000E+00 -0.11596631408E+03  0.11596631408E+03  0.00000000000E+00 0. -1.
        -24    2    1    2    0    0 -0.10016594018E+02  0.26765815401E+02  0.15596708707E+03  0.17802321799E+03  0.80930790592E+02 0.  0.
         23    2    1    2    0    0 -0.14594517939E+02 -0.38344315385E+02 -0.47972422376E+02  0.11852832442E+03  0.10032110399E+03 0.  0.
         11    1    3    3    0    0 -0.70096900282E+01 -0.29052792623E+02  0.51690281574E+02  0.59708338803E+02  0.00000000000E+00 0. -1.
        -12    1    3    3    0    0 -0.30069039902E+01  0.55818608023E+02  0.10427680550E+03  0.11831487919E+03  0.00000000000E+00 0.  1.
        -11    1    4    4    0    0 -0.39597192192E+01 -0.62471378661E+02  0.13381031719E+01  0.62611045736E+02  0.00000000000E+00 0.  1.
         11    1    4    4    0    0 -0.10634798719E+02  0.24127063275E+02 -0.49310525548E+02  0.55917278688E+02  0.00000000000E+00 0. -1.
         21    1    1    2  502  501  0.24611111957E+02  0.11578499985E+02 -0.13160432051E+02  0.30215318390E+02  0.00000000000E+00 0.  1.
<scales pt_clust_5="13000.00000" pt_clust_6="13000.00000" pt_clust_7="13000.00000" pt_clust_8="13000.00000" pt_clust_9="27.19869"></scales>
<clustering>
<clus scale="   27.199">  2  9  1 -1</clus>
<clus scale="   80.931">  5  6 -1 -1</clus>
<clus scale="   85.974">  1  5  2 -1</clus>
<clus scale="  100.321">  7  8 -1 -1</clus>
<clus scale="   27.199">  2  5  1 -1</clus>
</clustering>
</event>
<event>
 9    1  0.2374319E-005  0.1048160E+03  0.7546771E-02  0.1274913E+00
          1   -1    0    0  502    0  0.00000000000E+00  0.00000000000E+00  0.33085892929E+02  0.33085892929E+02  0.00000000000E+00 0. -1.
         -2   -1    0    0    0  501 -0.00000000000E+00 -0.00000000000E+00 -0.52713350864E+03  0.52713350864E+03  0.00000000000E+00 0.  1.
        -24    2    1    2    0    0  0.36448052706E+02  0.30784351604E+02 -0.33246657251E+03  0.34541775838E+03  0.80642849135E+02 0.  0.
         23    2    1    2    0    0 -0.47218589553E+02 -0.52444587392E+02 -0.11650949360E+03  0.16364878538E+03  0.90699685295E+02 0.  0.
         13    1    3    3    0    0 -0.24181466195E+02  0.16773986706E+02 -0.75726550242E+02  0.81244201940E+02  0.00000000000E+00 0. -1.
        -14    1    3    3    0    0  0.60629518901E+02  0.14010364897E+02 -0.25674002227E+03  0.26417355644E+03  0.00000000000E+00 0.  1.
        -11    1    4    4    0    0 -0.97109994116E+01 -0.56564545133E+02 -0.21269835959E+02  0.61206676085E+02  0.00000000000E+00 0. -1.
         11    1    4    4    0    0 -0.37507590142E+02  0.41199577404E+01 -0.95239657641E+02  0.10244210930E+03  0.00000000000E+00 0.  1.
         21    1    1    2  502  501  0.10770536847E+02  0.21660235789E+02 -0.45071549597E+02  0.51152857804E+02  0.00000000000E+00 0. -1.
<scales pt_clust_5="13000.00000" pt_clust_6="13000.00000" pt_clust_7="13000.00000" pt_clust_8="13000.00000" pt_clust_9="24.19029"></scales>
<clustering>
<clus scale="   24.190">  1  9  2 -1</clus>
<clus scale="   80.643">  5  6 -1 -1</clus>
<clus scale="   90.700">  7  8 -1 -1</clus>
<clus scale="   96.246">  2  5  1 -1</clus>
<clus scale="   24.190">  1  5  2 -1</clus>
</clustering>
</event>
<event>
 9    1  0.2374319E-005  0.1207021E+03  0.7546771E-02  0.1257038E+00
         -2   -1    0    0    0  501 -0.00000000000E+00  0.00000000000E+00  0.25179019056E+03  0.25179019056E+03  0.00000000000E+00 0.  1.
          1   -1    0    0  502    0  0.00000000000E+00 -0.00000000000E+00 -0.66921251179E+02  0.66921251179E+02  0.00000000000E+00 0. -1.
        -24    2    1    2    0    0 -0.72392685332E+01 -0.38336721708E+02  0.13425577188E+03  0.16055067968E+03  0.78929064492E+02 0.  0.
         23    2    1    2    0    0 -0.12266742633E+02  0.52330365756E+02  0.46900687167E+02  0.13386901335E+03  0.11327973395E+03 0.  0.
         11    1    3    3    0    0  0.78141810515E+01 -0.35424294681E+02  0.13315749490E+02  0.38642609431E+02  0.00000000000E+00 0. -1.
        -12    1    3    3    0    0 -0.15053449585E+02 -0.29124270269E+01  0.12094002239E+03  0.12190807025E+03  0.00000000000E+00 0.  1.
        -13    1    4    4    0    0  0.41945171495E+02  0.46389230074E+02  0.48757349477E+02  0.79300928158E+02  0.00000000000E+00 0. -1.
         13    1    4    4    0    0 -0.54211914128E+02  0.59411356816E+01 -0.18566623097E+01  0.54568085192E+02  0.00000000000E+00 0.  1.
         21    1    1    2  502  501  0.19506011166E+02 -0.13993644048E+02  0.37124803357E+01  0.24291748714E+02  0.00000000000E+00 0.  1.
<scales pt_clust_5="13000.00000" pt_clust_6="13000.00000" pt_clust_7="13000.00000" pt_clust_8="13000.00000" pt_clust_9="24.00639"></scales>
<clustering>
<clus scale="   24.006">  2  9  1 -1</clus>
<clus scale="   78.929">  5  6 -1 -1</clus>
<clus scale="   89.255">  1  5  2 -1</clus>
<clus scale="  113.280">  7  8 -1 -1</clus>
<clus scale="   24.006">  2  5  1 -1</clus>
</clustering>
</event>
<event>
 9    1  0.2374319E-005  0.1010527E+03  0.7546771E-02  0.1281996E+00
          1   -1    0    0  502    0  0.00000000000E+00  0.00000000000E+00  0.58659614051E+02  0.58659614051E+02  0.00000000000E+00 0. -1.
         -2   -1    0    0    0  501 -0.00000000000E+00 -0.00000000000E+00 -0.38815959110E+03  0.38815959110E+03  0.00000000000E+00 0.  1.
        -24    2    1    2    0    0 -0.85804367575E+01  0.41991623922E+02 -0.29541467909E+03  0.31014904979E+03  0.84176481781E+02 0.  0.
         23    2    1    2    0    0 -0.11799787377E+02 -0.40257184722E+02 -0.53521640937E+01  0.10140041201E+03  0.92160305938E+02 0.  0.
         11    1    3    3    0    0 -0.40832819385E+02  0.17873137793E+02 -0.85658077456E+02  0.96561247025E+02  0.00000000000E+00 0. -1.
        -12    1    3    3    0    0  0.32252382627E+02  0.24118486128E+02 -0.20975660164E+03  0.21358780276E+03  0.00000000000E+00 0.  1.
        -11    1    4    4    0    0  0.29738577617E+02 -0.50181965688E+02  0.20894045226E+00  0.58332292387E+02  0.00000000000E+00 0.  1.
         11    1    4    4    0    0 -0.41538364995E+02  0.99247809668E+01 -0.55611045460E+01  0.43068119618E+02  0.00000000000E+00 0. -1.
         21    1    1    2  502  501  0.20380224135E+02 -0.17344391999E+01 -0.28733133864E+02  0.35269743361E+02  0.00000000000E+00 0.  1.
<scales pt_clust_5="13000.00000" pt_clust_6="13000.00000" pt_clust_7="13000.00000" pt_clust_8="13000.00000" pt_clust_9="20.45389"></scales>
<clustering>
<clus scale="   20.454">  2  9  1 -1</clus>
<clus scale="   84.176">  5  6 -1 -1</clus>
<clus scale="   92.160">  7  8 -1 -1</clus>
<clus scale="   93.829">  2  5  1 -1</clus>
<clus scale="  101.053">  1  5  2 -1</clus>
</clustering>
</event>
<event>
 9    1  0.2374319E-005  0.1165104E+03  0.7546771E-02  0.1250970E+00
          1   -1    0    0  502    0  0.00000000000E+00  0.00000000000E+00  0.51093157765E+03  0.51093157765E+03  0.00000000000E+00 0. -1.
         -2   -1    0    0    0  501 -0.00000000000E+00 -0.00000000000E+00 -0.83278943962E+02  0.83278943962E+02  0.00000000000E+00 0.  1.
        -24    2    1    2    0    0 -0.44339357413E+02  0.59065345945E+02 -0.10789133108E+02  0.10967354779E+03  0.80356629995E+02 0.  0.
         23    2    1    2    0    0  0.10506876444E+03 -0.47371785095E+02  0.29568277589E+03  0.32895763803E+03  0.86610001568E+02 0.  0.
         11    1    3    3    0    0 -0.48732325714E+02  0.14086548561E+02  0.20492804818E+02  0.54710378075E+02  0.00000000000E+00 0. -1.
        -12    1    3    3    0    0  0.43929683008E+01  0.44978797384E+02 -0.31281937926E+02  0.54963169714E+02  0.00000000000E+00 0.  1.
        -11    1    4    4    0    0  0.11480821292E+03 -0.24464121984E+02  0.22107588365E+03  0.25030774129E+03  0.00000000000E+00 0.  1.
         11    1    4    4    0    0 -0.97394484836E+01 -0.22907663111E+02  0.74606892248E+02  0.78649896738E+02  0.00000000000E+00 0. -1.
         21    1    1    2  502  501 -0.60729407027E+02 -0.11693560850E+02  0.14275899090E+03  0.15557933580E+03  0.00000000000E+00 0. -1.
<scales pt_clust_5="13000.00000" pt_clust_6="13000.00000" pt_clust_7="13000.00000" pt_clust_8="13000.00000" pt_clust_9="61.84497"></scales>
<clustering>
<clus scale="   61.845">  1  9  2 -1</clus>
<clus scale="   80.357">  5  6 -1 -1</clus>
<clus scale="   86.610">  7  8 -1 -1</clus>
<clus scale="  111.940">  2  5  1 -1</clus>
<clus scale="   61.845">  1  5  2 -1</clus>
</clustering>
</event>
<event>
 9    1  0.2374319E-005  0.1095256E+03  0.7546771E-02  0.1268678E+00
          1   -1    0    0  502    0  0.00000000000E+00  0.00000000000E+00  0.62953822534E+03  0.62953822534E+03  0.00000000000E+00 0. -1.
         -2   -1    0    0    0  501 -0.00000000000E+00 -0.00000000000E+00 -0.35668694995E+02  0.35668694995E+02  0.00000000000E+00 0.  1.
         23    2    1    2    0    0  0.49670125504E+02  0.12843551404E+02  0.91712898592E+02  0.14264682575E+03  0.96461302850E+02 0.  0.
        -24    2    1    2    0    0 -0.40238034554E+02 -0.44374005600E+02  0.26529645480E+03  0.28342440651E+03  0.79743548226E+02 0.  0.
         11    1    4    4    0    0 -0.14598226266E+02 -0.40664165644E+02  0.24921452055E+03  0.25293192727E+03  0.00000000000E+00 0. -1.
        -12    1    4    4    0    0 -0.25639808288E+02 -0.37098399558E+01  0.16081934241E+02  0.30492479244E+02  0.00000000000E+00 0.  1.
        -13    1    3    3    0    0  0.27346407672E+02 -0.24950510750E+02  0.91550974864E+02  0.98751886047E+02  0.00000000000E+00 0. -1.
         13    1    3    3    0    0  0.22323717832E+02  0.37794062155E+02  0.16192372748E+00  0.43894939700E+02  0.00000000000E+00 0.  1.
         21    1    1    2  502  501 -0.94320909494E+01  0.31530454195E+02  0.23686017695E+03  0.23913568807E+03  0.00000000000E+00 0.  1.
<scales pt_clust_5="13000.00000" pt_clust_6="13000.00000" pt_clust_7="13000.00000" pt_clust_8="13000.00000" pt_clust_9="32.91100"></scales>
<clustering>
<clus scale="   32.911">  1  9  2 -1</clus>
<clus scale="   79.744">  5  6 -1 -1</clus>
<clus scale="   95.132">  1  5  2 -1</clus>
<clus scale="   96.461">  7  8 -1 -1</clus>
<clus scale="   32.911">  1  5  2 -1</clus>
</clustering>
</event>
<event>
 9    1  0.2374319E-005  0.9983015E+02  0.7546771E-02  0.1285294E+00
         -2   -1    0    0    0  501 -0.00000000000E+00  0.00000000000E+00  0.21530006352E+03  0.21530006352E+03  0.00000000000E+00 0.  1.
          1   -1    0    0  502    0  0.00000000000E+00 -0.00000000000E+00 -0.14098959275E+03  0.14098959275E+03  0.00000000000E+00 0. -1.
        -24    2    1    2    0    0 -0.19263986581E+02  0.16051291879E+02  0.16943529842E+03  0.19636322925E+03  0.96028393194E+02 0.  0.
         23    2    1    2    0    0  0.19925489681E+02 -0.37824377098E+02 -0.48805138046E+02  0.10874031102E+03  0.87262850626E+02 0.  0.
         11    1    3    3    0    0 -0.17737777498E+02  0.47421543740E+02  0.44070425340E+02  0.67124019180E+02  0.00000000000E+00 0. -1.
        -12    1    3    3    0    0 -0.15262090828E+01 -0.31370251861E+02  0.12536487308E+03  0.12923921007E+03  0.00000000000E+00 0.  1.
        -13    1    4    4    0    0 -0.29822194091E+01 -0.53657392572E+02 -0.13966071455E+01  0.53758347461E+02  0.00000000000E+00 0.  1.
         13    1    4    4    0    0  0.22907709090E+02  0.15833015474E+02 -0.47408530901E+02  0.54981963560E+02  0.00000000000E+00 0. -1.
         21    1    1    2  502  501 -0.66150309959E+00  0.21773085219E+02 -0.46319689605E+02  0.51186116002E+02  0.00000000000E+00 0.  1.
<scales pt_clust_5="13000.00000" pt_clust_6="13000.00000" pt_clust_7="13000.00000" pt_clust_8="13000.00000" pt_clust_9="21.78313"></scales>
<clustering>
<clus scale="   21.783">  2  9  1 -1</clus>
<clus scale="   87.263">  7  8 -1 -1</clus>
<clus scale="   91.430">  2  7  1 -1</clus>
<clus scale="   96.028">  5  6 -1 -1</clus>
<clus scale="   21.783">  2  5  1 -1</clus>
</clustering>
</event>
<event>
 9    1  0.2374319E-005  0.9681707E+02  0.7546771E-02  0.1292888E+00
         -4   -1    0    0    0  501 -0.00000000000E+00  0.00000000000E+00  0.32826423341E+03  0.32826423341E+03  0.00000000000E+00 0.  1.
          3   -1    0    0  502    0  0.00000000000E+00 -0.00000000000E+00 -0.98428664828E+02  0.98428664828E+02  0.00000000000E+00 0. -1.
        -24    2    1    2    0    0 -0.32903033957E+02 -0.17714476284E+02  0.27311644418E+03  0.28703068687E+03  0.79985066185E+02 0.  0.
         23    2    1    2    0    0  0.13044490098E+02 -0.67178942078E+00 -0.36147563246E+01  0.91643282307E+02  0.90635614997E+02 0.  0.
         11    1    3    3    0    0 -0.45619551060E+02  0.73559255217E+01  0.84307790225E+02  0.96140816368E+02  0.00000000000E+00 0. -1.
        -12    1    3    3    0    0  0.12716517103E+02 -0.25070401805E+02  0.18880865395E+03  0.19088987050E+03  0.00000000000E+00 0.  1.
        -11    1    4    4    0    0  0.19626398563E+02 -0.35692489063E+02  0.23355635773E+02  0.46953541064E+02  0.00000000000E+00 0.  1.
         11    1    4    4    0    0 -0.65819084651E+01  0.35020699643E+02 -0.26970392097E+02  0.44689741243E+02  0.00000000000E+00 0. -1.
         21    1    1    2  502  501  0.19858543859E+02  0.18386265704E+02 -0.39666119266E+02  0.48018929063E+02  0.00000000000E+00 0. -1.
<scales pt_clust_5="13000.00000" pt_clust_6="13000.00000" pt_clust_7="13000.00000" pt_clust_8="13000.00000" pt_clust_9="27.06320"></scales>
<clustering>
<clus scale="   27.063">  2  9  1 -1</clus>
<clus scale="   79.985">  5  6 -1 -1</clus>
<clus scale="   86.927">  1  5  2 -1</clus>
<clus scale="   90.636">  7  8 -1 -1</clus>
<clus scale="   27.063">  2  5  1 -1</clus>
</clustering>
</event>
<event>
 9    1  0.2374319E-005  0.9898085E+02  0.7546771E-02  0.1288141E+00
         -4   -1    0    0    0  501 -0.00000000000E+00  0.00000000000E+00  0.58491813285E+03  0.58491813285E+03  0.00000000000E+00 0.  1.
          3   -1    0    0  502    0  0.00000000000E+00 -0.00000000000E+00 -0.75345572955E+02  0.75345572955E+02  0.00000000000E+00 0. -1.
         23    2    1    2    0    0  0.38082080632E+02  0.15086315763E+02  0.47195749775E+03  0.48259031253E+03  0.92041774603E+02 0.  0.
        -24    2    1    2    0    0 -0.22776350289E+02 -0.19135663264E+01  0.88937091165E+02  0.12252144524E+03  0.81112727050E+02 0.  0.
         11    1    4    4    0    0 -0.28609086576E+02  0.31014249710E+02  0.21745235214E+02  0.47468081637E+02  0.00000000000E+00 0. -1.
        -12    1    4    4    0    0  0.58327362866E+01 -0.32927816037E+02  0.67191855951E+02  0.75053363600E+02  0.00000000000E+00 0.  1.
        -11    1    3    3    0    0  0.35947446169E+02  0.52296922496E+02  0.29357412665E+03  0.30035471500E+03  0.00000000000E+00 0. -1.
         11    1    3    3    0    0  0.21346344631E+01 -0.37210606733E+02  0.17838337111E+03  0.18223559752E+03  0.00000000000E+00 0.  1.
         21    1    1    2  502  501 -0.15305730343E+02 -0.13172749437E+02 -0.51322029025E+02  0.55151948037E+02  0.00000000000E+00 0. -1.
<scales pt_clust_5="13000.00000" pt_clust_6="13000.00000" pt_clust_7="13000.00000" pt_clust_8="13000.00000" pt_clust_9="20.19373"></scales>
<clustering>
<clus scale="   20.194">  2  9  1 -1</clus>
<clus scale="   81.113">  5  6 -1 -1</clus>
<clus scale="   88.909">  2  5  1 -1</clus>
<clus scale="   92.042">  7  8 -1 -1</clus>
<clus scale="   20.194">  2  5  1 -1</clus>
</clustering>
</event>
<event>
 9    1  0.2374319E-005  0.1074477E+03  0.7546771E-02  0.1279822E+00
         -2   -1    0    0    0  501 -0.00000000000E+00  0.00000000000E+00  0.82689304225E+03  0.82689304225E+03  0.00000000000E+00 0.  1.
          1   -1    0    0  502    0  0.00000000000E+00 -0.00000000000E+00 -0.26877177476E+02  0.26877177476E+02  0.00000000000E+00 0. -1.
        -24    2    1    2    0    0  0.11275437209E+02  0.38630202281E+01  0.58739526946E+03  0.59299851753E+03  0.80448622061E+02 0.  0.
         23    2    1    2    0    0 -0.17345662196E+02  0.31532354380E+02  0.13959664823E+03  0.17939494248E+03  0.10677153095E+03 0.  0.
         13    1    3    3    0    0 -0.20413394982E+02 -0.27778934350E+02  0.19144813557E+03  0.19452702769E+03  0.00000000000E+00 0. -1.
        -14    1    3    3    0    0  0.31688832191E+02  0.31641954578E+02  0.39594713389E+03  0.39847148983E+03  0.00000000000E+00 0.  1.
        -11    1    4    4    0    0  0.13203834372E+02 -0.34298355535E+02  0.27690922154E+02  0.46016362353E+02  0.00000000000E+00 0. -1.
         11    1    4    4    0    0 -0.30549496568E+02  0.65830709915E+02  0.11190572608E+03  0.13337858013E+03  0.00000000000E+00 0.  1.
         21    1    1    2  502  501  0.60702249869E+01 -0.35395374608E+02  0.73023947084E+02  0.81376759721E+02  0.00000000000E+00 0. -1.
<scales pt_clust_5="13000.00000" pt_clust_6="13000.00000" pt_clust_7="13000.00000" pt_clust_8="13000.00000" pt_clust_9="35.91212"></scales>
<clustering>
<clus scale="   35.912">  2  9  1 -1</clus>
<clus scale="   80.449">  5  6 -1 -1</clus>
<clus scale="   81.344">  1  5  2 -1</clus>
<clus scale="  106.772">  7  8 -1 -1</clus>
<clus scale="   35.912">  2  5  1 -1</clus>
</clustering>
</event>
<event>
 9    1  0.2374319E-005  0.1461376E+03  0.7546771E-02  0.1206886E+00
         -2   -1    0    0    0  501 -0.00000000000E+00  0.00000000000E+00  0.13656102578E+03  0.13656102578E+03  0.00000000000E+00 0.  1.
          1   -1    0    0  502    0  0.00000000000E+00 -0.00000000000E+00 -0.29046665488E+03  0.29046665488E+03  0.00000000000E+00 0. -1.
        -24    2    1    2    0    0 -0.52096418918E+01 -0.12405978465E+03  0.48755668832E+02  0.15683821786E+03  0.82481154229E+02 0.  0.
         23    2    1    2    0    0 -0.27922288150E+02  0.84634053288E+02 -0.14828953755E+03  0.19530020182E+03  0.90607972795E+02 0.  0.
         11    1    3    3    0    0 -0.14686232438E+02 -0.22435061260E+02 -0.20278071288E+02  0.33618708663E+02  0.00000000000E+00 0. -1.
        -12    1    3    3    0    0  0.94765905462E+01 -0.10162472339E+03  0.69033740120E+02  0.12321950920E+03  0.00000000000E+00 0.  1.
        -13    1    4    4    0    0 -0.52480435635E+02  0.18562035537E+02 -0.53804894504E+02  0.77419067163E+02  0.00000000000E+00 0.  1.
         13    1    4    4    0    0  0.24558147485E+02  0.66072017751E+02 -0.94484643041E+02  0.11788113466E+03  0.00000000000E+00 0. -1.
         21    1    1    2  502  501  0.33131930041E+02  0.39425731363E+02 -0.54371760390E+02  0.74889260977E+02  0.00000000000E+00 0. -1.
<scales pt_clust_5="13000.00000" pt_clust_6="13000.00000" pt_clust_7="13000.00000" pt_clust_8="13000.00000" pt_clust_9="51.49867"></scales>
<clustering>
<clus scale="   51.499">  2  9  1 -1</clus>
<clus scale="   82.481">  5  6 -1 -1</clus>
<clus scale="   90.608">  7  8 -1 -1</clus>
<clus scale="  141.243">  1  5  2 -1</clus>
<clus scale="   51.499">  2  5  1 -1</clus>
</clustering>
</event>
<event>
 9    1  0.2374319E-005  0.1122318E+03  0.7546771E-02  0.1260090E+00
          1   -1    0    0  502    0  0.00000000000E+00  0.00000000000E+00  0.36849257152E+03  0.36849257152E+03  0.00000000000E+00 0. -1.
         -2   -1    0    0    0  501 -0.00000000000E+00 -0.00000000000E+00 -0.60258492444E+03  0.60258492444E+03  0.00000000000E+00 0.  1.
        -24    2    1    2    0    0 -0.51715990493E+02  0.42912266590E+02 -0.56297087133E+03  0.57250315501E+03  0.79420741780E+02 0.  0.
         23    2    1    2    0    0  0.10506530788E+03 -0.61648040804E+02  0.29814009952E+03  0.33421574171E+03  0.89294138704E+02 0.  0.
         13    1    3    3    0    0 -0.42457819860E+02 -0.69738229513E+01 -0.13899872389E+03  0.14550582778E+03  0.00000000000E+00 0. -1.
        -14    1    3    3    0    0 -0.92581706329E+01  0.49886089541E+02 -0.42397214744E+03  0.42699732723E+03  0.00000000000E+00 0.  1.
        -11    1    4    4    0    0  0.63328825236E+02 -0.33809239623E+02  0.26386490934E+03  0.27345620339E+03  0.00000000000E+00 0. -1.
         11    1    4    4    0    0  0.41736482646E+02 -0.27838801180E+02  0.34275190180E+02  0.60759538319E+02  0.00000000000E+00 0.  1.
         21    1    1    2  502  501 -0.53349317389E+02  0.18735774213E+02  0.30738418891E+02  0.64358599248E+02  0.00000000000E+00 0.  1.
<scales pt_clust_5="13000.00000" pt_clust_6="13000.00000" pt_clust_7="13000.00000" pt_clust_8="13000.00000" pt_clust_9="56.54360"></scales>
<clustering>
<clus scale="   56.544">  1  9  2 -1</clus>
<clus scale="   79.421">  5  6 -1 -1</clus>
<clus scale="   89.294">  7  8 -1 -1</clus>
<clus scale="  104.548">  2  5  1 -1</clus>
<clus scale="   56.544">  1  5  2 -1</clus>
</clustering>
</event>
<event>
 9    1  0.2374319E-005  0.1058064E+03  0.7546771E-02  0.1274624E+00
         -2   -1    0    0    0  501 -0.00000000000E+00  0.00000000000E+00  0.15903412989E+03  0.15903412989E+03  0.00000000000E+00 0.  1.
          1   -1    0    0  502    0  0.00000000000E+00 -0.00000000000E+00 -0.12105839733E+03  0.12105839733E+03  0.00000000000E+00 0. -1.
        -24    2    1    2    0    0 -0.25255801691E+02 -0.61928762825E+02  0.70484969995E+02  0.12632424024E+03  0.80725804380E+02 0.  0.
         23    2    1    2    0    0  0.63361418480E+01  0.11557589468E+02 -0.10444297350E+02  0.95612717896E+02  0.94122175434E+02 0.  0.
         11    1    3    3    0    0 -0.47806491145E+02 -0.51337777139E+02  0.25015941997E+02  0.74477011964E+02  0.00000000000E+00 0. -1.
        -12    1    3    3    0    0  0.22550689454E+02 -0.10590985686E+02  0.45469027999E+02  0.51847228275E+02  0.00000000000E+00 0.  1.
        -13    1    4    4    0    0 -0.17556228276E+02  0.13793684595E+02  0.36559397458E+02  0.42837792059E+02  0.00000000000E+00 0.  1.
         13    1    4    4    0    0  0.23892370124E+02 -0.22360951266E+01 -0.47003694808E+02  0.52774925837E+02  0.00000000000E+00 0. -1.
         21    1    1    2  502  501  0.18919659843E+02  0.50371173357E+02 -0.22064940090E+02  0.58155569081E+02  0.00000000000E+00 0.  1.
<scales pt_clust_5="13000.00000" pt_clust_6="13000.00000" pt_clust_7="13000.00000" pt_clust_8="13000.00000" pt_clust_9="53.80714"></scales>
<clustering>
<clus scale="   53.807">  2  9  1 -1</clus>
<clus scale="   80.726">  5  6 -1 -1</clus>
<clus scale="   94.089">  1  5  2 -1</clus>
<clus scale="   94.122">  7  8 -1 -1</clus>
<clus scale="   53.807">  2  5  1 -1</clus>
</clustering>
</event>
<event>
 9    1  0.2374319E-005  0.9547766E+02  0.7546771E-02  0.1307670E+00
         -2   -1    0    0    0  501 -0.00000000000E+00  0.00000000000E+00  0.61426920404E+03  0.61426920404E+03  0.00000000000E+00 0.  1.
          1   -1    0    0  502    0  0.00000000000E+00 -0.00000000000E+00 -0.21429738864E+02  0.21429738864E+02  0.00000000000E+00 0. -1.
        -24    2    1    2    0    0 -0.57129950867E+01  0.20477871333E+02  0.41590771148E+03  0.42175816677E+03  0.66698914826E+02 0.  0.
         23    2    1    2    0    0  0.35859239983E+01  0.27337928841E+01  0.11971757722E+03  0.15216078118E+03  0.93809767932E+02 0.  0.
         11    1    3    3    0    0 -0.28307303243E+02 -0.11626972290E+02  0.16884785562E+03  0.17159862543E+03  0.00000000000E+00 0. -1.
        -12    1    3    3    0    0  0.22594308156E+02  0.32104843623E+02  0.24705985586E+03  0.25015954134E+03  0.00000000000E+00 0.  1.
        -11    1    4    4    0    0  0.16889624434E+02  0.28192606483E+02  0.42078405906E+01  0.33132889947E+02  0.00000000000E+00 0.  1.
         11    1    4    4    0    0 -0.13303700436E+02 -0.25458813599E+02  0.11550973663E+03  0.11902789123E+03  0.00000000000E+00 0. -1.
         21    1    1    2  502  501  0.21270710884E+01 -0.23211664217E+02  0.57214176480E+02  0.61779994961E+02  0.00000000000E+00 0. -1.
<scales pt_clust_5="13000.00000" pt_clust_6="13000.00000" pt_clust_7="13000.00000" pt_clust_8="13000.00000" pt_clust_9="23.30892"></scales>
<clustering>
<clus scale="   23.309">  2  9  1 -1</clus>
<clus scale="   66.699">  5  6 -1 -1</clus>
<clus scale="   69.025">  1  5  2 -1</clus>
<clus scale="   93.810">  7  8 -1 -1</clus>
<clus scale="   23.309">  2  5  1 -1</clus>
</clustering>
</event>
<event>
 9    1  0.2374319E-005  0.2217906E+03  0.7546771E-02  0.1133008E+00
         -2   -1    0    0    0  501 -0.00000000000E+00  0.00000000000E+00  0.36517918182E+03  0.36517918182E+03  0.00000000000E+00 0.  1.
          1   -1    0    0  502    0  0.00000000000E+00 -0.00000000000E+00 -0.23369639275E+03  0.23369639275E+03  0.00000000000E+00 0. -1.
        -24    2    1    2    0    0  0.18211322015E+03 -0.90315203864E+02  0.19167043447E+03  0.29080520908E+03  0.80672505697E+02 0.  0.
         23    2    1    2    0    0 -0.17150806085E+03  0.11522450577E+03  0.18371528420E+02  0.22497712559E+03  0.87094731858E+02 0.  0.
         13    1    3    3    0    0  0.11265462264E+03 -0.34272532563E+02  0.61136855432E+02  0.13267775090E+03  0.00000000000E+00 0. -1.
        -14    1    3    3    0    0  0.69458597501E+02 -0.56042671300E+02  0.13053357904E+03  0.15812745818E+03  0.00000000000E+00 0.  1.
        -11    1    4    4    0    0  0.64722225373E+01  0.21312734770E+02  0.72846513992E+01  0.23434770619E+02  0.00000000000E+00 0. -1.
         11    1    4    4    0    0 -0.17798028338E+03  0.93911771003E+02  0.11086877021E+02  0.20154235497E+03  0.00000000000E+00 0.  1.
         21    1    1    2  502  501 -0.10605159298E+02 -0.24909301909E+02 -0.78559173826E+02  0.83093239902E+02  0.00000000000E+00 0. -1.
<scales pt_clust_5="13000.00000" pt_clust_6="13000.00000" pt_clust_7="13000.00000" pt_clust_8="13000.00000" pt_clust_9="27.07291"></scales>
<clustering>
<clus scale="   27.073">  2  9  1 -1</clus>
<clus scale="   80.673">  5  6 -1 -1</clus>
<clus scale="   87.095">  7  8 -1 -1</clus>
<clus scale="  219.348">  1  5  2 -1</clus>
<clus scale="   27.073">  2  5  1 -1</clus>
</clustering>
</event>
<event>
 9    1  0.2374319E-005  0.1206190E+03  0.7546771E-02  0.1242293E+00
          1   -1    0    0  502    0  0.00000000000E+00  0.00000000000E+00  0.12567343651E+03  0.12567343651E+03  0.00000000000E+00 0. -1.
         -2   -1    0    0    0  501 -0.00000000000E+00 -0.00000000000E+00 -0.26483832905E+03  0.26483832905E+03  0.00000000000E+00 0.  1.
        -24    2    1    2    0    0  0.99175703664E+02  0.11661261884E+01 -0.13151662116E+03  0.18498751067E+03  0.84181811647E+02 0.  0.
         23    2    1    2    0    0 -0.55244592740E+02 -0.60681810338E+02 -0.40139800563E+02  0.12472970907E+03  0.84923787022E+02 0.  0.
         11    1    3    3    0    0  0.40016862027E+02  0.22169530570E+02 -0.80117586835E+01  0.46443789783E+02  0.00000000000E+00 0. -1.
        -12    1    3    3    0    0  0.59158841636E+02 -0.21003404382E+02 -0.12350486248E+03  0.13854372088E+03  0.00000000000E+00 0.  1.
        -11    1    4    4    0    0 -0.28669650627E+02 -0.76178800734E+02 -0.10603956594E+02  0.82082899825E+02  0.00000000000E+00 0.  1.
         11    1    4    4    0    0 -0.26574942113E+02  0.15496990396E+02 -0.29535843969E+02  0.42646809243E+02  0.00000000000E+00 0. -1.
         21    1    1    2  502  501 -0.43931110924E+02  0.59515684150E+02  0.32491529183E+02  0.80794545827E+02  0.00000000000E+00 0. -1.
<scales pt_clust_5="13000.00000" pt_clust_6="13000.00000" pt_clust_7="13000.00000" pt_clust_8="13000.00000" pt_clust_9="73.97337"></scales>
<clustering>
<clus scale="   73.973">  1  9  2 -1</clus>
<clus scale="   84.182">  5  6 -1 -1</clus>
<clus scale="   84.924">  7  8 -1 -1</clus>
<clus scale="  120.098">  2  5  1 -1</clus>
<clus scale="   73.973">  1  5  2 -1</clus>
</clustering>
</event>
<event>
 9    1  0.2374319E-005  0.2518769E+03  0.7546771E-02  0.1137929E+00
          1   -1    0    0  502    0  0.00000000000E+00  0.00000000000E+00  0.16415939023E+04  0.16415939023E+04  0.00000000000E+00 0. -1.
         -2   -1    0    0    0  501 -0.00000000000E+00 -0.00000000000E+00 -0.46762171268E+03  0.46762171268E+03  0.00000000000E+00 0.  1.
         23    2    1    2    0    0 -0.92308205264E+02 -0.32681117019E+02 -0.37497446655E+02  0.13806047766E+03  0.89809669952E+02 0.  0.
        -24    2    1    2    0    0 -0.14050416086E+03 -0.29318656267E+02 -0.35231424862E+03  0.38892076519E+03  0.80827155036E+02 0.  0.
         11    1    4    4    0    0 -0.13553598568E+02 -0.32472207219E+02 -0.51216835717E+02  0.62139428197E+02  0.00000000000E+00 0. -1.
        -12    1    4    4    0    0 -0.12695056229E+03  0.31535509527E+01 -0.30109741290E+03  0.32678133699E+03  0.00000000000E+00 0.  1.
        -11    1    3    3    0    0 -0.39032275472E+02  0.82101737438E+01 -0.55671377008E+02  0.68485237091E+02  0.00000000000E+00 0. -1.
         11    1    3    3    0    0 -0.53275929793E+02 -0.40891290763E+02  0.18173930354E+02  0.69575240567E+02  0.00000000000E+00 0.  1.
         21    1    1    2  502  501  0.23281236612E+03  0.61999773286E+02  0.15637838849E+04  0.15822343721E+04  0.00000000000E+00 0. -1.
<scales pt_clust_5="13000.00000" pt_clust_6="13000.00000" pt_clust_7="13000.00000" pt_clust_8="13000.00000" pt_clust_9="238.55592"></scales>
<clustering>
<clus scale="   80.827">  5  6 -1 -1</clus>
<clus scale="   89.810">  7  8 -1 -1</clus>
<clus scale="  132.871">  2  7  1 -1</clus>
<clus scale="  238.556">  1  9  2 -1</clus>
<clus scale="  238.556">  1  5  2 -1</clus>
</clustering>
</event>
<event>
 9    1  0.2374319E-005  0.1881525E+03  0.7546771E-02  0.1161452E+00
         -2   -1    0    0    0  501 -0.00000000000E+00  0.00000000000E+00  0.89962368945E+03  0.89962368945E+03  0.00000000000E+00 0.  1.
          1   -1    0    0  502    0  0.00000000000E+00 -0.00000000000E+00 -0.61420894922E+02  0.61420894922E+02  0.00000000000E+00 0. -1.
         23    2    1    2    0    0  0.12396505372E+03 -0.10949545143E+03  0.42974937775E+03  0.46959221500E+03  0.92063740336E+02 0.  0.
        -24    2    1    2    0    0 -0.91088402376E+02  0.13840322689E+03  0.40814270104E+03  0.44767303372E+03  0.79863198331E+02 0.  0.
         13    1    4    4    0    0 -0.64498409130E+02  0.97755778533E+02  0.18238969357E+03  0.21675386349E+03  0.00000000000E+00 0. -1.
        -14    1    4    4    0    0 -0.26589993246E+02  0.40647448354E+02  0.22575300747E+03  0.23091917023E+03  0.00000000000E+00 0.  1.
        -13    1    3    3    0    0  0.70637774172E+02 -0.80731363309E+02  0.36703502387E+03  0.38238979708E+03  0.00000000000E+00 0.  1.
         13    1    3    3    0    0  0.53327279545E+02 -0.28764088120E+02  0.62714353887E+02  0.87202417928E+02  0.00000000000E+00 0. -1.
         21    1    1    2  502  501 -0.32876651342E+02 -0.28907775457E+02  0.31071573176E+00  0.43779335646E+02  0.00000000000E+00 0.  1.
<scales pt_clust_5="13000.00000" pt_clust_6="13000.00000" pt_clust_7="13000.00000" pt_clust_8="13000.00000" pt_clust_9="43.77823"></scales>
<clustering>
<clus scale="   43.778">  2  9  1 -1</clus>
<clus scale="   79.863">  5  6 -1 -1</clus>
<clus scale="   92.064">  7  8 -1 -1</clus>
<clus scale="  182.493">  2  5  1 -1</clus>
<clus scale="   43.778">  2  5  1 -1</clus>
</clustering>
</event>
<event>
 9    1  0.2374319E-005  0.1047634E+03  0.7546771E-02  0.1275012E+00
          1   -1    0    0  502    0  0.00000000000E+00  0.00000000000E+00  0.89465523038E+02  0.89465523038E+02  0.00000000000E+00 0. -1.
         -2   -1    0    0    0  501 -0.00000000000E+00 -0.00000000000E+00 -0.32135109572E+03  0.32135109572E+03  0.00000000000E+00 0.  1.
        -24    2    1    2    0    0 -0.20924694480E+02 -0.48458078295E+02 -0.26328984040E+03  0.28055470884E+03  0.81261161706E+02 0.  0.
         23    2    1    2    0    0 -0.30500338601E+01  0.46162805163E+02  0.26784259026E+02  0.10573844446E+03  0.91230010515E+02 0.  0.
         13    1    3    3    0    0  0.15760128134E+02 -0.32323896709E+02 -0.40383535803E+02  0.54074447766E+02  0.00000000000E+00 0. -1.
        -14    1    3    3    0    0 -0.36684822614E+02 -0.16134181587E+02 -0.22290630460E+03  0.22648026107E+03  0.00000000000E+00 0.  1.
        -13    1    4    4    0    0  0.17328462251E+02  0.63393065010E+02  0.38966956049E+02  0.76402748374E+02  0.00000000000E+00 0. -1.
         13    1    4    4    0    0 -0.20378496111E+02 -0.17230259848E+02 -0.12182697023E+02  0.29335696087E+02  0.00000000000E+00 0.  1.
         21    1    1    2  502  501  0.23974728340E+02  0.22952731326E+01  0.46200086938E+01  0.24523465458E+02  0.00000000000E+00 0.  1.
<scales pt_clust_5="13000.00000" pt_clust_6="13000.00000" pt_clust_7="13000.00000" pt_clust_8="13000.00000" pt_clust_9="24.08435"></scales>
<clustering>
<clus scale="   24.084">  1  9  2 -1</clus>
<clus scale="   81.261">  5  6 -1 -1</clus>
<clus scale="   91.230">  7  8 -1 -1</clus>
<clus scale="   96.207">  2  5  1 -1</clus>
<clus scale="   24.084">  1  5  2 -1</clus>
</clustering>
</event>
<event>
 9    1  0.2374319E-005  0.1085745E+03  0.7546771E-02  0.1267514E+00
          3   -1    0    0  502    0  0.00000000000E+00  0.00000000000E+00  0.16692073069E+03  0.16692073069E+03  0.00000000000E+00 0. -1.
         -4   -1    0    0    0  501 -0.00000000000E+00 -0.00000000000E+00 -0.22703752191E+03  0.22703752191E+03  0.00000000000E+00 0.  1.
         23    2    1    2    0    0 -0.36065402843E+02  0.46156399348E+02 -0.18427426764E+03  0.21371190842E+03  0.91020039574E+02 0.  0.
        -24    2    1    2    0    0  0.58616396706E+02 -0.35216322570E+02  0.10125243697E+03  0.14629235420E+03  0.80456979603E+02 0.  0.
         11    1    4    4    0    0  0.53996600170E+02  0.76615398481E+00  0.95289593640E+02  0.10952774296E+03  0.00000000000E+00 0. -1.
        -12    1    4    4    0    0  0.46197965363E+01 -0.35982476555E+02  0.59628433305E+01  0.36764611240E+02  0.00000000000E+00 0.  1.
        -11    1    3    3    0    0 -0.57561661273E+02  0.53729022579E+02 -0.16851202476E+03  0.18600122366E+03  0.00000000000E+00 0.  1.
         11    1    3    3    0    0  0.21496258430E+02 -0.75726232310E+01 -0.15762242876E+02  0.27710684755E+02  0.00000000000E+00 0. -1.
         21    1    1    2  502  501 -0.22550993863E+02 -0.10940076778E+02  0.22905039437E+02  0.33953989983E+02  0.00000000000E+00 0.  1.
<scales pt_clust_5="13000.00000" pt_clust_6="13000.00000" pt_clust_7="13000.00000" pt_clust_8="13000.00000" pt_clust_9="25.06457"></scales>
<clustering>
<clus scale="   25.065">  1  9  2 -1</clus>
<clus scale="   80.457">  5  6 -1 -1</clus>
<clus scale="   91.020">  7  8 -1 -1</clus>
<clus scale="   99.885">  1  5  2 -1</clus>
<clus scale="   25.065">  1  5  2 -1</clus>
</clustering>
</event>
<event>
 9    1  0.2374319E-005  0.1187250E+03  0.7546771E-02  0.1250544E+00
          1   -1    0    0  502    0  0.00000000000E+00  0.00000000000E+00  0.48442538973E+03  0.48442538973E+03  0.00000000000E+00 0. -1.
         -2   -1    0    0    0  501 -0.00000000000E+00 -0.00000000000E+00 -0.64087385301E+02  0.64087385301E+02  0.00000000000E+00 0.  1.
        -24    2    1    2    0    0  0.35532706163E+02 -0.17492521424E+02  0.94087173574E+02  0.12973994067E+03  0.80071808149E+02 0.  0.
         23    2    1    2    0    0 -0.66163356935E+02  0.91314857000E+02  0.98998284182E+02  0.17787515076E+03  0.95513957495E+02 0.  0.
         11    1    3    3    0    0 -0.15554199284E+02  0.13692902039E+02  0.53634330598E+02  0.57498435633E+02  0.00000000000E+00 0. -1.
        -12    1    3    3    0    0  0.51086905448E+02 -0.31185423464E+02  0.40452842977E+02  0.72241505035E+02  0.00000000000E+00 0.  1.
        -13    1    4    4    0    0 -0.15940073927E+02  0.82887878252E+02  0.94567148474E+02  0.12675737410E+03  0.00000000000E+00 0.  1.
         13    1    4    4    0    0 -0.50223283008E+02  0.84269787484E+01  0.44311357079E+01  0.51117776660E+02  0.00000000000E+00 0. -1.
         21    1    1    2  502  501  0.30630650772E+02 -0.73822335576E+02  0.22725254667E+03  0.24089768360E+03  0.00000000000E+00 0. -1.
<scales pt_clust_5="13000.00000" pt_clust_6="13000.00000" pt_clust_7="13000.00000" pt_clust_8="13000.00000" pt_clust_9="79.92480"></scales>
<clustering>
<clus scale="   79.925">  1  9  2 -1</clus>
<clus scale="   80.072">  5  6 -1 -1</clus>
<clus scale="   95.514">  7  8 -1 -1</clus>
<clus scale="  106.697">  2  5  1 -1</clus>
<clus scale="   79.925">  1  5  2 -1</clus>
</clustering>
</event>
<event>
 9    1  0.2374319E-005  0.1279236E+03  0.7546771E-02  0.1233313E+00
          1   -1    0    0  502    0  0.00000000000E+00  0.00000000000E+00  0.73107186581E+03  0.73107186581E+03  0.00000000000E+00 0. -1.
         -2   -1    0    0    0  501 -0.00000000000E+00 -0.00000000000E+00 -0.26660948458E+02  0.26660948458E+02  0.00000000000E+00 0.  1.
         23    2    1    2    0    0  0.39140336758E+01  0.91965514959E+02  0.29361721116E+03  0.32085857246E+03  0.90918541735E+02 0.  0.
        -24    2    1    2    0    0 -0.30399635478E+02 -0.84621189310E+02  0.32229265139E+03  0.34420351869E+03  0.80738006047E+02 0.  0.
         11    1    4    4    0    0 -0.48539339798E+02 -0.19848028128E+02  0.16496136316E+03  0.17309610933E+03  0.00000000000E+00 0. -1.
        -12    1    4    4    0    0  0.18139704320E+02 -0.64773161182E+02  0.15733128822E+03  0.17110740936E+03  0.00000000000E+00 0.  1.
        -11    1    3    3    0    0 -0.24809596982E+02  0.97075502443E+02  0.22575644623E+03  0.24699219075E+03  0.00000000000E+00 0. -1.
         11    1    3    3    0    0  0.28723630658E+02 -0.51099874844E+01  0.67860764931E+02  0.73866381712E+02  0.00000000000E+00 0.  1.
         21    1    1    2  502  501  0.26485601802E+02 -0.73443256487E+01  0.88501054813E+02  0.92670723128E+02  0.00000000000E+00 0.  1.
<scales pt_clust_5="13000.00000" pt_clust_6="13000.00000" pt_clust_7="13000.00000" pt_clust_8="13000.00000" pt_clust_9="27.48502"></scales>
<clustering>
<clus scale="   27.485">  1  9  2 -1</clus>
<clus scale="   80.738">  5  6 -1 -1</clus>
<clus scale="   90.919">  7  8 -1 -1</clus>
<clus scale="  120.900">  1  5  2 -1</clus>
<clus scale="   27.485">  1  5  2 -1</clus>
</clustering>
</event>
<event>
 9    1  0.2374319E-005  0.1064228E+03  0.7546771E-02  0.1280168E+00
         -2   -1    0    0    0  501 -0.00000000000E+00  0.00000000000E+00  0.31479716315E+02  0.31479716315E+02  0.00000000000E+00 0.  1.
          1   -1    0    0  502    0  0.00000000000E+00 -0.00000000000E+00 -0.43643459426E+03  0.43643459426E+03  0.00000000000E+00 0. -1.
         23    2    1    2    0    0 -0.38597476207E+02 -0.20369900827E+02 -0.10603532895E+03  0.15002911771E+03  0.96749920660E+02 0.  0.
        -24    2    1    2    0    0  0.48460146202E+02  0.17988333009E+01 -0.21475733135E+03  0.23113592377E+03  0.70366769982E+02 0.  0.
         11    1    4    4    0    0  0.89017587666E+00  0.20922769595E+02 -0.17398007408E+02  0.27225821610E+02  0.00000000000E+00 0. -1.
        -12    1    4    4    0    0  0.47569970325E+02 -0.19123936294E+02 -0.19735932394E+03  0.20391010216E+03  0.00000000000E+00 0.  1.
        -11    1    3    3    0    0 -0.67152204343E+02 -0.33084432039E+02 -0.76137525126E+02  0.10677509505E+03  0.00000000000E+00 0.  1.
         11    1    3    3    0    0  0.28554728137E+02  0.12714531212E+02 -0.29897803821E+02  0.43254022659E+02  0.00000000000E+00 0. -1.
         21    1    1    2  502  501 -0.98626699952E+01  0.18571067526E+02 -0.84162217652E+02  0.86749269095E+02  0.00000000000E+00 0. -1.
<scales pt_clust_5="13000.00000" pt_clust_6="13000.00000" pt_clust_7="13000.00000" pt_clust_8="13000.00000" pt_clust_9="21.02753"></scales>
<clustering>
<clus scale="   21.028">  2  9  1 -1</clus>
<clus scale="   70.367">  5  6 -1 -1</clus>
<clus scale="   83.167">  2  5  1 -1</clus>
<clus scale="   96.750">  7  8 -1 -1</clus>
<clus scale="   21.028">  2  5  1 -1</clus>
</clustering>
</event>
<event>
 9    1  0.2374319E-005  0.8884712E+02  0.7546771E-02  0.1312184E+00
          3   -1    0    0  502    0  0.00000000000E+00  0.00000000000E+00  0.28162844550E+03  0.28162844550E+03  0.00000000000E+00 0. -1.
         -4   -1    0    0    0  501 -0.00000000000E+00 -0.00000000000E+00 -0.96064191146E+02  0.96064191146E+02  0.00000000000E+00 0.  1.
        -24    2    1    2    0    0  0.13427714035E+01 -0.29582611519E+02 -0.57942260253E+02  0.10160613933E+03  0.78035684707E+02 0.  0.
         23    2    1    2    0    0 -0.24730987050E+02  0.36227841446E+02  0.23823705892E+03  0.25120809553E+03  0.66517161729E+02 0.  0.
         11    1    3    3    0    0 -0.34948300139E+02 -0.30942081872E+02 -0.37897646475E+02  0.60125100595E+02  0.00000000000E+00 0. -1.
        -12    1    3    3    0    0  0.36291071543E+02  0.13594703530E+01 -0.20044613778E+02  0.41481038739E+02  0.00000000000E+00 0.  1.
        -13    1    4    4    0    0 -0.17587165116E+02 -0.16891125873E+02  0.10035948289E+03  0.10327944770E+03  0.00000000000E+00 0.  1.
         13    1    4    4    0    0 -0.71438219333E+01  0.53118967319E+02  0.13787757603E+03  0.14792864784E+03  0.00000000000E+00 0. -1.
         21    1    1    2  502  501  0.23388215646E+02 -0.66452299271E+01  0.52694556928E+01  0.24878401781E+02  0.00000000000E+00 0.  1.
<scales pt_clust_5="13000.00000" pt_clust_6="13000.00000" pt_clust_7="13000.00000" pt_clust_8="13000.00000" pt_clust_9="24.31394"></scales>
<clustering>
<clus scale="   24.314">  2  9  1 -1</clus>
<clus scale="   66.517">  7  8 -1 -1</clus>
<clus scale="   78.036">  5  6 -1 -1</clus>
<clus scale="   78.923">  1  7  2 -1</clus>
<clus scale="   78.923">  1  5  2 -1</clus>
</clustering>
</event>
<event>
 9    1  0.2374319E-005  0.1733850E+03  0.7546771E-02  0.1175742E+00
         -2   -1    0    0    0  501 -0.00000000000E+00  0.00000000000E+00  0.39186180529E+02  0.39186180529E+02  0.00000000000E+00 0.  1.
          1   -1    0    0  502    0  0.00000000000E+00 -0.00000000000E+00 -0.14042609275E+04  0.14042609275E+04  0.00000000000E+00 0. -1.
         23    2    1    2    0    0  0.79447313264E+02 -0.14568352138E+03 -0.26393451850E+03  0.32488909189E+03  0.91410765186E+02 0.  0.
        -24    2    1    2    0    0 -0.73396682512E+02  0.12320592637E+03 -0.10433253463E+04  0.10562329569E+04  0.80830116102E+02 0.  0.
         13    1    4    4    0    0 -0.24069447524E+02  0.11001562437E+03 -0.66324819984E+03  0.67274136970E+03  0.00000000000E+00 0. -1.
        -14    1    4    4    0    0 -0.49327234989E+02  0.13190301995E+02 -0.38007714649E+03  0.38349158721E+03  0.00000000000E+00 0.  1.
        -13    1    3    3    0    0  0.51693250667E+02 -0.89138667981E+02 -0.79953548855E+02  0.13042417057E+03  0.00000000000E+00 0.  1.
         13    1    3    3    0    0  0.27754062598E+02 -0.56544853398E+02 -0.18398096964E+03  0.19446492133E+03  0.00000000000E+00 0. -1.
         21    1    1    2  502  501 -0.60506307521E+01  0.22477595011E+02 -0.57814882142E+02  0.62325059223E+02  0.00000000000E+00 0.  1.
<scales pt_clust_5="13000.00000" pt_clust_6="13000.00000" pt_clust_7="13000.00000" pt_clust_8="13000.00000" pt_clust_9="23.27772"></scales>
<clustering>
<clus scale="   23.278">  1  9  2 -1</clus>
<clus scale="   80.830">  5  6 -1 -1</clus>
<clus scale="   91.411">  7  8 -1 -1</clus>
<clus scale="  168.047">  2  5  1 -1</clus>
<clus scale="  168.047">  2  5  1 -1</clus>
</clustering>
</event>
<event>
 9    1  0.2374319E-005  0.1723832E+03  0.7546771E-02  0.1178312E+00
         -2   -1    0    0    0  501 -0.00000000000E+00  0.00000000000E+00  0.62225577803E+02  0.62225577803E+02  0.00000000000E+00 0.  1.
          1   -1    0    0  502    0  0.00000000000E+00 -0.00000000000E+00 -0.54605932843E+03  0.54605932843E+03  0.00000000000E+00 0. -1.
        -24    2    1    2    0    0  0.52935459034E+02  0.14617262016E+03 -0.24634231231E+03  0.30244616980E+03  0.81366781219E+02 0.  0.
         23    2    1    2    0    0 -0.38120876589E+02 -0.11758721024E+03 -0.20597911378E+03  0.26078738672E+03  0.10150227836E+03 0.  0.
         11    1    3    3    0    0  0.17936986567E+02  0.25609984021E+02 -0.12127182311E+03  0.12523762154E+03  0.00000000000E+00 0. -1.
        -12    1    3    3    0    0  0.34998472467E+02  0.12056263614E+03 -0.12507048920E+03  0.17720854826E+03  0.00000000000E+00 0.  1.
        -13    1    4    4    0    0 -0.46901864686E+02 -0.42357189809E+02 -0.31573974923E+02  0.70645823175E+02  0.00000000000E+00 0.  1.
         13    1    4    4    0    0  0.87809880971E+01 -0.75230020428E+02 -0.17440513886E+03  0.19014156354E+03  0.00000000000E+00 0. -1.
         21    1    1    2  502  501 -0.14814582445E+02 -0.28585409922E+02 -0.31512324529E+02  0.45051349710E+02  0.00000000000E+00 0.  1.
<scales pt_clust_5="13000.00000" pt_clust_6="13000.00000" pt_clust_7="13000.00000" pt_clust_8="13000.00000" pt_clust_9="32.19623"></scales>
<clustering>
<clus scale="   32.196">  1  9  2 -1</clus>
<clus scale="   81.367">  5  6 -1 -1</clus>
<clus scale="  101.502">  7  8 -1 -1</clus>
<clus scale="  161.350">  1  5  2 -1</clus>
<clus scale="  172.383">  2  5  1 -1</clus>
</clustering>
</event>
<event>
 9    1  0.2374319E-005  0.1083309E+03  0.7546771E-02  0.1268062E+00
          1   -1    0    0  502    0  0.00000000000E+00  0.00000000000E+00  0.83262169264E+03  0.83262169264E+03  0.00000000000E+00 0. -1.
         -2   -1    0    0    0  501 -0.00000000000E+00 -0.00000000000E+00 -0.78602100337E+02  0.78602100337E+02  0.00000000000E+00 0.  1.
         23    2    1    2    0    0  0.50481775511E+02 -0.43784935243E+02 -0.22923466849E+02  0.11464929149E+03  0.90296425696E+02 0.  0.
        -24    2    1    2    0    0 -0.86038286070E+01 -0.30972022915E+02  0.47646780642E+03  0.48412011645E+03  0.79482227695E+02 0.  0.
         13    1    4    4    0    0 -0.42747074298E+02 -0.21507135066E+02  0.21488245860E+03  0.22014617924E+03  0.00000000000E+00 0. -1.
        -14    1    4    4    0    0  0.34143245691E+02 -0.94648878490E+01  0.26158534783E+03  0.26397393721E+03  0.00000000000E+00 0.  1.
        -11    1    3    3    0    0 -0.26204054034E+02 -0.13465161010E+02 -0.17548644760E+01  0.29513430132E+02  0.00000000000E+00 0. -1.
         11    1    3    3    0    0  0.76685829545E+02 -0.30319774233E+02 -0.21168602373E+02  0.85135861356E+02  0.00000000000E+00 0.  1.
         21    1    1    2  502  501 -0.41877946904E+02  0.74756958158E+02  0.30047525273E+03  0.31245438504E+03  0.00000000000E+00 0. -1.
<scales pt_clust_5="13000.00000" pt_clust_6="13000.00000" pt_clust_7="13000.00000" pt_clust_8="13000.00000" pt_clust_9="85.68760"></scales>
<clustering>
<clus scale="   79.482">  5  6 -1 -1</clus>
<clus scale="   85.688">  1  9  2 -1</clus>
<clus scale="   90.296">  7  8 -1 -1</clus>
<clus scale="   99.497">  1  5  2 -1</clus>
<clus scale="   85.688">  1  5  2 -1</clus>
</clustering>
</event>
<event>
 9    1  0.2374319E-005  0.1652288E+03  0.7546771E-02  0.1184141E+00
          1   -1    0    0  502    0  0.00000000000E+00  0.00000000000E+00  0.16302437772E+03  0.16302437772E+03  0.00000000000E+00 0. -1.
         -2   -1    0    0    0  501 -0.00000000000E+00 -0.00000000000E+00 -0.26629479097E+03  0.26629479097E+03  0.00000000000E+00 0.  1.
        -24    2    1    2    0    0 -0.12998830340E+03 -0.29105544622E+02 -0.14325921488E+03  0.21217387910E+03  0.82161186543E+02 0.  0.
         23    2    1    2    0    0  0.15534300846E+03  0.72799215317E+01  0.32934735840E+02  0.18295495856E+03  0.90572470981E+02 0.  0.
         11    1    3    3    0    0 -0.24553673762E+02 -0.63151720812E+01  0.78256557996E+01  0.26533095981E+02  0.00000000000E+00 0. -1.
        -12    1    3    3    0    0 -0.10543462964E+03 -0.22790372540E+02 -0.15108487068E+03  0.18564078312E+03  0.00000000000E+00 0.  1.
        -13    1    4    4    0    0  0.35724054527E+02  0.25484465425E+02  0.43130689427E+02  0.61529849831E+02  0.00000000000E+00 0. -1.
         13    1    4    4    0    0  0.11961895394E+03 -0.18204543893E+02 -0.10195953587E+02  0.12142510873E+03  0.00000000000E+00 0.  1.
         21    1    1    2  502  501 -0.25354705059E+02  0.21825623090E+02  0.70540657857E+01  0.34190331031E+02  0.00000000000E+00 0. -1.
<scales pt_clust_5="13000.00000" pt_clust_6="13000.00000" pt_clust_7="13000.00000" pt_clust_8="13000.00000" pt_clust_9="33.45473"></scales>
<clustering>
<clus scale="   33.455">  1  9  2 -1</clus>
<clus scale="   82.161">  5  6 -1 -1</clus>
<clus scale="   90.572">  7  8 -1 -1</clus>
<clus scale="  160.772">  2  5  1 -1</clus>
<clus scale="   33.455">  1  5  2 -1</clus>
</clustering>
</event>
<event>
 9    1  0.2374319E-005  0.1147565E+03  0.7546771E-02  0.1259101E+00
         -4   -1    0    0    0  501 -0.00000000000E+00  0.00000000000E+00  0.19597654076E+03  0.19597654076E+03  0.00000000000E+00 0.  1.
          3   -1    0    0  502    0  0.00000000000E+00 -0.00000000000E+00 -0.15014811699E+03  0.15014811699E+03  0.00000000000E+00 0. -1.
         23    2    1    2    0    0  0.46333477513E+02 -0.84660829425E+02  0.41761763192E+02  0.14463834822E+03  0.99307400202E+02 0.  0.
        -24    2    1    2    0    0 -0.56725487248E+02 -0.47127814729E+01 -0.32212315907E+02  0.10447187592E+03  0.81466240556E+02 0.  0.
         11    1    4    4    0    0 -0.65571174699E+02  0.63062225793E+01 -0.49314300253E+02  0.82287590826E+02  0.00000000000E+00 0. -1.
        -12    1    4    4    0    0  0.88456874502E+01 -0.11019004052E+02  0.17101984346E+02  0.22184285099E+02  0.00000000000E+00 0.  1.
        -13    1    3    3    0    0 -0.79614209463E+01 -0.53250382177E+02  0.58712158778E+02  0.79662444187E+02  0.00000000000E+00 0. -1.
         13    1    3    3    0    0  0.54294898460E+02 -0.31410447248E+02 -0.16950395586E+02  0.64975904038E+02  0.00000000000E+00 0.  1.
         21    1    1    2  502  501  0.10392009735E+02  0.89373610897E+02  0.36278976493E+02  0.97014433599E+02  0.00000000000E+00 0.  1.
<scales pt_clust_5="13000.00000" pt_clust_6="13000.00000" pt_clust_7="13000.00000" pt_clust_8="13000.00000" pt_clust_9="89.97575"></scales>
<clustering>
<clus scale="   81.466">  5  6 -1 -1</clus>
<clus scale="   89.976">  1  9  2 -1</clus>
<clus scale="   99.307">  7  8 -1 -1</clus>
<clus scale="   99.719">  2  5  1 -1</clus>
<clus scale="   99.719">  2  5  1 -1</clus>
</clustering>
</event>
<event>
 9    1  0.2374319E-005  0.2541962E+03  0.7546771E-02  0.1144282E+00
         -2   -1    0    0    0  501 -0.00000000000E+00  0.00000000000E+00  0.18883035120E+03  0.18883035120E+03  0.00000000000E+00 0.  1.
          1   -1    0    0  502    0  0.00000000000E+00 -0.00000000000E+00 -0.93744607900E+03  0.93744607900E+03  0.00000000000E+00 0. -1.
        -24    2    1    2    0    0 -0.21805411970E+03  0.12649690080E+03  0.46374647819E+02  0.26997696138E+03  0.84781405322E+02 0.  0.
         23    2    1    2    0    0  0.50554417728E+02 -0.27609173485E+02 -0.41297076407E+03  0.42761086810E+03  0.94806048988E+02 0.  0.
         13    1    3    3    0    0 -0.18524696647E+03  0.13816868918E+03  0.41935359421E+02  0.23487358222E+03  0.00000000000E+00 0. -1.
        -14    1    3    3    0    0 -0.32807153227E+02 -0.11671788383E+02  0.44392883983E+01  0.35103379160E+02  0.00000000000E+00 0.  1.
        -13    1    4    4    0    0 -0.21105611779E+02  0.16411153298E+02 -0.10746321236E+03  0.11073894894E+03  0.00000000000E+00 0. -1.
         13    1    4    4    0    0  0.71660029507E+02 -0.44020326784E+02 -0.30550755171E+03  0.31687191915E+03  0.00000000000E+00 0.  1.
         21    1    1    2  502  501  0.16749970197E+03 -0.98887727316E+02 -0.38201961156E+03  0.42868860072E+03  0.00000000000E+00 0.  1.
<scales pt_clust_5="13000.00000" pt_clust_6="13000.00000" pt_clust_7="13000.00000" pt_clust_8="13000.00000" pt_clust_9="239.64103"></scales>
<clustering>
<clus scale="   84.781">  5  6 -1 -1</clus>
<clus scale="   94.806">  7  8 -1 -1</clus>
<clus scale="  110.933">  2  7  1 -1</clus>
<clus scale="  239.641">  2  9  1 -1</clus>
<clus scale="  110.933">  2  5  1 -1</clus>
</clustering>
</event>
<event>
 9    1  0.2374319E-005  0.1144399E+03  0.7546771E-02  0.1256261E+00
          1   -1    0    0  502    0  0.00000000000E+00  0.00000000000E+00  0.32036454159E+03  0.32036454159E+03  0.00000000000E+00 0. -1.
         -2   -1    0    0    0  501 -0.00000000000E+00 -0.00000000000E+00 -0.93144804753E+02  0.93144804753E+02  0.00000000000E+00 0.  1.
         23    2    1    2    0    0  0.12066651487E+02 -0.19870740171E+02 -0.11694916846E+02  0.93117484876E+02  0.89407183809E+02 0.  0.
        -24    2    1    2    0    0 -0.86175378756E+02  0.16481890833E+02  0.20986185596E+03  0.24071970314E+03  0.78778983624E+02 0.  0.
         13    1    4    4    0    0 -0.77494668255E+02  0.41249990494E+02  0.18401689673E+03  0.20388527069E+03  0.00000000000E+00 0. -1.
        -14    1    4    4    0    0 -0.86807105012E+01 -0.24768099661E+02  0.25844959233E+02  0.36834432443E+02  0.00000000000E+00 0.  1.
        -13    1    3    3    0    0  0.48073566449E+02 -0.18618568074E+02  0.78205303000E+01  0.52142876430E+02  0.00000000000E+00 0.  1.
         13    1    3    3    0    0 -0.36006914961E+02 -0.12521720969E+01 -0.19515447146E+02  0.40974608446E+02  0.00000000000E+00 0. -1.
         21    1    1    2  502  501  0.74108727269E+02  0.33888493383E+01  0.29052797717E+02  0.79672158327E+02  0.00000000000E+00 0.  1.
<scales pt_clust_5="13000.00000" pt_clust_6="13000.00000" pt_clust_7="13000.00000" pt_clust_8="13000.00000" pt_clust_9="74.18617"></scales>
<clustering>
<clus scale="   74.186">  2  9  1 -1</clus>
<clus scale="   78.779">  5  6 -1 -1</clus>
<clus scale="   89.407">  7  8 -1 -1</clus>
<clus scale="  106.344">  1  5  2 -1</clus>
<clus scale="  106.344">  1  5  2 -1</clus>
</clustering>
</event>
<event>
 9    1  0.2374319E-005  0.1057513E+03  0.7546771E-02  0.1273039E+00
         -2   -1    0    0    0  501 -0.00000000000E+00  0.00000000000E+00  0.27885129495E+03  0.27885129495E+03  0.00000000000E+00 0.  1.
          1   -1    0    0  502    0  0.00000000000E+00 -0.00000000000E+00 -0.83611540309E+02  0.83611540309E+02  0.00000000000E+00 0. -1.
         23    2    1    2    0    0  0.63065503344E+02 -0.10582321681E+01  0.21271558168E+03  0.23913374111E+03  0.89211265450E+02 0.  0.
        -24    2    1    2    0    0 -0.33067876668E+02 -0.16795854762E+02 -0.10721175541E+02  0.87772781860E+02  0.78825962893E+02 0.  0.
         13    1    4    4    0    0  0.49893336131E+01 -0.39480072950E+02 -0.16526052182E+02  0.43089209912E+02  0.00000000000E+00 0. -1.
        -14    1    4    4    0    0 -0.38057210281E+02  0.22684218189E+02  0.58048766415E+01  0.44683571948E+02  0.00000000000E+00 0.  1.
        -11    1    3    3    0    0 -0.32010829786E+01  0.31923476188E+02  0.93042198308E+02  0.98418524324E+02  0.00000000000E+00 0.  1.
         11    1    3    3    0    0  0.66266586323E+02 -0.32981708356E+02  0.11967338337E+03  0.14071521679E+03  0.00000000000E+00 0. -1.
         21    1    1    2  502  501 -0.29997626676E+02  0.17854086930E+02 -0.67546514981E+01  0.35556312283E+02  0.00000000000E+00 0. -1.
<scales pt_clust_5="13000.00000" pt_clust_6="13000.00000" pt_clust_7="13000.00000" pt_clust_8="13000.00000" pt_clust_9="34.90882"></scales>
<clustering>
<clus scale="   34.909">  2  9  1 -1</clus>
<clus scale="   78.826">  5  6 -1 -1</clus>
<clus scale="   89.211">  7  8 -1 -1</clus>
<clus scale="   97.150">  2  5  1 -1</clus>
<clus scale="   34.909">  2  5  1 -1</clus>
</clustering>
</event>
<event>
 9    1  0.2374319E-005  0.1344551E+03  0.7546771E-02  0.1223624E+00
          1   -1    0    0  502    0  0.00000000000E+00  0.00000000000E+00  0.47819336949E+03  0.47819336949E+03  0.00000000000E+00 0. -1.
         -2   -1    0    0    0  501 -0.00000000000E+00 -0.00000000000E+00 -0.23844328603E+03  0.23844328603E+03  0.00000000000E+00 0.  1.
        -24    2    1    2    0    0  0.93781276749E+02  0.72343776666E+01 -0.18027205477E+03  0.21863285188E+03  0.80343301540E+02 0.  0.
         23    2    1    2    0    0 -0.15279397080E+03 -0.65346306498E+01  0.18961926045E+03  0.26016252507E+03  0.91325662351E+02 0.  0.
         11    1    3    3    0    0  0.40554852425E+02 -0.22875688631E+02 -0.27500731329E+02  0.54076643842E+02  0.00000000000E+00 0. -1.
        -12    1    3    3    0    0  0.53226424324E+02  0.30110066298E+02 -0.15277132344E+03  0.16455620804E+03  0.00000000000E+00 0.  1.
        -13    1    4    4    0    0 -0.79215321235E+02  0.26407567319E+02  0.14678368562E+03  0.16887236924E+03  0.00000000000E+00 0. -1.
         13    1    4    4    0    0 -0.73578649567E+02 -0.32942197969E+02  0.42835574834E+02  0.91290155825E+02  0.00000000000E+00 0.  1.
         21    1    1    2  502  501  0.59012694053E+02 -0.69974701684E+00  0.23040287778E+03  0.23784127857E+03  0.00000000000E+00 0.  1.
<scales pt_clust_5="13000.00000" pt_clust_6="13000.00000" pt_clust_7="13000.00000" pt_clust_8="13000.00000" pt_clust_9="59.01684"></scales>
<clustering>
<clus scale="   59.017">  1  9  2 -1</clus>
<clus scale="   80.343">  5  6 -1 -1</clus>
<clus scale="   91.326">  7  8 -1 -1</clus>
<clus scale="  127.251">  2  5  1 -1</clus>
<clus scale="   59.017">  1  5  2 -1</clus>
</clustering>
</event>
<event>
 9    1  0.2374319E-005  0.1325535E+03  0.7546771E-02  0.1226540E+00
         -2   -1    0    0    0  501 -0.00000000000E+00  0.00000000000E+00  0.29653156528E+03  0.29653156528E+03  0.00000000000E+00 0.  1.
          1   -1    0    0  502    0  0.00000000000E+00 -0.00000000000E+00 -0.86758008803E+02  0.86758008803E+02  0.00000000000E+00 0. -1.
         23    2    1    2    0    0  0.37768354988E+02  0.10162841815E+03  0.16844895223E+03  0.22051916028E+03  0.92189297261E+02 0.  0.
        -24    2    1    2    0    0 -0.50971193940E+02 -0.58116327790E+02  0.31237188108E+02  0.11619388615E+03  0.80930137093E+02 0.  0.
         11    1    4    4    0    0  0.44873338314E+01 -0.33276829537E+02 -0.17895155074E+02  0.38048917516E+02  0.00000000000E+00 0. -1.
        -12    1    4    4    0    0 -0.55458527772E+02 -0.24839498253E+02  0.49132343183E+02  0.78144968633E+02  0.00000000000E+00 0.  1.
        -11    1    3    3    0    0 -0.55147620498E+01  0.76425308018E+02  0.48889336307E+02  0.90892285210E+02  0.00000000000E+00 0. -1.
         11    1    3    3    0    0  0.43283117037E+02  0.25203110130E+02  0.11955961593E+03  0.12962687507E+03  0.00000000000E+00 0.  1.
         21    1    1    2  502  501  0.13202838953E+02 -0.43512090358E+02  0.10087416134E+02  0.46576527651E+02  0.00000000000E+00 0. -1.
<scales pt_clust_5="13000.00000" pt_clust_6="13000.00000" pt_clust_7="13000.00000" pt_clust_8="13000.00000" pt_clust_9="45.47106"></scales>
<clustering>
<clus scale="   45.471">  2  9  1 -1</clus>
<clus scale="   80.930">  5  6 -1 -1</clus>
<clus scale="   92.189">  7  8 -1 -1</clus>
<clus scale="  124.985">  2  5  1 -1</clus>
<clus scale="   45.471">  2  5  1 -1</clus>
</clustering>
</event>
<event>
 9    1  0.2374319E-005  0.2054341E+03  0.7546771E-02  0.1146511E+00
         -4   -1    0    0    0  501 -0.00000000000E+00  0.00000000000E+00  0.25831529353E+03  0.25831529353E+03  0.00000000000E+00 0.  1.
          3   -1    0    0  502    0  0.00000000000E+00 -0.00000000000E+00 -0.39660100889E+03  0.39660100889E+03  0.00000000000E+00 0. -1.
         23    2    1    2    0    0  0.16301146914E+03  0.82059197172E+02  0.16299049578E+03  0.26309455207E+03  0.96676733014E+02 0.  0.
        -24    2    1    2    0    0 -0.16718987951E+03 -0.58522730102E+02 -0.17215700173E+03  0.26050840513E+03  0.82760075801E+02 0.  0.
         13    1    4    4    0    0 -0.14695196247E+03 -0.63591891427E+02 -0.17742077526E+03  0.23899150491E+03  0.00000000000E+00 0. -1.
        -14    1    4    4    0    0 -0.20237917049E+02  0.50691613258E+01  0.52637735283E+01  0.21516900213E+02  0.00000000000E+00 0.  1.
        -13    1    3    3    0    0  0.12660218118E+03  0.91193081486E+02  0.16288531473E+03  0.22555690224E+03  0.00000000000E+00 0.  1.
         13    1    3    3    0    0  0.36409287958E+02 -0.91338843141E+01  0.10518104292E+00  0.37537649838E+02  0.00000000000E+00 0. -1.
         21    1    1    2  502  501  0.41784103762E+01 -0.23536467070E+02 -0.12911920941E+03  0.13131334522E+03  0.00000000000E+00 0.  1.
<scales pt_clust_5="13000.00000" pt_clust_6="13000.00000" pt_clust_7="13000.00000" pt_clust_8="13000.00000" pt_clust_9="23.90448"></scales>
<clustering>
<clus scale="   23.904">  2  9  1 -1</clus>
<clus scale="   82.760">  5  6 -1 -1</clus>
<clus scale="   96.677">  7  8 -1 -1</clus>
<clus scale="  199.264">  2  5  1 -1</clus>
<clus scale="   23.904">  2  5  1 -1</clus>
</clustering>
</event>
<event>
 9    1  0.2374319E-005  0.1908636E+03  0.7546771E-02  0.1159024E+00
         -2   -1    0    0    0  501 -0.00000000000E+00  0.00000000000E+00  0.25874715934E+03  0.25874715934E+03  0.00000000000E+00 0.  1.
          1   -1    0    0  502    0  0.00000000000E+00 -0.00000000000E+00 -0.21335278913E+03  0.21335278913E+03  0.00000000000E+00 0. -1.
         23    2    1    2    0    0 -0.38214300225E+02 -0.15677657005E+03  0.12875368111E+03  0.22636393359E+03  0.92864925433E+02 0.  0.
        -24    2    1    2    0    0  0.28415609067E+02  0.17892075051E+03 -0.49612879291E+02  0.20420047921E+03  0.80101910822E+02 0.  0.
         11    1    4    4    0    0 -0.23738432330E+02  0.34923833428E+02 -0.25032097397E+02  0.49089644640E+02  0.00000000000E+00 0. -1.
        -12    1    4    4    0    0  0.52154041397E+02  0.14399691708E+03 -0.24580781895E+02  0.15511083457E+03  0.00000000000E+00 0.  1.
        -13    1    3    3    0    0  0.29851067793E+00 -0.31378265709E+02 -0.12332280093E+02  0.33716016962E+02  0.00000000000E+00 0. -1.
         13    1    3    3    0    0 -0.38512810903E+02 -0.12539830434E+03  0.14108596120E+03  0.19264791663E+03  0.00000000000E+00 0.  1.
         21    1    1    2  502  501  0.97986911585E+01 -0.22144180465E+02 -0.33746431600E+02  0.41535535661E+02  0.00000000000E+00 0. -1.
<scales pt_clust_5="13000.00000" pt_clust_6="13000.00000" pt_clust_7="13000.00000" pt_clust_8="13000.00000" pt_clust_9="24.21527"></scales>
<clustering>
<clus scale="   24.215">  2  9  1 -1</clus>
<clus scale="   80.102">  5  6 -1 -1</clus>
<clus scale="   92.865">  7  8 -1 -1</clus>
<clus scale="  184.990">  2  5  1 -1</clus>
<clus scale="   24.215">  2  5  1 -1</clus>
</clustering>
</event>
<event>
 9    1  0.2374319E-005  0.1323716E+03  0.7546771E-02  0.1227112E+00
         -2   -1    0    0    0  501 -0.00000000000E+00  0.00000000000E+00  0.60925183901E+02  0.60925183901E+02  0.00000000000E+00 0.  1.
          1   -1    0    0  502    0  0.00000000000E+00 -0.00000000000E+00 -0.63949838146E+03  0.63949838146E+03  0.00000000000E+00 0. -1.
        -24    2    1    2    0    0 -0.72964889452E+02  0.61902773729E+02 -0.28614583298E+02  0.12674139583E+03  0.78030497576E+02 0.  0.
         23    2    1    2    0    0  0.57919233292E+02 -0.77646004683E+02 -0.51984711172E+03  0.53652138811E+03  0.90722878646E+02 0.  0.
         13    1    3    3    0    0  0.14939530944E+02  0.18000788774E+02  0.28572835597E+01  0.23566545157E+02  0.00000000000E+00 0. -1.
        -14    1    3    3    0    0 -0.87904420396E+02  0.43901984955E+02 -0.31471866858E+02  0.10317485067E+03  0.00000000000E+00 0.  1.
        -13    1    4    4    0    0 -0.23135711821E+02 -0.22017592193E+02 -0.17699616891E+03  0.17985460610E+03  0.00000000000E+00 0.  1.
         13    1    4    4    0    0  0.81054945113E+02 -0.55628412490E+02 -0.34285094281E+03  0.35666678201E+03  0.00000000000E+00 0. -1.
         21    1    1    2  502  501  0.15045656159E+02  0.15743230954E+02 -0.30111502537E+02  0.37160781412E+02  0.00000000000E+00 0.  1.
<scales pt_clust_5="13000.00000" pt_clust_6="13000.00000" pt_clust_7="13000.00000" pt_clust_8="13000.00000" pt_clust_9="21.77662"></scales>
<clustering>
<clus scale="   21.777">  1  9  2 -1</clus>
<clus scale="   78.030">  5  6 -1 -1</clus>
<clus scale="   90.723">  7  8 -1 -1</clus>
<clus scale="  124.018">  1  5  2 -1</clus>
<clus scale="  132.372">  2  5  1 -1</clus>
</clustering>
</event>
<event>
 9    1  0.2374319E-005  0.1235275E+03  0.7546771E-02  0.1240515E+00
         -2   -1    0    0    0  501 -0.00000000000E+00  0.00000000000E+00  0.32504225989E+03  0.32504225989E+03  0.00000000000E+00 0.  1.
          1   -1    0    0  502    0  0.00000000000E+00 -0.00000000000E+00 -0.35112870642E+03  0.35112870642E+03  0.00000000000E+00 0. -1.
         23    2    1    2    0    0  0.75609786044E+02  0.50592917157E+02  0.28914857323E+03  0.31659087620E+03  0.91358647535E+02 0.  0.
        -24    2    1    2    0    0  0.15354518562E+01 -0.24489632385E+02 -0.10912941597E+03  0.13796716376E+03  0.80768862447E+02 0.  0.
         11    1    4    4    0    0 -0.34493730114E+02 -0.45753743903E+01 -0.20858437997E+02  0.40568779913E+02  0.00000000000E+00 0. -1.
        -12    1    4    4    0    0  0.36029181970E+02 -0.19914257995E+02 -0.88270977970E+02  0.97398383850E+02  0.00000000000E+00 0.  1.
        -11    1    3    3    0    0  0.68993757237E+02  0.23218431676E+02  0.27613077644E+03  0.28556512358E+03  0.00000000000E+00 0.  1.
         11    1    3    3    0    0  0.66160288077E+01  0.27374485481E+02  0.13017796795E+02  0.31025752625E+02  0.00000000000E+00 0. -1.
         21    1    1    2  502  501 -0.77145237901E+02 -0.26103284772E+02 -0.20610560379E+03  0.22161292634E+03  0.00000000000E+00 0. -1.
<scales pt_clust_5="13000.00000" pt_clust_6="13000.00000" pt_clust_7="13000.00000" pt_clust_8="13000.00000" pt_clust_9="81.44181"></scales>
<clustering>
<clus scale="   80.769">  5  6 -1 -1</clus>
<clus scale="   81.442">  2  9  1 -1</clus>
<clus scale="   91.359">  7  8 -1 -1</clus>
<clus scale="  115.915">  2  5  1 -1</clus>
<clus scale="   81.442">  2  5  1 -1</clus>
</clustering>
</event>
<event>
 9    1  0.2374319E-005  0.1105884E+03  0.7546771E-02  0.1264601E+00
         -2   -1    0    0    0  501 -0.00000000000E+00  0.00000000000E+00  0.22878934827E+03  0.22878934827E+03  0.00000000000E+00 0.  1.
          1   -1    0    0  502    0  0.00000000000E+00 -0.00000000000E+00 -0.23867646251E+03  0.23867646251E+03  0.00000000000E+00 0. -1.
        -24    2    1    2    0    0  0.54904918000E+02 -0.15301189769E+02  0.19539565896E+03  0.21945594710E+03  0.82053474929E+02 0.  0.
         23    2    1    2    0    0 -0.64520390912E+02 -0.65527599852E+01 -0.16083881643E+03  0.19755872166E+03  0.94628241682E+02 0.  0.
         13    1    3    3    0    0  0.69650401745E+02 -0.32615149900E+02  0.15713380380E+03  0.17494558801E+03  0.00000000000E+00 0. -1.
        -14    1    3    3    0    0 -0.14745483745E+02  0.17313960132E+02  0.38261855158E+02  0.44510359092E+02  0.00000000000E+00 0.  1.
        -11    1    4    4    0    0 -0.52912107731E+02  0.39406685833E+02 -0.78421860950E+02  0.10248202919E+03  0.00000000000E+00 0.  1.
         11    1    4    4    0    0 -0.11608283182E+02 -0.45959445818E+02 -0.82416955483E+02  0.95076692462E+02  0.00000000000E+00 0. -1.
         21    1    1    2  502  501  0.96154729125E+01  0.21853949754E+02 -0.44443956762E+02  0.50451142028E+02  0.00000000000E+00 0. -1.
<scales pt_clust_5="13000.00000" pt_clust_6="13000.00000" pt_clust_7="13000.00000" pt_clust_8="13000.00000" pt_clust_9="23.87577"></scales>
<clustering>
<clus scale="   23.876">  2  9  1 -1</clus>
<clus scale="   82.053">  5  6 -1 -1</clus>
<clus scale="   94.628">  7  8 -1 -1</clus>
<clus scale="  100.040">  1  5  2 -1</clus>
<clus scale="   23.876">  2  5  1 -1</clus>
</clustering>
</event>
<event>
 9    1  0.2374319E-005  0.1011245E+03  0.7546771E-02  0.1282784E+00
          1   -1    0    0  502    0  0.00000000000E+00  0.00000000000E+00  0.39172238505E+03  0.39172238505E+03  0.00000000000E+00 0. -1.
         -2   -1    0    0    0  501 -0.00000000000E+00 -0.00000000000E+00 -0.69634970450E+02  0.69634970450E+02  0.00000000000E+00 0.  1.
         23    2    1    2    0    0  0.49624139224E+02  0.80147454941E+01 -0.34060767975E+01  0.99160523570E+02  0.85407357625E+02 0.  0.
        -24    2    1    2    0    0 -0.69072166982E+02  0.19317629748E+02  0.14244445825E+03  0.17609945673E+03  0.74675698214E+02 0.  0.
         11    1    4    4    0    0 -0.74331340702E+02  0.38054760544E+02  0.12230000294E+03  0.14808985019E+03  0.00000000000E+00 0. -1.
        -12    1    4    4    0    0  0.52591737201E+01 -0.18737130796E+02  0.20144455304E+02  0.28009606533E+02  0.00000000000E+00 0.  1.
        -13    1    3    3    0    0 -0.16018143020E+02  0.18118389247E+02 -0.19216822041E+02  0.30889208214E+02  0.00000000000E+00 0. -1.
         13    1    3    3    0    0  0.65642282244E+02 -0.10103643753E+02  0.15810745244E+02  0.68271315356E+02  0.00000000000E+00 0.  1.
         21    1    1    2  502  501  0.19448027758E+02 -0.27332375242E+02  0.18304903315E+03  0.18609737520E+03  0.00000000000E+00 0.  1.
<scales pt_clust_5="13000.00000" pt_clust_6="13000.00000" pt_clust_7="13000.00000" pt_clust_8="13000.00000" pt_clust_9="33.54526"></scales>
<clustering>
<clus scale="   33.545">  1  9  2 -1</clus>
<clus scale="   74.676">  5  6 -1 -1</clus>
<clus scale="   85.407">  7  8 -1 -1</clus>
<clus scale="   92.240">  1  5  2 -1</clus>
<clus scale="   33.545">  1  5  2 -1</clus>
</clustering>
</event>
<event>
 9    1  0.2374319E-005  0.9737321E+02  0.7546771E-02  0.1291594E+00
         -2   -1    0    0    0  501 -0.00000000000E+00  0.00000000000E+00  0.39883928355E+03  0.39883928355E+03  0.00000000000E+00 0.  1.
          1   -1    0    0  502    0  0.00000000000E+00 -0.00000000000E+00 -0.29931475364E+02  0.29931475364E+02  0.00000000000E+00 0. -1.
        -24    2    1    2    0    0  0.36969837563E+02  0.10670724575E+02  0.20620099141E+03  0.22530381985E+03  0.82233382094E+02 0.  0.
         23    2    1    2    0    0 -0.13325318230E+02 -0.14680961351E+02  0.14671526273E+03  0.17464203500E+03  0.92635723868E+02 0.  0.
         11    1    3    3    0    0  0.45912752192E+02 -0.14526126495E+02  0.61281183166E+02  0.77938261303E+02  0.00000000000E+00 0. -1.
        -12    1    3    3    0    0 -0.89429146286E+01  0.25196851071E+02  0.14491980824E+03  0.14736555855E+03  0.00000000000E+00 0.  1.
        -11    1    4    4    0    0  0.30791056481E+02 -0.30894917529E+02  0.96287479340E+02  0.10570649822E+03  0.00000000000E+00 0. -1.
         11    1    4    4    0    0 -0.44116374711E+02  0.16213956178E+02  0.50427783393E+02  0.68935536776E+02  0.00000000000E+00 0.  1.
         21    1    1    2  502  501 -0.23644519333E+02  0.40102367757E+01  0.15991554042E+02  0.28824904062E+02  0.00000000000E+00 0.  1.
<scales pt_clust_5="13000.00000" pt_clust_6="13000.00000" pt_clust_7="13000.00000" pt_clust_8="13000.00000" pt_clust_9="23.98219"></scales>
<clustering>
<clus scale="   23.982">  2  9  1 -1</clus>
<clus scale="   82.233">  5  6 -1 -1</clus>
<clus scale="   87.536">  1  5  2 -1</clus>
<clus scale="   92.636">  7  8 -1 -1</clus>
<clus scale="   23.982">  2  5  1 -1</clus>
</clustering>
</event>
<event>
 9    1  0.2374319E-005  0.9659076E+02  0.7546771E-02  0.1293715E+00
          3   -1    0    0  502    0  0.00000000000E+00  0.00000000000E+00  0.16027919177E+03  0.16027919177E+03  0.00000000000E+00 0. -1.
         -4   -1    0    0    0  501 -0.00000000000E+00 -0.00000000000E+00 -0.11892773188E+03  0.11892773188E+03  0.00000000000E+00 0.  1.
        -24    2    1    2    0    0  0.36780236403E+02 -0.85047752569E+01 -0.61939241588E+02  0.10885228568E+03  0.81161773367E+02 0.  0.
         23    2    1    2    0    0  0.58013076946E-01 -0.90889649081E+01  0.57339465375E+02  0.10888828606E+03  0.92120746326E+02 0.  0.
         13    1    3    3    0    0  0.28998251463E+02 -0.22953917339E+02  0.72979022298E+01  0.37696687999E+02  0.00000000000E+00 0. -1.
        -14    1    3    3    0    0  0.77819849399E+01  0.14449142082E+02 -0.69237143818E+02  0.71155597676E+02  0.00000000000E+00 0.  1.
        -13    1    4    4    0    0 -0.23286764493E+01 -0.50441168480E+02  0.37880366287E+02  0.63124134542E+02  0.00000000000E+00 0. -1.
         13    1    4    4    0    0  0.23866895263E+01  0.41352203572E+02  0.19459099088E+02  0.45764151521E+02  0.00000000000E+00 0.  1.
         21    1    1    2  502  501 -0.36838249480E+02  0.17593740165E+02  0.45951236108E+02  0.61466351914E+02  0.00000000000E+00 0.  1.
<scales pt_clust_5="13000.00000" pt_clust_6="13000.00000" pt_clust_7="13000.00000" pt_clust_8="13000.00000" pt_clust_9="40.82397"></scales>
<clustering>
<clus scale="   40.824">  1  9  2 -1</clus>
<clus scale="   81.162">  5  6 -1 -1</clus>
<clus scale="   86.202">  2  5  1 -1</clus>
<clus scale="   92.121">  7  8 -1 -1</clus>
<clus scale="   40.824">  1  5  2 -1</clus>
</clustering>
</event>
<event>
 9    1  0.2374319E-005  0.1043029E+03  0.7546771E-02  0.1278547E+00
          1   -1    0    0  502    0  0.00000000000E+00  0.00000000000E+00  0.54831261963E+03  0.54831261963E+03  0.00000000000E+00 0. -1.
         -2   -1    0    0    0  501 -0.00000000000E+00 -0.00000000000E+00 -0.93173033812E+02  0.93173033812E+02  0.00000000000E+00 0.  1.
        -24    2    1    2    0    0 -0.45217595817E+02  0.52920405371E+01 -0.55120566004E+02  0.10818081460E+03  0.81192211363E+02 0.  0.
         23    2    1    2    0    0 -0.11872632096E+01  0.21489080407E+02  0.27407187986E+03  0.29111578213E+03  0.95759141102E+02 0.  0.
         11    1    3    3    0    0 -0.35478156473E+02 -0.31713176898E+02 -0.93047208053E+01  0.48487142677E+02  0.00000000000E+00 0. -1.
        -12    1    3    3    0    0 -0.97394393437E+01  0.37005217435E+02 -0.45815845198E+02  0.59693671921E+02  0.00000000000E+00 0.  1.
        -11    1    4    4    0    0 -0.44396046017E+02  0.23856710972E+02  0.10319907901E+03  0.11484860238E+03  0.00000000000E+00 0.  1.
         11    1    4    4    0    0  0.43208782808E+02 -0.23676305655E+01  0.17087280085E+03  0.17626717975E+03  0.00000000000E+00 0. -1.
         21    1    1    2  502  501  0.46404859026E+02 -0.26781120944E+02  0.23618827196E+03  0.24218905671E+03  0.00000000000E+00 0. -1.
<scales pt_clust_5="13000.00000" pt_clust_6="13000.00000" pt_clust_7="13000.00000" pt_clust_8="13000.00000" pt_clust_9="53.57835"></scales>
<clustering>
<clus scale="   53.578">  1  9  2 -1</clus>
<clus scale="   81.192">  5  6 -1 -1</clus>
<clus scale="   91.112">  2  5  1 -1</clus>
<clus scale="   95.759">  7  8 -1 -1</clus>
<clus scale="   53.578">  1  5  2 -1</clus>
</clustering>
</event>
<event>
 9    1  0.2374319E-005  0.1417554E+03  0.7546771E-02  0.1214023E+00
          3   -1    0    0  502    0  0.00000000000E+00  0.00000000000E+00  0.13123962236E+03  0.13123962236E+03  0.00000000000E+00 0. -1.
         -4   -1    0    0    0  501 -0.00000000000E+00 -0.00000000000E+00 -0.44491357969E+03  0.44491357969E+03  0.00000000000E+00 0.  1.
         23    2    1    2    0    0  0.17266420626E+02 -0.11050842321E+03 -0.37880111390E+03  0.40599836945E+03  0.93990165575E+02 0.  0.
        -24    2    1    2    0    0  0.11478906867E+01  0.78071425794E+02  0.23438295801E+02  0.11421551928E+03  0.79996037128E+02 0.  0.
         13    1    4    4    0    0  0.11542271227E+02  0.46347613465E+02  0.51764840610E+02  0.70433827259E+02  0.00000000000E+00 0. -1.
        -14    1    4    4    0    0 -0.10394380541E+02  0.31723812329E+02 -0.28326544809E+02  0.43781692022E+02  0.00000000000E+00 0.  1.
        -13    1    3    3    0    0  0.26591057382E+02  0.31030329658E+01 -0.36857240106E+02  0.45554026107E+02  0.00000000000E+00 0. -1.
         13    1    3    3    0    0 -0.93246367558E+01 -0.11361145617E+03 -0.34194387379E+03  0.36044434335E+03  0.00000000000E+00 0.  1.
         21    1    1    2  502  501 -0.18414311313E+02  0.32436997415E+02  0.41688860771E+02  0.55939313321E+02  0.00000000000E+00 0. -1.
<scales pt_clust_5="13000.00000" pt_clust_6="13000.00000" pt_clust_7="13000.00000" pt_clust_8="13000.00000" pt_clust_9="37.29941"></scales>
<clustering>
<clus scale="   37.299">  1  9  2 -1</clus>
<clus scale="   79.996">  5  6 -1 -1</clus>
<clus scale="   93.990">  7  8 -1 -1</clus>
<clus scale="  132.890">  1  5  2 -1</clus>
<clus scale="   37.299">  1  5  2 -1</clus>
</clustering>
</event>
<event>
 9    1  0.2374319E-005  0.3857129E+03  0.7546771E-02  0.1093083E+00
         -4   -1    0    0    0  501 -0.00000000000E+00  0.00000000000E+00  0.15400253258E+03  0.15400253258E+03  0.00000000000E+00 0.  1.
          3   -1    0    0  502    0  0.00000000000E+00 -0.00000000000E+00 -0.17719479375E+04  0.17719479375E+04  0.00000000000E+00 0. -1.
         23    2    1    2    0    0 -0.58607591254E+02  0.45731577944E+02 -0.34335643999E+01  0.11473904784E+03  0.87332884767E+02 0.  0.
        -24    2    1    2    0    0 -0.28020135941E+03 -0.23119758094E+03 -0.44651777118E+03  0.58100847585E+03  0.78915180919E+02 0.  0.
         13    1    4    4    0    0 -0.46741397269E+02 -0.81979286657E+02 -0.12380279866E+03  0.15566789847E+03  0.00000000000E+00 0. -1.
        -14    1    4    4    0    0 -0.23345996214E+03 -0.14921829428E+03 -0.32271497253E+03  0.42534057738E+03  0.00000000000E+00 0.  1.
        -13    1    3    3    0    0 -0.40217178588E+02  0.43263999349E+01  0.36397276697E+02  0.54414161217E+02  0.00000000000E+00 0.  1.
         13    1    3    3    0    0 -0.18390412666E+02  0.41405178009E+02 -0.39830841097E+02  0.60324886627E+02  0.00000000000E+00 0. -1.
         21    1    1    2  502  501  0.33880895066E+03  0.18546600299E+03 -0.11679940694E+04  0.12302029464E+04  0.00000000000E+00 0. -1.
<scales pt_clust_5="13000.00000" pt_clust_6="13000.00000" pt_clust_7="13000.00000" pt_clust_8="13000.00000" pt_clust_9="377.55373"></scales>
<clustering>
<clus scale="   78.915">  5  6 -1 -1</clus>
<clus scale="   87.333">  7  8 -1 -1</clus>
<clus scale="  114.688">  1  7  2 -1</clus>
<clus scale="  377.554">  2  9  1 -1</clus>
<clus scale="  377.554">  2  5  1 -1</clus>
</clustering>
</event>
<event>
 9    1  0.2374319E-005  0.9263884E+02  0.7546771E-02  0.1303008E+00
          1   -1    0    0  502    0  0.00000000000E+00  0.00000000000E+00  0.17960617882E+03  0.17960617882E+03  0.00000000000E+00 0. -1.
         -2   -1    0    0    0  501 -0.00000000000E+00 -0.00000000000E+00 -0.21114333590E+03  0.21114333590E+03  0.00000000000E+00 0.  1.
        -24    2    1    2    0    0 -0.32325640591E+02 -0.16936301150E+02 -0.15896169523E+03  0.18231208787E+03  0.81468346591E+02 0.  0.
         23    2    1    2    0    0  0.91265436100E+01  0.32479421863E+01  0.14803840712E+03  0.17451839287E+03  0.91910045917E+02 0.  0.
         11    1    3    3    0    0 -0.60254227201E+01  0.24855180932E+02 -0.10940405275E+03  0.11235360473E+03  0.00000000000E+00 0. -1.
        -12    1    3    3    0    0 -0.26300217871E+02 -0.41791482082E+02 -0.49557642483E+02  0.69958483139E+02  0.00000000000E+00 0.  1.
        -13    1    4    4    0    0  0.25216309344E+02 -0.26445922247E+02  0.19102945340E+02  0.41233136930E+02  0.00000000000E+00 0.  1.
         13    1    4    4    0    0 -0.16089765734E+02  0.29693864433E+02  0.12893546179E+03  0.13328525594E+03  0.00000000000E+00 0. -1.
         21    1    1    2  502  501  0.23199096981E+02  0.13688358964E+02 -0.20613868973E+02  0.33919033976E+02  0.00000000000E+00 0. -1.
<scales pt_clust_5="13000.00000" pt_clust_6="13000.00000" pt_clust_7="13000.00000" pt_clust_8="13000.00000" pt_clust_9="26.93639"></scales>
<clustering>
<clus scale="   26.936">  2  9  1 -1</clus>
<clus scale="   81.468">  5  6 -1 -1</clus>
<clus scale="   82.290">  2  5  1 -1</clus>
<clus scale="   91.910">  7  8 -1 -1</clus>
<clus scale="   92.639">  1  5  2 -1</clus>
</clustering>
</event>
<event>
 9    1  0.2374319E-005  0.1921431E+03  0.7546771E-02  0.1157733E+00
         -2   -1    0    0    0  501 -0.00000000000E+00  0.00000000000E+00  0.19820762601E+03  0.19820762601E+03  0.00000000000E+00 0.  1.
          1   -1    0    0  502    0  0.00000000000E+00 -0.00000000000E+00 -0.46741102512E+03  0.46741102512E+03  0.00000000000E+00 0. -1.
        -24    2    1    2    0    0  0.63876094106E+02  0.15614364127E+03  0.11540880248E+03  0.21939469355E+03  0.79711026601E+02 0.  0.
         23    2    1    2    0    0 -0.89275828177E+02 -0.14827591486E+03 -0.36107163396E+03  0.41071049627E+03  0.91402770611E+02 0.  0.
         11    1    3    3    0    0  0.27605258859E+02  0.48350504348E+02 -0.22917811283E+01  0.55723189501E+02  0.00000000000E+00 0. -1.
        -12    1    3    3    0    0  0.36270835247E+02  0.10779313693E+03  0.11770058361E+03  0.16367150405E+03  0.00000000000E+00 0.  1.
        -11    1    4    4    0    0 -0.81376812185E+02 -0.59424460259E+02 -0.14150332924E+03  0.17371426028E+03  0.00000000000E+00 0.  1.
         11    1    4    4    0    0 -0.78990159924E+01 -0.88851454600E+02 -0.21956830472E+03  0.23699623599E+03  0.00000000000E+00 0. -1.
         21    1    1    2  502  501  0.25399734071E+02 -0.78677264159E+01 -0.23540567629E+02  0.35513461309E+02  0.00000000000E+00 0.  1.
<scales pt_clust_5="13000.00000" pt_clust_6="13000.00000" pt_clust_7="13000.00000" pt_clust_8="13000.00000" pt_clust_9="26.59037"></scales>
<clustering>
<clus scale="   26.590">  2  9  1 -1</clus>
<clus scale="   79.711">  5  6 -1 -1</clus>
<clus scale="   91.403">  7  8 -1 -1</clus>
<clus scale="  186.865">  1  5  2 -1</clus>
<clus scale="   26.590">  2  5  1 -1</clus>
</clustering>
</event>
<event>
 9    1  0.2374319E-005  0.1019771E+03  0.7546771E-02  0.1283403E+00
          1   -1    0    0  502    0  0.00000000000E+00  0.00000000000E+00  0.80127527603E+03  0.80127527603E+03  0.00000000000E+00 0. -1.
         -2   -1    0    0    0  501 -0.00000000000E+00 -0.00000000000E+00 -0.40470112224E+02  0.40470112224E+02  0.00000000000E+00 0.  1.
         23    2    1    2    0    0 -0.42719897929E+02  0.13066442837E+02  0.40731776518E+02  0.10876320034E+03  0.90413685484E+02 0.  0.
        -24    2    1    2    0    0  0.56746124431E+02 -0.41844112268E+02  0.59463714371E+03  0.60352508888E+03  0.75353486013E+02 0.  0.
         11    1    4    4    0    0  0.65675696335E+02 -0.10884587875E+02  0.30984219671E+03  0.31691317140E+03  0.00000000000E+00 0. -1.
        -12    1    4    4    0    0 -0.89295719034E+01 -0.30959524393E+02  0.28479494700E+03  0.28661191748E+03  0.00000000000E+00 0.  1.
        -11    1    3    3    0    0  0.38180896752E+00 -0.32619540206E+02 -0.21805750398E+01  0.32694572773E+02  0.00000000000E+00 0. -1.
         11    1    3    3    0    0 -0.43101706897E+02  0.45685983043E+02  0.42912351558E+02  0.76068627569E+02  0.00000000000E+00 0.  1.
         21    1    1    2  502  501 -0.14026226502E+02  0.28777669431E+02  0.12543624357E+03  0.12945709903E+03  0.00000000000E+00 0.  1.
<scales pt_clust_5="13000.00000" pt_clust_6="13000.00000" pt_clust_7="13000.00000" pt_clust_8="13000.00000" pt_clust_9="32.01389"></scales>
<clustering>
<clus scale="   32.014">  1  9  2 -1</clus>
<clus scale="   75.353">  5  6 -1 -1</clus>
<clus scale="   88.898">  1  5  2 -1</clus>
<clus scale="   90.414">  7  8 -1 -1</clus>
<clus scale="   32.014">  1  5  2 -1</clus>
</clustering>
</event>
<event>
 9    1  0.2374319E-005  0.1007248E+03  0.7546771E-02  0.1281097E+00
          3   -1    0    0  502    0  0.00000000000E+00  0.00000000000E+00  0.15677364718E+03  0.15677364718E+03  0.00000000000E+00 0. -1.
         -4   -1    0    0    0  501 -0.00000000000E+00 -0.00000000000E+00 -0.14620764250E+03  0.14620764250E+03  0.00000000000E+00 0.  1.
        -24    2    1    2    0    0 -0.24000080203E+02 -0.40677358021E+01 -0.83451102552E+02  0.12188472370E+03  0.85435642623E+02 0.  0.
         23    2    1    2    0    0  0.36289941616E+02  0.33660391876E+02  0.10514307937E+03  0.14717675992E+03  0.90310296624E+02 0.  0.
         11    1    3    3    0    0  0.61620073234E+01  0.33567397168E+02 -0.58139263861E+02  0.67415980963E+02  0.00000000000E+00 0. -1.
        -12    1    3    3    0    0 -0.30162087527E+02 -0.37635132970E+02 -0.25311838691E+02  0.54468742739E+02  0.00000000000E+00 0.  1.
        -11    1    4    4    0    0  0.29059442194E+02 -0.27866409378E+02  0.50382906918E+02  0.64493606364E+02  0.00000000000E+00 0.  1.
         11    1    4    4    0    0  0.72304994213E+01  0.61526801255E+02  0.54760172455E+02  0.82683153555E+02  0.00000000000E+00 0. -1.
         21    1    1    2  502  501 -0.12289861412E+02 -0.29592656074E+02 -0.11125972147E+02  0.33919806062E+02  0.00000000000E+00 0.  1.
<scales pt_clust_5="13000.00000" pt_clust_6="13000.00000" pt_clust_7="13000.00000" pt_clust_8="13000.00000" pt_clust_9="32.04319"></scales>
<clustering>
<clus scale="   32.043">  2  9  1 -1</clus>
<clus scale="   85.436">  5  6 -1 -1</clus>
<clus scale="   90.310">  7  8 -1 -1</clus>
<clus scale="   96.378">  2  5  1 -1</clus>
<clus scale="  100.725">  1  5  2 -1</clus>
</clustering>
</event>
<event>
 9    1  0.2374319E-005  0.9794706E+02  0.7546771E-02  0.1292785E+00
          1   -1    0    0  502    0  0.00000000000E+00  0.00000000000E+00  0.49723891608E+02  0.49723891608E+02  0.00000000000E+00 0. -1.
         -2   -1    0    0    0  501 -0.00000000000E+00 -0.00000000000E+00 -0.33199577879E+03  0.33199577879E+03  0.00000000000E+00 0.  1.
        -24    2    1    2    0    0 -0.16701058726E+02 -0.15851555242E+02 -0.22064502395E+03  0.23584791204E+03  0.80061313103E+02 0.  0.
         23    2    1    2    0    0  0.41596086626E+02  0.62366921173E+01 -0.58958195294E+02  0.11905143406E+03  0.94488329479E+02 0.  0.
         13    1    3    3    0    0 -0.60360191544E+01  0.20814310966E+02 -0.14219686016E+02  0.25920427053E+02  0.00000000000E+00 0. -1.
        -14    1    3    3    0    0 -0.10665039571E+02 -0.36665866208E+02 -0.20642533793E+03  0.20992748499E+03  0.00000000000E+00 0.  1.
        -11    1    4    4    0    0  0.55875945743E+02 -0.18629264844E+02 -0.67060629305E+02  0.89254124969E+02  0.00000000000E+00 0. -1.
         11    1    4    4    0    0 -0.14279859117E+02  0.24865956961E+02  0.81024340114E+01  0.29797309088E+02  0.00000000000E+00 0.  1.
         21    1    1    2  502  501 -0.24895027900E+02  0.96148631244E+01 -0.26686679450E+01  0.26820324302E+02  0.00000000000E+00 0. -1.
<scales pt_clust_5="13000.00000" pt_clust_6="13000.00000" pt_clust_7="13000.00000" pt_clust_8="13000.00000" pt_clust_9="26.68723"></scales>
<clustering>
<clus scale="   26.687">  1  9  2 -1</clus>
<clus scale="   80.061">  5  6 -1 -1</clus>
<clus scale="   84.115">  2  5  1 -1</clus>
<clus scale="   94.488">  7  8 -1 -1</clus>
<clus scale="   26.687">  1  5  2 -1</clus>
</clustering>
</event>
<event>
 9    1  0.2374319E-005  0.1212188E+03  0.7546771E-02  0.1245497E+00
         -2   -1    0    0    0  501 -0.00000000000E+00  0.00000000000E+00  0.39859424908E+02  0.39859424908E+02  0.00000000000E+00 0.  1.
          1   -1    0    0  502    0  0.00000000000E+00 -0.00000000000E+00 -0.49663972247E+03  0.49663972247E+03  0.00000000000E+00 0. -1.
        -24    2    1    2    0    0 -0.83147245348E+02 -0.23822070157E+02 -0.11865228392E+03  0.16673997572E+03  0.79012021806E+02 0.  0.
         23    2    1    2    0    0  0.50899764891E+02  0.40348484819E+02 -0.25939747384E+03  0.28309014446E+03  0.92920364618E+02 0.  0.
         11    1    3    3    0    0 -0.26270576053E+02  0.20294738880E+02 -0.76336319247E+02  0.83242136136E+02  0.00000000000E+00 0. -1.
        -12    1    3    3    0    0 -0.56876669295E+02 -0.44116809036E+02 -0.42315964669E+02  0.83497839586E+02  0.00000000000E+00 0.  1.
        -11    1    4    4    0    0  0.23610608469E+02  0.61727888552E+02 -0.22399387970E+03  0.23354025606E+03  0.00000000000E+00 0. -1.
         11    1    4    4    0    0  0.27289156422E+02 -0.21379403733E+02 -0.35403594144E+02  0.49549888401E+02  0.00000000000E+00 0.  1.
         21    1    1    2  502  501  0.32247480457E+02 -0.16526414662E+02 -0.78730539808E+02  0.86669027200E+02  0.00000000000E+00 0. -1.
<scales pt_clust_5="13000.00000" pt_clust_6="13000.00000" pt_clust_7="13000.00000" pt_clust_8="13000.00000" pt_clust_9="36.23565"></scales>
<clustering>
<clus scale="   36.236">  2  9  1 -1</clus>
<clus scale="   79.012">  5  6 -1 -1</clus>
<clus scale="   92.920">  7  8 -1 -1</clus>
<clus scale="  110.918">  1  5  2 -1</clus>
<clus scale="   36.236">  2  5  1 -1</clus>
</clustering>
</event>
<event>
 9    1  0.2374319E-005  0.1335011E+03  0.7546771E-02  0.1243047E+00
          3   -1    0    0  502    0  0.00000000000E+00  0.00000000000E+00  0.11467153701E+03  0.11467153701E+03  0.00000000000E+00 0. -1.
         -4   -1    0    0    0  501 -0.00000000000E+00 -0.00000000000E+00 -0.91319893185E+03  0.91319893185E+03  0.00000000000E+00 0.  1.
        -24    2    1    2    0    0 -0.35358198888E+02  0.19644020694E+01 -0.59311478982E+03  0.59949620528E+03  0.79727568227E+02 0.  0.
         23    2    1    2    0    0 -0.34791635843E+02  0.65799613097E+02 -0.28080083067E+03  0.30510080484E+03  0.93259571101E+02 0.  0.
         11    1    3    3    0    0  0.37084540307E+01 -0.24632996859E+02 -0.70931733989E+02  0.75178773947E+02  0.00000000000E+00 0. -1.
        -12    1    3    3    0    0 -0.39066652919E+02  0.26597398928E+02 -0.52218305583E+03  0.52431743133E+03  0.00000000000E+00 0.  1.
        -13    1    4    4    0    0 -0.63105299416E+02  0.41096544840E+02 -0.13550831738E+03  0.15502809065E+03  0.00000000000E+00 0.  1.
         13    1    4    4    0    0  0.28313663573E+02  0.24703068258E+02 -0.14529251329E+03  0.15007271419E+03  0.00000000000E+00 0. -1.
         21    1    1    2  502  501  0.70149834732E+02 -0.67764015167E+02  0.75388225641E+02  0.12327345874E+03  0.00000000000E+00 0. -1.
<scales pt_clust_5="13000.00000" pt_clust_6="13000.00000" pt_clust_7="13000.00000" pt_clust_8="13000.00000" pt_clust_9="95.52591"></scales>
<clustering>
<clus scale="   79.728">  5  6 -1 -1</clus>
<clus scale="   87.238">  2  5  1 -1</clus>
<clus scale="   93.260">  7  8 -1 -1</clus>
<clus scale="   95.526">  1  9  2 -1</clus>
<clus scale="   95.526">  1  5  2 -1</clus>
</clustering>
</event>
<event>
 9    1  0.2374319E-005  0.1417550E+03  0.7546771E-02  0.1213912E+00
          1   -1    0    0  502    0  0.00000000000E+00  0.00000000000E+00  0.35995510588E+03  0.35995510588E+03  0.00000000000E+00 0. -1.
         -2   -1    0    0    0  501 -0.00000000000E+00 -0.00000000000E+00 -0.19103456444E+03  0.19103456444E+03  0.00000000000E+00 0.  1.
         23    2    1    2    0    0  0.55452786832E+02  0.92079840403E+02 -0.13064196831E+03  0.19340999918E+03  0.93735773969E+02 0.  0.
        -24    2    1    2    0    0 -0.24854514306E+02 -0.10370989013E+03  0.29595030965E+03  0.32464700760E+03  0.80222226171E+02 0.  0.
         13    1    4    4    0    0  0.68519103576E+01 -0.10126219919E+03  0.23185863620E+03  0.25309960260E+03  0.00000000000E+00 0. -1.
        -14    1    4    4    0    0 -0.31706424663E+02 -0.24476909400E+01  0.64091673452E+02  0.71547404997E+02  0.00000000000E+00 0.  1.
        -13    1    3    3    0    0  0.14889977068E+02  0.62276629662E+02 -0.12786133876E+03  0.14299864324E+03  0.00000000000E+00 0.  1.
         13    1    3    3    0    0  0.40562809764E+02  0.29803210741E+02 -0.27806295485E+01  0.50411355934E+02  0.00000000000E+00 0. -1.
         21    1    1    2  502  501 -0.30598272527E+02  0.11630049723E+02  0.36122001012E+01  0.32932663538E+02  0.00000000000E+00 0. -1.
<scales pt_clust_5="13000.00000" pt_clust_6="13000.00000" pt_clust_7="13000.00000" pt_clust_8="13000.00000" pt_clust_9="32.73396"></scales>
<clustering>
<clus scale="   32.734">  2  9  1 -1</clus>
<clus scale="   80.222">  5  6 -1 -1</clus>
<clus scale="   93.736">  7  8 -1 -1</clus>
<clus scale="  133.205">  1  5  2 -1</clus>
<clus scale="  133.205">  1  5  2 -1</clus>
</clustering>
</event>
<event>
 9    1  0.2374319E-005  0.9465586E+02  0.7546771E-02  0.1300486E+00
         -2   -1    0    0    0  501 -0.00000000000E+00  0.00000000000E+00  0.24881286759E+03  0.24881286759E+03  0.00000000000E+00 0.  1.
          1   -1    0    0  502    0  0.00000000000E+00 -0.00000000000E+00 -0.88503548269E+02  0.88503548269E+02  0.00000000000E+00 0. -1.
         23    2    1    2    0    0  0.16398393781E+02  0.56505580676E+01  0.16614745201E+03  0.19067033541E+03  0.91920426843E+02 0.  0.
        -24    2    1    2    0    0 -0.12180751057E+02 -0.50576293009E+02  0.18732066827E+02  0.95267048992E+02  0.77579560358E+02 0.  0.
         13    1    4    4    0    0 -0.26954760426E+02 -0.22512223798E+02 -0.23644174439E+02  0.42336819848E+02  0.00000000000E+00 0. -1.
        -14    1    4    4    0    0  0.14774009369E+02 -0.28064069211E+02  0.42376241266E+02  0.52930229145E+02  0.00000000000E+00 0.  1.
        -13    1    3    3    0    0  0.43299463226E+02 -0.23070111358E+02  0.12219102776E+03  0.13167277934E+03  0.00000000000E+00 0.  1.
         13    1    3    3    0    0 -0.26901069446E+02  0.28720669425E+02  0.43956424249E+02  0.58997556070E+02  0.00000000000E+00 0. -1.
         21    1    1    2  502  501 -0.42176427237E+01  0.44925734941E+02 -0.24570199508E+02  0.51379031462E+02  0.00000000000E+00 0. -1.
<scales pt_clust_5="13000.00000" pt_clust_6="13000.00000" pt_clust_7="13000.00000" pt_clust_8="13000.00000" pt_clust_9="45.12328"></scales>
<clustering>
<clus scale="   45.123">  2  9  1 -1</clus>
<clus scale="   77.580">  5  6 -1 -1</clus>
<clus scale="   80.802">  2  5  1 -1</clus>
<clus scale="   91.920">  7  8 -1 -1</clus>
<clus scale="   45.123">  2  5  1 -1</clus>
</clustering>
</event>
<event>
 9    1  0.2374319E-005  0.9017081E+02  0.7546771E-02  0.1307961E+00
         -2   -1    0    0    0  501 -0.00000000000E+00  0.00000000000E+00  0.38582395393E+03  0.38582395393E+03  0.00000000000E+00 0.  1.
          1   -1    0    0  502    0  0.00000000000E+00 -0.00000000000E+00 -0.14487041128E+03  0.14487041128E+03  0.00000000000E+00 0. -1.
        -24    2    1    2    0    0  0.22374269782E+00  0.13626404047E+02  0.34657644923E+03  0.35609052063E+03  0.80619444140E+02 0.  0.
         23    2    1    2    0    0  0.48709346651E+01  0.26436445225E+02 -0.94278016183E+02  0.13265513581E+03  0.89366823158E+02 0.  0.
         13    1    3    3    0    0  0.36347200084E+02  0.14594672513E+02  0.10989549066E+03  0.11666680027E+03  0.00000000000E+00 0. -1.
        -14    1    3    3    0    0 -0.36123457386E+02 -0.96826846631E+00  0.23668095857E+03  0.23942372035E+03  0.00000000000E+00 0.  1.
        -11    1    4    4    0    0  0.34831422701E+01  0.59785388893E+02 -0.58285639538E+02  0.83568180437E+02  0.00000000000E+00 0.  1.
         11    1    4    4    0    0  0.13877923950E+01 -0.33348943668E+02 -0.35992376645E+02  0.49086955375E+02  0.00000000000E+00 0. -1.
         21    1    1    2  502  501 -0.50946773629E+01 -0.40062849272E+02 -0.11344890393E+02  0.41948708767E+02  0.00000000000E+00 0.  1.
<scales pt_clust_5="13000.00000" pt_clust_6="13000.00000" pt_clust_7="13000.00000" pt_clust_8="13000.00000" pt_clust_9="40.38549"></scales>
<clustering>
<clus scale="   40.385">  2  9  1 -1</clus>
<clus scale="   80.619">  5  6 -1 -1</clus>
<clus scale="   81.510">  1  5  2 -1</clus>
<clus scale="   89.367">  7  8 -1 -1</clus>
<clus scale="   40.385">  2  5  1 -1</clus>
</clustering>
</event>
<event>
 9    1  0.2374319E-005  0.9456691E+02  0.7546771E-02  0.1298480E+00
          1   -1    0    0  502    0  0.00000000000E+00  0.00000000000E+00  0.39568621422E+03  0.39568621422E+03  0.00000000000E+00 0. -1.
         -2   -1    0    0    0  501 -0.00000000000E+00 -0.00000000000E+00 -0.24953959375E+03  0.24953959375E+03  0.00000000000E+00 0.  1.
        -24    2    1    2    0    0 -0.58776866806E+02 -0.16178595212E+02 -0.16179044155E+02  0.10233775594E+03  0.80590246352E+02 0.  0.
         23    2    1    2    0    0  0.40749855066E+01  0.22708250130E+02  0.34209637141E+03  0.35486560860E+03  0.91473508215E+02 0.  0.
         11    1    3    3    0    0 -0.57971505550E+02 -0.30959807477E+02 -0.38040408869E+02  0.75936011494E+02  0.00000000000E+00 0. -1.
        -12    1    3    3    0    0 -0.80536125584E+00  0.14781212265E+02  0.21861364714E+02  0.26401744448E+02  0.00000000000E+00 0.  1.
        -13    1    4    4    0    0 -0.35556097869E+02  0.35803787723E+02  0.22391904497E+03  0.22953406286E+03  0.00000000000E+00 0. -1.
         13    1    4    4    0    0  0.39631083375E+02 -0.13095537593E+02  0.11817732644E+03  0.12533154575E+03  0.00000000000E+00 0.  1.
         21    1    1    2  502  501  0.54701881299E+02 -0.65296549177E+01 -0.17977070678E+03  0.18802244342E+03  0.00000000000E+00 0.  1.
<scales pt_clust_5="13000.00000" pt_clust_6="13000.00000" pt_clust_7="13000.00000" pt_clust_8="13000.00000" pt_clust_9="55.09022"></scales>
<clustering>
<clus scale="   55.090">  2  9  1 -1</clus>
<clus scale="   80.590">  5  6 -1 -1</clus>
<clus scale="   84.085">  2  5  1 -1</clus>
<clus scale="   91.474">  7  8 -1 -1</clus>
<clus scale="   94.567">  1  5  2 -1</clus>
</clustering>
</event>
<event>
 9    1  0.2374319E-005  0.1176255E+03  0.7546771E-02  0.1250859E+00
          1   -1    0    0  502    0  0.00000000000E+00  0.00000000000E+00  0.16613925606E+03  0.16613925606E+03  0.00000000000E+00 0. -1.
         -2   -1    0    0    0  501 -0.00000000000E+00 -0.00000000000E+00 -0.23346660805E+03  0.23346660805E+03  0.00000000000E+00 0.  1.
         23    2    1    2    0    0 -0.30591388102E+02 -0.69075733067E+02 -0.18986309467E+03  0.22379700423E+03  0.91267817222E+02 0.  0.
        -24    2    1    2    0    0  0.43046300982E+02  0.51302855232E+02  0.98353514138E+02  0.14331608808E+03  0.79881915208E+02 0.  0.
         11    1    4    4    0    0  0.49647421144E+02 -0.19741728594E+01  0.56535566268E+02  0.75266420387E+02  0.00000000000E+00 0. -1.
        -12    1    4    4    0    0 -0.66011201616E+01  0.53277028091E+02  0.41817947871E+02  0.68049667697E+02  0.00000000000E+00 0.  1.
        -11    1    3    3    0    0  0.26480621219E+01 -0.49545746422E+02 -0.17594847316E+03  0.18281044398E+03  0.00000000000E+00 0.  1.
         11    1    3    3    0    0 -0.33239450224E+02 -0.19529986645E+02 -0.13914621515E+02  0.40986560254E+02  0.00000000000E+00 0. -1.
         21    1    1    2  502  501 -0.12454912880E+02  0.17772877835E+02  0.24182228547E+02  0.32492771795E+02  0.00000000000E+00 0. -1.
<scales pt_clust_5="13000.00000" pt_clust_6="13000.00000" pt_clust_7="13000.00000" pt_clust_8="13000.00000" pt_clust_9="21.70254"></scales>
<clustering>
<clus scale="   21.703">  1  9  2 -1</clus>
<clus scale="   79.882">  5  6 -1 -1</clus>
<clus scale="   91.268">  7  8 -1 -1</clus>
<clus scale="  109.028">  1  5  2 -1</clus>
<clus scale="   21.703">  1  5  2 -1</clus>
</clustering>
</event>
<event>
 9    1  0.2374319E-005  0.1042173E+03  0.7546771E-02  0.1278395E+00
         -2   -1    0    0    0  501 -0.00000000000E+00  0.00000000000E+00  0.27759104460E+02  0.27759104460E+02  0.00000000000E+00 0.  1.
          1   -1    0    0  502    0  0.00000000000E+00 -0.00000000000E+00 -0.83321553656E+03  0.83321553656E+03  0.00000000000E+00 0. -1.
        -24    2    1    2    0    0 -0.32667906987E+02  0.36000330638E+02 -0.10677197553E+03  0.13951555597E+03  0.75505759032E+02 0.  0.
         23    2    1    2    0    0  0.81570918273E+02 -0.51057586389E+01 -0.48656659699E+03  0.50159556956E+03  0.90394571794E+02 0.  0.
         13    1    3    3    0    0  0.78911780018E+01  0.26564059258E+02 -0.90767817112E+02  0.94903722571E+02  0.00000000000E+00 0. -1.
        -14    1    3    3    0    0 -0.40559084989E+02  0.94362713799E+01 -0.16004158413E+02  0.44611833399E+02  0.00000000000E+00 0.  1.
        -11    1    4    4    0    0  0.60023162744E+02 -0.35965057532E+02 -0.41376741058E+03  0.41964239000E+03  0.00000000000E+00 0. -1.
         11    1    4    4    0    0  0.21547755529E+02  0.30859298893E+02 -0.72799186412E+02  0.81953179553E+02  0.00000000000E+00 0.  1.
         21    1    1    2  502  501 -0.48903011286E+02 -0.30894571999E+02 -0.21211785958E+03  0.21986351549E+03  0.00000000000E+00 0. -1.
<scales pt_clust_5="13000.00000" pt_clust_6="13000.00000" pt_clust_7="13000.00000" pt_clust_8="13000.00000" pt_clust_9="57.84444"></scales>
<clustering>
<clus scale="   57.844">  2  9  1 -1</clus>
<clus scale="   75.506">  5  6 -1 -1</clus>
<clus scale="   90.395">  7  8 -1 -1</clus>
<clus scale="   91.603">  1  5  2 -1</clus>
<clus scale="   57.844">  2  5  1 -1</clus>
</clustering>
</event>
<event>
 9    1  0.2374319E-005  0.1263114E+03  0.7546771E-02  0.1238908E+00
         -2   -1    0    0    0  501 -0.00000000000E+00  0.00000000000E+00  0.53357748172E+03  0.53357748172E+03  0.00000000000E+00 0.  1.
          1   -1    0    0  502    0  0.00000000000E+00 -0.00000000000E+00 -0.61736499579E+03  0.61736499579E+03  0.00000000000E+00 0. -1.
        -24    2    1    2    0    0  0.56838442275E+01  0.79750017014E+02  0.49900553454E+03  0.51161935960E+03  0.79721228755E+02 0.  0.
         23    2    1    2    0    0 -0.83840320998E+02 -0.33120570251E+02 -0.16838711763E+03  0.21504135328E+03  0.98804810810E+02 0.  0.
         11    1    3    3    0    0 -0.13870613245E+02  0.26899437627E+02  0.45626995717E+02  0.54752135982E+02  0.00000000000E+00 0. -1.
        -12    1    3    3    0    0  0.19554457472E+02  0.52850579387E+02  0.45337853882E+03  0.45686722361E+03  0.00000000000E+00 0.  1.
        -13    1    4    4    0    0  0.12864470022E+02  0.18649964581E+02 -0.18193674121E+02  0.29057280427E+02  0.00000000000E+00 0.  1.
         13    1    4    4    0    0 -0.96704791020E+02 -0.51770534831E+02 -0.15019344351E+03  0.18598407286E+03  0.00000000000E+00 0. -1.
         21    1    1    2  502  501  0.78156476771E+02 -0.46629446764E+02 -0.41440593098E+03  0.42428176463E+03  0.00000000000E+00 0. -1.
<scales pt_clust_5="13000.00000" pt_clust_6="13000.00000" pt_clust_7="13000.00000" pt_clust_8="13000.00000" pt_clust_9="91.00956"></scales>
<clustering>
<clus scale="   79.721">  5  6 -1 -1</clus>
<clus scale="   91.010">  2  9  1 -1</clus>
<clus scale="   98.805">  7  8 -1 -1</clus>
<clus scale="  112.016">  1  5  2 -1</clus>
<clus scale="   91.010">  2  5  1 -1</clus>
</clustering>
</event>
<event>
 9    1  0.2374319E-005  0.1030621E+03  0.7546771E-02  0.1279491E+00
          1   -1    0    0  502    0  0.00000000000E+00  0.00000000000E+00  0.25016467953E+03  0.25016467953E+03  0.00000000000E+00 0. -1.
         -2   -1    0    0    0  501 -0.00000000000E+00 -0.00000000000E+00 -0.17938688746E+03  0.17938688746E+03  0.00000000000E+00 0.  1.
         23    2    1    2    0    0  0.74363072520E+01  0.48360461756E+02 -0.14085832548E+03  0.17490326904E+03  0.91411447511E+02 0.  0.
        -24    2    1    2    0    0  0.14873218603E+02 -0.41761520008E+02  0.80886930378E+02  0.12184539541E+03  0.79613866198E+02 0.  0.
         13    1    4    4    0    0  0.69234025785E+01 -0.65602116161E+02  0.57247423866E+02  0.87343223477E+02  0.00000000000E+00 0. -1.
        -14    1    4    4    0    0  0.79498160249E+01  0.23840596153E+02  0.23639506512E+02  0.34502171930E+02  0.00000000000E+00 0.  1.
        -13    1    3    3    0    0 -0.31240628269E+02  0.32105267812E+02 -0.24167790567E+02  0.50899972267E+02  0.00000000000E+00 0. -1.
         13    1    3    3    0    0  0.38676935521E+02  0.16255193945E+02 -0.11669053492E+03  0.12400329677E+03  0.00000000000E+00 0.  1.
         21    1    1    2  502  501 -0.22309525855E+02 -0.65989417479E+01  0.13074918718E+03  0.13280290255E+03  0.00000000000E+00 0. -1.
<scales pt_clust_5="13000.00000" pt_clust_6="13000.00000" pt_clust_7="13000.00000" pt_clust_8="13000.00000" pt_clust_9="23.26502"></scales>
<clustering>
<clus scale="   23.265">  1  9  2 -1</clus>
<clus scale="   79.614">  5  6 -1 -1</clus>
<clus scale="   91.411">  7  8 -1 -1</clus>
<clus scale="   92.758">  1  5  2 -1</clus>
<clus scale="   23.265">  1  5  2 -1</clus>
</clustering>
</event>
<event>
 9    1  0.2374319E-005  0.1211587E+03  0.7546771E-02  0.1244724E+00
         -2   -1    0    0    0  501 -0.00000000000E+00  0.00000000000E+00  0.65332314409E+02  0.65332314409E+02  0.00000000000E+00 0.  1.
          1   -1    0    0  502    0  0.00000000000E+00 -0.00000000000E+00 -0.51452652035E+03  0.51452652035E+03  0.00000000000E+00 0. -1.
        -24    2    1    2    0    0  0.71552544134E+02 -0.20183854814E+02 -0.19542429962E+02  0.11122720579E+03  0.80389241648E+02 0.  0.
         23    2    1    2    0    0 -0.10249435023E+03 -0.21987263697E+01 -0.25380594753E+03  0.28868682997E+03  0.91720774992E+02 0.  0.
         11    1    3    3    0    0  0.27730453486E+02  0.12381540997E+02 -0.42303267770E+02  0.52075397954E+02  0.00000000000E+00 0. -1.
        -12    1    3    3    0    0  0.43822090648E+02 -0.32565395811E+02  0.22760837808E+02  0.59151807841E+02  0.00000000000E+00 0.  1.
        -11    1    4    4    0    0 -0.70420264136E+02  0.42269312736E+02 -0.16516861697E+03  0.18446240927E+03  0.00000000000E+00 0. -1.
         11    1    4    4    0    0 -0.32074086096E+02 -0.44468039106E+02 -0.88637330560E+02  0.10422442070E+03  0.00000000000E+00 0.  1.
         21    1    1    2  502  501  0.30941806098E+02  0.22382581184E+02 -0.17584582845E+03  0.17994479900E+03  0.00000000000E+00 0. -1.
<scales pt_clust_5="13000.00000" pt_clust_6="13000.00000" pt_clust_7="13000.00000" pt_clust_8="13000.00000" pt_clust_9="38.18868"></scales>
<clustering>
<clus scale="   38.189">  2  9  1 -1</clus>
<clus scale="   80.389">  5  6 -1 -1</clus>
<clus scale="   91.721">  7  8 -1 -1</clus>
<clus scale="  112.824">  1  5  2 -1</clus>
<clus scale="   38.189">  2  5  1 -1</clus>
</clustering>
</event>
<event>
 9    1  0.2374319E-005  0.1079903E+03  0.7546771E-02  0.1268888E+00
         -2   -1    0    0    0  501 -0.00000000000E+00  0.00000000000E+00  0.76424953066E+02  0.76424953066E+02  0.00000000000E+00 0.  1.
          1   -1    0    0  502    0  0.00000000000E+00 -0.00000000000E+00 -0.66904755818E+03  0.66904755818E+03  0.00000000000E+00 0. -1.
        -24    2    1    2    0    0  0.53691005649E+02  0.59722412928E+02  0.10612034719E+01  0.11422119728E+03  0.81214931276E+02 0.  0.
         23    2    1    2    0    0 -0.53784522296E+02 -0.13058356133E+02 -0.56781471846E+03  0.57789634451E+03  0.92126733323E+02 0.  0.
         13    1    3    3    0    0  0.28570761243E+02  0.69121684448E+02  0.24394110397E+02  0.78671267188E+02  0.00000000000E+00 0. -1.
        -14    1    3    3    0    0  0.25120244407E+02 -0.93992715199E+01 -0.23332906925E+02  0.35549930094E+02  0.00000000000E+00 0.  1.
        -13    1    4    4    0    0 -0.58831088300E+02 -0.45520654133E+02 -0.41103321104E+03  0.41770986041E+03  0.00000000000E+00 0. -1.
         13    1    4    4    0    0  0.50465660042E+01  0.32462298000E+02 -0.15678150742E+03  0.16018648410E+03  0.00000000000E+00 0.  1.
         21    1    1    2  502  501  0.93516646483E-01 -0.46664056795E+02 -0.25869090132E+02  0.53354969461E+02  0.00000000000E+00 0.  1.
<scales pt_clust_5="13000.00000" pt_clust_6="13000.00000" pt_clust_7="13000.00000" pt_clust_8="13000.00000" pt_clust_9="46.66415"></scales>
<clustering>
<clus scale="   46.664">  1  9  2 -1</clus>
<clus scale="   81.215">  5  6 -1 -1</clus>
<clus scale="   92.127">  7  8 -1 -1</clus>
<clus scale="   98.846">  1  5  2 -1</clus>
<clus scale="  107.990">  2  5  1 -1</clus>
</clustering>
</event>
<event>
 9    1  0.2374319E-005  0.1184266E+03  0.7546771E-02  0.1248733E+00
          1   -1    0    0  502    0  0.00000000000E+00  0.00000000000E+00  0.10715367411E+04  0.10715367411E+04  0.00000000000E+00 0. -1.
         -2   -1    0    0    0  501 -0.00000000000E+00 -0.00000000000E+00 -0.17614729364E+02  0.17614729364E+02  0.00000000000E+00 0.  1.
         23    2    1    2    0    0  0.46766951102E+02  0.61613135010E+02  0.38508905682E+03  0.40297098719E+03  0.90048368763E+02 0.  0.
        -24    2    1    2    0    0 -0.15705741924E+02 -0.79181361408E+02  0.43893530918E+03  0.45352973900E+03  0.80676267821E+02 0.  0.
         11    1    4    4    0    0  0.32587741603E+02 -0.30648806961E+02  0.14602572868E+03  0.15272466633E+03  0.00000000000E+00 0. -1.
        -12    1    4    4    0    0 -0.48293483526E+02 -0.48532554447E+02  0.29290958050E+03  0.30080507267E+03  0.00000000000E+00 0.  1.
        -11    1    3    3    0    0  0.41093169702E+02 -0.10896151301E+02  0.98224880599E+02  0.10703037830E+03  0.00000000000E+00 0.  1.
         11    1    3    3    0    0  0.56737814005E+01  0.72509286311E+02  0.28686417622E+03  0.29594060890E+03  0.00000000000E+00 0. -1.
         21    1    1    2  502  501 -0.31061209179E+02  0.17568226398E+02  0.22989764578E+03  0.23265074431E+03  0.00000000000E+00 0. -1.
<scales pt_clust_5="13000.00000" pt_clust_6="13000.00000" pt_clust_7="13000.00000" pt_clust_8="13000.00000" pt_clust_9="35.68531"></scales>
<clustering>
<clus scale="   35.685">  1  9  2 -1</clus>
<clus scale="   80.676">  5  6 -1 -1</clus>
<clus scale="   90.048">  7  8 -1 -1</clus>
<clus scale="  111.467">  1  5  2 -1</clus>
<clus scale="   35.685">  1  5  2 -1</clus>
</clustering>
</event>
<event>
 9    1  0.2374319E-005  0.2538900E+03  0.7546771E-02  0.1111214E+00
         -2   -1    0    0    0  501 -0.00000000000E+00  0.00000000000E+00  0.33829496186E+03  0.33829496186E+03  0.00000000000E+00 0.  1.
          1   -1    0    0  502    0  0.00000000000E+00 -0.00000000000E+00 -0.70680163521E+03  0.70680163521E+03  0.00000000000E+00 0. -1.
        -24    2    1    2    0    0 -0.34717109505E+02 -0.24134292743E+03  0.22179326042E+03  0.33965827509E+03  0.81998824113E+02 0.  0.
         23    2    1    2    0    0  0.11893852484E+03  0.19136952540E+03 -0.23687868238E+03  0.33869976574E+03  0.88528826935E+02 0.  0.
         11    1    3    3    0    0  0.25756037352E+02 -0.83206981062E+02  0.88565744713E+02  0.12422023303E+03  0.00000000000E+00 0. -1.
        -12    1    3    3    0    0 -0.60473146857E+02 -0.15813594637E+03  0.13322751570E+03  0.21543804206E+03  0.00000000000E+00 0.  1.
        -13    1    4    4    0    0  0.70735743888E+02  0.15782958210E+03 -0.12861526061E+03  0.21553562980E+03  0.00000000000E+00 0.  1.
         13    1    4    4    0    0  0.48202780957E+02  0.33539943301E+02 -0.10826342177E+03  0.12316413594E+03  0.00000000000E+00 0. -1.
         21    1    1    2  502  501 -0.84221415340E+02  0.49973402030E+02 -0.35342125138E+03  0.36673855625E+03  0.00000000000E+00 0.  1.
<scales pt_clust_5="13000.00000" pt_clust_6="13000.00000" pt_clust_7="13000.00000" pt_clust_8="13000.00000" pt_clust_9="97.93155"></scales>
<clustering>
<clus scale="   81.999">  5  6 -1 -1</clus>
<clus scale="   88.529">  7  8 -1 -1</clus>
<clus scale="   97.932">  2  9  1 -1</clus>
<clus scale="  251.687">  1  5  2 -1</clus>
<clus scale="   97.932">  2  5  1 -1</clus>
</clustering>
</event>
<event>
 9    1  0.2374319E-005  0.1022464E+03  0.7546771E-02  0.1279533E+00
          1   -1    0    0  502    0  0.00000000000E+00  0.00000000000E+00  0.16714395356E+03  0.16714395356E+03  0.00000000000E+00 0. -1.
         -2   -1    0    0    0  501 -0.00000000000E+00 -0.00000000000E+00 -0.15477877374E+03  0.15477877374E+03  0.00000000000E+00 0.  1.
         23    2    1    2    0    0  0.11756649985E+02 -0.46476746827E+02 -0.11096324934E+03  0.15197779581E+03  0.92120035282E+02 0.  0.
        -24    2    1    2    0    0 -0.11826381455E+02  0.20135515711E+02  0.11033434660E+03  0.14057298058E+03  0.83915389157E+02 0.  0.
         11    1    4    4    0    0  0.26759554193E+02  0.36178251760E+02  0.63176059101E+02  0.77563871000E+02  0.00000000000E+00 0. -1.
        -12    1    4    4    0    0 -0.38585935648E+02 -0.16042736050E+02  0.47158287497E+02  0.63009109575E+02  0.00000000000E+00 0.  1.
        -11    1    3    3    0    0 -0.11480230260E+02  0.17412855815E+02 -0.69005519768E+02  0.72088591282E+02  0.00000000000E+00 0.  1.
         11    1    3    3    0    0  0.23236880245E+02 -0.63889602642E+02 -0.41957729574E+02  0.79889204529E+02  0.00000000000E+00 0. -1.
         21    1    1    2  502  501  0.69731469113E-01  0.26341231116E+02  0.12994082557E+02  0.29371950917E+02  0.00000000000E+00 0.  1.
<scales pt_clust_5="13000.00000" pt_clust_6="13000.00000" pt_clust_7="13000.00000" pt_clust_8="13000.00000" pt_clust_9="26.34132"></scales>
<clustering>
<clus scale="   26.341">  1  9  2 -1</clus>
<clus scale="   83.915">  5  6 -1 -1</clus>
<clus scale="   92.120">  7  8 -1 -1</clus>
<clus scale="   94.921">  1  5  2 -1</clus>
<clus scale="   26.341">  1  5  2 -1</clus>
</clustering>
</event>
<event>
 9    1  0.2374319E-005  0.9896637E+02  0.7546771E-02  0.1286092E+00
          1   -1    0    0  502    0  0.00000000000E+00  0.00000000000E+00  0.40879197948E+03  0.40879197948E+03  0.00000000000E+00 0. -1.
         -2   -1    0    0    0  501 -0.00000000000E+00 -0.00000000000E+00 -0.38674709164E+02  0.38674709164E+02  0.00000000000E+00 0.  1.
        -24    2    1    2    0    0 -0.29044185662E+02 -0.28563504246E+02  0.58434022006E+02  0.10978929164E+03  0.83544689453E+02 0.  0.
         23    2    1    2    0    0  0.42027283164E+02  0.62250256105E+01  0.20855975799E+03  0.23136642530E+03  0.90709462730E+02 0.  0.
         13    1    3    3    0    0 -0.41594322517E+02  0.17191840226E+02  0.34108009297E+02  0.56471261135E+02  0.00000000000E+00 0. -1.
        -14    1    3    3    0    0  0.12550136854E+02 -0.45755344472E+02  0.24326012709E+02  0.53318030507E+02  0.00000000000E+00 0.  1.
        -11    1    4    4    0    0  0.15621431422E+02  0.36408015171E+02  0.17391610063E+03  0.17837147402E+03  0.00000000000E+00 0. -1.
         11    1    4    4    0    0  0.26405851742E+02 -0.30182989560E+02  0.34643657359E+02  0.52994951271E+02  0.00000000000E+00 0.  1.
         21    1    1    2  502  501 -0.12983097502E+02  0.22338478635E+02  0.10312349032E+03  0.10631097170E+03  0.00000000000E+00 0. -1.
<scales pt_clust_5="13000.00000" pt_clust_6="13000.00000" pt_clust_7="13000.00000" pt_clust_8="13000.00000" pt_clust_9="25.83735"></scales>
<clustering>
<clus scale="   25.837">  1  9  2 -1</clus>
<clus scale="   83.545">  5  6 -1 -1</clus>
<clus scale="   90.709">  7  8 -1 -1</clus>
<clus scale="   92.444">  2  5  1 -1</clus>
<clus scale="   25.837">  1  5  2 -1</clus>
</clustering>
</event>
<event>
 9    1  0.2374319E-005  0.1586639E+03  0.7546771E-02  0.1196182E+00
          1   -1    0    0  502    0  0.00000000000E+00  0.00000000000E+00  0.12020143878E+03  0.12020143878E+03  0.00000000000E+00 0. -1.
         -2   -1    0    0    0  501 -0.00000000000E+00 -0.00000000000E+00 -0.50832379270E+03  0.50832379270E+03  0.00000000000E+00 0.  1.
        -24    2    1    2    0    0  0.11379199461E+03 -0.90004030641E+01 -0.38505605462E+03  0.41599331337E+03  0.10840962260E+03 0.  0.
         23    2    1    2    0    0 -0.12763918778E+03 -0.39509963557E+02  0.22632258512E+02  0.15591552206E+03  0.77101435888E+02 0.  0.
         11    1    3    3    0    0  0.13044678492E+03 -0.44225709425E+01 -0.27280390874E+03  0.30242006457E+03  0.00000000000E+00 0. -1.
        -12    1    3    3    0    0 -0.16654790313E+02 -0.45778321215E+01 -0.11225214588E+03  0.11357324880E+03  0.00000000000E+00 0.  1.
        -13    1    4    4    0    0 -0.35848481081E+02 -0.29793848178E+02 -0.24079607064E+02  0.52465364398E+02  0.00000000000E+00 0.  1.
         13    1    4    4    0    0 -0.91790706696E+02 -0.97161153791E+01  0.46711865576E+02  0.10345015766E+03  0.00000000000E+00 0. -1.
         21    1    1    2  502  501  0.13847193167E+02  0.48510366621E+02 -0.25698557810E+02  0.56616396051E+02  0.00000000000E+00 0.  1.
<scales pt_clust_5="13000.00000" pt_clust_6="13000.00000" pt_clust_7="13000.00000" pt_clust_8="13000.00000" pt_clust_9="50.44800"></scales>
<clustering>
<clus scale="   50.448">  1  9  2 -1</clus>
<clus scale="   77.101">  7  8 -1 -1</clus>
<clus scale="  108.410">  5  6 -1 -1</clus>
<clus scale="  139.163">  1  7  2 -1</clus>
<clus scale="   50.448">  1  5  2 -1</clus>
</clustering>
</event>
<event>
 9    1  0.2374319E-005  0.1368767E+03  0.7546771E-02  0.1219933E+00
          1   -1    0    0  502    0  0.00000000000E+00  0.00000000000E+00  0.29577161826E+03  0.29577161826E+03  0.00000000000E+00 0. -1.
         -2   -1    0    0    0  501 -0.00000000000E+00 -0.00000000000E+00 -0.12082992550E+03  0.12082992550E+03  0.00000000000E+00 0.  1.
        -24    2    1    2    0    0 -0.96100347838E+02  0.95029020781E+00 -0.35730464757E+02  0.13068098204E+03  0.81022669977E+02 0.  0.
         23    2    1    2    0    0  0.12867986033E+03 -0.10703830826E+02  0.18475586772E+03  0.24316298618E+03  0.91216384182E+02 0.  0.
         13    1    3    3    0    0 -0.23058664277E+02 -0.27645106962E+02  0.13071520868E+02  0.38299067809E+02  0.00000000000E+00 0. -1.
        -14    1    3    3    0    0 -0.73041683562E+02  0.28595397170E+02 -0.48801985626E+02  0.92381914236E+02  0.00000000000E+00 0.  1.
        -13    1    4    4    0    0  0.65516324078E+02  0.31100649294E+02  0.48427954849E+02  0.87206111701E+02  0.00000000000E+00 0.  1.
         13    1    4    4    0    0  0.63163536249E+02 -0.41804480120E+02  0.13632791287E+03  0.15595687448E+03  0.00000000000E+00 0. -1.
         21    1    1    2  502  501 -0.32579512489E+02  0.97535406182E+01  0.25916289794E+02  0.42757575531E+02  0.00000000000E+00 0.  1.
<scales pt_clust_5="13000.00000" pt_clust_6="13000.00000" pt_clust_7="13000.00000" pt_clust_8="13000.00000" pt_clust_9="34.00818"></scales>
<clustering>
<clus scale="   34.008">  1  9  2 -1</clus>
<clus scale="   81.023">  5  6 -1 -1</clus>
<clus scale="   91.216">  7  8 -1 -1</clus>
<clus scale="  130.305">  2  5  1 -1</clus>
<clus scale="   34.008">  1  5  2 -1</clus>
</clustering>
</event>
<event>
 9    1  0.2374319E-005  0.1057394E+03  0.7546771E-02  0.1273741E+00
          1   -1    0    0  502    0  0.00000000000E+00  0.00000000000E+00  0.82685865134E+02  0.82685865134E+02  0.00000000000E+00 0. -1.
         -2   -1    0    0    0  501 -0.00000000000E+00 -0.00000000000E+00 -0.23197835324E+03  0.23197835324E+03  0.00000000000E+00 0.  1.
        -24    2    1    2    0    0 -0.53945777565E+02 -0.43961948074E+02 -0.10879114536E+03  0.15125760764E+03  0.78743576023E+02 0.  0.
         23    2    1    2    0    0  0.13825600026E+02  0.36993200355E+02 -0.62768438176E+02  0.11699523681E+03  0.90489582368E+02 0.  0.
         11    1    3    3    0    0 -0.53734937031E+02 -0.59125874138E+02 -0.59307506195E+02  0.99502224806E+02  0.00000000000E+00 0. -1.
        -12    1    3    3    0    0 -0.21084053493E+00  0.15163926064E+02 -0.49483639165E+02  0.51755382835E+02  0.00000000000E+00 0.  1.
        -13    1    4    4    0    0  0.43406718460E+02 -0.86916432443E+01 -0.29771558392E+02  0.53348229200E+02  0.00000000000E+00 0. -1.
         13    1    4    4    0    0 -0.29581118434E+02  0.45684843599E+02 -0.32996879784E+02  0.63647007612E+02  0.00000000000E+00 0.  1.
         21    1    1    2  502  501  0.40120177539E+02  0.69687477189E+01  0.22267095428E+02  0.46411373922E+02  0.00000000000E+00 0. -1.
<scales pt_clust_5="13000.00000" pt_clust_6="13000.00000" pt_clust_7="13000.00000" pt_clust_8="13000.00000" pt_clust_9="40.72090"></scales>
<clustering>
<clus scale="   40.721">  1  9  2 -1</clus>
<clus scale="   78.744">  5  6 -1 -1</clus>
<clus scale="   90.490">  7  8 -1 -1</clus>
<clus scale="   95.880">  2  5  1 -1</clus>
<clus scale="   40.721">  1  5  2 -1</clus>
</clustering>
</event>
<event>
 9    1  0.2374319E-005  0.8851450E+02  0.7546771E-02  0.1311719E+00
          1   -1    0    0  502    0  0.00000000000E+00  0.00000000000E+00  0.38589875756E+03  0.38589875756E+03  0.00000000000E+00 0. -1.
         -2   -1    0    0    0  501 -0.00000000000E+00 -0.00000000000E+00 -0.19071754451E+03  0.19071754451E+03  0.00000000000E+00 0.  1.
         23    2    1    2    0    0  0.22020457438E+01  0.46845201198E+01 -0.16250226809E+03  0.18508245437E+03  0.88440567887E+02 0.  0.
        -24    2    1    2    0    0  0.31314452025E+02  0.30839167271E+02  0.31006436454E+03  0.32332191139E+03  0.80408327196E+02 0.  0.
         13    1    4    4    0    0 -0.18584988751E+02  0.30502787382E+02  0.18953285721E+03  0.19286919352E+03  0.00000000000E+00 0. -1.
        -14    1    4    4    0    0  0.49899440776E+02  0.33637988983E+00  0.12053150733E+03  0.13045271787E+03  0.00000000000E+00 0.  1.
        -13    1    3    3    0    0  0.38774167356E+02 -0.59718435736E+01 -0.37001265311E+02  0.53927660847E+02  0.00000000000E+00 0. -1.
         13    1    3    3    0    0 -0.36572121612E+02  0.10656363693E+02 -0.12550100278E+03  0.13115479353E+03  0.00000000000E+00 0.  1.
         21    1    1    2  502  501 -0.33516497769E+02 -0.35523687391E+02  0.47619116598E+02  0.68211936303E+02  0.00000000000E+00 0.  1.
<scales pt_clust_5="13000.00000" pt_clust_6="13000.00000" pt_clust_7="13000.00000" pt_clust_8="13000.00000" pt_clust_9="48.83941"></scales>
<clustering>
<clus scale="   48.839">  1  9  2 -1</clus>
<clus scale="   80.408">  5  6 -1 -1</clus>
<clus scale="   80.490">  1  5  2 -1</clus>
<clus scale="   88.441">  7  8 -1 -1</clus>
<clus scale="   48.839">  1  5  2 -1</clus>
</clustering>
</event>
<event>
 9    1  0.2374319E-005  0.1987673E+03  0.7546771E-02  0.1155152E+00
          1   -1    0    0  502    0  0.00000000000E+00  0.00000000000E+00  0.33827393101E+03  0.33827393101E+03  0.00000000000E+00 0. -1.
         -2   -1    0    0    0  501 -0.00000000000E+00 -0.00000000000E+00 -0.33663998347E+03  0.33663998347E+03  0.00000000000E+00 0.  1.
         23    2    1    2    0    0  0.20095231338E+02 -0.19012381998E+03 -0.22561608367E+03  0.31809344662E+03  0.11717481950E+03 0.  0.
        -24    2    1    2    0    0 -0.67205841126E+02  0.87381667828E+02  0.46886250072E+02  0.14396734261E+03  0.79850449842E+02 0.  0.
         13    1    4    4    0    0  0.17470688537E+02  0.25765343280E+02  0.70050101451E+01  0.31908432105E+02  0.00000000000E+00 0. -1.
        -14    1    4    4    0    0 -0.84676529663E+02  0.61616324548E+02  0.39881239926E+02  0.11205891051E+03  0.00000000000E+00 0.  1.
        -11    1    3    3    0    0 -0.19994621932E+02 -0.51437591648E+02 -0.63242200198E+01  0.55548235792E+02  0.00000000000E+00 0. -1.
         11    1    3    3    0    0  0.40089853271E+02 -0.13868622833E+03 -0.21929186365E+03  0.26254521082E+03  0.00000000000E+00 0.  1.
         21    1    1    2  502  501  0.47110609787E+02  0.10274215215E+03  0.18036378114E+03  0.21285312525E+03  0.00000000000E+00 0. -1.
<scales pt_clust_5="13000.00000" pt_clust_6="13000.00000" pt_clust_7="13000.00000" pt_clust_8="13000.00000" pt_clust_9="113.02814"></scales>
<clustering>
<clus scale="   79.850">  5  6 -1 -1</clus>
<clus scale="  113.028">  1  9  2 -1</clus>
<clus scale="  117.175">  7  8 -1 -1</clus>
<clus scale="  179.317">  1  5  2 -1</clus>
<clus scale="  113.028">  1  5  2 -1</clus>
</clustering>
</event>
<event>
 9    1  0.2374319E-005  0.1550628E+03  0.7546771E-02  0.1196305E+00
         -2   -1    0    0    0  501 -0.00000000000E+00  0.00000000000E+00  0.12096636811E+03  0.12096636811E+03  0.00000000000E+00 0.  1.
          1   -1    0    0  502    0  0.00000000000E+00 -0.00000000000E+00 -0.50758041248E+03  0.50758041248E+03  0.00000000000E+00 0. -1.
         23    2    1    2    0    0  0.68642426668E+02 -0.11232158649E+03  0.42612791651E+02  0.16628228568E+03  0.92228124715E+02 0.  0.
        -24    2    1    2    0    0 -0.26931426838E+02  0.84518792087E+02 -0.32777348227E+03  0.34910272633E+03  0.81046467419E+02 0.  0.
         13    1    4    4    0    0  0.11260465820E+02  0.77621369909E+02 -0.18056672943E+03  0.19686599233E+03  0.00000000000E+00 0. -1.
        -14    1    4    4    0    0 -0.38191892658E+02  0.68974221779E+01 -0.14720675284E+03  0.15223673400E+03  0.00000000000E+00 0.  1.
        -13    1    3    3    0    0  0.82927831569E+02 -0.53093994308E+02  0.36639959250E+02  0.10506419035E+03  0.00000000000E+00 0.  1.
         13    1    3    3    0    0 -0.14285404901E+02 -0.59227592181E+02  0.59728324001E+01  0.61218095328E+02  0.00000000000E+00 0. -1.
         21    1    1    2  502  501 -0.41710999830E+02  0.27802794402E+02 -0.10145335375E+03  0.11316176859E+03  0.00000000000E+00 0.  1.
<scales pt_clust_5="13000.00000" pt_clust_6="13000.00000" pt_clust_7="13000.00000" pt_clust_8="13000.00000" pt_clust_9="50.12787"></scales>
<clustering>
<clus scale="   50.128">  2  9  1 -1</clus>
<clus scale="   81.046">  5  6 -1 -1</clus>
<clus scale="   92.228">  7  8 -1 -1</clus>
<clus scale="  148.684">  2  5  1 -1</clus>
<clus scale="   50.128">  2  5  1 -1</clus>
</clustering>
</event>
<event>
 9    1  0.2374319E-005  0.1822520E+03  0.7546771E-02  0.1166643E+00
          1   -1    0    0  502    0  0.00000000000E+00  0.00000000000E+00  0.27540244919E+03  0.27540244919E+03  0.00000000000E+00 0. -1.
         -2   -1    0    0    0  501 -0.00000000000E+00 -0.00000000000E+00 -0.36576234570E+03  0.36576234570E+03  0.00000000000E+00 0.  1.
        -24    2    1    2    0    0  0.15989330580E+03  0.58226336690E+02 -0.25905946415E+03  0.32033349864E+03  0.80904689965E+02 0.  0.
         23    2    1    2    0    0 -0.12213828456E+03  0.48569450174E+02  0.10807670956E+03  0.19235595760E+03  0.89685490636E+02 0.  0.
         13    1    3    3    0    0  0.81578116783E+02  0.65023608227E+02 -0.10867668984E+03  0.15064422219E+03  0.00000000000E+00 0. -1.
        -14    1    3    3    0    0  0.78315189020E+02 -0.67972715369E+01 -0.15038277431E+03  0.16968927645E+03  0.00000000000E+00 0.  1.
        -11    1    4    4    0    0 -0.57169078485E+02 -0.21889893694E+02  0.57509172840E+02  0.83992713621E+02  0.00000000000E+00 0. -1.
         11    1    4    4    0    0 -0.64969206073E+02  0.70459343868E+02  0.50567536725E+02  0.10836324398E+03  0.00000000000E+00 0.  1.
         21    1    1    2  502  501 -0.37755021246E+02 -0.10679578686E+03  0.60622858077E+02  0.12847533865E+03  0.00000000000E+00 0. -1.
<scales pt_clust_5="13000.00000" pt_clust_6="13000.00000" pt_clust_7="13000.00000" pt_clust_8="13000.00000" pt_clust_9="113.27304"></scales>
<clustering>
<clus scale="   80.905">  5  6 -1 -1</clus>
<clus scale="   89.685">  7  8 -1 -1</clus>
<clus scale="  113.273">  1  9  2 -1</clus>
<clus scale="  178.095">  2  5  1 -1</clus>
<clus scale="  113.273">  1  5  2 -1</clus>
</clustering>
</event>
<event>
 9    1  0.2374319E-005  0.9460891E+02  0.7546771E-02  0.1298759E+00
          1   -1    0    0  502    0  0.00000000000E+00  0.00000000000E+00  0.40375618048E+03  0.40375618048E+03  0.00000000000E+00 0. -1.
         -2   -1    0    0    0  501 -0.00000000000E+00 -0.00000000000E+00 -0.87929239288E+02  0.87929239288E+02  0.00000000000E+00 0.  1.
         23    2    1    2    0    0 -0.13375931740E+02 -0.20173746923E+02 -0.49148310311E+02  0.10688945888E+03  0.91781830435E+02 0.  0.
        -24    2    1    2    0    0 -0.15318342551E+02  0.24533373829E+02  0.20269483032E+03  0.21994056115E+03  0.80325077973E+02 0.  0.
         13    1    4    4    0    0 -0.41442440124E+02  0.74928076719E+01  0.56576107902E+02  0.70529951054E+02  0.00000000000E+00 0. -1.
        -14    1    4    4    0    0  0.26124097573E+02  0.17040566157E+02  0.14611872242E+03  0.14941061010E+03  0.00000000000E+00 0.  1.
        -11    1    3    3    0    0 -0.26099981474E+02 -0.38733963366E+02 -0.64509784414E+02  0.79643212116E+02  0.00000000000E+00 0.  1.
         11    1    3    3    0    0  0.12724049734E+02  0.18560216443E+02  0.15361474103E+02  0.27246246763E+02  0.00000000000E+00 0. -1.
         21    1    1    2  502  501  0.28694274291E+02 -0.43596269055E+01  0.16228042118E+03  0.16485539974E+03  0.00000000000E+00 0.  1.
<scales pt_clust_5="13000.00000" pt_clust_6="13000.00000" pt_clust_7="13000.00000" pt_clust_8="13000.00000" pt_clust_9="29.02357"></scales>
<clustering>
<clus scale="   29.024">  1  9  2 -1</clus>
<clus scale="   80.325">  5  6 -1 -1</clus>
<clus scale="   83.541">  1  5  2 -1</clus>
<clus scale="   91.782">  7  8 -1 -1</clus>
<clus scale="   29.024">  1  5  2 -1</clus>
</clustering>
</event>
<event>
 9    1  0.2374319E-005  0.9602079E+02  0.7546771E-02  0.1297891E+00
          1   -1    0    0  502    0  0.00000000000E+00  0.00000000000E+00  0.27852319175E+03  0.27852319175E+03  0.00000000000E+00 0. -1.
         -2   -1    0    0    0  501 -0.00000000000E+00 -0.00000000000E+00 -0.16198067939E+03  0.16198067939E+03  0.00000000000E+00 0.  1.
        -24    2    1    2    0    0  0.28432976673E+02  0.22092916392E+02 -0.37384820208E+02  0.95942961276E+02  0.80690122811E+02 0.  0.
         23    2    1    2    0    0 -0.12190565574E+01  0.12119146163E+02  0.23414860529E+03  0.25320164504E+03  0.95588408757E+02 0.  0.
         11    1    3    3    0    0  0.55994242427E+02  0.17655932051E+02 -0.33937582714E+02  0.67814796630E+02  0.00000000000E+00 0. -1.
        -12    1    3    3    0    0 -0.27561265754E+02  0.44369843407E+01 -0.34472374940E+01  0.28128164646E+02  0.00000000000E+00 0.  1.
        -11    1    4    4    0    0  0.10036438395E+01  0.53490344344E+02  0.15308337678E+03  0.16216270991E+03  0.00000000000E+00 0. -1.
         11    1    4    4    0    0 -0.22227003969E+01 -0.41371198181E+02  0.81065228506E+02  0.91038935126E+02  0.00000000000E+00 0.  1.
         21    1    1    2  502  501 -0.27213920115E+02 -0.34212062554E+02 -0.80221272724E+02  0.91359264827E+02  0.00000000000E+00 0.  1.
<scales pt_clust_5="13000.00000" pt_clust_6="13000.00000" pt_clust_7="13000.00000" pt_clust_8="13000.00000" pt_clust_9="43.71570"></scales>
<clustering>
<clus scale="   43.716">  2  9  1 -1</clus>
<clus scale="   80.690">  5  6 -1 -1</clus>
<clus scale="   81.202">  2  5  1 -1</clus>
<clus scale="   95.588">  7  8 -1 -1</clus>
<clus scale="   96.021">  1  5  2 -1</clus>
</clustering>
</event>
<event>
 9    1  0.2374319E-005  0.1087915E+03  0.7546771E-02  0.1269988E+00
         -2   -1    0    0    0  501 -0.00000000000E+00  0.00000000000E+00  0.49696104410E+02  0.49696104410E+02  0.00000000000E+00 0.  1.
          1   -1    0    0  502    0  0.00000000000E+00 -0.00000000000E+00 -0.28695821480E+03  0.28695821480E+03  0.00000000000E+00 0. -1.
         23    2    1    2    0    0 -0.46624543174E+02  0.23633437768E+02 -0.88989448544E+02  0.13886136712E+03  0.92903013515E+02 0.  0.
        -24    2    1    2    0    0  0.62551479215E+02  0.30951910644E+01 -0.12433731653E+03  0.15853753659E+03  0.75842695524E+02 0.  0.
         11    1    4    4    0    0 -0.16559362342E+01 -0.26739214456E+02 -0.43408606924E+02  0.51010144772E+02  0.00000000000E+00 0. -1.
        -12    1    4    4    0    0  0.64207415449E+02  0.29834405520E+02 -0.80928709609E+02  0.10752739181E+03  0.00000000000E+00 0.  1.
        -11    1    3    3    0    0 -0.50532728746E+02  0.30115548645E+01 -0.34005429735E+01  0.50736474353E+02  0.00000000000E+00 0. -1.
         11    1    3    3    0    0  0.39081855721E+01  0.20621882904E+02 -0.85588905571E+02  0.88124892770E+02  0.00000000000E+00 0.  1.
         21    1    1    2  502  501 -0.15926936041E+02 -0.26728628833E+02 -0.23935345315E+02  0.39255415502E+02  0.00000000000E+00 0. -1.
<scales pt_clust_5="13000.00000" pt_clust_6="13000.00000" pt_clust_7="13000.00000" pt_clust_8="13000.00000" pt_clust_9="31.11409"></scales>
<clustering>
<clus scale="   31.114">  1  9  2 -1</clus>
<clus scale="   75.843">  5  6 -1 -1</clus>
<clus scale="   92.903">  7  8 -1 -1</clus>
<clus scale="   94.640">  2  5  1 -1</clus>
<clus scale="   94.640">  2  5  1 -1</clus>
</clustering>
</event>
<event>
 9    1  0.2374319E-005  0.2550275E+03  0.7546771E-02  0.1157340E+00
         -2   -1    0    0    0  501 -0.00000000000E+00  0.00000000000E+00  0.33952376904E+03  0.33952376904E+03  0.00000000000E+00 0.  1.
          1   -1    0    0  502    0  0.00000000000E+00 -0.00000000000E+00 -0.30518413219E+03  0.30518413219E+03  0.00000000000E+00 0. -1.
        -24    2    1    2    0    0 -0.60488075376E+01 -0.12071886493E+02  0.84166231195E+02  0.11657334993E+03  0.79517752255E+02 0.  0.
         23    2    1    2    0    0 -0.19417659762E+03  0.13938871108E+03  0.65278791646E+02  0.26441303799E+03  0.92299350930E+02 0.  0.
         13    1    3    3    0    0 -0.39066512037E+02 -0.18729189722E+02  0.29675330542E+02  0.52512857027E+02  0.00000000000E+00 0. -1.
        -14    1    3    3    0    0  0.33017704499E+02  0.66573032293E+01  0.54490900653E+02  0.64060492900E+02  0.00000000000E+00 0.  1.
        -13    1    4    4    0    0 -0.92677268364E+02  0.58310525200E+02  0.77179560502E+02  0.13396222594E+03  0.00000000000E+00 0.  1.
         13    1    4    4    0    0 -0.10149932926E+03  0.81078185879E+02 -0.11900768855E+02  0.13045081205E+03  0.00000000000E+00 0. -1.
         21    1    1    2  502  501  0.20022540516E+03 -0.12731682459E+03 -0.11510538599E+03  0.26372151330E+03  0.00000000000E+00 0.  1.
<scales pt_clust_5="13000.00000" pt_clust_6="13000.00000" pt_clust_7="13000.00000" pt_clust_8="13000.00000" pt_clust_9="237.73907"></scales>
<clustering>
<clus scale="   79.518">  5  6 -1 -1</clus>
<clus scale="   80.656">  1  5  2 -1</clus>
<clus scale="   92.299">  7  8 -1 -1</clus>
<clus scale="  237.739">  2  9  1 -1</clus>
<clus scale="  237.739">  2  5  1 -1</clus>
</clustering>
</event>
<event>
 9    1  0.2374319E-005  0.1054060E+03  0.7546771E-02  0.1273695E+00
         -2   -1    0    0    0  501 -0.00000000000E+00  0.00000000000E+00  0.34002868175E+03  0.34002868175E+03  0.00000000000E+00 0.  1.
          1   -1    0    0  502    0  0.00000000000E+00 -0.00000000000E+00 -0.18557315340E+03  0.18557315340E+03  0.00000000000E+00 0. -1.
        -24    2    1    2    0    0 -0.15337634413E+02  0.44799248876E+02  0.20494636054E+03  0.22529963703E+03  0.80713691646E+02 0.  0.
         23    2    1    2    0    0  0.18014191654E+02 -0.67506761726E+02  0.97579808711E+02  0.15047660020E+03  0.90772871281E+02 0.  0.
         13    1    3    3    0    0  0.28508787222E+02  0.74745970953E+01  0.34420619426E+02  0.45314452356E+02  0.00000000000E+00 0. -1.
        -14    1    3    3    0    0 -0.43846421636E+02  0.37324651781E+02  0.17052574111E+03  0.17998518467E+03  0.00000000000E+00 0.  1.
        -11    1    4    4    0    0  0.50036753046E+02 -0.21076445647E+02  0.67265909548E+02  0.86444177385E+02  0.00000000000E+00 0. -1.
         11    1    4    4    0    0 -0.32022561392E+02 -0.46430316078E+02  0.30313899163E+02  0.64032422816E+02  0.00000000000E+00 0.  1.
         21    1    1    2  502  501 -0.26765572405E+01  0.22707512850E+02 -0.14807064089E+03  0.14982559792E+03  0.00000000000E+00 0. -1.
<scales pt_clust_5="13000.00000" pt_clust_6="13000.00000" pt_clust_7="13000.00000" pt_clust_8="13000.00000" pt_clust_9="22.86471"></scales>
<clustering>
<clus scale="   22.865">  2  9  1 -1</clus>
<clus scale="   80.714">  5  6 -1 -1</clus>
<clus scale="   90.773">  7  8 -1 -1</clus>
<clus scale="   96.878">  1  5  2 -1</clus>
<clus scale="   22.865">  2  5  1 -1</clus>
</clustering>
</event>
<event>
 9    1  0.2374319E-005  0.1259729E+03  0.7546771E-02  0.1244306E+00
         -2   -1    0    0    0  501 -0.00000000000E+00  0.00000000000E+00  0.43827825010E+02  0.43827825010E+02  0.00000000000E+00 0.  1.
          1   -1    0    0  502    0  0.00000000000E+00 -0.00000000000E+00 -0.46509352874E+03  0.46509352874E+03  0.00000000000E+00 0. -1.
         23    2    1    2    0    0  0.51735175846E+02  0.47834809071E+02 -0.88652725579E+02  0.15670543630E+03  0.10831708376E+03 0.  0.
        -24    2    1    2    0    0 -0.37914687631E+02 -0.31582235070E+02 -0.29281675753E+03  0.30706183422E+03  0.78168762550E+02 0.  0.
         11    1    4    4    0    0  0.12822573713E+01 -0.45993834024E+02 -0.20091349782E+03  0.20611479947E+03  0.00000000000E+00 0. -1.
        -12    1    4    4    0    0 -0.39196945003E+02  0.14411598954E+02 -0.91903259702E+02  0.10094703476E+03  0.00000000000E+00 0.  1.
        -13    1    3    3    0    0 -0.28436045927E+02 -0.15037367598E+00 -0.45806464093E+02  0.53915336157E+02  0.00000000000E+00 0. -1.
         13    1    3    3    0    0  0.80171221773E+02  0.47985182747E+02 -0.42846261486E+02  0.10279010014E+03  0.00000000000E+00 0.  1.
         21    1    1    2  502  501 -0.13820488215E+02 -0.16252574001E+02 -0.39796220622E+02  0.45154083226E+02  0.00000000000E+00 0. -1.
<scales pt_clust_5="13000.00000" pt_clust_6="13000.00000" pt_clust_7="13000.00000" pt_clust_8="13000.00000" pt_clust_9="21.33429"></scales>
<clustering>
<clus scale="   21.334">  2  9  1 -1</clus>
<clus scale="   78.169">  5  6 -1 -1</clus>
<clus scale="  101.227">  2  5  1 -1</clus>
<clus scale="  108.317">  7  8 -1 -1</clus>
<clus scale="   21.334">  2  5  1 -1</clus>
</clustering>
</event>
<event>
 9    1  0.2374319E-005  0.1212955E+03  0.7546771E-02  0.1244956E+00
         -2   -1    0    0    0  501 -0.00000000000E+00  0.00000000000E+00  0.15290429837E+03  0.15290429837E+03  0.00000000000E+00 0.  1.
          1   -1    0    0  502    0  0.00000000000E+00 -0.00000000000E+00 -0.29167701352E+03  0.29167701352E+03  0.00000000000E+00 0. -1.
        -24    2    1    2    0    0  0.45765632840E+02  0.61657288944E+02  0.98501358418E+02  0.14787430971E+03  0.79171834839E+02 0.  0.
         23    2    1    2    0    0 -0.74494844717E+02 -0.71560294573E+02 -0.22464110158E+03  0.26379759446E+03  0.91952099884E+02 0.  0.
         11    1    3    3    0    0  0.20576011684E+02 -0.79157967809E+01 -0.30176451834E+01  0.22251702810E+02  0.00000000000E+00 0. -1.
        -12    1    3    3    0    0  0.25189621156E+02  0.69573085725E+02  0.10151900360E+03  0.12562260690E+03  0.00000000000E+00 0.  1.
        -11    1    4    4    0    0 -0.49564256292E+02 -0.64503253659E+02 -0.70958871503E+02  0.10794649915E+03  0.00000000000E+00 0.  1.
         11    1    4    4    0    0 -0.24930588425E+02 -0.70570409142E+01 -0.15368223008E+03  0.15585109531E+03  0.00000000000E+00 0. -1.
         21    1    1    2  502  501  0.28729211877E+02  0.99030056287E+01 -0.12632971979E+02  0.32909407721E+02  0.00000000000E+00 0. -1.
<scales pt_clust_5="13000.00000" pt_clust_6="13000.00000" pt_clust_7="13000.00000" pt_clust_8="13000.00000" pt_clust_9="30.38811"></scales>
<clustering>
<clus scale="   30.388">  2  9  1 -1</clus>
<clus scale="   79.172">  5  6 -1 -1</clus>
<clus scale="   91.952">  7  8 -1 -1</clus>
<clus scale="  111.918">  1  5  2 -1</clus>
<clus scale="   30.388">  2  5  1 -1</clus>
</clustering>
</event>
<event>
 9    1  0.2374319E-005  0.1344216E+03  0.7546771E-02  0.1224725E+00
         -2   -1    0    0    0  501 -0.00000000000E+00  0.00000000000E+00  0.14319266617E+03  0.14319266617E+03  0.00000000000E+00 0.  1.
          1   -1    0    0  502    0  0.00000000000E+00 -0.00000000000E+00 -0.15534506140E+03  0.15534506140E+03  0.00000000000E+00 0. -1.
        -24    2    1    2    0    0  0.10500675117E+03  0.33366857809E+02  0.33526929032E+02  0.13791611124E+03  0.75875119632E+02 0.  0.
         23    2    1    2    0    0 -0.76114526110E+02 -0.30772256607E+02 -0.25843184185E+02  0.12547954642E+03  0.91306590884E+02 0.  0.
         11    1    3    3    0    0  0.97746338502E+02  0.52588363115E+02  0.18655104689E+02  0.11255174613E+03  0.00000000000E+00 0. -1.
        -12    1    3    3    0    0  0.72604126655E+01 -0.19221505307E+02  0.14871824343E+02  0.25364365113E+02  0.00000000000E+00 0.  1.
        -13    1    4    4    0    0 -0.88071854042E+02 -0.47819536898E+02 -0.29209199141E+02  0.10438647852E+03  0.00000000000E+00 0.  1.
         13    1    4    4    0    0  0.11957327933E+02  0.17047280291E+02  0.33660149560E+01  0.21093067897E+02  0.00000000000E+00 0. -1.
         21    1    1    2  502  501 -0.28892225058E+02 -0.25946012018E+01 -0.19836140082E+02  0.35142069910E+02  0.00000000000E+00 0.  1.
<scales pt_clust_5="13000.00000" pt_clust_6="13000.00000" pt_clust_7="13000.00000" pt_clust_8="13000.00000" pt_clust_9="29.00849"></scales>
<clustering>
<clus scale="   29.008">  2  9  1 -1</clus>
<clus scale="   75.875">  5  6 -1 -1</clus>
<clus scale="   91.307">  7  8 -1 -1</clus>
<clus scale="  124.456">  1  5  2 -1</clus>
<clus scale="   29.008">  2  5  1 -1</clus>
</clustering>
</event>
<event>
 9    1  0.2374319E-005  0.1569271E+03  0.7546771E-02  0.1193943E+00
         -4   -1    0    0    0  501 -0.00000000000E+00  0.00000000000E+00  0.36368251110E+03  0.36368251110E+03  0.00000000000E+00 0.  1.
          3   -1    0    0  502    0  0.00000000000E+00 -0.00000000000E+00 -0.33469376783E+03  0.33469376783E+03  0.00000000000E+00 0. -1.
        -24    2    1    2    0    0  0.49903726310E+02 -0.94848352003E+02  0.12665370422E+03  0.18452850258E+03  0.80765188621E+02 0.  0.
         23    2    1    2    0    0 -0.10270013643E+03  0.12063918772E+03  0.16403276877E+03  0.24563455918E+03  0.91260373650E+02 0.  0.
         13    1    3    3    0    0  0.51725310033E+01 -0.71149473741E+02  0.34173110029E+02  0.79099962956E+02  0.00000000000E+00 0. -1.
        -14    1    3    3    0    0  0.44731195307E+02 -0.23698878262E+02  0.92480594192E+02  0.10542853962E+03  0.00000000000E+00 0.  1.
        -11    1    4    4    0    0 -0.69402777317E+02  0.13718610122E+02  0.67612979332E+02  0.97859392687E+02  0.00000000000E+00 0. -1.
         11    1    4    4    0    0 -0.33297359110E+02  0.10692057760E+03  0.96419789438E+02  0.14777516649E+03  0.00000000000E+00 0.  1.
         21    1    1    2  502  501  0.52796410117E+02 -0.25790835716E+02 -0.26169772971E+03  0.26821321717E+03  0.00000000000E+00 0. -1.
<scales pt_clust_5="13000.00000" pt_clust_6="13000.00000" pt_clust_7="13000.00000" pt_clust_8="13000.00000" pt_clust_9="58.75907"></scales>
<clustering>
<clus scale="   58.759">  2  9  1 -1</clus>
<clus scale="   80.765">  5  6 -1 -1</clus>
<clus scale="   91.260">  7  8 -1 -1</clus>
<clus scale="  151.065">  1  5  2 -1</clus>
<clus scale="   58.759">  2  5  1 -1</clus>
</clustering>
</event>
<event>
 9    1  0.2374319E-005  0.1058804E+03  0.7546771E-02  0.1274337E+00
          1   -1    0    0  502    0  0.00000000000E+00  0.00000000000E+00  0.84062848401E+03  0.84062848401E+03  0.00000000000E+00 0. -1.
         -2   -1    0    0    0  501 -0.00000000000E+00 -0.00000000000E+00 -0.21519322703E+02  0.21519322703E+02  0.00000000000E+00 0.  1.
         23    2    1    2    0    0 -0.50960027527E+02  0.27965434774E+02  0.16784178328E+03  0.20057165806E+03  0.93161879834E+02 0.  0.
        -24    2    1    2    0    0  0.22638391305E+02 -0.23499304776E+02  0.44104373043E+03  0.44940630300E+03  0.79885786851E+02 0.  0.
         11    1    4    4    0    0  0.90150776911E+01  0.29871846293E+02  0.16241555406E+03  0.16538564335E+03  0.00000000000E+00 0. -1.
        -12    1    4    4    0    0  0.13623313614E+02 -0.53371151069E+02  0.27862817637E+03  0.28402065965E+03  0.00000000000E+00 0.  1.
        -13    1    3    3    0    0 -0.24771184771E+02  0.61876136307E+02  0.94674282157E+02  0.11578206917E+03  0.00000000000E+00 0.  1.
         13    1    3    3    0    0 -0.26188842756E+02 -0.33910701533E+02  0.73167501125E+02  0.84789588890E+02  0.00000000000E+00 0. -1.
         21    1    1    2  502  501  0.28321636223E+02 -0.44661299984E+01  0.21022364759E+03  0.21216984565E+03  0.00000000000E+00 0. -1.
<scales pt_clust_5="13000.00000" pt_clust_6="13000.00000" pt_clust_7="13000.00000" pt_clust_8="13000.00000" pt_clust_9="28.67161"></scales>
<clustering>
<clus scale="   28.672">  1  9  2 -1</clus>
<clus scale="   79.886">  5  6 -1 -1</clus>
<clus scale="   93.162">  7  8 -1 -1</clus>
<clus scale="   94.410">  1  5  2 -1</clus>
<clus scale="   28.672">  1  5  2 -1</clus>
</clustering>
</event>
<event>
 9    1  0.2374319E-005  0.1029769E+03  0.7546771E-02  0.1281029E+00
         -2   -1    0    0    0  501 -0.00000000000E+00  0.00000000000E+00  0.41464001603E+02  0.41464001603E+02  0.00000000000E+00 0.  1.
          1   -1    0    0  502    0  0.00000000000E+00 -0.00000000000E+00 -0.36953139318E+03  0.36953139318E+03  0.00000000000E+00 0. -1.
        -24    2    1    2    0    0 -0.34411486011E+02  0.83372169519E+00 -0.87925962750E+02  0.12153957924E+03  0.76524825611E+02 0.  0.
         23    2    1    2    0    0  0.51901154325E+02 -0.30537930310E+02 -0.22816646121E+03  0.25296433220E+03  0.91130260268E+02 0.  0.
         13    1    3    3    0    0 -0.37644701918E+02 -0.31404995217E+02 -0.38025642029E+02  0.62043104039E+02  0.00000000000E+00 0. -1.
        -14    1    3    3    0    0  0.32332159069E+01  0.32238716912E+02 -0.49900320721E+02  0.59496475201E+02  0.00000000000E+00 0.  1.
        -11    1    4    4    0    0 -0.12737997498E+01  0.25938405206E+02 -0.27487838999E+02  0.37815403254E+02  0.00000000000E+00 0.  1.
         11    1    4    4    0    0  0.53174954075E+02 -0.56476335516E+02 -0.20067862221E+03  0.21514892895E+03  0.00000000000E+00 0. -1.
         21    1    1    2  502  501 -0.17489668314E+02  0.29704208615E+02 -0.11974967616E+02  0.36491483343E+02  0.00000000000E+00 0.  1.
<scales pt_clust_5="13000.00000" pt_clust_6="13000.00000" pt_clust_7="13000.00000" pt_clust_8="13000.00000" pt_clust_9="34.47069"></scales>
<clustering>
<clus scale="   34.471">  1  9  2 -1</clus>
<clus scale="   76.525">  5  6 -1 -1</clus>
<clus scale="   90.308">  1  5  2 -1</clus>
<clus scale="   91.130">  7  8 -1 -1</clus>
<clus scale="  102.977">  2  5  1 -1</clus>
</clustering>
</event>
<event>
 9    1  0.2374319E-005  0.1025455E+03  0.7546771E-02  0.1279738E+00
         -2   -1    0    0    0  501 -0.00000000000E+00  0.00000000000E+00  0.25637786906E+03  0.25637786906E+03  0.00000000000E+00 0.  1.
          1   -1    0    0  502    0  0.00000000000E+00 -0.00000000000E+00 -0.29128603988E+03  0.29128603988E+03  0.00000000000E+00 0. -1.
         23    2    1    2    0    0 -0.41600787901E+02 -0.33324208185E+02  0.22833531625E+03  0.25026081953E+03  0.87477612789E+02 0.  0.
        -24    2    1    2    0    0  0.63780397594E+02  0.12859461764E+02 -0.23652404881E+03  0.25709590254E+03  0.76950455252E+02 0.  0.
         11    1    4    4    0    0  0.70998430993E+02 -0.13515360549E+02 -0.15303493365E+03  0.16924282287E+03  0.00000000000E+00 0. -1.
        -12    1    4    4    0    0 -0.72180333990E+01  0.26374822313E+02 -0.83489115153E+02  0.87853079669E+02  0.00000000000E+00 0.  1.
        -11    1    3    3    0    0  0.25007029993E+02 -0.19233420607E+02  0.47384206953E+02  0.56925733073E+02  0.00000000000E+00 0. -1.
         11    1    3    3    0    0 -0.66607817894E+02 -0.14090787578E+02  0.18095110930E+03  0.19333508646E+03  0.00000000000E+00 0.  1.
         21    1    1    2  502  501 -0.22179609693E+02  0.20464746422E+02 -0.26719438268E+02  0.40307186873E+02  0.00000000000E+00 0. -1.
<scales pt_clust_5="13000.00000" pt_clust_6="13000.00000" pt_clust_7="13000.00000" pt_clust_8="13000.00000" pt_clust_9="30.17848"></scales>
<clustering>
<clus scale="   30.178">  2  9  1 -1</clus>
<clus scale="   76.950">  5  6 -1 -1</clus>
<clus scale="   87.478">  7  8 -1 -1</clus>
<clus scale="   93.726">  2  5  1 -1</clus>
<clus scale="   30.178">  2  5  1 -1</clus>
</clustering>
</event>
<event>
 9    1  0.2374319E-005  0.1312049E+03  0.7546771E-02  0.1227959E+00
          1   -1    0    0  502    0  0.00000000000E+00  0.00000000000E+00  0.70985482849E+03  0.70985482849E+03  0.00000000000E+00 0. -1.
         -2   -1    0    0    0  501 -0.00000000000E+00 -0.00000000000E+00 -0.48441340184E+02  0.48441340184E+02  0.00000000000E+00 0.  1.
        -24    2    1    2    0    0  0.50772863432E+02 -0.11818465447E+02  0.90201580920E+02  0.13243616286E+03  0.81764614870E+02 0.  0.
         23    2    1    2    0    0 -0.84753342842E+02  0.90545418265E+02  0.46269915599E+03  0.48755735473E+03  0.90774794473E+02 0.  0.
         11    1    3    3    0    0  0.46214614093E+02 -0.44655125549E+01  0.48895463790E+01  0.46686604310E+02  0.00000000000E+00 0. -1.
        -12    1    3    3    0    0  0.45582493383E+01 -0.73529528922E+01  0.85312034541E+02  0.85749558546E+02  0.00000000000E+00 0.  1.
        -13    1    4    4    0    0 -0.51387507491E+02  0.10510768754E+03  0.33966016755E+03  0.35924550286E+03  0.00000000000E+00 0.  1.
         13    1    4    4    0    0 -0.33365835352E+02 -0.14562269275E+02  0.12303898844E+03  0.12831185187E+03  0.00000000000E+00 0. -1.
         21    1    1    2  502  501  0.33980479411E+02 -0.78726952818E+02  0.10851275140E+03  0.13830265108E+03  0.00000000000E+00 0.  1.
<scales pt_clust_5="13000.00000" pt_clust_6="13000.00000" pt_clust_7="13000.00000" pt_clust_8="13000.00000" pt_clust_9="85.74734"></scales>
<clustering>
<clus scale="   81.765">  5  6 -1 -1</clus>
<clus scale="   85.747">  2  9  1 -1</clus>
<clus scale="   90.775">  7  8 -1 -1</clus>
<clus scale="  125.140">  2  5  1 -1</clus>
<clus scale="  131.205">  1  5  2 -1</clus>
</clustering>
</event>
<event>
 9    1  0.2374319E-005  0.1591202E+03  0.7546771E-02  0.1191845E+00
         -4   -1    0    0    0  501 -0.00000000000E+00  0.00000000000E+00  0.50680231290E+02  0.50680231290E+02  0.00000000000E+00 0.  1.
          3   -1    0    0  502    0  0.00000000000E+00 -0.00000000000E+00 -0.66517113243E+03  0.66517113243E+03  0.00000000000E+00 0. -1.
        -24    2    1    2    0    0 -0.97023226108E+02  0.96515198792E+02 -0.15494848043E+03  0.22168287739E+03  0.80034845778E+02 0.  0.
         23    2    1    2    0    0  0.68744781957E+02 -0.92294525537E+02 -0.33339696981E+03  0.36482336942E+03  0.93265357462E+02 0.  0.
         13    1    3    3    0    0 -0.60502713341E+02  0.10478448621E+03 -0.12154921202E+03  0.17150678650E+03  0.00000000000E+00 0. -1.
        -14    1    3    3    0    0 -0.36520512767E+02 -0.82692874173E+01 -0.33399268409E+02  0.50176090894E+02  0.00000000000E+00 0.  1.
        -13    1    4    4    0    0  0.56414422153E+02 -0.14374409392E+01 -0.12880633090E+03  0.14062618584E+03  0.00000000000E+00 0. -1.
         13    1    4    4    0    0  0.12330359804E+02 -0.90857084598E+02 -0.20459063891E+03  0.22419718358E+03  0.00000000000E+00 0.  1.
         21    1    1    2  502  501  0.28278444151E+02 -0.42206732549E+01 -0.12614545090E+03  0.12934511691E+03  0.00000000000E+00 0.  1.
<scales pt_clust_5="13000.00000" pt_clust_6="13000.00000" pt_clust_7="13000.00000" pt_clust_8="13000.00000" pt_clust_9="28.59169"></scales>
<clustering>
<clus scale="   28.592">  2  9  1 -1</clus>
<clus scale="   80.035">  5  6 -1 -1</clus>
<clus scale="   93.265">  7  8 -1 -1</clus>
<clus scale="  151.744">  1  5  2 -1</clus>
<clus scale="   28.592">  2  5  1 -1</clus>
</clustering>
</event>
<event>
 9    1  0.2374319E-005  0.2247765E+03  0.7546771E-02  0.1130999E+00
         -2   -1    0    0    0  501 -0.00000000000E+00  0.00000000000E+00  0.21095183606E+03  0.21095183606E+03  0.00000000000E+00 0.  1.
          1   -1    0    0  502    0  0.00000000000E+00 -0.00000000000E+00 -0.39437846482E+03  0.39437846482E+03  0.00000000000E+00 0. -1.
         23    2    1    2    0    0 -0.99316820775E+02 -0.18673325104E+03  0.78546182536E+02  0.24248574245E+03  0.88863347724E+02 0.  0.
        -24    2    1    2    0    0  0.70371588432E+02  0.18012695580E+03 -0.18109532906E+03  0.27668983281E+03  0.79773834741E+02 0.  0.
         13    1    4    4    0    0  0.73969916604E+02  0.11000934874E+03 -0.14916868398E+03  0.19956177403E+03  0.00000000000E+00 0. -1.
        -14    1    4    4    0    0 -0.35983281725E+01  0.70117607058E+02 -0.31926645075E+02  0.77128058779E+02  0.00000000000E+00 0.  1.
        -11    1    3    3    0    0 -0.34148155753E+02 -0.15099422874E+03  0.58634605585E+02  0.16553963461E+03  0.00000000000E+00 0.  1.
         11    1    3    3    0    0 -0.65168665022E+02 -0.35739022301E+02  0.19911576952E+02  0.76946107845E+02  0.00000000000E+00 0. -1.
         21    1    1    2  502  501  0.28945232343E+02  0.66062952418E+01 -0.80877482242E+02  0.86154725616E+02  0.00000000000E+00 0.  1.
<scales pt_clust_5="13000.00000" pt_clust_6="13000.00000" pt_clust_7="13000.00000" pt_clust_8="13000.00000" pt_clust_9="29.68955"></scales>
<clustering>
<clus scale="   29.690">  2  9  1 -1</clus>
<clus scale="   79.774">  5  6 -1 -1</clus>
<clus scale="   88.863">  7  8 -1 -1</clus>
<clus scale="  221.341">  2  5  1 -1</clus>
<clus scale="   29.690">  2  5  1 -1</clus>
</clustering>
</event>
<event>
 9    1  0.2374319E-005  0.1148773E+03  0.7546771E-02  0.1256055E+00
         -2   -1    0    0    0  501 -0.00000000000E+00  0.00000000000E+00  0.13946415337E+04  0.13946415337E+04  0.00000000000E+00 0.  1.
          1   -1    0    0  502    0  0.00000000000E+00 -0.00000000000E+00 -0.62781069165E+02  0.62781069165E+02  0.00000000000E+00 0. -1.
        -24    2    1    2    0    0 -0.51122300915E+02  0.49555696142E+02  0.13155003779E+04  0.13197773806E+04  0.78751720116E+02 0.  0.
         23    2    1    2    0    0  0.42242514559E+02 -0.24452642106E+02 -0.53677878888E+01  0.10327787646E+03  0.90857827829E+02 0.  0.
         13    1    3    3    0    0 -0.91864222613E+01  0.34555694509E+02  0.18637072275E+03  0.18976968324E+03  0.00000000000E+00 0. -1.
        -14    1    3    3    0    0 -0.41935878654E+02  0.15000001634E+02  0.11291296551E+04  0.11300076973E+04  0.00000000000E+00 0.  1.
        -11    1    4    4    0    0  0.48455476442E+02  0.13819830019E+02  0.22846762153E+02  0.55325359826E+02  0.00000000000E+00 0.  1.
         11    1    4    4    0    0 -0.62129618834E+01 -0.38272472125E+02 -0.28214550041E+02  0.47952516638E+02  0.00000000000E+00 0. -1.
         21    1    1    2  502  501  0.88797863562E+01 -0.25103054036E+02  0.21727874592E+02  0.34367345867E+02  0.00000000000E+00 0.  1.
<scales pt_clust_5="13000.00000" pt_clust_6="13000.00000" pt_clust_7="13000.00000" pt_clust_8="13000.00000" pt_clust_9="26.62732"></scales>
<clustering>
<clus scale="   26.627">  2  9  1 -1</clus>
<clus scale="   78.752">  5  6 -1 -1</clus>
<clus scale="   90.858">  7  8 -1 -1</clus>
<clus scale="  105.563">  1  5  2 -1</clus>
<clus scale="   26.627">  2  5  1 -1</clus>
</clustering>
</event>
<event>
 9    1  0.2374319E-005  0.1205695E+03  0.7546771E-02  0.1255898E+00
          1   -1    0    0  502    0  0.00000000000E+00  0.00000000000E+00  0.24145988094E+03  0.24145988094E+03  0.00000000000E+00 0. -1.
         -2   -1    0    0    0  501 -0.00000000000E+00 -0.00000000000E+00 -0.12360662004E+03  0.12360662004E+03  0.00000000000E+00 0.  1.
        -24    2    1    2    0    0  0.50542946388E+02 -0.48383513377E+01 -0.47172840783E+02  0.10302577862E+03  0.76230145475E+02 0.  0.
         23    2    1    2    0    0  0.32831212989E+02 -0.40193182945E+02  0.68478578705E+02  0.12676133101E+03  0.93197311104E+02 0.  0.
         13    1    3    3    0    0  0.14146973892E+02 -0.38468664209E+02 -0.29147273675E+02  0.50294518180E+02  0.00000000000E+00 0. -1.
        -14    1    3    3    0    0  0.36395972496E+02  0.33630312871E+02 -0.18025567108E+02  0.52731260438E+02  0.00000000000E+00 0.  1.
        -11    1    4    4    0    0 -0.21944736603E+02 -0.34303448465E+02  0.24894799791E+01  0.40798229762E+02  0.00000000000E+00 0. -1.
         11    1    4    4    0    0  0.54775949591E+02 -0.58897344802E+01  0.65989098726E+02  0.85963101250E+02  0.00000000000E+00 0.  1.
         21    1    1    2  502  501 -0.83374159377E+02  0.45031534283E+02  0.96547522974E+02  0.13527939135E+03  0.00000000000E+00 0. -1.
<scales pt_clust_5="13000.00000" pt_clust_6="13000.00000" pt_clust_7="13000.00000" pt_clust_8="13000.00000" pt_clust_9="76.49362"></scales>
<clustering>
<clus scale="   76.230">  5  6 -1 -1</clus>
<clus scale="   91.592">  2  5  1 -1</clus>
<clus scale="   76.494">  2  9  1 -1</clus>
<clus scale="   93.197">  7  8 -1 -1</clus>
<clus scale="  120.570">  1  5  2 -1</clus>
</clustering>
</event>
<event>
 9    1  0.2374319E-005  0.8999399E+02  0.7546771E-02  0.1315747E+00
          3   -1    0    0  502    0  0.00000000000E+00  0.00000000000E+00  0.12430242676E+03  0.12430242676E+03  0.00000000000E+00 0. -1.
         -4   -1    0    0    0  501 -0.00000000000E+00 -0.00000000000E+00 -0.19873596982E+03  0.19873596982E+03  0.00000000000E+00 0.  1.
        -24    2    1    2    0    0  0.72487443991E+01 -0.13543790891E+02 -0.15500876530E+03  0.17056675770E+03  0.69493330220E+02 0.  0.
         23    2    1    2    0    0 -0.34740698153E+02 -0.57647629547E+00  0.74699941860E+02  0.12101200783E+03  0.88637330122E+02 0.  0.
         11    1    3    3    0    0 -0.22499607018E+02 -0.10598698570E+02 -0.18963465207E+02  0.31275833162E+02  0.00000000000E+00 0. -1.
        -12    1    3    3    0    0  0.29748351417E+02 -0.29450923209E+01 -0.13604530009E+03  0.13929092454E+03  0.00000000000E+00 0.  1.
        -13    1    4    4    0    0 -0.14778633822E+02 -0.39582584348E+02  0.62653577475E+02  0.75568907440E+02  0.00000000000E+00 0. -1.
         13    1    4    4    0    0 -0.19962064331E+02  0.39006108053E+02  0.12046364385E+02  0.45443100386E+02  0.00000000000E+00 0.  1.
         21    1    1    2  502  501  0.27491953754E+02  0.14120267186E+02  0.58752803730E+01  0.31459631054E+02  0.00000000000E+00 0. -1.
<scales pt_clust_5="13000.00000" pt_clust_6="13000.00000" pt_clust_7="13000.00000" pt_clust_8="13000.00000" pt_clust_9="30.90614"></scales>
<clustering>
<clus scale="   30.906">  1  9  2 -1</clus>
<clus scale="   69.493">  5  6 -1 -1</clus>
<clus scale="   71.216">  2  5  1 -1</clus>
<clus scale="   88.637">  7  8 -1 -1</clus>
<clus scale="   30.906">  1  5  2 -1</clus>
</clustering>
</event>
<event>
 9    1  0.2374319E-005  0.9539544E+02  0.7546771E-02  0.1295772E+00
          1   -1    0    0  502    0  0.00000000000E+00  0.00000000000E+00  0.21612872136E+03  0.21612872136E+03  0.00000000000E+00 0. -1.
         -2   -1    0    0    0  501 -0.00000000000E+00 -0.00000000000E+00 -0.82844828203E+02  0.82844828203E+02  0.00000000000E+00 0.  1.
        -24    2    1    2    0    0 -0.20676082083E+02 -0.26893398249E+02 -0.27237596628E+02  0.92030176573E+02  0.81098159598E+02 0.  0.
         23    2    1    2    0    0  0.15045756685E+02  0.59161257688E+01  0.75682970060E+02  0.11936871368E+03  0.90882355323E+02 0.  0.
         11    1    3    3    0    0 -0.50976589401E+02 -0.10296383790E+02 -0.84001832814E+01  0.52680084142E+02  0.00000000000E+00 0. -1.
        -12    1    3    3    0    0  0.30300507318E+02 -0.16597014460E+02 -0.18837413347E+02  0.39350092430E+02  0.00000000000E+00 0.  1.
        -11    1    4    4    0    0 -0.34046303651E+02  0.22014524944E+02  0.30513136348E+02  0.50742896947E+02  0.00000000000E+00 0. -1.
         11    1    4    4    0    0  0.49092060336E+02 -0.16098399175E+02  0.45169833712E+02  0.68625816728E+02  0.00000000000E+00 0.  1.
         21    1    1    2  502  501  0.56303253983E+01  0.20977272481E+02  0.84838519724E+02  0.87574659313E+02  0.00000000000E+00 0. -1.
<scales pt_clust_5="13000.00000" pt_clust_6="13000.00000" pt_clust_7="13000.00000" pt_clust_8="13000.00000" pt_clust_9="21.71973"></scales>
<clustering>
<clus scale="   21.720">  1  9  2 -1</clus>
<clus scale="   81.098">  5  6 -1 -1</clus>
<clus scale="   86.125">  2  5  1 -1</clus>
<clus scale="   90.882">  7  8 -1 -1</clus>
<clus scale="   21.720">  1  5  2 -1</clus>
</clustering>
</event>
<event>
 9    1  0.2374319E-005  0.9356967E+02  0.7546771E-02  0.1300245E+00
         -2   -1    0    0    0  501 -0.00000000000E+00  0.00000000000E+00  0.12413217053E+03  0.12413217053E+03  0.00000000000E+00 0.  1.
          1   -1    0    0  502    0  0.00000000000E+00 -0.00000000000E+00 -0.37280492787E+03  0.37280492787E+03  0.00000000000E+00 0. -1.
         23    2    1    2    0    0 -0.14807097249E+02  0.14602959713E+02  0.94651294725E+02  0.13288174662E+03  0.90918614328E+02 0.  0.
        -24    2    1    2    0    0  0.14124705677E+02 -0.42901768698E+02 -0.26311556492E+03  0.27899837289E+03  0.81056909024E+02 0.  0.
         13    1    4    4    0    0  0.21226033080E+02 -0.36471018793E+02 -0.48988912296E+02  0.64657507067E+02  0.00000000000E+00 0. -1.
        -14    1    4    4    0    0 -0.71013274021E+01 -0.64307499044E+01 -0.21412665263E+03  0.21434086582E+03  0.00000000000E+00 0.  1.
        -13    1    3    3    0    0  0.16686825236E+01  0.50342765637E+02  0.34694332540E+02  0.61162695033E+02  0.00000000000E+00 0. -1.
         13    1    3    3    0    0 -0.16475779773E+02 -0.35739805924E+02  0.59956962185E+02  0.71719051591E+02  0.00000000000E+00 0.  1.
         21    1    1    2  502  501  0.68239157204E+00  0.28298808985E+02 -0.80208487141E+02  0.85056978888E+02  0.00000000000E+00 0. -1.
<scales pt_clust_5="13000.00000" pt_clust_6="13000.00000" pt_clust_7="13000.00000" pt_clust_8="13000.00000" pt_clust_9="28.30704"></scales>
<clustering>
<clus scale="   28.307">  2  9  1 -1</clus>
<clus scale="   81.057">  5  6 -1 -1</clus>
<clus scale="   84.020">  2  5  1 -1</clus>
<clus scale="   90.919">  7  8 -1 -1</clus>
<clus scale="   28.307">  2  5  1 -1</clus>
</clustering>
</event>
<event>
 9    1  0.2374319E-005  0.2503365E+03  0.7546771E-02  0.1113974E+00
         -4   -1    0    0    0  501 -0.00000000000E+00  0.00000000000E+00  0.11770633094E+03  0.11770633094E+03  0.00000000000E+00 0.  1.
          3   -1    0    0  502    0  0.00000000000E+00 -0.00000000000E+00 -0.85024011345E+03  0.85024011345E+03  0.00000000000E+00 0. -1.
        -24    2    1    2    0    0  0.10443782332E+02 -0.22845194476E+03 -0.11765894795E+03  0.26926986858E+03  0.79770109926E+02 0.  0.
         23    2    1    2    0    0 -0.45376859224E+02  0.23460640400E+03 -0.36657076777E+03  0.44785172295E+03  0.95382460727E+02 0.  0.
         11    1    3    3    0    0  0.18083812652E+02 -0.11111284834E+03 -0.99586585257E+02  0.15030162112E+03  0.00000000000E+00 0. -1.
        -12    1    3    3    0    0 -0.76400303193E+01 -0.11733909641E+03 -0.18072362695E+02  0.11896824746E+03  0.00000000000E+00 0.  1.
        -13    1    4    4    0    0 -0.12397316068E+02  0.11524677216E+03 -0.25926176609E+03  0.28399326629E+03  0.00000000000E+00 0.  1.
         13    1    4    4    0    0 -0.32979543156E+02  0.11935963183E+03 -0.10730900168E+03  0.16385845666E+03  0.00000000000E+00 0. -1.
         21    1    1    2  502  501  0.34933076892E+02 -0.61544592389E+01 -0.24830406678E+03  0.25082485286E+03  0.00000000000E+00 0. -1.
<scales pt_clust_5="13000.00000" pt_clust_6="13000.00000" pt_clust_7="13000.00000" pt_clust_8="13000.00000" pt_clust_9="35.47108"></scales>
<clustering>
<clus scale="   35.471">  2  9  1 -1</clus>
<clus scale="   79.770">  5  6 -1 -1</clus>
<clus scale="   95.382">  7  8 -1 -1</clus>
<clus scale="  244.814">  1  5  2 -1</clus>
<clus scale="   35.471">  2  5  1 -1</clus>
</clustering>
</event>
<event>
 9    1  0.2374319E-005  0.1173355E+03  0.7546771E-02  0.1248313E+00
          1   -1    0    0  502    0  0.00000000000E+00  0.00000000000E+00  0.25765839426E+03  0.25765839426E+03  0.00000000000E+00 0. -1.
         -2   -1    0    0    0  501 -0.00000000000E+00 -0.00000000000E+00 -0.41972312634E+03  0.41972312634E+03  0.00000000000E+00 0.  1.
        -24    2    1    2    0    0 -0.13316671321E+02 -0.81309494952E+02 -0.37932519019E+03  0.39701440796E+03  0.83332301738E+02 0.  0.
         23    2    1    2    0    0  0.12731821621E+02  0.55992952952E+02  0.56571200637E+02  0.11769472157E+03  0.85758012351E+02 0.  0.
         11    1    3    3    0    0  0.27468930313E+02 -0.15853213375E+02 -0.53572347339E+02  0.62256428634E+02  0.00000000000E+00 0. -1.
        -12    1    3    3    0    0 -0.40785601634E+02 -0.65456281576E+02 -0.32575284285E+03  0.33475797933E+03  0.00000000000E+00 0.  1.
        -11    1    4    4    0    0 -0.33191222395E+02  0.57868698666E+01  0.28352577437E+02  0.44034233889E+02  0.00000000000E+00 0.  1.
         11    1    4    4    0    0  0.45923044015E+02  0.50206083085E+02  0.28218623201E+02  0.73660487683E+02  0.00000000000E+00 0. -1.
         21    1    1    2  502  501  0.58484970016E+00  0.25316542000E+02  0.16068925747E+03  0.16267239107E+03  0.00000000000E+00 0.  1.
<scales pt_clust_5="13000.00000" pt_clust_6="13000.00000" pt_clust_7="13000.00000" pt_clust_8="13000.00000" pt_clust_9="25.32330"></scales>
<clustering>
<clus scale="   25.323">  1  9  2 -1</clus>
<clus scale="   83.332">  5  6 -1 -1</clus>
<clus scale="   85.758">  7  8 -1 -1</clus>
<clus scale="  115.574">  2  5  1 -1</clus>
<clus scale="   25.323">  1  5  2 -1</clus>
</clustering>
</event>
<event>
 9    1  0.2374319E-005  0.1155794E+03  0.7546771E-02  0.1254551E+00
          1   -1    0    0  502    0  0.00000000000E+00  0.00000000000E+00  0.70678805998E+02  0.70678805998E+02  0.00000000000E+00 0. -1.
         -2   -1    0    0    0  501 -0.00000000000E+00 -0.00000000000E+00 -0.34428326113E+03  0.34428326113E+03  0.00000000000E+00 0.  1.
        -24    2    1    2    0    0 -0.56891371694E+02  0.57565503774E+02 -0.23325468350E+03  0.25926607564E+03  0.79124807791E+02 0.  0.
         23    2    1    2    0    0  0.33401333925E+02 -0.37802954800E+02 -0.59428188766E+02  0.11955285636E+03  0.90644709409E+02 0.  0.
         11    1    3    3    0    0 -0.31882896581E+02  0.70952022883E+02 -0.12391343785E+03  0.14630532706E+03  0.00000000000E+00 0. -1.
        -12    1    3    3    0    0 -0.25008475113E+02 -0.13386519109E+02 -0.10934124565E+03  0.11296074858E+03  0.00000000000E+00 0.  1.
        -11    1    4    4    0    0 -0.10615616201E+02 -0.45188752675E+02 -0.15241774280E+01  0.46443920942E+02  0.00000000000E+00 0.  1.
         11    1    4    4    0    0  0.44016950125E+02  0.73857978753E+01 -0.57904011338E+02  0.73108935416E+02  0.00000000000E+00 0. -1.
         21    1    1    2  502  501  0.23490037769E+02 -0.19762548974E+02  0.19078417134E+02  0.36143135125E+02  0.00000000000E+00 0.  1.
<scales pt_clust_5="13000.00000" pt_clust_6="13000.00000" pt_clust_7="13000.00000" pt_clust_8="13000.00000" pt_clust_9="30.69756"></scales>
<clustering>
<clus scale="   30.698">  1  9  2 -1</clus>
<clus scale="   79.125">  5  6 -1 -1</clus>
<clus scale="   90.645">  7  8 -1 -1</clus>
<clus scale="  106.784">  2  5  1 -1</clus>
<clus scale="   30.698">  1  5  2 -1</clus>
</clustering>
</event>
<event>
 9    1  0.2374319E-005  0.1099558E+03  0.7546771E-02  0.1264594E+00
         -2   -1    0    0    0  501 -0.00000000000E+00  0.00000000000E+00  0.17939630683E+03  0.17939630683E+03  0.00000000000E+00 0.  1.
          1   -1    0    0  502    0  0.00000000000E+00 -0.00000000000E+00 -0.13854564778E+03  0.13854564778E+03  0.00000000000E+00 0. -1.
        -24    2    1    2    0    0 -0.62588415926E+02  0.61582897636E+01  0.12185575163E+03  0.16005065908E+03  0.82535779673E+02 0.  0.
         23    2    1    2    0    0  0.39431402762E+02 -0.25931459784E+02 -0.71399524775E+02  0.12596180377E+03  0.92418654716E+02 0.  0.
         11    1    3    3    0    0 -0.34455259108E+02  0.43390971313E+02  0.80320494430E+02  0.97577267317E+02  0.00000000000E+00 0. -1.
        -12    1    3    3    0    0 -0.28133156818E+02 -0.37232681549E+02  0.41535257204E+02  0.62473391767E+02  0.00000000000E+00 0.  1.
        -11    1    4    4    0    0 -0.23256154221E+02 -0.18067746754E+02 -0.52192542115E+02  0.59927903638E+02  0.00000000000E+00 0.  1.
         11    1    4    4    0    0  0.62687556984E+02 -0.78637130291E+01 -0.19206982660E+02  0.66033900128E+02  0.00000000000E+00 0. -1.
         21    1    1    2  502  501  0.23157013164E+02  0.19773170020E+02 -0.96055678118E+01  0.31929491764E+02  0.00000000000E+00 0. -1.
<scales pt_clust_5="13000.00000" pt_clust_6="13000.00000" pt_clust_7="13000.00000" pt_clust_8="13000.00000" pt_clust_9="30.45038"></scales>
<clustering>
<clus scale="   30.450">  2  9  1 -1</clus>
<clus scale="   82.536">  5  6 -1 -1</clus>
<clus scale="   92.419">  7  8 -1 -1</clus>
<clus scale="  101.790">  1  5  2 -1</clus>
<clus scale="   30.450">  2  5  1 -1</clus>
</clustering>
</event>
<event>
 9    1  0.2374319E-005  0.9879339E+02  0.7546771E-02  0.1289359E+00
         -4   -1    0    0    0  501 -0.00000000000E+00  0.00000000000E+00  0.12459700852E+03  0.12459700852E+03  0.00000000000E+00 0.  1.
          3   -1    0    0  502    0  0.00000000000E+00 -0.00000000000E+00 -0.18152042978E+03  0.18152042978E+03  0.00000000000E+00 0. -1.
        -24    2    1    2    0    0 -0.20956937772E+02 -0.36191168064E+02  0.85435612905E+02  0.12297663580E+03  0.77942383297E+02 0.  0.
         23    2    1    2    0    0  0.39186718623E+01  0.25597117921E+02 -0.10744036390E+03  0.14286860443E+03  0.90539703456E+02 0.  0.
         11    1    3    3    0    0 -0.38810545290E+02 -0.32132681499E+01  0.12389274880E+02  0.40866583536E+02  0.00000000000E+00 0. -1.
        -12    1    3    3    0    0  0.17853607517E+02 -0.32977899914E+02  0.73046338025E+02  0.82110052265E+02  0.00000000000E+00 0.  1.
        -13    1    4    4    0    0  0.32292275290E+02 -0.21584660742E+02 -0.49842542494E+02  0.63189933257E+02  0.00000000000E+00 0.  1.
         13    1    4    4    0    0 -0.28373603428E+02  0.47181778663E+02 -0.57597821409E+02  0.79678671176E+02  0.00000000000E+00 0. -1.
         21    1    1    2  502  501  0.17038265910E+02  0.10594050143E+02 -0.34918670263E+02  0.40272198060E+02  0.00000000000E+00 0.  1.
<scales pt_clust_5="13000.00000" pt_clust_6="13000.00000" pt_clust_7="13000.00000" pt_clust_8="13000.00000" pt_clust_9="20.06331"></scales>
<clustering>
<clus scale="   20.063">  2  9  1 -1</clus>
<clus scale="   77.942">  5  6 -1 -1</clus>
<clus scale="   87.394">  1  5  2 -1</clus>
<clus scale="   90.540">  7  8 -1 -1</clus>
<clus scale="   20.063">  2  5  1 -1</clus>
</clustering>
</event>
<event>
 9    1  0.2374319E-005  0.1341111E+03  0.7546771E-02  0.1235274E+00
          1   -1    0    0  502    0  0.00000000000E+00  0.00000000000E+00  0.34715398918E+03  0.34715398918E+03  0.00000000000E+00 0. -1.
         -2   -1    0    0    0  501 -0.00000000000E+00 -0.00000000000E+00 -0.19480218300E+03  0.19480218300E+03  0.00000000000E+00 0.  1.
         23    2    1    2    0    0 -0.97103532734E+02  0.29926847953E+02 -0.12549121637E+03  0.18538938316E+03  0.91084936753E+02 0.  0.
        -24    2    1    2    0    0  0.38958675567E+02  0.59837158935E+02  0.20105757794E+03  0.22490659818E+03  0.71137643093E+02 0.  0.
         13    1    4    4    0    0  0.37845989509E+02  0.50090098532E+02  0.20495184651E+03  0.21435157168E+03  0.00000000000E+00 0. -1.
        -14    1    4    4    0    0  0.11126860580E+01  0.97470604030E+01 -0.38942685672E+01  0.10555026501E+02  0.00000000000E+00 0.  1.
        -11    1    3    3    0    0 -0.44792030562E+02  0.36703510027E+02 -0.11887187676E+03  0.13222706506E+03  0.00000000000E+00 0.  1.
         11    1    3    3    0    0 -0.52311502171E+02 -0.67766620739E+01 -0.66193396094E+01  0.53162318094E+02  0.00000000000E+00 0. -1.
         21    1    1    2  502  501  0.58144857167E+02 -0.89764006888E+02  0.76785444610E+02  0.13166019084E+03  0.00000000000E+00 0. -1.
<scales pt_clust_5="13000.00000" pt_clust_6="13000.00000" pt_clust_7="13000.00000" pt_clust_8="13000.00000" pt_clust_9="98.43433"></scales>
<clustering>
<clus scale="   71.138">  5  6 -1 -1</clus>
<clus scale="   91.085">  7  8 -1 -1</clus>
<clus scale="  100.791">  1  5  2 -1</clus>
<clus scale="   98.434">  1  9  2 -1</clus>
<clus scale="  100.791">  1  5  2 -1</clus>
</clustering>
</event>
<event>
 9    1  0.2374319E-005  0.1328489E+03  0.7546771E-02  0.1226280E+00
         -2   -1    0    0    0  501 -0.00000000000E+00  0.00000000000E+00  0.13344897097E+03  0.13344897097E+03  0.00000000000E+00 0.  1.
          1   -1    0    0  502    0  0.00000000000E+00 -0.00000000000E+00 -0.29375535466E+03  0.29375535466E+03  0.00000000000E+00 0. -1.
         23    2    1    2    0    0  0.16520239178E+01  0.98768184123E+02  0.74020447079E+02  0.15437322352E+03  0.92704812036E+02 0.  0.
        -24    2    1    2    0    0  0.86879302283E+01 -0.78661054649E+02 -0.16601247504E+03  0.20087234652E+03  0.80786855842E+02 0.  0.
         11    1    4    4    0    0 -0.28506326113E+02 -0.33684342674E+02 -0.11565254765E+03  0.12378512571E+03  0.00000000000E+00 0. -1.
        -12    1    4    4    0    0  0.37194256341E+02 -0.44976711975E+02 -0.50359927391E+02  0.77087220807E+02  0.00000000000E+00 0.  1.
        -11    1    3    3    0    0  0.44158171104E+02  0.30716413439E+02  0.40882389344E+02  0.67563391628E+02  0.00000000000E+00 0.  1.
         11    1    3    3    0    0 -0.42506147186E+02  0.68051770684E+02  0.33138057735E+02  0.86809831887E+02  0.00000000000E+00 0. -1.
         21    1    1    2  502  501 -0.10339954146E+02 -0.20107129474E+02 -0.68314355728E+02  0.71958755590E+02  0.00000000000E+00 0. -1.
<scales pt_clust_5="13000.00000" pt_clust_6="13000.00000" pt_clust_7="13000.00000" pt_clust_8="13000.00000" pt_clust_9="22.60998"></scales>
<clustering>
<clus scale="   22.610">  2  9  1 -1</clus>
<clus scale="   80.787">  5  6 -1 -1</clus>
<clus scale="   92.705">  7  8 -1 -1</clus>
<clus scale="  124.824">  2  5  1 -1</clus>
<clus scale="   22.610">  2  5  1 -1</clus>
</clustering>
</event>
<event>
 9    1  0.2374319E-005  0.9431267E+02  0.7546771E-02  0.1295704E+00
          1   -1    0    0  502    0  0.00000000000E+00  0.00000000000E+00  0.27615054074E+03  0.27615054074E+03  0.00000000000E+00 0. -1.
         -2   -1    0    0    0  501 -0.00000000000E+00 -0.00000000000E+00 -0.94114742567E+02  0.94114742567E+02  0.00000000000E+00 0.  1.
         23    2    1    2    0    0  0.16403814625E+02  0.30322878252E+02 -0.43301700302E+02  0.10562237706E+03  0.89958252583E+02 0.  0.
        -24    2    1    2    0    0 -0.96995923014E+01 -0.46431560014E+01  0.80154315154E+02  0.11705377571E+03  0.84624057940E+02 0.  0.
         13    1    4    4    0    0 -0.16911148041E+02  0.38216738436E+02  0.41315643411E+02  0.58766388482E+02  0.00000000000E+00 0. -1.
        -14    1    4    4    0    0  0.72115557397E+01 -0.42859894437E+02  0.38838671742E+02  0.58287387230E+02  0.00000000000E+00 0.  1.
        -13    1    3    3    0    0 -0.31181203610E+02  0.10943991131E+02  0.69331474665E+01  0.33765469554E+02  0.00000000000E+00 0. -1.
         13    1    3    3    0    0  0.47585018235E+02  0.19378887121E+02 -0.50234847769E+02  0.71856907509E+02  0.00000000000E+00 0.  1.
         21    1    1    2  502  501 -0.67042223233E+01 -0.25679722250E+02  0.14518318332E+03  0.14758913053E+03  0.00000000000E+00 0. -1.
<scales pt_clust_5="13000.00000" pt_clust_6="13000.00000" pt_clust_7="13000.00000" pt_clust_8="13000.00000" pt_clust_9="26.54044"></scales>
<clustering>
<clus scale="   26.540">  1  9  2 -1</clus>
<clus scale="   84.624">  5  6 -1 -1</clus>
<clus scale="   89.239">  1  5  2 -1</clus>
<clus scale="   89.958">  7  8 -1 -1</clus>
<clus scale="   26.540">  1  5  2 -1</clus>
</clustering>
</event>
<event>
 9    1  0.2374319E-005  0.9446694E+02  0.7546771E-02  0.1301763E+00
          1   -1    0    0  502    0  0.00000000000E+00  0.00000000000E+00  0.15552807916E+03  0.15552807916E+03  0.00000000000E+00 0. -1.
         -2   -1    0    0    0  501 -0.00000000000E+00 -0.00000000000E+00 -0.22099081944E+03  0.22099081944E+03  0.00000000000E+00 0.  1.
         23    2    1    2    0    0 -0.26378519166E+02  0.17451724357E+02 -0.16522323121E+03  0.19147067216E+03  0.91443497361E+02 0.  0.
        -24    2    1    2    0    0 -0.25504031335E+02  0.24717612445E+02  0.78885127564E+02  0.11500657590E+03  0.75777524176E+02 0.  0.
         11    1    4    4    0    0 -0.35847353571E+02 -0.51743026974E+01  0.74807225161E+02  0.83113940484E+02  0.00000000000E+00 0. -1.
        -12    1    4    4    0    0  0.10343322236E+02  0.29891915143E+02  0.40779024025E+01  0.31892635416E+02  0.00000000000E+00 0.  1.
        -13    1    3    3    0    0  0.24237625118E+02 -0.22690335286E+01 -0.88031382081E+01  0.25886410080E+02  0.00000000000E+00 0.  1.
         13    1    3    3    0    0 -0.50616144284E+02  0.19720757885E+02 -0.15642009301E+03  0.16558426208E+03  0.00000000000E+00 0. -1.
         21    1    1    2  502  501  0.51882550501E+02 -0.42169336802E+02  0.20875363370E+02  0.70041650528E+02  0.00000000000E+00 0.  1.
<scales pt_clust_5="13000.00000" pt_clust_6="13000.00000" pt_clust_7="13000.00000" pt_clust_8="13000.00000" pt_clust_9="66.85845"></scales>
<clustering>
<clus scale="   66.858">  1  9  2 -1</clus>
<clus scale="   75.778">  5  6 -1 -1</clus>
<clus scale="   79.400">  1  5  2 -1</clus>
<clus scale="   91.443">  7  8 -1 -1</clus>
<clus scale="   66.858">  1  5  2 -1</clus>
</clustering>
</event>
<event>
 9    1  0.2374319E-005  0.9208763E+02  0.7546771E-02  0.1302706E+00
          1   -1    0    0  502    0  0.00000000000E+00  0.00000000000E+00  0.45922440439E+03  0.45922440439E+03  0.00000000000E+00 0. -1.
         -2   -1    0    0    0  501 -0.00000000000E+00 -0.00000000000E+00 -0.48966894747E+02  0.48966894747E+02  0.00000000000E+00 0.  1.
         23    2    1    2    0    0  0.22495457527E+02 -0.12127453387E+02  0.92723752777E+01  0.93102083892E+02  0.89044372909E+02 0.  0.
        -24    2    1    2    0    0 -0.16884603471E+02 -0.11094057268E+02  0.31348643100E+03  0.32438781872E+03  0.80904552246E+02 0.  0.
         11    1    4    4    0    0 -0.16798686014E+02 -0.38310788444E+02  0.89959408380E+02  0.99209916435E+02  0.00000000000E+00 0. -1.
        -12    1    4    4    0    0 -0.85917457278E-01  0.27216731176E+02  0.22352702262E+03  0.22517790229E+03  0.00000000000E+00 0.  1.
        -11    1    3    3    0    0 -0.39246211468E+01 -0.45746376297E+02 -0.86808488841E+01  0.46727836808E+02  0.00000000000E+00 0.  1.
         11    1    3    3    0    0  0.26420078674E+02  0.33618922910E+02  0.17953224162E+02  0.46374247084E+02  0.00000000000E+00 0. -1.
         21    1    1    2  502  501 -0.56108540561E+01  0.23221510655E+02  0.87498703364E+02  0.90701396520E+02  0.00000000000E+00 0. -1.
<scales pt_clust_5="13000.00000" pt_clust_6="13000.00000" pt_clust_7="13000.00000" pt_clust_8="13000.00000" pt_clust_9="23.88975"></scales>
<clustering>
<clus scale="   23.890">  1  9  2 -1</clus>
<clus scale="   80.905">  5  6 -1 -1</clus>
<clus scale="   84.242">  1  5  2 -1</clus>
<clus scale="   89.044">  7  8 -1 -1</clus>
<clus scale="   23.890">  1  5  2 -1</clus>
</clustering>
</event>
<event>
 9    1  0.2374319E-005  0.1453565E+03  0.7546771E-02  0.1214546E+00
         -2   -1    0    0    0  501 -0.00000000000E+00  0.00000000000E+00  0.29674198510E+03  0.29674198510E+03  0.00000000000E+00 0.  1.
          1   -1    0    0  502    0  0.00000000000E+00 -0.00000000000E+00 -0.23471373946E+03  0.23471373946E+03  0.00000000000E+00 0. -1.
        -24    2    1    2    0    0 -0.37679802742E+02 -0.82834769943E+02  0.23684723091E+03  0.26603470145E+03  0.79978027853E+02 0.  0.
         23    2    1    2    0    0  0.99928194929E+01  0.10700888885E+03 -0.10886207660E+03  0.18991426271E+03  0.11254206646E+03 0.  0.
         13    1    3    3    0    0  0.45555973630E+01 -0.41245034138E+02  0.30927522398E+02  0.51753434186E+02  0.00000000000E+00 0. -1.
        -14    1    3    3    0    0 -0.42235400105E+02 -0.41589735805E+02  0.20591970851E+03  0.21428126726E+03  0.00000000000E+00 0.  1.
        -11    1    4    4    0    0 -0.30582346905E+02 -0.78367198783E+01 -0.10235647527E+02  0.33188290119E+02  0.00000000000E+00 0.  1.
         11    1    4    4    0    0  0.40575166398E+02  0.11484560873E+03 -0.98626429071E+02  0.15672597259E+03  0.00000000000E+00 0. -1.
         21    1    1    2  502  501  0.27686983250E+02 -0.24174118912E+02 -0.65956908670E+02  0.75506760412E+02  0.00000000000E+00 0.  1.
<scales pt_clust_5="13000.00000" pt_clust_6="13000.00000" pt_clust_7="13000.00000" pt_clust_8="13000.00000" pt_clust_9="36.75537"></scales>
<clustering>
<clus scale="   36.755">  2  9  1 -1</clus>
<clus scale="   79.978">  5  6 -1 -1</clus>
<clus scale="  112.542">  7  8 -1 -1</clus>
<clus scale="  121.899">  1  5  2 -1</clus>
<clus scale="   36.755">  2  5  1 -1</clus>
</clustering>
</event>
<event>
 9    1  0.2374319E-005  0.8923885E+02  0.7546771E-02  0.1309358E+00
         -2   -1    0    0    0  501 -0.00000000000E+00  0.00000000000E+00  0.62936647544E+02  0.62936647544E+02  0.00000000000E+00 0.  1.
          1   -1    0    0  502    0  0.00000000000E+00 -0.00000000000E+00 -0.25774704691E+03  0.25774704691E+03  0.00000000000E+00 0. -1.
        -24    2    1    2    0    0  0.12160921315E+02 -0.10813953113E+01  0.12218424673E+02  0.83029010488E+02  0.81212494470E+02 0.  0.
         23    2    1    2    0    0 -0.43988715561E+01 -0.20665704544E+02 -0.18267059235E+03  0.20409117373E+03  0.88533837985E+02 0.  0.
         13    1    3    3    0    0  0.24026609876E+02 -0.14992954482E+02 -0.27393053714E+02  0.39401092092E+02  0.00000000000E+00 0. -1.
        -14    1    3    3    0    0 -0.11865688561E+02  0.13911559170E+02  0.39611478387E+02  0.43627918396E+02  0.00000000000E+00 0.  1.
        -13    1    4    4    0    0 -0.17362370130E+01 -0.42050745800E+02 -0.17682173976E+03  0.18176140237E+03  0.00000000000E+00 0. -1.
         13    1    4    4    0    0 -0.26626345431E+01  0.21385041257E+02 -0.58488525979E+01  0.22329771360E+02  0.00000000000E+00 0.  1.
         21    1    1    2  502  501 -0.77620497588E+01  0.21747099855E+02 -0.24358231683E+02  0.33563510235E+02  0.00000000000E+00 0.  1.
<scales pt_clust_5="13000.00000" pt_clust_6="13000.00000" pt_clust_7="13000.00000" pt_clust_8="13000.00000" pt_clust_9="23.09082"></scales>
<clustering>
<clus scale="   23.091">  2  9  1 -1</clus>
<clus scale="   81.212">  5  6 -1 -1</clus>
<clus scale="   81.980">  1  5  2 -1</clus>
<clus scale="   88.534">  7  8 -1 -1</clus>
<clus scale="   23.091">  2  5  1 -1</clus>
</clustering>
</event>
<event>
 9    1  0.2374319E-005  0.1103473E+03  0.7546771E-02  0.1265265E+00
         -2   -1    0    0    0  501 -0.00000000000E+00  0.00000000000E+00  0.18993439858E+03  0.18993439858E+03  0.00000000000E+00 0.  1.
          1   -1    0    0  502    0  0.00000000000E+00 -0.00000000000E+00 -0.10170610801E+03  0.10170610801E+03  0.00000000000E+00 0. -1.
         23    2    1    2    0    0  0.99722691273E+01  0.60278527095E+02  0.11216752066E+03  0.15829009558E+03  0.93494677314E+02 0.  0.
        -24    2    1    2    0    0  0.21095140446E+02 -0.54438240357E+02 -0.14242193537E+02  0.10028493953E+03  0.80285129727E+02 0.  0.
         11    1    4    4    0    0  0.30282599186E+02 -0.72210724641E+02 -0.16888355103E+02  0.80103939383E+02  0.00000000000E+00 0. -1.
        -12    1    4    4    0    0 -0.91874587400E+01  0.17772484284E+02  0.26461615660E+01  0.20181000143E+02  0.00000000000E+00 0.  1.
        -13    1    3    3    0    0 -0.84319020911E+01  0.78164949618E+02  0.55959730213E+02  0.96500506357E+02  0.00000000000E+00 0.  1.
         13    1    3    3    0    0  0.18404171218E+02 -0.17886422523E+02  0.56207790446E+02  0.61789589218E+02  0.00000000000E+00 0. -1.
         21    1    1    2  502  501 -0.31067409573E+02 -0.58402867385E+01 -0.96970365493E+01  0.33065471486E+02  0.00000000000E+00 0. -1.
<scales pt_clust_5="13000.00000" pt_clust_6="13000.00000" pt_clust_7="13000.00000" pt_clust_8="13000.00000" pt_clust_9="31.61159"></scales>
<clustering>
<clus scale="   31.612">  2  9  1 -1</clus>
<clus scale="   80.285">  5  6 -1 -1</clus>
<clus scale="   93.495">  7  8 -1 -1</clus>
<clus scale="   99.403">  2  5  1 -1</clus>
<clus scale="   31.612">  2  5  1 -1</clus>
</clustering>
</event>
<event>
 9    1  0.2374319E-005  0.1075109E+03  0.7546771E-02  0.1269960E+00
          1   -1    0    0  502    0  0.00000000000E+00  0.00000000000E+00  0.36224662572E+03  0.36224662572E+03  0.00000000000E+00 0. -1.
         -2   -1    0    0    0  501 -0.00000000000E+00 -0.00000000000E+00 -0.98953458213E+02  0.98953458213E+02  0.00000000000E+00 0.  1.
         23    2    1    2    0    0 -0.37983427034E+02  0.37850202128E+02 -0.52698996649E+02  0.12055241524E+03  0.94235460646E+02 0.  0.
        -24    2    1    2    0    0  0.71527057250E+01 -0.45811313981E+02  0.23486858053E+03  0.25349866698E+03  0.83357581260E+02 0.  0.
         11    1    4    4    0    0  0.35633010382E+02 -0.51169369221E+02  0.12254080198E+03  0.13749277772E+03  0.00000000000E+00 0. -1.
        -12    1    4    4    0    0 -0.28480304657E+02  0.53580552408E+01  0.11232777855E+03  0.11600588926E+03  0.00000000000E+00 0.  1.
        -11    1    3    3    0    0 -0.48684475037E+02 -0.17363647295E+02 -0.19504694076E+02  0.55245881729E+02  0.00000000000E+00 0. -1.
         11    1    3    3    0    0  0.10701048003E+02  0.55213849423E+02 -0.33194302573E+02  0.65306533515E+02  0.00000000000E+00 0.  1.
         21    1    1    2  502  501  0.30830721309E+02  0.79611118527E+01  0.81123583626E+02  0.87149001708E+02  0.00000000000E+00 0.  1.
<scales pt_clust_5="13000.00000" pt_clust_6="13000.00000" pt_clust_7="13000.00000" pt_clust_8="13000.00000" pt_clust_9="31.84200"></scales>
<clustering>
<clus scale="   31.842">  1  9  2 -1</clus>
<clus scale="   83.358">  5  6 -1 -1</clus>
<clus scale="   94.235">  7  8 -1 -1</clus>
<clus scale="   98.116">  1  5  2 -1</clus>
<clus scale="   31.842">  1  5  2 -1</clus>
</clustering>
</event>
<event>
 9    1  0.2374319E-005  0.1241199E+03  0.7546771E-02  0.1239115E+00
          3   -1    0    0  502    0  0.00000000000E+00  0.00000000000E+00  0.19566666552E+03  0.19566666552E+03  0.00000000000E+00 0. -1.
         -4   -1    0    0    0  501 -0.00000000000E+00 -0.00000000000E+00 -0.12437714576E+03  0.12437714576E+03  0.00000000000E+00 0.  1.
         23    2    1    2    0    0 -0.44961224772E+02  0.68235791942E+02 -0.38125925499E+02  0.12754662729E+03  0.90204882918E+02 0.  0.
        -24    2    1    2    0    0  0.28271401811E+02 -0.92276018856E+02  0.72309978555E+02  0.14523939775E+03  0.80942040027E+02 0.  0.
         11    1    4    4    0    0  0.24514038003E+02 -0.73246278290E+02  0.90269555225E+02  0.11880466297E+03  0.00000000000E+00 0. -1.
        -12    1    4    4    0    0  0.37573638078E+01 -0.19029740567E+02 -0.17959576669E+02  0.26434734781E+02  0.00000000000E+00 0.  1.
        -13    1    3    3    0    0 -0.71988591311E+02  0.40069772182E+02 -0.29948977348E+02  0.87663476807E+02  0.00000000000E+00 0.  1.
         13    1    3    3    0    0  0.27027366540E+02  0.28166019760E+02 -0.81769481509E+01  0.39883150481E+02  0.00000000000E+00 0. -1.
         21    1    1    2  502  501  0.16689822961E+02  0.24040226914E+02  0.37105466711E+02  0.47257786241E+02  0.00000000000E+00 0.  1.
<scales pt_clust_5="13000.00000" pt_clust_6="13000.00000" pt_clust_7="13000.00000" pt_clust_8="13000.00000" pt_clust_9="29.26573"></scales>
<clustering>
<clus scale="   29.266">  1  9  2 -1</clus>
<clus scale="   80.942">  5  6 -1 -1</clus>
<clus scale="   90.205">  7  8 -1 -1</clus>
<clus scale="  117.560">  1  5  2 -1</clus>
<clus scale="   29.266">  1  5  2 -1</clus>
</clustering>
</event>
<event>
 9    1  0.2374319E-005  0.1098131E+03  0.7546771E-02  0.1267252E+00
          1   -1    0    0  502    0  0.00000000000E+00  0.00000000000E+00  0.13655672678E+03  0.13655672678E+03  0.00000000000E+00 0. -1.
         -2   -1    0    0    0  501 -0.00000000000E+00 -0.00000000000E+00 -0.18949913266E+03  0.18949913266E+03  0.00000000000E+00 0.  1.
        -24    2    1    2    0    0 -0.16504376236E+02  0.56431282860E+02 -0.13721138766E+03  0.16829739010E+03  0.77718482312E+02 0.  0.
         23    2    1    2    0    0  0.36961019331E+02 -0.44463969165E+02  0.69024480754E+02  0.12957894388E+03  0.93183486999E+02 0.  0.
         13    1    3    3    0    0  0.22792790946E+02  0.44915272511E+02 -0.10406684384E+03  0.11561488231E+03  0.00000000000E+00 0. -1.
        -14    1    3    3    0    0 -0.39297167182E+02  0.11516010349E+02 -0.33144543811E+02  0.52682507793E+02  0.00000000000E+00 0.  1.
        -13    1    4    4    0    0 -0.27200347510E+02 -0.18374514478E+02  0.15174475659E+01  0.32860072034E+02  0.00000000000E+00 0.  1.
         13    1    4    4    0    0  0.64161366841E+02 -0.26089454687E+02  0.67507033188E+02  0.96718871843E+02  0.00000000000E+00 0. -1.
         21    1    1    2  502  501 -0.20456643095E+02 -0.11967313695E+02  0.15244501023E+02  0.28179525461E+02  0.00000000000E+00 0.  1.
<scales pt_clust_5="13000.00000" pt_clust_6="13000.00000" pt_clust_7="13000.00000" pt_clust_8="13000.00000" pt_clust_9="23.70002"></scales>
<clustering>
<clus scale="   23.700">  1  9  2 -1</clus>
<clus scale="   77.718">  5  6 -1 -1</clus>
<clus scale="   93.183">  7  8 -1 -1</clus>
<clus scale="   97.036">  2  5  1 -1</clus>
<clus scale="   23.700">  1  5  2 -1</clus>
</clustering>
</event>
<event>
 9    1  0.2374319E-005  0.1264168E+03  0.7546771E-02  0.1236819E+00
          1   -1    0    0  502    0  0.00000000000E+00  0.00000000000E+00  0.49181444811E+03  0.49181444811E+03  0.00000000000E+00 0. -1.
         -2   -1    0    0    0  501 -0.00000000000E+00 -0.00000000000E+00 -0.43535289405E+02  0.43535289405E+02  0.00000000000E+00 0.  1.
        -24    2    1    2    0    0  0.45691983362E+02  0.78698829197E+02  0.91558458963E+02  0.15168532773E+03  0.79650638291E+02 0.  0.
         23    2    1    2    0    0 -0.25987685036E+02 -0.65451032377E+02  0.30773858662E+03  0.32923086407E+03  0.93438358021E+02 0.  0.
         11    1    3    3    0    0  0.21185013747E+02  0.38250148040E+02  0.94679860039E+02  0.10428880347E+03  0.00000000000E+00 0. -1.
        -12    1    3    3    0    0  0.24506969615E+02  0.40448681157E+02 -0.31214010758E+01  0.47396524258E+02  0.00000000000E+00 0.  1.
        -11    1    4    4    0    0  0.10132100070E+02 -0.25578069492E+02  0.14502417090E+02  0.31100115631E+02  0.00000000000E+00 0.  1.
         11    1    4    4    0    0 -0.36119785106E+02 -0.39872962885E+02  0.29323616953E+03  0.29813074844E+03  0.00000000000E+00 0. -1.
         21    1    1    2  502  501 -0.19704298326E+02 -0.13247796820E+02  0.48982113122E+02  0.54433545714E+02  0.00000000000E+00 0. -1.
<scales pt_clust_5="13000.00000" pt_clust_6="13000.00000" pt_clust_7="13000.00000" pt_clust_8="13000.00000" pt_clust_9="23.74370"></scales>
<clustering>
<clus scale="   23.744">  1  9  2 -1</clus>
<clus scale="   79.651">  5  6 -1 -1</clus>
<clus scale="   93.438">  7  8 -1 -1</clus>
<clus scale="  116.596">  2  5  1 -1</clus>
<clus scale="   23.744">  1  5  2 -1</clus>
</clustering>
</event>
<event>
 9    1  0.2374319E-005  0.1601658E+03  0.7546771E-02  0.1189471E+00
          1   -1    0    0  502    0  0.00000000000E+00  0.00000000000E+00  0.86380119832E+03  0.86380119832E+03  0.00000000000E+00 0. -1.
         -2   -1    0    0    0  501 -0.00000000000E+00 -0.00000000000E+00 -0.61801771890E+02  0.61801771890E+02  0.00000000000E+00 0.  1.
         23    2    1    2    0    0  0.18776927358E+02  0.11855165956E+03  0.12627370128E+03  0.19522309828E+03  0.88090530028E+02 0.  0.
        -24    2    1    2    0    0  0.30863786772E+02 -0.17818463820E+03  0.45470343546E+03  0.49613396443E+03  0.81800720156E+02 0.  0.
         11    1    4    4    0    0  0.19818860506E+02 -0.11962569115E+03  0.38886523679E+03  0.40733188630E+03  0.00000000000E+00 0. -1.
        -12    1    4    4    0    0  0.11044926267E+02 -0.58558947051E+02  0.65838198674E+02  0.88802078132E+02  0.00000000000E+00 0.  1.
        -11    1    3    3    0    0  0.46311100117E+02  0.85788311141E+02  0.54584200099E+02  0.11173086961E+03  0.00000000000E+00 0. -1.
         11    1    3    3    0    0 -0.27534172759E+02  0.32763348421E+02  0.71689501177E+02  0.83492228670E+02  0.00000000000E+00 0.  1.
         21    1    1    2  502  501 -0.49640714131E+02  0.59632978637E+02  0.22102228969E+03  0.23424590750E+03  0.00000000000E+00 0.  1.
<scales pt_clust_5="13000.00000" pt_clust_6="13000.00000" pt_clust_7="13000.00000" pt_clust_8="13000.00000" pt_clust_9="77.59054"></scales>
<clustering>
<clus scale="   77.591">  1  9  2 -1</clus>
<clus scale="   81.801">  5  6 -1 -1</clus>
<clus scale="   88.091">  7  8 -1 -1</clus>
<clus scale="  156.794">  1  5  2 -1</clus>
<clus scale="   77.591">  1  5  2 -1</clus>
</clustering>
</event>
<event>
 9    1  0.2374319E-005  0.1150943E+03  0.7546771E-02  0.1256079E+00
          1   -1    0    0  502    0  0.00000000000E+00  0.00000000000E+00  0.34174130121E+03  0.34174130121E+03  0.00000000000E+00 0. -1.
         -2   -1    0    0    0  501 -0.00000000000E+00 -0.00000000000E+00 -0.70882176509E+02  0.70882176509E+02  0.00000000000E+00 0.  1.
        -24    2    1    2    0    0  0.12296689362E+01  0.75798150355E+02 -0.28267991635E+00  0.10919053490E+03  0.78585121500E+02 0.  0.
         23    2    1    2    0    0 -0.11157458257E+02 -0.46076999628E+02  0.18649385794E+03  0.21317119744E+03  0.91730156438E+02 0.  0.
         11    1    3    3    0    0  0.19092280716E+02  0.23287482424E+02 -0.33095966755E+02  0.44745558842E+02  0.00000000000E+00 0. -1.
        -12    1    3    3    0    0 -0.17862611780E+02  0.52510667932E+02  0.32813286839E+02  0.64444976060E+02  0.00000000000E+00 0.  1.
        -11    1    4    4    0    0 -0.21440320904E+02  0.23107076001E+02  0.40804609100E+02  0.51562005833E+02  0.00000000000E+00 0.  1.
         11    1    4    4    0    0  0.10282862647E+02 -0.69184075629E+02  0.14568924884E+03  0.16160919161E+03  0.00000000000E+00 0. -1.
         21    1    1    2  502  501  0.99277893212E+01 -0.29721150727E+02  0.84647946685E+02  0.90261745382E+02  0.00000000000E+00 0. -1.
<scales pt_clust_5="13000.00000" pt_clust_6="13000.00000" pt_clust_7="13000.00000" pt_clust_8="13000.00000" pt_clust_9="31.33541"></scales>
<clustering>
<clus scale="   31.335">  1  9  2 -1</clus>
<clus scale="   78.585">  5  6 -1 -1</clus>
<clus scale="   91.730">  7  8 -1 -1</clus>
<clus scale="  104.919">  2  5  1 -1</clus>
<clus scale="   31.335">  1  5  2 -1</clus>
</clustering>
</event>
<event>
 9    1  0.2374319E-005  0.9979661E+02  0.7546771E-02  0.1289738E+00
          3   -1    0    0  502    0  0.00000000000E+00  0.00000000000E+00  0.97818369089E+02  0.97818369089E+02  0.00000000000E+00 0. -1.
         -4   -1    0    0    0  501 -0.00000000000E+00 -0.00000000000E+00 -0.32226372585E+03  0.32226372585E+03  0.00000000000E+00 0.  1.
        -24    2    1    2    0    0 -0.12419008525E+02 -0.18418442477E+02 -0.27052998108E+03  0.28318902710E+03  0.80722262160E+02 0.  0.
         23    2    1    2    0    0  0.28025469047E+02  0.31940814163E+02  0.27998688731E+02  0.10944279986E+03  0.96892504070E+02 0.  0.
         13    1    3    3    0    0 -0.16267097613E+02 -0.49653951787E+02 -0.16825440636E+03  0.17618081239E+03  0.00000000000E+00 0. -1.
        -14    1    3    3    0    0  0.38480890882E+01  0.31235509310E+02 -0.10227557472E+03  0.10700821471E+03  0.00000000000E+00 0.  1.
        -13    1    4    4    0    0  0.59931955164E+02  0.29037148566E+02 -0.44922615561E+00  0.66597275100E+02  0.00000000000E+00 0.  1.
         13    1    4    4    0    0 -0.31906486117E+02  0.29036655973E+01  0.28447914886E+02  0.42845524756E+02  0.00000000000E+00 0. -1.
         21    1    1    2  502  501 -0.15606460523E+02 -0.13522371686E+02  0.18085935594E+02  0.27450267983E+02  0.00000000000E+00 0. -1.
<scales pt_clust_5="13000.00000" pt_clust_6="13000.00000" pt_clust_7="13000.00000" pt_clust_8="13000.00000" pt_clust_9="20.64985"></scales>
<clustering>
<clus scale="   20.650">  1  9  2 -1</clus>
<clus scale="   80.722">  5  6 -1 -1</clus>
<clus scale="   84.186">  2  5  1 -1</clus>
<clus scale="   96.893">  7  8 -1 -1</clus>
<clus scale="   20.650">  1  5  2 -1</clus>
</clustering>
</event>
<event>
 9    1  0.2374319E-005  0.1178875E+03  0.7546771E-02  0.1247604E+00
         -2   -1    0    0    0  501 -0.00000000000E+00  0.00000000000E+00  0.12304645874E+04  0.12304645874E+04  0.00000000000E+00 0.  1.
          1   -1    0    0  502    0  0.00000000000E+00 -0.00000000000E+00 -0.33104597686E+03  0.33104597686E+03  0.00000000000E+00 0. -1.
        -24    2    1    2    0    0 -0.54995390742E+02 -0.35225518659E+02  0.10090061950E+04  0.10158184346E+04  0.97612808030E+02 0.  0.
         23    2    1    2    0    0  0.36944287728E+02  0.69020961214E+02  0.19943856172E+03  0.23429987978E+03  0.94825736370E+02 0.  0.
         13    1    3    3    0    0  0.10234341709E+02 -0.23400015864E+02  0.70672939286E+02  0.75146302903E+02  0.00000000000E+00 0. -1.
        -14    1    3    3    0    0 -0.65229732451E+02 -0.11825502795E+02  0.93833325573E+03  0.94067213168E+03  0.00000000000E+00 0.  1.
        -13    1    4    4    0    0  0.27990529961E+02  0.89826538622E+02  0.18468009628E+03  0.20726556581E+03  0.00000000000E+00 0.  1.
         13    1    4    4    0    0  0.89537577670E+01 -0.20805577408E+02  0.14758465446E+02  0.27034313968E+02  0.00000000000E+00 0. -1.
         21    1    1    2  502  501  0.18051103014E+02 -0.33795442555E+02 -0.30902614620E+03  0.31139224989E+03  0.00000000000E+00 0. -1.
<scales pt_clust_5="13000.00000" pt_clust_6="13000.00000" pt_clust_7="13000.00000" pt_clust_8="13000.00000" pt_clust_9="38.31415"></scales>
<clustering>
<clus scale="   38.314">  2  9  1 -1</clus>
<clus scale="   94.826">  7  8 -1 -1</clus>
<clus scale="   97.613">  5  6 -1 -1</clus>
<clus scale="  115.590">  2  7  1 -1</clus>
<clus scale="   38.314">  2  5  1 -1</clus>
</clustering>
</event>
<event>
 9    1  0.2374319E-005  0.9265215E+02  0.7546771E-02  0.1302257E+00
         -2   -1    0    0    0  501 -0.00000000000E+00  0.00000000000E+00  0.51011900074E+02  0.51011900074E+02  0.00000000000E+00 0.  1.
          1   -1    0    0  502    0  0.00000000000E+00 -0.00000000000E+00 -0.33996597538E+03  0.33996597538E+03  0.00000000000E+00 0. -1.
        -24    2    1    2    0    0 -0.84507212734E+01  0.10953945312E+02 -0.61229524305E+01  0.83307261053E+02  0.81921948157E+02 0.  0.
         23    2    1    2    0    0  0.31105624461E+02 -0.34311703377E+01 -0.21257567825E+03  0.23347045078E+03  0.91327430715E+02 0.  0.
         11    1    3    3    0    0 -0.41251536117E+02 -0.12096308376E+02 -0.35483289434E+01  0.43134679165E+02  0.00000000000E+00 0. -1.
        -12    1    3    3    0    0  0.32800814844E+02  0.23050253688E+02 -0.25746234870E+01  0.40172581889E+02  0.00000000000E+00 0.  1.
        -11    1    4    4    0    0 -0.94434350481E+01 -0.38427216403E+02 -0.61012029398E+02  0.72720679021E+02  0.00000000000E+00 0. -1.
         11    1    4    4    0    0  0.40549059509E+02  0.34996046065E+02 -0.15156364885E+03  0.16074977176E+03  0.00000000000E+00 0.  1.
         21    1    1    2  502  501 -0.22654903188E+02 -0.75227749742E+01 -0.70255444632E+02  0.74200163627E+02  0.00000000000E+00 0. -1.
<scales pt_clust_5="13000.00000" pt_clust_6="13000.00000" pt_clust_7="13000.00000" pt_clust_8="13000.00000" pt_clust_9="23.87125"></scales>
<clustering>
<clus scale="   23.871">  2  9  1 -1</clus>
<clus scale="   81.922">  5  6 -1 -1</clus>
<clus scale="   83.396">  1  5  2 -1</clus>
<clus scale="   91.327">  7  8 -1 -1</clus>
<clus scale="   23.871">  2  5  1 -1</clus>
</clustering>
</event>
<event>
 9    1  0.2374319E-005  0.1467307E+03  0.7546771E-02  0.1206561E+00
          3   -1    0    0  502    0  0.00000000000E+00  0.00000000000E+00  0.11112694362E+04  0.11112694362E+04  0.00000000000E+00 0. -1.
         -4   -1    0    0    0  501 -0.00000000000E+00 -0.00000000000E+00 -0.30823843732E+02  0.30823843732E+02  0.00000000000E+00 0.  1.
         23    2    1    2    0    0  0.47865980772E+02  0.85462743785E+02  0.40240282784E+03  0.42378573734E+03  0.89840317391E+02 0.  0.
        -24    2    1    2    0    0 -0.35910618404E+01 -0.14305505878E+03  0.44009157969E+03  0.46951463753E+03  0.79282726858E+02 0.  0.
         11    1    4    4    0    0 -0.11256016605E+02 -0.13225316098E+03  0.43584137701E+03  0.45560432659E+03  0.00000000000E+00 0. -1.
        -12    1    4    4    0    0  0.76649547651E+01 -0.10801897796E+02  0.42502026789E+01  0.13910310937E+02  0.00000000000E+00 0.  1.
        -13    1    3    3    0    0  0.42810038035E+02  0.59744678844E+02  0.38584594437E+03  0.39278393398E+03  0.00000000000E+00 0.  1.
         13    1    3    3    0    0  0.50559427371E+01  0.25718064940E+02  0.16556883468E+02  0.31001803357E+02  0.00000000000E+00 0. -1.
         21    1    1    2  502  501 -0.44274918932E+02  0.57592314994E+02  0.23795118492E+03  0.24879290504E+03  0.00000000000E+00 0. -1.
<scales pt_clust_5="13000.00000" pt_clust_6="13000.00000" pt_clust_7="13000.00000" pt_clust_8="13000.00000" pt_clust_9="72.64395"></scales>
<clustering>
<clus scale="   72.644">  1  9  2 -1</clus>
<clus scale="   79.283">  5  6 -1 -1</clus>
<clus scale="   89.840">  7  8 -1 -1</clus>
<clus scale="  140.515">  1  5  2 -1</clus>
<clus scale="   72.644">  1  5  2 -1</clus>
</clustering>
</event>
<event>
 9    1  0.2374319E-005  0.1297512E+03  0.7546771E-02  0.1232013E+00
          1   -1    0    0  502    0  0.00000000000E+00  0.00000000000E+00  0.31120731563E+03  0.31120731563E+03  0.00000000000E+00 0. -1.
         -2   -1    0    0    0  501 -0.00000000000E+00 -0.00000000000E+00 -0.77155021096E+02  0.77155021096E+02  0.00000000000E+00 0.  1.
        -24    2    1    2    0    0 -0.77288959752E+01 -0.85860717555E+02  0.23767439875E+02  0.12258914121E+03  0.83853489445E+02 0.  0.
         23    2    1    2    0    0 -0.21974550585E+02  0.81063763187E+02  0.14819712272E+03  0.19677905109E+03  0.98515953975E+02 0.  0.
         11    1    3    3    0    0  0.18053233649E+02 -0.89296920065E+02  0.29865200569E+02  0.95873820115E+02  0.00000000000E+00 0. -1.
        -12    1    3    3    0    0 -0.25782129625E+02  0.34362025101E+01 -0.60977606945E+01  0.26715321094E+02  0.00000000000E+00 0.  1.
        -13    1    4    4    0    0 -0.49276028567E+02  0.61679770800E+02  0.51025923064E+02  0.94000882665E+02  0.00000000000E+00 0.  1.
         13    1    4    4    0    0  0.27301477982E+02  0.19383992387E+02  0.97171199659E+02  0.10277816842E+03  0.00000000000E+00 0. -1.
         21    1    1    2  502  501  0.29703446560E+02  0.47969543683E+01  0.62087731932E+02  0.68994144427E+02  0.00000000000E+00 0.  1.
<scales pt_clust_5="13000.00000" pt_clust_6="13000.00000" pt_clust_7="13000.00000" pt_clust_8="13000.00000" pt_clust_9="30.08830"></scales>
<clustering>
<clus scale="   30.088">  1  9  2 -1</clus>
<clus scale="   83.853">  5  6 -1 -1</clus>
<clus scale="   98.516">  7  8 -1 -1</clus>
<clus scale="  119.002">  2  5  1 -1</clus>
<clus scale="   30.088">  1  5  2 -1</clus>
</clustering>
</event>
<event>
 9    1  0.2374319E-005  0.2412698E+03  0.7546771E-02  0.1119615E+00
         -2   -1    0    0    0  501 -0.00000000000E+00  0.00000000000E+00  0.15385157350E+03  0.15385157350E+03  0.00000000000E+00 0.  1.
          1   -1    0    0  502    0  0.00000000000E+00 -0.00000000000E+00 -0.11259889599E+04  0.11259889599E+04  0.00000000000E+00 0. -1.
        -24    2    1    2    0    0  0.78696277298E+02  0.21254218491E+03  0.29927585565E+02  0.24106372143E+03  0.76477271016E+02 0.  0.
         23    2    1    2    0    0 -0.99300290048E+02 -0.18705164426E+03 -0.74157300785E+03  0.77623089909E+03  0.88062577198E+02 0.  0.
         11    1    3    3    0    0 -0.15383371783E+02  0.34844861577E+02  0.64583007436E+01  0.38633174270E+02  0.00000000000E+00 0. -1.
        -12    1    3    3    0    0  0.94079649080E+02  0.17769732334E+03  0.23469284822E+02  0.20243054716E+03  0.00000000000E+00 0.  1.
        -13    1    4    4    0    0 -0.12030045075E+02 -0.79024983900E+02 -0.16745409927E+03  0.18555469659E+03  0.00000000000E+00 0.  1.
         13    1    4    4    0    0 -0.87270244973E+02 -0.10802666036E+03 -0.57411890858E+03  0.59067620249E+03  0.00000000000E+00 0. -1.
         21    1    1    2  502  501  0.20604012750E+02 -0.25490540653E+02 -0.26049196414E+03  0.26254591290E+03  0.00000000000E+00 0. -1.
<scales pt_clust_5="13000.00000" pt_clust_6="13000.00000" pt_clust_7="13000.00000" pt_clust_8="13000.00000" pt_clust_9="32.77641"></scales>
<clustering>
<clus scale="   32.776">  2  9  1 -1</clus>
<clus scale="   76.477">  5  6 -1 -1</clus>
<clus scale="   88.063">  7  8 -1 -1</clus>
<clus scale="  237.286">  1  5  2 -1</clus>
<clus scale="   32.776">  2  5  1 -1</clus>
</clustering>
</event>
<event>
 9    1  0.2374319E-005  0.1156072E+03  0.7546771E-02  0.1254810E+00
         -2   -1    0    0    0  501 -0.00000000000E+00  0.00000000000E+00  0.58114865064E+03  0.58114865064E+03  0.00000000000E+00 0.  1.
          1   -1    0    0  502    0  0.00000000000E+00 -0.00000000000E+00 -0.53342789601E+02  0.53342789601E+02  0.00000000000E+00 0. -1.
        -24    2    1    2    0    0 -0.75446658578E+02  0.99957444031E+01  0.41918776024E+03  0.43354729726E+03  0.80329119427E+02 0.  0.
         23    2    1    2    0    0  0.47993868835E+02 -0.23388016118E+02  0.12651527763E+03  0.16554191784E+03  0.92453233271E+02 0.  0.
         11    1    3    3    0    0 -0.44063700894E+02 -0.15785550029E+02  0.86165929204E+02  0.98057945531E+02  0.00000000000E+00 0. -1.
        -12    1    3    3    0    0 -0.31382957684E+02  0.25781294432E+02  0.33302183103E+03  0.33548935173E+03  0.00000000000E+00 0.  1.
        -11    1    4    4    0    0  0.62402940116E+02 -0.45174217334E+02  0.11115057789E+03  0.13523789340E+03  0.00000000000E+00 0. -1.
         11    1    4    4    0    0 -0.14409071282E+02  0.21786201216E+02  0.15364699748E+02  0.30304024435E+02  0.00000000000E+00 0.  1.
         21    1    1    2  502  501  0.27452789743E+02  0.13392271715E+02 -0.17897176838E+02  0.35402225144E+02  0.00000000000E+00 0. -1.
<scales pt_clust_5="13000.00000" pt_clust_6="13000.00000" pt_clust_7="13000.00000" pt_clust_8="13000.00000" pt_clust_9="30.54519"></scales>
<clustering>
<clus scale="   30.545">  2  9  1 -1</clus>
<clus scale="   80.329">  5  6 -1 -1</clus>
<clus scale="   92.453">  7  8 -1 -1</clus>
<clus scale="  106.161">  1  5  2 -1</clus>
<clus scale="   30.545">  2  5  1 -1</clus>
</clustering>
</event>
<event>
 9    1  0.2374319E-005  0.1045529E+03  0.7546771E-02  0.1275582E+00
          1   -1    0    0  502    0  0.00000000000E+00  0.00000000000E+00  0.38487396893E+03  0.38487396893E+03  0.00000000000E+00 0. -1.
         -2   -1    0    0    0  501 -0.00000000000E+00 -0.00000000000E+00 -0.80302535680E+02  0.80302535680E+02  0.00000000000E+00 0.  1.
         23    2    1    2    0    0  0.27815173788E+02 -0.49536255123E+02 -0.20029354049E+02  0.10957572947E+03  0.91532185598E+02 0.  0.
        -24    2    1    2    0    0 -0.23611127759E+02  0.32036322357E+00  0.26495876715E+03  0.27816016185E+03  0.81316292147E+02 0.  0.
         13    1    4    4    0    0  0.26686631676E+01 -0.35968201978E+02  0.16041720315E+03  0.16442175155E+03  0.00000000000E+00 0. -1.
        -14    1    4    4    0    0 -0.26279790927E+02  0.36288565201E+02  0.10454156400E+03  0.11373841030E+03  0.00000000000E+00 0.  1.
        -13    1    3    3    0    0 -0.28790293883E+02 -0.16469833484E+00 -0.18929435866E+02  0.34456228604E+02  0.00000000000E+00 0.  1.
         13    1    3    3    0    0  0.56605467671E+02 -0.49371556788E+02 -0.10999181831E+01  0.75119500864E+02  0.00000000000E+00 0. -1.
         21    1    1    2  502  501 -0.42040460288E+01  0.49215891899E+02  0.59642020151E+02  0.77440613286E+02  0.00000000000E+00 0.  1.
<scales pt_clust_5="13000.00000" pt_clust_6="13000.00000" pt_clust_7="13000.00000" pt_clust_8="13000.00000" pt_clust_9="49.39512"></scales>
<clustering>
<clus scale="   49.395">  1  9  2 -1</clus>
<clus scale="   81.316">  5  6 -1 -1</clus>
<clus scale="   91.532">  7  8 -1 -1</clus>
<clus scale="   95.737">  1  5  2 -1</clus>
<clus scale="   49.395">  1  5  2 -1</clus>
</clustering>
</event>
<event>
 9    1  0.2374319E-005  0.9839913E+02  0.7546771E-02  0.1289464E+00
          1   -1    0    0  502    0  0.00000000000E+00  0.00000000000E+00  0.37142727786E+03  0.37142727786E+03  0.00000000000E+00 0. -1.
         -2   -1    0    0    0  501 -0.00000000000E+00 -0.00000000000E+00 -0.78662231807E+02  0.78662231807E+02  0.00000000000E+00 0.  1.
         23    2    1    2    0    0  0.41886165746E+02  0.10233220100E+02 -0.17421295719E+02  0.10092038132E+03  0.89567026006E+02 0.  0.
        -24    2    1    2    0    0 -0.81705870055E+01 -0.57828941821E+02  0.23110685515E+03  0.25090591966E+03  0.78310005871E+02 0.  0.
         11    1    4    4    0    0  0.11966754504E+02 -0.70417401653E+02  0.19518438342E+03  0.20784310718E+03  0.00000000000E+00 0. -1.
        -12    1    4    4    0    0 -0.20137341509E+02  0.12588459832E+02  0.35922471724E+02  0.43062812481E+02  0.00000000000E+00 0.  1.
        -11    1    3    3    0    0  0.20562026114E+02  0.21404495621E+02 -0.51354884302E+02  0.59315035972E+02  0.00000000000E+00 0.  1.
         11    1    3    3    0    0  0.21324139632E+02 -0.11171275521E+02  0.33933588583E+02  0.41605345353E+02  0.00000000000E+00 0. -1.
         21    1    1    2  502  501 -0.33715578741E+02  0.47595721721E+02  0.79079486628E+02  0.98263208686E+02  0.00000000000E+00 0. -1.
<scales pt_clust_5="13000.00000" pt_clust_6="13000.00000" pt_clust_7="13000.00000" pt_clust_8="13000.00000" pt_clust_9="58.32746"></scales>
<clustering>
<clus scale="   58.327">  1  9  2 -1</clus>
<clus scale="   78.310">  5  6 -1 -1</clus>
<clus scale="   88.276">  1  5  2 -1</clus>
<clus scale="   89.567">  7  8 -1 -1</clus>
<clus scale="   58.327">  1  5  2 -1</clus>
</clustering>
</event>
<event>
 9    1  0.2374319E-005  0.9658245E+02  0.7546771E-02  0.1292065E+00
         -2   -1    0    0    0  501 -0.00000000000E+00  0.00000000000E+00  0.96065896008E+02  0.96065896008E+02  0.00000000000E+00 0.  1.
          1   -1    0    0  502    0  0.00000000000E+00 -0.00000000000E+00 -0.21858909499E+03  0.21858909499E+03  0.00000000000E+00 0. -1.
        -24    2    1    2    0    0 -0.36809292641E+02 -0.48400455272E+02 -0.32618648305E+02  0.10926762795E+03  0.84722548388E+02 0.  0.
         23    2    1    2    0    0  0.21264262348E+02 -0.20419270938E+02 -0.93222276793E+02  0.13475585458E+03  0.92734200672E+02 0.  0.
         13    1    3    3    0    0 -0.62200533617E+02 -0.45514255286E+02 -0.32670829945E+02  0.83712824261E+02  0.00000000000E+00 0. -1.
        -14    1    3    3    0    0  0.25391240976E+02 -0.28861999861E+01  0.52181640905E-01  0.25554803689E+02  0.00000000000E+00 0.  1.
        -11    1    4    4    0    0 -0.21623083305E+02  0.15776366002E+02 -0.68287188865E+02  0.73345699389E+02  0.00000000000E+00 0. -1.
         11    1    4    4    0    0  0.42887345653E+02 -0.36195636939E+02 -0.24935087927E+02  0.61410155191E+02  0.00000000000E+00 0.  1.
         21    1    1    2  502  501  0.15545030293E+02  0.68819726210E+02  0.33177261126E+01  0.70631508471E+02  0.00000000000E+00 0.  1.
<scales pt_clust_5="13000.00000" pt_clust_6="13000.00000" pt_clust_7="13000.00000" pt_clust_8="13000.00000" pt_clust_9="70.55354"></scales>
<clustering>
<clus scale="   70.554">  1  9  2 -1</clus>
<clus scale="   84.723">  5  6 -1 -1</clus>
<clus scale="   88.918">  1  5  2 -1</clus>
<clus scale="   92.734">  7  8 -1 -1</clus>
<clus scale="   96.582">  2  5  1 -1</clus>
</clustering>
</event>
<event>
 9    1  0.2374319E-005  0.1083252E+03  0.7546771E-02  0.1268237E+00
         -2   -1    0    0    0  501 -0.00000000000E+00  0.00000000000E+00  0.19337105699E+03  0.19337105699E+03  0.00000000000E+00 0.  1.
          1   -1    0    0  502    0  0.00000000000E+00 -0.00000000000E+00 -0.17882768508E+03  0.17882768508E+03  0.00000000000E+00 0. -1.
         23    2    1    2    0    0  0.54917140651E+02  0.26778341610E+02  0.14390325171E+03  0.18128482168E+03  0.91777278254E+02 0.  0.
        -24    2    1    2    0    0 -0.25668698428E+02 -0.41105007516E+02 -0.53429018817E+02  0.10829297644E+03  0.80772550860E+02 0.  0.
         13    1    4    4    0    0 -0.37614646338E+02 -0.53816610935E+02 -0.16879103403E+02  0.67793756080E+02  0.00000000000E+00 0. -1.
        -14    1    4    4    0    0  0.11945947911E+02  0.12711603419E+02 -0.36549915414E+02  0.40499220360E+02  0.00000000000E+00 0.  1.
        -11    1    3    3    0    0  0.65076701139E+02  0.50136181544E+02  0.12494571866E+03  0.14953276009E+03  0.00000000000E+00 0.  1.
         11    1    3    3    0    0 -0.10159560488E+02 -0.23357839934E+02  0.18957533052E+02  0.31752061588E+02  0.00000000000E+00 0. -1.
         21    1    1    2  502  501 -0.29248442224E+02  0.14326665906E+02 -0.75930860983E+02  0.82620943944E+02  0.00000000000E+00 0. -1.
<scales pt_clust_5="13000.00000" pt_clust_6="13000.00000" pt_clust_7="13000.00000" pt_clust_8="13000.00000" pt_clust_9="32.56877"></scales>
<clustering>
<clus scale="   32.569">  2  9  1 -1</clus>
<clus scale="   80.773">  5  6 -1 -1</clus>
<clus scale="   91.777">  7  8 -1 -1</clus>
<clus scale="   99.174">  2  5  1 -1</clus>
<clus scale="   32.569">  2  5  1 -1</clus>
</clustering>
</event>
<event>
 9    1  0.2374319E-005  0.1300821E+03  0.7546771E-02  0.1232292E+00
          1   -1    0    0  502    0  0.00000000000E+00  0.00000000000E+00  0.89393480992E+02  0.89393480992E+02  0.00000000000E+00 0. -1.
         -2   -1    0    0    0  501 -0.00000000000E+00 -0.00000000000E+00 -0.60667735594E+03  0.60667735594E+03  0.00000000000E+00 0.  1.
         23    2    1    2    0    0 -0.65850412267E+02  0.45798488344E+02 -0.43809100261E+03  0.45591076158E+03  0.97453156063E+02 0.  0.
        -24    2    1    2    0    0  0.79258080966E+02 -0.69289577966E+02 -0.12827391574E+03  0.18411950350E+03  0.79767819926E+02 0.  0.
         11    1    4    4    0    0  0.62633310654E+02 -0.36103944681E+02 -0.28576575097E+02  0.77737037950E+02  0.00000000000E+00 0. -1.
        -12    1    4    4    0    0  0.16624770312E+02 -0.33185633285E+02 -0.99697340646E+02  0.10638246555E+03  0.00000000000E+00 0.  1.
        -11    1    3    3    0    0  0.21636156369E+02 -0.57342769029E+01 -0.11791398381E+03  0.12001963495E+03  0.00000000000E+00 0. -1.
         11    1    3    3    0    0 -0.87486568636E+02  0.51532765247E+02 -0.32017701880E+03  0.33589112664E+03  0.00000000000E+00 0.  1.
         21    1    1    2  502  501 -0.13407668700E+02  0.23491089622E+02  0.49081043406E+02  0.56040571852E+02  0.00000000000E+00 0.  1.
<scales pt_clust_5="13000.00000" pt_clust_6="13000.00000" pt_clust_7="13000.00000" pt_clust_8="13000.00000" pt_clust_9="27.04805"></scales>
<clustering>
<clus scale="   27.048">  1  9  2 -1</clus>
<clus scale="   79.768">  5  6 -1 -1</clus>
<clus scale="   97.453">  7  8 -1 -1</clus>
<clus scale="  117.419">  1  5  2 -1</clus>
<clus scale="   27.048">  1  5  2 -1</clus>
</clustering>
</event>
<event>
 9    1  0.2374319E-005  0.1554108E+03  0.7546771E-02  0.1197434E+00
         -2   -1    0    0    0  501 -0.00000000000E+00  0.00000000000E+00  0.10736180989E+03  0.10736180989E+03  0.00000000000E+00 0.  1.
          1   -1    0    0  502    0  0.00000000000E+00 -0.00000000000E+00 -0.39293516707E+03  0.39293516707E+03  0.00000000000E+00 0. -1.
         23    2    1    2    0    0 -0.12185276269E+03  0.56667524805E+02  0.32643402601E+01  0.16626441730E+03  0.97846289653E+02 0.  0.
        -24    2    1    2    0    0  0.76966431355E+02 -0.43083754747E+02 -0.17768220637E+03  0.21338909841E+03  0.78637773239E+02 0.  0.
         13    1    4    4    0    0  0.45885557628E+02  0.12218501845E+02 -0.41130701721E+02  0.62821260814E+02  0.00000000000E+00 0. -1.
        -14    1    4    4    0    0  0.31080873727E+02 -0.55302256592E+02 -0.13655150465E+03  0.15056783759E+03  0.00000000000E+00 0.  1.
        -13    1    3    3    0    0 -0.20999911008E+02 -0.26917588357E+02 -0.70882916840E+01  0.34868276474E+02  0.00000000000E+00 0.  1.
         13    1    3    3    0    0 -0.10085285168E+03  0.83585113163E+02  0.10352631944E+02  0.13139614082E+03  0.00000000000E+00 0. -1.
         21    1    1    2  502  501  0.44886331333E+02 -0.13583770059E+02 -0.11115549107E+03  0.12064346126E+03  0.00000000000E+00 0. -1.
<scales pt_clust_5="13000.00000" pt_clust_6="13000.00000" pt_clust_7="13000.00000" pt_clust_8="13000.00000" pt_clust_9="46.89671"></scales>
<clustering>
<clus scale="   46.897">  2  9  1 -1</clus>
<clus scale="   78.638">  5  6 -1 -1</clus>
<clus scale="   97.846">  7  8 -1 -1</clus>
<clus scale="  144.092">  2  5  1 -1</clus>
<clus scale="   46.897">  2  5  1 -1</clus>
</clustering>
</event>
<event>
 9    1  0.2374319E-005  0.1297228E+03  0.7546771E-02  0.1230543E+00
          1   -1    0    0  502    0  0.00000000000E+00  0.00000000000E+00  0.56556457514E+03  0.56556457514E+03  0.00000000000E+00 0. -1.
         -2   -1    0    0    0  501 -0.00000000000E+00 -0.00000000000E+00 -0.96629418404E+03  0.96629418404E+03  0.00000000000E+00 0.  1.
        -24    2    1    2    0    0  0.47993451803E+02  0.87927596044E+02 -0.89653220234E+03  0.90573833691E+03  0.80977228543E+02 0.  0.
         23    2    1    2    0    0  0.16550948407E+02 -0.35335775560E+02 -0.22039075809E+02  0.10162840746E+03  0.91214370651E+02 0.  0.
         11    1    3    3    0    0  0.44390793480E+02  0.88939369700E+02 -0.53317175385E+03  0.54235862041E+03  0.00000000000E+00 0. -1.
        -12    1    3    3    0    0  0.36026583230E+01 -0.10117736561E+01 -0.36336044849E+03  0.36337971650E+03  0.00000000000E+00 0.  1.
        -11    1    4    4    0    0 -0.26720880143E+02 -0.47187221969E+02 -0.14512575457E+02  0.56136032984E+02  0.00000000000E+00 0. -1.
         11    1    4    4    0    0  0.43271828551E+02  0.11851446409E+02 -0.75265003515E+01  0.45492374478E+02  0.00000000000E+00 0.  1.
         21    1    1    2  502  501 -0.64544400210E+02 -0.52591820484E+02  0.51784166925E+03  0.52449201480E+03  0.00000000000E+00 0. -1.
<scales pt_clust_5="13000.00000" pt_clust_6="13000.00000" pt_clust_7="13000.00000" pt_clust_8="13000.00000" pt_clust_9="83.25791"></scales>
<clustering>
<clus scale="   80.977">  5  6 -1 -1</clus>
<clus scale="   83.258">  1  9  2 -1</clus>
<clus scale="   91.214">  7  8 -1 -1</clus>
<clus scale="  122.741">  2  5  1 -1</clus>
<clus scale="   83.258">  1  5  2 -1</clus>
</clustering>
</event>
<event>
 9    1  0.2374319E-005  0.9583441E+02  0.7546771E-02  0.1299475E+00
          1   -1    0    0  502    0  0.00000000000E+00  0.00000000000E+00  0.37157698714E+03  0.37157698714E+03  0.00000000000E+00 0. -1.
         -2   -1    0    0    0  501 -0.00000000000E+00 -0.00000000000E+00 -0.47374050753E+02  0.47374050753E+02  0.00000000000E+00 0.  1.
        -24    2    1    2    0    0  0.20735390382E+02 -0.13491040091E+02  0.17876461549E+02  0.80745337847E+02  0.74754779978E+02 0.  0.
         23    2    1    2    0    0 -0.45194477979E+02 -0.15977905881E+02  0.20294001909E+03  0.22795405618E+03  0.92089988952E+02 0.  0.
         11    1    3    3    0    0 -0.24735780638E+02 -0.10078713221E+02  0.22484500589E+02  0.34914066946E+02  0.00000000000E+00 0. -1.
        -12    1    3    3    0    0  0.45471171020E+02 -0.34123268707E+01 -0.46080390394E+01  0.45831270901E+02  0.00000000000E+00 0.  1.
        -13    1    4    4    0    0 -0.15198430592E+02 -0.48050764860E+02  0.59669363347E+02  0.78104425088E+02  0.00000000000E+00 0.  1.
         13    1    4    4    0    0 -0.29996047388E+02  0.32072858978E+02  0.14327065574E+03  0.14984963109E+03  0.00000000000E+00 0. -1.
         21    1    1    2  502  501  0.24459087597E+02  0.29468945973E+02  0.10338645575E+03  0.11025164387E+03  0.00000000000E+00 0.  1.
<scales pt_clust_5="13000.00000" pt_clust_6="13000.00000" pt_clust_7="13000.00000" pt_clust_8="13000.00000" pt_clust_9="38.29707"></scales>
<clustering>
<clus scale="   38.297">  1  9  2 -1</clus>
<clus scale="   74.755">  5  6 -1 -1</clus>
<clus scale="   79.322">  2  5  1 -1</clus>
<clus scale="   92.090">  7  8 -1 -1</clus>
<clus scale="   38.297">  1  5  2 -1</clus>
</clustering>
</event>
<event>
 9    1  0.2374319E-005  0.9823484E+02  0.7546771E-02  0.1289067E+00
          1   -1    0    0  502    0  0.00000000000E+00  0.00000000000E+00  0.30391278006E+03  0.30391278006E+03  0.00000000000E+00 0. -1.
         -2   -1    0    0    0  501 -0.00000000000E+00 -0.00000000000E+00 -0.89093334993E+02  0.89093334993E+02  0.00000000000E+00 0.  1.
        -24    2    1    2    0    0  0.99988302484E+01 -0.23915048375E+02 -0.45937270671E+02  0.97109228765E+02  0.81535656798E+02 0.  0.
         23    2    1    2    0    0 -0.31034011207E+02  0.22694261322E+02  0.25578142384E+03  0.27424688193E+03  0.91154133864E+02 0.  0.
         13    1    3    3    0    0 -0.96846353164E+01 -0.43227249475E+02 -0.90891827339E+00  0.44308163930E+02  0.00000000000E+00 0. -1.
        -14    1    3    3    0    0  0.19683465565E+02  0.19312201101E+02 -0.45028352398E+02  0.52801064835E+02  0.00000000000E+00 0.  1.
        -13    1    4    4    0    0 -0.16405858085E+02  0.53706951834E+02  0.99551327325E+02  0.11429809984E+03  0.00000000000E+00 0.  1.
         13    1    4    4    0    0 -0.14628153121E+02 -0.31012690512E+02  0.15623009651E+03  0.15994878209E+03  0.00000000000E+00 0. -1.
         21    1    1    2  502  501  0.21035180958E+02  0.12207870524E+01  0.49752918960E+01  0.21650004352E+02  0.00000000000E+00 0.  1.
<scales pt_clust_5="13000.00000" pt_clust_6="13000.00000" pt_clust_7="13000.00000" pt_clust_8="13000.00000" pt_clust_9="21.07058"></scales>
<clustering>
<clus scale="   21.071">  2  9  1 -1</clus>
<clus scale="   81.536">  5  6 -1 -1</clus>
<clus scale="   89.382">  2  5  1 -1</clus>
<clus scale="   91.154">  7  8 -1 -1</clus>
<clus scale="   98.235">  1  5  2 -1</clus>
</clustering>
</event>
<event>
 9    1  0.2374319E-005  0.1313053E+03  0.7546771E-02  0.1235419E+00
          1   -1    0    0  502    0  0.00000000000E+00  0.00000000000E+00  0.11143026867E+04  0.11143026867E+04  0.00000000000E+00 0. -1.
         -2   -1    0    0    0  501 -0.00000000000E+00 -0.00000000000E+00 -0.30976746233E+02  0.30976746233E+02  0.00000000000E+00 0.  1.
        -24    2    1    2    0    0 -0.47499256424E+02  0.79988509786E+02  0.23887465098E+03  0.26867429997E+03  0.80439042301E+02 0.  0.
         23    2    1    2    0    0 -0.47482582437E+02 -0.11922135823E+01  0.48096373351E+03  0.49273847726E+03  0.95963936013E+02 0.  0.
         11    1    3    3    0    0 -0.15801506653E+02 -0.14373892743E+02  0.25810407921E+02  0.33503336582E+02  0.00000000000E+00 0. -1.
        -12    1    3    3    0    0 -0.31697749771E+02  0.94362402529E+02  0.21306424306E+03  0.23517096339E+03  0.00000000000E+00 0.  1.
        -13    1    4    4    0    0 -0.37211869521E+02  0.45104325243E+02  0.22875106581E+03  0.23610627586E+03  0.00000000000E+00 0.  1.
         13    1    4    4    0    0 -0.10270712916E+02 -0.46296538825E+02  0.25221266769E+03  0.25663220140E+03  0.00000000000E+00 0. -1.
         21    1    1    2  502  501  0.94981838860E+02 -0.78796296204E+02  0.36348755602E+03  0.38386665574E+03  0.00000000000E+00 0. -1.
<scales pt_clust_5="13000.00000" pt_clust_6="13000.00000" pt_clust_7="13000.00000" pt_clust_8="13000.00000" pt_clust_9="103.78169"></scales>
<clustering>
<clus scale="   80.439">  5  6 -1 -1</clus>
<clus scale="   95.964">  7  8 -1 -1</clus>
<clus scale="  107.075">  1  7  2 -1</clus>
<clus scale="  103.782">  1  9  2 -1</clus>
<clus scale="  107.075">  1  5  2 -1</clus>
</clustering>
</event>
<event>
 9    1  0.2374319E-005  0.9533279E+02  0.7546771E-02  0.1295638E+00
         -2   -1    0    0    0  501 -0.00000000000E+00  0.00000000000E+00  0.53996214886E+02  0.53996214886E+02  0.00000000000E+00 0.  1.
          1   -1    0    0  502    0  0.00000000000E+00 -0.00000000000E+00 -0.46993036015E+03  0.46993036015E+03  0.00000000000E+00 0. -1.
        -24    2    1    2    0    0 -0.32048247862E+01 -0.23717041582E+02 -0.13876153719E+02  0.86014064183E+02  0.81443861844E+02 0.  0.
         23    2    1    2    0    0 -0.29110347821E+02  0.65289955892E+02 -0.32192187490E+03  0.34202520838E+03  0.90759897186E+02 0.  0.
         13    1    3    3    0    0  0.33596517509E+02 -0.24597061412E+02 -0.23704327114E+02  0.47912801450E+02  0.00000000000E+00 0. -1.
        -14    1    3    3    0    0 -0.36801342295E+02  0.88001983019E+00  0.98281733950E+01  0.38101262734E+02  0.00000000000E+00 0.  1.
        -13    1    4    4    0    0 -0.49171880313E+02  0.20990309969E+01 -0.13997328028E+03  0.14837384856E+03  0.00000000000E+00 0.  1.
         13    1    4    4    0    0  0.20061532493E+02  0.63190924895E+02 -0.18194859463E+03  0.19365135982E+03  0.00000000000E+00 0. -1.
         21    1    1    2  502  501  0.32315172607E+02 -0.41572914310E+02 -0.80136116644E+02  0.95887302474E+02  0.00000000000E+00 0. -1.
<scales pt_clust_5="13000.00000" pt_clust_6="13000.00000" pt_clust_7="13000.00000" pt_clust_8="13000.00000" pt_clust_9="52.65527"></scales>
<clustering>
<clus scale="   52.655">  2  9  1 -1</clus>
<clus scale="   81.444">  5  6 -1 -1</clus>
<clus scale="   86.511">  1  5  2 -1</clus>
<clus scale="   90.760">  7  8 -1 -1</clus>
<clus scale="   52.655">  2  5  1 -1</clus>
</clustering>
</event>
<event>
 9    1  0.2374319E-005  0.1719080E+03  0.7546771E-02  0.1198835E+00
         -2   -1    0    0    0  501 -0.00000000000E+00  0.00000000000E+00  0.34494630930E+03  0.34494630930E+03  0.00000000000E+00 0.  1.
          1   -1    0    0  502    0  0.00000000000E+00 -0.00000000000E+00 -0.16394210825E+03  0.16394210825E+03  0.00000000000E+00 0. -1.
         23    2    1    2    0    0  0.84629984108E+02 -0.14980518049E+03  0.17502422661E+03  0.26130277422E+03  0.89676271117E+02 0.  0.
        -24    2    1    2    0    0 -0.98953025101E+01  0.51652255865E+02 -0.46838208100E+02  0.11338791738E+03  0.88865795005E+02 0.  0.
         11    1    4    4    0    0 -0.17175916037E+02  0.52208656253E+02  0.10186677528E+02  0.55897444293E+02  0.00000000000E+00 0. -1.
        -12    1    4    4    0    0  0.72806135268E+01 -0.55640038833E+00 -0.57024885628E+02  0.57490473086E+02  0.00000000000E+00 0.  1.
        -11    1    3    3    0    0  0.66938918804E+02 -0.87173712251E+02  0.50840625024E+02  0.12109848930E+03  0.00000000000E+00 0. -1.
         11    1    3    3    0    0  0.17691065304E+02 -0.62631468234E+02  0.12418360159E+03  0.14020428492E+03  0.00000000000E+00 0.  1.
         21    1    1    2  502  501 -0.74734681598E+02  0.98152924621E+02  0.52818182535E+02  0.13419772596E+03  0.00000000000E+00 0.  1.
<scales pt_clust_5="13000.00000" pt_clust_6="13000.00000" pt_clust_7="13000.00000" pt_clust_8="13000.00000" pt_clust_9="146.66462"></scales>
<clustering>
<clus scale="   88.866">  5  6 -1 -1</clus>
<clus scale="   89.676">  7  8 -1 -1</clus>
<clus scale="  103.262">  2  5  1 -1</clus>
<clus scale="  146.665">  2  9  1 -1</clus>
<clus scale="  103.262">  2  5  1 -1</clus>
</clustering>
</event>
<event>
 9    1  0.2374319E-005  0.1007785E+03  0.7546771E-02  0.1282529E+00
          1   -1    0    0  502    0  0.00000000000E+00  0.00000000000E+00  0.85454933453E+02  0.85454933453E+02  0.00000000000E+00 0. -1.
         -2   -1    0    0    0  501 -0.00000000000E+00 -0.00000000000E+00 -0.30467944418E+03  0.30467944418E+03  0.00000000000E+00 0.  1.
         23    2    1    2    0    0  0.40041173688E+02  0.26670644762E+02 -0.24391689358E+03  0.26393263740E+03  0.88602298117E+02 0.  0.
        -24    2    1    2    0    0 -0.26373529394E+02 -0.44621919481E+02  0.42395286676E+01  0.95748956955E+02  0.80394094334E+02 0.  0.
         13    1    4    4    0    0 -0.69014116619E+01 -0.57377235890E+02 -0.20931105097E+02  0.61464525068E+02  0.00000000000E+00 0. -1.
        -14    1    4    4    0    0 -0.19472117732E+02  0.12755316409E+02  0.25170633765E+02  0.34284431887E+02  0.00000000000E+00 0.  1.
        -13    1    3    3    0    0  0.50188425279E+02  0.77894351833E+01 -0.23548306851E+03  0.24089796364E+03  0.00000000000E+00 0.  1.
         13    1    3    3    0    0 -0.10147251591E+02  0.18881209579E+02 -0.84338250687E+01  0.23034673761E+02  0.00000000000E+00 0. -1.
         21    1    1    2  502  501 -0.13667644294E+02  0.17951274719E+02  0.20452854187E+02  0.30452783271E+02  0.00000000000E+00 0. -1.
<scales pt_clust_5="13000.00000" pt_clust_6="13000.00000" pt_clust_7="13000.00000" pt_clust_8="13000.00000" pt_clust_9="22.56220"></scales>
<clustering>
<clus scale="   22.562">  1  9  2 -1</clus>
<clus scale="   80.394">  5  6 -1 -1</clus>
<clus scale="   88.602">  7  8 -1 -1</clus>
<clus scale="   93.644">  1  5  2 -1</clus>
<clus scale="   22.562">  1  5  2 -1</clus>
</clustering>
</event>
<event>
 9    1  0.9574602E-005  0.1026112E+03  0.7546771E-02  0.1280508E+00
          1   -1    0    0  502    0  0.00000000000E+00  0.00000000000E+00  0.30072826731E+03  0.30072826731E+03  0.00000000000E+00 0. -1.
         -2   -1    0    0    0  501 -0.00000000000E+00 -0.00000000000E+00 -0.32950108007E+03  0.32950108007E+03  0.00000000000E+00 0.  1.
         23    2    1    2    0    0 -0.22621664118E+02  0.39288005919E+02 -0.31143714234E+03  0.32799212688E+03  0.92360459991E+02 0.  0.
        -24    2    1    2    0    0  0.12540099711E+02 -0.21838927053E+02  0.24973485765E+03  0.26363076486E+03  0.80619403509E+02 0.  0.
         11    1    4    4    0    0  0.26552127693E+02 -0.34516464063E+02  0.23670595993E+03  0.24067844366E+03  0.00000000000E+00 0. -1.
        -12    1    4    4    0    0 -0.14012027982E+02  0.12677537011E+02  0.13028897717E+02  0.22952321201E+02  0.00000000000E+00 0.  1.
        -13    1    3    3    0    0  0.16309939676E+02  0.57588519697E+02 -0.17842345632E+03  0.18819506236E+03  0.00000000000E+00 0.  1.
         13    1    3    3    0    0 -0.38931603795E+02 -0.18300513777E+02 -0.13301368603E+03  0.13979706452E+03  0.00000000000E+00 0. -1.
         21    1    1    2  502  501  0.10081564408E+02 -0.17449078867E+02  0.32929471946E+02  0.38606455637E+02  0.00000000000E+00 0. -1.
<scales pt_clust_5="13000.00000" pt_clust_6="13000.00000" pt_clust_7="13000.00000" pt_clust_8="13000.00000" pt_clust_9="20.15213"></scales>
<clustering>
<clus scale="   20.152">  1  9  2 -1</clus>
<clus scale="   80.619">  5  6 -1 -1</clus>
<clus scale="   92.185">  1  5  2 -1</clus>
<clus scale="   92.360">  7  8 -1 -1</clus>
<clus scale="   20.152">  1  5  2 -1</clus>
</clustering>
</event>
<event>
 9    1  0.2374319E-005  0.9887076E+02  0.7546771E-02  0.1295935E+00
          1   -1    0    0  502    0  0.00000000000E+00  0.00000000000E+00  0.38531873721E+03  0.38531873721E+03  0.00000000000E+00 0. -1.
         -2   -1    0    0    0  501 -0.00000000000E+00 -0.00000000000E+00 -0.45493151542E+02  0.45493151542E+02  0.00000000000E+00 0.  1.
        -24    2    1    2    0    0 -0.11126405571E+02 -0.31388804040E+01  0.87397949978E+01  0.77582925337E+02  0.76217299980E+02 0.  0.
         23    2    1    2    0    0  0.16415371146E+02 -0.16681917714E+02  0.29414284121E+03  0.31097238156E+03  0.98163436533E+02 0.  0.
         11    1    3    3    0    0 -0.33891721111E+02 -0.27573833902E+02  0.47708071515E+01  0.43951401307E+02  0.00000000000E+00 0. -1.
        -12    1    3    3    0    0  0.22765315541E+02  0.24434953498E+02  0.39689878463E+01  0.33631524031E+02  0.00000000000E+00 0.  1.
        -13    1    4    4    0    0 -0.48356213722E+01 -0.47189466131E+02  0.24389391296E+03  0.24846422223E+03  0.00000000000E+00 0. -1.
         13    1    4    4    0    0  0.21250992518E+02  0.30507548417E+02  0.50248928248E+02  0.62508159336E+02  0.00000000000E+00 0.  1.
         21    1    1    2  502  501 -0.52889655754E+01  0.19820798118E+02  0.36942949458E+02  0.42256581849E+02  0.00000000000E+00 0.  1.
<scales pt_clust_5="13000.00000" pt_clust_6="13000.00000" pt_clust_7="13000.00000" pt_clust_8="13000.00000" pt_clust_9="20.51432"></scales>
<clustering>
<clus scale="   20.514">  1  9  2 -1</clus>
<clus scale="   76.217">  5  6 -1 -1</clus>
<clus scale="   77.126">  2  5  1 -1</clus>
<clus scale="   98.163">  7  8 -1 -1</clus>
<clus scale="   20.514">  1  5  2 -1</clus>
</clustering>
</event>
<event>
 9    1  0.2374319E-005  0.1105015E+03  0.7546771E-02  0.1272128E+00
         -2   -1    0    0    0  501 -0.00000000000E+00  0.00000000000E+00  0.65957384828E+02  0.65957384828E+02  0.00000000000E+00 0.  1.
          1   -1    0    0  502    0  0.00000000000E+00 -0.00000000000E+00 -0.27523850680E+03  0.27523850680E+03  0.00000000000E+00 0. -1.
         23    2    1    2    0    0  0.15895559158E+02 -0.62291897081E+01 -0.82461861975E+01  0.10601138866E+03  0.10430217320E+03 0.  0.
        -24    2    1    2    0    0 -0.32844853448E+02  0.23742536724E+02 -0.18749383872E+03  0.20730337655E+03  0.78601895168E+02 0.  0.
         13    1    4    4    0    0 -0.24160092958E+02  0.27537088738E+02 -0.19293021089E+03  0.19637736026E+03  0.00000000000E+00 0. -1.
        -14    1    4    4    0    0 -0.86847604905E+01 -0.37945520135E+01  0.54363721681E+01  0.10926016296E+02  0.00000000000E+00 0.  1.
        -13    1    3    3    0    0  0.58432929693E+02 -0.18535339187E+02 -0.24415023843E+01  0.61350851707E+02  0.00000000000E+00 0.  1.
         13    1    3    3    0    0 -0.42537370535E+02  0.12306149479E+02 -0.58046838132E+01  0.44660536956E+02  0.00000000000E+00 0. -1.
         21    1    1    2  502  501  0.16949294291E+02 -0.17513347016E+02 -0.13541097056E+02  0.27881126415E+02  0.00000000000E+00 0.  1.
<scales pt_clust_5="13000.00000" pt_clust_6="13000.00000" pt_clust_7="13000.00000" pt_clust_8="13000.00000" pt_clust_9="24.37203"></scales>
<clustering>
<clus scale="   24.372">  1  9  2 -1</clus>
<clus scale="   78.602">  5  6 -1 -1</clus>
<clus scale="   86.660">  2  5  1 -1</clus>
<clus scale="  104.302">  7  8 -1 -1</clus>
<clus scale="   86.660">  2  5  1 -1</clus>
</clustering>
</event>
<event>
 9    1  0.2374319E-005  0.1013616E+03  0.7546771E-02  0.1288061E+00
         -2   -1    0    0    0  501 -0.00000000000E+00  0.00000000000E+00  0.98837933064E+02  0.98837933064E+02  0.00000000000E+00 0.  1.
          1   -1    0    0  502    0  0.00000000000E+00 -0.00000000000E+00 -0.19296095738E+03  0.19296095738E+03  0.00000000000E+00 0. -1.
        -24    2    1    2    0    0  0.70426148198E+01  0.61165453386E+02  0.48940469518E+02  0.99805899097E+02  0.61442955874E+02 0.  0.
         23    2    1    2    0    0  0.57958248383E+00 -0.25111110179E+02 -0.11807155922E+03  0.14746647844E+03  0.84702806311E+02 0.  0.
         11    1    3    3    0    0 -0.62543025417E+00  0.54886920945E+02  0.54042135956E+01  0.55155877097E+02  0.00000000000E+00 0. -1.
        -12    1    3    3    0    0  0.76680450739E+01  0.62785324416E+01  0.43536255922E+02  0.44650022000E+02  0.00000000000E+00 0.  1.
        -11    1    4    4    0    0  0.25220590777E+02  0.93206920829E+01 -0.58412890878E+01  0.27514980615E+02  0.00000000000E+00 0.  1.
         11    1    4    4    0    0 -0.24641008293E+02 -0.34431802262E+02 -0.11223027014E+03  0.11995149783E+03  0.00000000000E+00 0. -1.
         21    1    1    2  502  501 -0.76221973036E+01 -0.36054343208E+02 -0.24991934612E+02  0.44526512905E+02  0.00000000000E+00 0. -1.
<scales pt_clust_5="13000.00000" pt_clust_6="13000.00000" pt_clust_7="13000.00000" pt_clust_8="13000.00000" pt_clust_9="36.85124"></scales>
<clustering>
<clus scale="   36.851">  2  9  1 -1</clus>
<clus scale="   61.443">  5  6 -1 -1</clus>
<clus scale="   82.915">  1  5  2 -1</clus>
<clus scale="   84.703">  7  8 -1 -1</clus>
<clus scale="   36.851">  2  5  1 -1</clus>
</clustering>
</event>
<event>
 9    1  0.2374319E-005  0.8540769E+02  0.7546771E-02  0.1316769E+00
          1   -1    0    0  502    0  0.00000000000E+00  0.00000000000E+00  0.73676390558E+03  0.73676390558E+03  0.00000000000E+00 0. -1.
         -2   -1    0    0    0  501 -0.00000000000E+00 -0.00000000000E+00 -0.28233542024E+02  0.28233542024E+02  0.00000000000E+00 0.  1.
         23    2    1    2    0    0  0.68325569236E+01  0.32252436984E+01  0.53784521548E+02  0.10068317154E+03  0.84777592807E+02 0.  0.
        -24    2    1    2    0    0 -0.15982237165E+02 -0.26031650215E+02  0.46858080368E+03  0.47653443070E+03  0.81141945715E+02 0.  0.
         11    1    4    4    0    0  0.24694123510E+01 -0.52791993176E+02  0.24775400061E+03  0.25332812193E+03  0.00000000000E+00 0. -1.
        -12    1    4    4    0    0 -0.18451649516E+02  0.26760342960E+02  0.22082680306E+03  0.22320630878E+03  0.00000000000E+00 0.  1.
        -11    1    3    3    0    0 -0.39960412827E+01  0.40758747063E+02  0.44605556530E+02  0.60554929456E+02  0.00000000000E+00 0. -1.
         11    1    3    3    0    0  0.10828598206E+02 -0.37533503364E+02  0.91789650182E+01  0.40128242084E+02  0.00000000000E+00 0.  1.
         21    1    1    2  502  501  0.91496802414E+01  0.22806406517E+02  0.18616503833E+03  0.18777984536E+03  0.00000000000E+00 0.  1.
<scales pt_clust_5="13000.00000" pt_clust_6="13000.00000" pt_clust_7="13000.00000" pt_clust_8="13000.00000" pt_clust_9="24.57334"></scales>
<clustering>
<clus scale="   24.573">  1  9  2 -1</clus>
<clus scale="   81.142">  5  6 -1 -1</clus>
<clus scale="   81.800">  1  5  2 -1</clus>
<clus scale="   84.778">  7  8 -1 -1</clus>
<clus scale="   24.573">  1  5  2 -1</clus>
</clustering>
</event>
<event>
 9    1  0.2374319E-005  0.1905594E+03  0.7546771E-02  0.1158930E+00
          1   -1    0    0  502    0  0.00000000000E+00  0.00000000000E+00  0.78476000676E+03  0.78476000676E+03  0.00000000000E+00 0. -1.
         -2   -1    0    0    0  501 -0.00000000000E+00 -0.00000000000E+00 -0.93158766407E+02  0.93158766407E+02  0.00000000000E+00 0.  1.
         23    2    1    2    0    0  0.10238568665E+03 -0.13787189202E+03  0.48711216609E+02  0.19959310824E+03  0.89292434126E+02 0.  0.
        -24    2    1    2    0    0 -0.67648400235E+02  0.13845848224E+03  0.59047331867E+03  0.61544057826E+03  0.79757808063E+02 0.  0.
         13    1    4    4    0    0  0.47146529202E+01  0.72610077242E+02  0.19770128483E+03  0.21066620349E+03  0.00000000000E+00 0. -1.
        -14    1    4    4    0    0 -0.72363053155E+02  0.65848405001E+02  0.39277203384E+03  0.40477437477E+03  0.00000000000E+00 0.  1.
        -11    1    3    3    0    0  0.77828164328E+02 -0.14372904618E+03  0.56873218748E+02  0.17306017707E+03  0.00000000000E+00 0. -1.
         11    1    3    3    0    0  0.24557522317E+02  0.58571541565E+01 -0.81620021383E+01  0.26532931162E+02  0.00000000000E+00 0.  1.
         21    1    1    2  502  501 -0.34737286410E+02 -0.58659022281E+00  0.52416705078E+02  0.62885086677E+02  0.00000000000E+00 0.  1.
<scales pt_clust_5="13000.00000" pt_clust_6="13000.00000" pt_clust_7="13000.00000" pt_clust_8="13000.00000" pt_clust_9="34.74224"></scales>
<clustering>
<clus scale="   34.742">  1  9  2 -1</clus>
<clus scale="   79.758">  5  6 -1 -1</clus>
<clus scale="   89.292">  7  8 -1 -1</clus>
<clus scale="  186.282">  1  5  2 -1</clus>
<clus scale="   34.742">  1  5  2 -1</clus>
</clustering>
</event>
<event>
 9    1  0.2374319E-005  0.1283465E+03  0.7546771E-02  0.1239781E+00
         -2   -1    0    0    0  501 -0.00000000000E+00  0.00000000000E+00  0.67160285981E+02  0.67160285981E+02  0.00000000000E+00 0.  1.
          1   -1    0    0  502    0  0.00000000000E+00 -0.00000000000E+00 -0.53673725677E+03  0.53673725677E+03  0.00000000000E+00 0. -1.
        -24    2    1    2    0    0  0.99303904699E+02  0.25008237512E+02 -0.68589640450E+02  0.14373246360E+03  0.73944606866E+02 0.  0.
         23    2    1    2    0    0  0.13805180402E+02 -0.42936290409E+02 -0.24623778888E+03  0.26764884400E+03  0.94703468693E+02 0.  0.
         11    1    3    3    0    0  0.34452827120E+02  0.38287819542E+01 -0.67064215910E+02  0.75493482655E+02  0.00000000000E+00 0. -1.
        -12    1    3    3    0    0  0.64851077578E+02  0.21179455558E+02 -0.15254245402E+01  0.68238980948E+02  0.00000000000E+00 0.  1.
        -13    1    4    4    0    0  0.43296697625E+02 -0.41535614107E+02 -0.22038135991E+03  0.22840261614E+03  0.00000000000E+00 0.  1.
         13    1    4    4    0    0 -0.29491517223E+02 -0.14006763019E+01 -0.25856428974E+02  0.39246227864E+02  0.00000000000E+00 0. -1.
         21    1    1    2  502  501 -0.11310908510E+03  0.17928052897E+02 -0.15474954146E+03  0.19251623514E+03  0.00000000000E+00 0. -1.
<scales pt_clust_5="13000.00000" pt_clust_6="13000.00000" pt_clust_7="13000.00000" pt_clust_8="13000.00000" pt_clust_9="104.90475"></scales>
<clustering>
<clus scale="   73.945">  5  6 -1 -1</clus>
<clus scale="   94.703">  7  8 -1 -1</clus>
<clus scale="  104.894">  2  7  1 -1</clus>
<clus scale="  104.905">  2  9  1 -1</clus>
<clus scale="  104.894">  2  5  1 -1</clus>
</clustering>
</event>
<event>
 9    1  0.2374319E-005  0.1090785E+03  0.7546771E-02  0.1266324E+00
          1   -1    0    0  502    0  0.00000000000E+00  0.00000000000E+00  0.22335582571E+03  0.22335582571E+03  0.00000000000E+00 0. -1.
         -2   -1    0    0    0  501 -0.00000000000E+00 -0.00000000000E+00 -0.80756914987E+02  0.80756914987E+02  0.00000000000E+00 0.  1.
        -24    2    1    2    0    0 -0.44556476126E+02  0.44439233619E+02  0.27046378839E+02  0.10646065785E+03  0.81499938728E+02 0.  0.
         23    2    1    2    0    0  0.21880099818E+02 -0.55053007117E+02  0.12926547089E+03  0.16910536803E+03  0.91528635792E+02 0.  0.
         13    1    3    3    0    0 -0.30015149422E+02 -0.11706779258E+02  0.35397776702E+02  0.47863978845E+02  0.00000000000E+00 0. -1.
        -14    1    3    3    0    0 -0.14541326704E+02  0.56146012878E+02 -0.83513978638E+01  0.58596679007E+02  0.00000000000E+00 0.  1.
        -11    1    4    4    0    0 -0.24103573080E+02  0.17501106675E+01  0.46053041317E+01  0.24601909453E+02  0.00000000000E+00 0. -1.
         11    1    4    4    0    0  0.45983672898E+02 -0.56803117785E+02  0.12466016676E+03  0.14450345857E+03  0.00000000000E+00 0.  1.
         21    1    1    2  502  501  0.22676376308E+02  0.10613773498E+02 -0.13712939011E+02  0.28546714813E+02  0.00000000000E+00 0.  1.
<scales pt_clust_5="13000.00000" pt_clust_6="13000.00000" pt_clust_7="13000.00000" pt_clust_8="13000.00000" pt_clust_9="25.03738"></scales>
<clustering>
<clus scale="   25.037">  2  9  1 -1</clus>
<clus scale="   81.500">  5  6 -1 -1</clus>
<clus scale="   91.529">  7  8 -1 -1</clus>
<clus scale="  100.811">  2  5  1 -1</clus>
<clus scale="  109.079">  1  5  2 -1</clus>
</clustering>
</event>
<event>
 9    1  0.2374319E-005  0.9794272E+02  0.7546771E-02  0.1290022E+00
          1   -1    0    0  502    0  0.00000000000E+00  0.00000000000E+00  0.52861671934E+03  0.52861671934E+03  0.00000000000E+00 0. -1.
         -2   -1    0    0    0  501 -0.00000000000E+00 -0.00000000000E+00 -0.89536200986E+02  0.89536200986E+02  0.00000000000E+00 0.  1.
         23    2    1    2    0    0 -0.46756380396E+02 -0.23715595383E+02 -0.36189452904E+02  0.11052796794E+03  0.90322569842E+02 0.  0.
        -24    2    1    2    0    0 -0.23853431975E+02  0.65610926533E+01  0.12916301363E+03  0.15397251187E+03  0.80077563445E+02 0.  0.
         13    1    4    4    0    0  0.18050693620E+02 -0.22938448435E+02  0.69139739940E+02  0.75048674844E+02  0.00000000000E+00 0. -1.
        -14    1    4    4    0    0 -0.41904125595E+02  0.29499541088E+02  0.60023273691E+02  0.78923837026E+02  0.00000000000E+00 0.  1.
        -13    1    3    3    0    0 -0.54231512051E+02  0.59083580887E+01 -0.52656784685E+02  0.75820198944E+02  0.00000000000E+00 0.  1.
         13    1    3    3    0    0  0.74751316542E+01 -0.29623953472E+02  0.16467331781E+02  0.34707768994E+02  0.00000000000E+00 0. -1.
         21    1    1    2  502  501  0.70609812372E+02  0.17154502730E+02  0.34610695763E+03  0.35365244052E+03  0.00000000000E+00 0. -1.
<scales pt_clust_5="13000.00000" pt_clust_6="13000.00000" pt_clust_7="13000.00000" pt_clust_8="13000.00000" pt_clust_9="72.66376"></scales>
<clustering>
<clus scale="   72.664">  1  9  2 -1</clus>
<clus scale="   80.078">  5  6 -1 -1</clus>
<clus scale="   88.583">  1  5  2 -1</clus>
<clus scale="   90.323">  7  8 -1 -1</clus>
<clus scale="   72.664">  1  5  2 -1</clus>
</clustering>
</event>
<event>
 9    1  0.2374319E-005  0.9603994E+02  0.7546771E-02  0.1294101E+00
         -2   -1    0    0    0  501 -0.00000000000E+00  0.00000000000E+00  0.42415042768E+02  0.42415042768E+02  0.00000000000E+00 0.  1.
          1   -1    0    0  502    0  0.00000000000E+00 -0.00000000000E+00 -0.33149528699E+03  0.33149528699E+03  0.00000000000E+00 0. -1.
         23    2    1    2    0    0 -0.20137217253E+01 -0.29017018895E+02 -0.48622769705E+02  0.10644242004E+03  0.90109780760E+02 0.  0.
        -24    2    1    2    0    0 -0.16721616661E+02  0.43850293752E+02 -0.19507882604E+03  0.21618184255E+03  0.80475958875E+02 0.  0.
         11    1    4    4    0    0 -0.26148566293E+02  0.28153175650E+02 -0.19407722218E+03  0.19784417350E+03  0.00000000000E+00 0. -1.
        -12    1    4    4    0    0  0.94269496320E+01  0.15697118102E+02 -0.10016038548E+01  0.18337669055E+02  0.00000000000E+00 0.  1.
        -13    1    3    3    0    0  0.27228217258E+02  0.87166066651E+01 -0.51193152851E+02  0.58635261964E+02  0.00000000000E+00 0.  1.
         13    1    3    3    0    0 -0.29241938983E+02 -0.37733625560E+02  0.25703831465E+01  0.47807158072E+02  0.00000000000E+00 0. -1.
         21    1    1    2  502  501  0.18735338386E+02 -0.14833274858E+02 -0.45378648478E+02  0.51286067164E+02  0.00000000000E+00 0. -1.
<scales pt_clust_5="13000.00000" pt_clust_6="13000.00000" pt_clust_7="13000.00000" pt_clust_8="13000.00000" pt_clust_9="23.89642"></scales>
<clustering>
<clus scale="   23.896">  2  9  1 -1</clus>
<clus scale="   80.476">  5  6 -1 -1</clus>
<clus scale="   87.065">  2  5  1 -1</clus>
<clus scale="   90.110">  7  8 -1 -1</clus>
<clus scale="   23.896">  2  5  1 -1</clus>
</clustering>
</event>
<event>
 9    1  0.2374319E-005  0.1254304E+03  0.7546771E-02  0.1241436E+00
         -2   -1    0    0    0  501 -0.00000000000E+00  0.00000000000E+00  0.16638487883E+03  0.16638487883E+03  0.00000000000E+00 0.  1.
          1   -1    0    0  502    0  0.00000000000E+00 -0.00000000000E+00 -0.56140973460E+03  0.56140973460E+03  0.00000000000E+00 0. -1.
        -24    2    1    2    0    0 -0.16201176676E+02  0.76985946025E+02  0.13482059808E+03  0.17364507972E+03  0.76070401831E+02 0.  0.
         23    2    1    2    0    0 -0.23911768634E+02 -0.60403238426E+02 -0.41165223288E+03  0.42823816784E+03  0.98539553817E+02 0.  0.
         13    1    3    3    0    0 -0.18988691972E+02  0.16387081749E+02 -0.77953785861E+00  0.25094113858E+02  0.00000000000E+00 0. -1.
        -14    1    3    3    0    0  0.27875152960E+01  0.60598864275E+02  0.13560013594E+03  0.14855096587E+03  0.00000000000E+00 0.  1.
        -13    1    4    4    0    0 -0.30298195571E+02  0.18321914562E+02 -0.83163179526E+02  0.90386877571E+02  0.00000000000E+00 0.  1.
         13    1    4    4    0    0  0.63864269364E+01 -0.78725152988E+02 -0.32848905336E+03  0.33785129027E+03  0.00000000000E+00 0. -1.
         21    1    1    2  502  501  0.40112945310E+02 -0.16582707599E+02 -0.11819322097E+03  0.12591136587E+03  0.00000000000E+00 0.  1.
<scales pt_clust_5="13000.00000" pt_clust_6="13000.00000" pt_clust_7="13000.00000" pt_clust_8="13000.00000" pt_clust_9="43.40547"></scales>
<clustering>
<clus scale="   43.405">  2  9  1 -1</clus>
<clus scale="   76.070">  5  6 -1 -1</clus>
<clus scale="   98.540">  7  8 -1 -1</clus>
<clus scale="  108.671">  1  5  2 -1</clus>
<clus scale="   43.405">  2  5  1 -1</clus>
</clustering>
</event>
<event>
 9    1  0.2374319E-005  0.1270220E+03  0.7546771E-02  0.1233281E+00
         -4   -1    0    0    0  501 -0.00000000000E+00  0.00000000000E+00  0.64229746187E+03  0.64229746187E+03  0.00000000000E+00 0.  1.
          3   -1    0    0  502    0  0.00000000000E+00 -0.00000000000E+00 -0.33991244867E+02  0.33991244867E+02  0.00000000000E+00 0. -1.
         23    2    1    2    0    0  0.57345516264E+02 -0.61081750330E+02  0.35805767717E+03  0.37818593067E+03  0.88316530290E+02 0.  0.
        -24    2    1    2    0    0 -0.80978816007E+02  0.70355256639E+02  0.19919923485E+03  0.24108907319E+03  0.83283703493E+02 0.  0.
         11    1    4    4    0    0 -0.64353546734E+02  0.34313784457E+02  0.54498380721E+02  0.91043331893E+02  0.00000000000E+00 0. -1.
        -12    1    4    4    0    0 -0.16625269273E+02  0.36041472182E+02  0.14470085413E+03  0.15004574129E+03  0.00000000000E+00 0.  1.
        -11    1    3    3    0    0  0.36136513901E+02  0.15771068283E+01  0.42681753218E+02  0.55947001355E+02  0.00000000000E+00 0. -1.
         11    1    3    3    0    0  0.21209002362E+02 -0.62658857158E+02  0.31537592395E+03  0.32223892932E+03  0.00000000000E+00 0.  1.
         21    1    1    2  502  501  0.23633299743E+02 -0.92735063086E+01  0.51049304989E+02  0.57013702878E+02  0.00000000000E+00 0. -1.
<scales pt_clust_5="13000.00000" pt_clust_6="13000.00000" pt_clust_7="13000.00000" pt_clust_8="13000.00000" pt_clust_9="25.38761"></scales>
<clustering>
<clus scale="   25.388">  2  9  1 -1</clus>
<clus scale="   83.284">  5  6 -1 -1</clus>
<clus scale="   88.317">  7  8 -1 -1</clus>
<clus scale="  123.576">  2  5  1 -1</clus>
<clus scale="   25.388">  2  5  1 -1</clus>
</clustering>
</event>
<event>
 9    1  0.2374319E-005  0.1020027E+03  0.7546771E-02  0.1281947E+00
          1   -1    0    0  502    0  0.00000000000E+00  0.00000000000E+00  0.44332036360E+03  0.44332036360E+03  0.00000000000E+00 0. -1.
         -2   -1    0    0    0  501 -0.00000000000E+00 -0.00000000000E+00 -0.16859294842E+03  0.16859294842E+03  0.00000000000E+00 0.  1.
        -24    2    1    2    0    0  0.16799492220E+02 -0.44081324137E+02 -0.14347189537E+03  0.17055348820E+03  0.79239646011E+02 0.  0.
         23    2    1    2    0    0 -0.21788723196E+02 -0.24777191494E+01  0.29284365218E+03  0.30754398760E+03  0.91351037956E+02 0.  0.
         11    1    3    3    0    0 -0.28024698919E+02 -0.31889972203E+02 -0.46109349082E+02  0.62677158115E+02  0.00000000000E+00 0. -1.
        -12    1    3    3    0    0  0.44824191139E+02 -0.12191351934E+02 -0.97362546287E+02  0.10787633008E+03  0.00000000000E+00 0.  1.
        -11    1    4    4    0    0  0.29363953574E+02  0.21688572422E+02  0.13579481261E+03  0.14061602709E+03  0.00000000000E+00 0.  1.
         11    1    4    4    0    0 -0.51152676769E+02 -0.24166291571E+02  0.15704883957E+03  0.16692796050E+03  0.00000000000E+00 0. -1.
         21    1    1    2  502  501  0.49892309756E+01  0.46559043286E+02  0.12535565837E+03  0.13381583622E+03  0.00000000000E+00 0. -1.
<scales pt_clust_5="13000.00000" pt_clust_6="13000.00000" pt_clust_7="13000.00000" pt_clust_8="13000.00000" pt_clust_9="46.82560"></scales>
<clustering>
<clus scale="   46.826">  1  9  2 -1</clus>
<clus scale="   79.240">  5  6 -1 -1</clus>
<clus scale="   91.315">  2  5  1 -1</clus>
<clus scale="   91.351">  7  8 -1 -1</clus>
<clus scale="   46.826">  1  5  2 -1</clus>
</clustering>
</event>
<event>
 9    1  0.2374319E-005  0.1086487E+03  0.7546771E-02  0.1268823E+00
          1   -1    0    0  502    0  0.00000000000E+00  0.00000000000E+00  0.39840430533E+03  0.39840430533E+03  0.00000000000E+00 0. -1.
         -2   -1    0    0    0  501 -0.00000000000E+00 -0.00000000000E+00 -0.15165216084E+03  0.15165216084E+03  0.00000000000E+00 0.  1.
        -24    2    1    2    0    0 -0.38639315110E+02 -0.41638980749E+02 -0.12368900749E+03  0.15753727331E+03  0.79323518055E+02 0.  0.
         23    2    1    2    0    0  0.42909353691E+02  0.18662452074E+02  0.32717815308E+03  0.34334764445E+03  0.93019145058E+02 0.  0.
         13    1    3    3    0    0 -0.28247347277E+02  0.14342314545E+02 -0.15473379156E+02  0.35256773494E+02  0.00000000000E+00 0. -1.
        -14    1    3    3    0    0 -0.10391967832E+02 -0.55981295294E+02 -0.10821562834E+03  0.12228049981E+03  0.00000000000E+00 0.  1.
        -13    1    4    4    0    0 -0.28350749693E-01  0.48226019838E+02  0.20340910304E+03  0.20904787249E+03  0.00000000000E+00 0. -1.
         13    1    4    4    0    0  0.42937704441E+02 -0.29563567764E+02  0.12376905004E+03  0.13429977196E+03  0.00000000000E+00 0.  1.
         21    1    1    2  502  501 -0.42700385816E+01  0.22976528675E+02  0.43262998903E+02  0.49171548414E+02  0.00000000000E+00 0. -1.
<scales pt_clust_5="13000.00000" pt_clust_6="13000.00000" pt_clust_7="13000.00000" pt_clust_8="13000.00000" pt_clust_9="23.36994"></scales>
<clustering>
<clus scale="   23.370">  1  9  2 -1</clus>
<clus scale="   79.324">  5  6 -1 -1</clus>
<clus scale="   93.019">  7  8 -1 -1</clus>
<clus scale="   97.181">  2  5  1 -1</clus>
<clus scale="   23.370">  1  5  2 -1</clus>
</clustering>
</event>
<event>
 9    1  0.2374319E-005  0.9220960E+02  0.7546771E-02  0.1303261E+00
         -2   -1    0    0    0  501 -0.00000000000E+00  0.00000000000E+00  0.22732098084E+03  0.22732098084E+03  0.00000000000E+00 0.  1.
          1   -1    0    0  502    0  0.00000000000E+00 -0.00000000000E+00 -0.24167547989E+03  0.24167547989E+03  0.00000000000E+00 0. -1.
        -24    2    1    2    0    0  0.18477279997E+02 -0.56810138138E-01  0.13487000587E+03  0.15925790138E+03  0.82654386244E+02 0.  0.
         23    2    1    2    0    0  0.35377503577E+02 -0.26565266346E+02  0.41279840319E+02  0.10998626718E+03  0.91845917797E+02 0.  0.
         11    1    3    3    0    0 -0.17796160435E+02 -0.31630936798E+02  0.64823310722E+02  0.74291864306E+02  0.00000000000E+00 0. -1.
        -12    1    3    3    0    0  0.36273440433E+02  0.31574126660E+02  0.70046695150E+02  0.84966037077E+02  0.00000000000E+00 0.  1.
        -13    1    4    4    0    0 -0.40140351082E+01  0.21200332963E+02 -0.15030266365E+02  0.26295921786E+02  0.00000000000E+00 0. -1.
         13    1    4    4    0    0  0.39391538685E+02 -0.47765599309E+02  0.56310106685E+02  0.83690345394E+02  0.00000000000E+00 0.  1.
         21    1    1    2  502  501 -0.53854783574E+02  0.26622076484E+02 -0.19050434524E+03  0.19975229217E+03  0.00000000000E+00 0. -1.
<scales pt_clust_5="13000.00000" pt_clust_6="13000.00000" pt_clust_7="13000.00000" pt_clust_8="13000.00000" pt_clust_9="60.07556"></scales>
<clustering>
<clus scale="   60.076">  2  9  1 -1</clus>
<clus scale="   82.654">  5  6 -1 -1</clus>
<clus scale="   83.058">  1  5  2 -1</clus>
<clus scale="   91.846">  7  8 -1 -1</clus>
<clus scale="   60.076">  2  5  1 -1</clus>
</clustering>
</event>
<event>
 9    1  0.2374319E-005  0.1286887E+03  0.7546771E-02  0.1234857E+00
         -2   -1    0    0    0  501 -0.00000000000E+00  0.00000000000E+00  0.22145796008E+02  0.22145796008E+02  0.00000000000E+00 0.  1.
          1   -1    0    0  502    0  0.00000000000E+00 -0.00000000000E+00 -0.85967210551E+03  0.85967210551E+03  0.00000000000E+00 0. -1.
        -24    2    1    2    0    0 -0.84491659706E+02  0.41309301493E+02 -0.30340758568E+03  0.32739785014E+03  0.79296218566E+02 0.  0.
         23    2    1    2    0    0  0.66132353982E+02 -0.22695419131E+02 -0.39814191806E+03  0.41595260961E+03  0.98035790580E+02 0.  0.
         11    1    3    3    0    0 -0.21005938316E+02  0.53360819428E+02 -0.16412682031E+03  0.17385695166E+03  0.00000000000E+00 0. -1.
        -12    1    3    3    0    0 -0.63485721389E+02 -0.12051517935E+02 -0.13928076537E+03  0.15354089848E+03  0.00000000000E+00 0.  1.
        -11    1    4    4    0    0  0.17009771177E+02 -0.50423581125E+02 -0.28028741853E+03  0.28529442132E+03  0.00000000000E+00 0.  1.
         11    1    4    4    0    0  0.49122582805E+02  0.27728161994E+02 -0.11785449953E+03  0.13065818829E+03  0.00000000000E+00 0. -1.
         21    1    1    2  502  501  0.18359305723E+02 -0.18613882362E+02 -0.13597680576E+03  0.13846744176E+03  0.00000000000E+00 0. -1.
<scales pt_clust_5="13000.00000" pt_clust_6="13000.00000" pt_clust_7="13000.00000" pt_clust_8="13000.00000" pt_clust_9="26.14461"></scales>
<clustering>
<clus scale="   26.145">  2  9  1 -1</clus>
<clus scale="   79.296">  5  6 -1 -1</clus>
<clus scale="   98.036">  7  8 -1 -1</clus>
<clus scale="  115.055">  1  5  2 -1</clus>
<clus scale="   26.145">  2  5  1 -1</clus>
</clustering>
</event>
<event>
 9    1  0.2374319E-005  0.9624387E+02  0.7546771E-02  0.1295504E+00
          3   -1    0    0  502    0  0.00000000000E+00  0.00000000000E+00  0.72087362451E+02  0.72087362451E+02  0.00000000000E+00 0. -1.
         -4   -1    0    0    0  501 -0.00000000000E+00 -0.00000000000E+00 -0.35886664264E+03  0.35886664264E+03  0.00000000000E+00 0.  1.
         23    2    1    2    0    0 -0.24134492225E+02  0.15553859379E+02 -0.27316945535E+03  0.28981298204E+03  0.92442506300E+02 0.  0.
        -24    2    1    2    0    0 -0.76594218734E+01 -0.38349820072E+02 -0.36097087043E+02  0.96016908001E+02  0.79917904665E+02 0.  0.
         11    1    4    4    0    0  0.47356332544E+01 -0.31960863857E+02  0.20142570052E+02  0.38074219219E+02  0.00000000000E+00 0. -1.
        -12    1    4    4    0    0 -0.12395055128E+02 -0.63889562154E+01 -0.56239657095E+02  0.57942688782E+02  0.00000000000E+00 0.  1.
        -13    1    3    3    0    0 -0.21410964402E+01  0.45796089999E+02 -0.73160352240E+02  0.86338307217E+02  0.00000000000E+00 0.  1.
         13    1    3    3    0    0 -0.21993395785E+02 -0.30242230620E+02 -0.20000910311E+03  0.20347467483E+03  0.00000000000E+00 0. -1.
         21    1    1    2  502  501  0.31793914099E+02  0.22795960694E+02  0.22487262197E+02  0.45124115047E+02  0.00000000000E+00 0. -1.
<scales pt_clust_5="13000.00000" pt_clust_6="13000.00000" pt_clust_7="13000.00000" pt_clust_8="13000.00000" pt_clust_9="39.12172"></scales>
<clustering>
<clus scale="   39.122">  1  9  2 -1</clus>
<clus scale="   79.918">  5  6 -1 -1</clus>
<clus scale="   84.286">  1  5  2 -1</clus>
<clus scale="   92.443">  7  8 -1 -1</clus>
<clus scale="   39.122">  1  5  2 -1</clus>
</clustering>
</event>
<event>
 9    1  0.2374319E-005  0.2116398E+03  0.7546771E-02  0.1174002E+00
          1   -1    0    0  502    0  0.00000000000E+00  0.00000000000E+00  0.42203455229E+03  0.42203455229E+03  0.00000000000E+00 0. -1.
         -2   -1    0    0    0  501 -0.00000000000E+00 -0.00000000000E+00 -0.18436554890E+03  0.18436554890E+03  0.00000000000E+00 0.  1.
         23    2    1    2    0    0  0.49763355147E+02  0.17599739809E+03  0.69323046982E+01  0.20523515296E+03  0.92854377985E+02 0.  0.
        -24    2    1    2    0    0  0.60853097354E+01  0.15693524649E+02  0.16500891588E+03  0.19096355751E+03  0.94635195712E+02 0.  0.
         13    1    4    4    0    0 -0.20121432443E+02 -0.28383176361E+02  0.27957360260E+02  0.44632843698E+02  0.00000000000E+00 0. -1.
        -14    1    4    4    0    0  0.26206742179E+02  0.44076701009E+02  0.13705155562E+03  0.14633071381E+03  0.00000000000E+00 0.  1.
        -11    1    3    3    0    0  0.22226665839E-01  0.14787314752E+03  0.79200647313E+01  0.14808509607E+03  0.00000000000E+00 0.  1.
         11    1    3    3    0    0  0.49741128481E+02  0.28124250568E+02 -0.98776003302E+00  0.57150056889E+02  0.00000000000E+00 0. -1.
         21    1    1    2  502  501 -0.55848664882E+02 -0.19169092274E+03  0.65727782820E+02  0.21020139073E+03  0.00000000000E+00 0. -1.
<scales pt_clust_5="13000.00000" pt_clust_6="13000.00000" pt_clust_7="13000.00000" pt_clust_8="13000.00000" pt_clust_9="190.18276"></scales>
<clustering>
<clus scale="   92.854">  7  8 -1 -1</clus>
<clus scale="   94.635">  5  6 -1 -1</clus>
<clus scale="   96.120">  1  5  2 -1</clus>
<clus scale="  190.183">  1  9  2 -1</clus>
<clus scale="   96.120">  1  5  2 -1</clus>
</clustering>
</event>
<event>
 9    1  0.2374319E-005  0.1225490E+03  0.7546771E-02  0.1239302E+00
         -2   -1    0    0    0  501 -0.00000000000E+00  0.00000000000E+00  0.36262075409E+03  0.36262075409E+03  0.00000000000E+00 0.  1.
          1   -1    0    0  502    0  0.00000000000E+00 -0.00000000000E+00 -0.62463107465E+02  0.62463107465E+02  0.00000000000E+00 0. -1.
        -24    2    1    2    0    0 -0.13672472414E+02  0.93153023452E+02  0.25417993952E+03  0.28324545423E+03  0.82195641051E+02 0.  0.
         23    2    1    2    0    0  0.21642659017E+02 -0.74769993059E+02  0.39270692286E+02  0.12070919227E+03  0.83483922256E+02 0.  0.
         11    1    3    3    0    0 -0.25535653620E+02  0.29525406187E+02  0.28139940237E+02  0.48121465614E+02  0.00000000000E+00 0. -1.
        -12    1    3    3    0    0  0.11863181206E+02  0.63627617265E+02  0.22603999928E+03  0.23512398862E+03  0.00000000000E+00 0.  1.
        -13    1    4    4    0    0  0.40311953952E+02 -0.35455986856E+01  0.15543881786E+02  0.43350169117E+02  0.00000000000E+00 0.  1.
         13    1    4    4    0    0 -0.18669294935E+02 -0.71224394374E+02  0.23726810500E+02  0.77359023157E+02  0.00000000000E+00 0. -1.
         21    1    1    2  502  501 -0.79701866036E+01 -0.18383030392E+02  0.67070148195E+01  0.21129215052E+02  0.00000000000E+00 0. -1.
<scales pt_clust_5="13000.00000" pt_clust_6="13000.00000" pt_clust_7="13000.00000" pt_clust_8="13000.00000" pt_clust_9="20.03646"></scales>
<clustering>
<clus scale="   20.036">  2  9  1 -1</clus>
<clus scale="   82.196">  5  6 -1 -1</clus>
<clus scale="   83.484">  7  8 -1 -1</clus>
<clus scale="  121.675">  1  5  2 -1</clus>
<clus scale="   20.036">  2  5  1 -1</clus>
</clustering>
</event>
<event>
 9    1  0.2374319E-005  0.1196164E+03  0.7546771E-02  0.1246305E+00
          1   -1    0    0  502    0  0.00000000000E+00  0.00000000000E+00  0.43098627654E+03  0.43098627654E+03  0.00000000000E+00 0. -1.
         -2   -1    0    0    0  501 -0.00000000000E+00 -0.00000000000E+00 -0.43390457563E+02  0.43390457563E+02  0.00000000000E+00 0.  1.
        -24    2    1    2    0    0 -0.42266018941E+02  0.67878275871E+02  0.11180051879E+03  0.16054627323E+03  0.82957056092E+02 0.  0.
         23    2    1    2    0    0  0.62525182688E+02 -0.45213854284E+02  0.21882341871E+03  0.24925565928E+03  0.91054950533E+02 0.  0.
         11    1    3    3    0    0 -0.46340217594E+02  0.46795396818E+01  0.24304441483E+02  0.52535889962E+02  0.00000000000E+00 0. -1.
        -12    1    3    3    0    0  0.40741986537E+01  0.63198736189E+02  0.87496077307E+02  0.10801038327E+03  0.00000000000E+00 0.  1.
        -11    1    4    4    0    0  0.24113856338E+02  0.25869944852E+02  0.42419427596E+02  0.55228072135E+02  0.00000000000E+00 0.  1.
         11    1    4    4    0    0  0.38411326350E+02 -0.71083799136E+02  0.17640399111E+03  0.19402758714E+03  0.00000000000E+00 0. -1.
         21    1    1    2  502  501 -0.20259163747E+02 -0.22664421587E+02  0.56971881477E+02  0.64574801592E+02  0.00000000000E+00 0. -1.
<scales pt_clust_5="13000.00000" pt_clust_6="13000.00000" pt_clust_7="13000.00000" pt_clust_8="13000.00000" pt_clust_9="30.39917"></scales>
<clustering>
<clus scale="   30.399">  1  9  2 -1</clus>
<clus scale="   82.957">  5  6 -1 -1</clus>
<clus scale="   91.055">  7  8 -1 -1</clus>
<clus scale="  113.574">  2  5  1 -1</clus>
<clus scale="   30.399">  1  5  2 -1</clus>
</clustering>
</event>
<event>
 9    1  0.2374319E-005  0.2286484E+03  0.7546771E-02  0.1128113E+00
         -2   -1    0    0    0  501 -0.00000000000E+00  0.00000000000E+00  0.37709029911E+03  0.37709029911E+03  0.00000000000E+00 0.  1.
          1   -1    0    0  502    0  0.00000000000E+00 -0.00000000000E+00 -0.26191359513E+04  0.26191359513E+04  0.00000000000E+00 0. -1.
        -24    2    1    2    0    0 -0.81008479887E+01 -0.20822815323E+03  0.31006321706E+03  0.38206203707E+03  0.80047573750E+02 0.  0.
         23    2    1    2    0    0 -0.11758658990E+03  0.34797770246E+03 -0.17586839007E+04  0.17987805924E+04  0.87906026538E+02 0.  0.
         13    1    3    3    0    0 -0.40896465933E+02 -0.12798543096E+03  0.21386271677E+03  0.25256692794E+03  0.00000000000E+00 0. -1.
        -14    1    3    3    0    0  0.32795617944E+02 -0.80242722276E+02  0.96200500286E+02  0.12949510914E+03  0.00000000000E+00 0.  1.
        -11    1    4    4    0    0 -0.13598961072E+02  0.19777281954E+02 -0.46529451466E+02  0.52355157123E+02  0.00000000000E+00 0.  1.
         11    1    4    4    0    0 -0.10398762883E+03  0.32820042051E+03 -0.17121544492E+04  0.17464254353E+04  0.00000000000E+00 0. -1.
         21    1    1    2  502  501  0.12568743789E+03 -0.13974954923E+03 -0.79342496854E+03  0.81538362092E+03  0.00000000000E+00 0.  1.
<scales pt_clust_5="13000.00000" pt_clust_6="13000.00000" pt_clust_7="13000.00000" pt_clust_8="13000.00000" pt_clust_9="187.95550"></scales>
<clustering>
<clus scale="   80.048">  5  6 -1 -1</clus>
<clus scale="   87.906">  7  8 -1 -1</clus>
<clus scale="  187.955">  2  9  1 -1</clus>
<clus scale="  225.744">  1  5  2 -1</clus>
<clus scale="  187.955">  2  5  1 -1</clus>
</clustering>
</event>
<event>
 9    1  0.2374319E-005  0.1192012E+03  0.7546771E-02  0.1250284E+00
         -2   -1    0    0    0  501 -0.00000000000E+00  0.00000000000E+00  0.46842098084E+02  0.46842098084E+02  0.00000000000E+00 0.  1.
          1   -1    0    0  502    0  0.00000000000E+00 -0.00000000000E+00 -0.57117369313E+03  0.57117369313E+03  0.00000000000E+00 0. -1.
         23    2    1    2    0    0 -0.65037484701E+02 -0.23668678262E+02 -0.56232148542E+02  0.13036787771E+03  0.95098098095E+02 0.  0.
        -24    2    1    2    0    0  0.83739086450E+02  0.12953787044E+02 -0.39888385653E+03  0.41515407448E+03  0.77875152373E+02 0.  0.
         11    1    4    4    0    0  0.75013686017E+02  0.20814994854E+02 -0.39527452946E+03  0.40286755980E+03  0.00000000000E+00 0. -1.
        -12    1    4    4    0    0  0.87254004329E+01 -0.78612078103E+01 -0.36093270675E+01  0.12286514674E+02  0.00000000000E+00 0.  1.
        -11    1    3    3    0    0 -0.39657010065E+02 -0.54551832198E+02 -0.59930019500E+02  0.90222990866E+02  0.00000000000E+00 0.  1.
         11    1    3    3    0    0 -0.25380474636E+02  0.30883153937E+02  0.36978709585E+01  0.40144886841E+02  0.00000000000E+00 0. -1.
         21    1    1    2  502  501 -0.18701601749E+02  0.10714891218E+02 -0.69215589973E+02  0.72493839028E+02  0.00000000000E+00 0. -1.
<scales pt_clust_5="13000.00000" pt_clust_6="13000.00000" pt_clust_7="13000.00000" pt_clust_8="13000.00000" pt_clust_9="21.55363"></scales>
<clustering>
<clus scale="   21.554">  2  9  1 -1</clus>
<clus scale="   77.875">  5  6 -1 -1</clus>
<clus scale="   95.098">  7  8 -1 -1</clus>
<clus scale="  105.971">  2  5  1 -1</clus>
<clus scale="   21.554">  2  5  1 -1</clus>
</clustering>
</event>
<event>
 9    1  0.2374319E-005  0.9760368E+02  0.7546771E-02  0.1292515E+00
          1   -1    0    0  502    0  0.00000000000E+00  0.00000000000E+00  0.37515702281E+03  0.37515702281E+03  0.00000000000E+00 0. -1.
         -2   -1    0    0    0  501 -0.00000000000E+00 -0.00000000000E+00 -0.19498648952E+03  0.19498648952E+03  0.00000000000E+00 0.  1.
        -24    2    1    2    0    0  0.25858075144E+02  0.25279762006E+00 -0.16077391602E+03  0.18257889952E+03  0.82571777985E+02 0.  0.
         23    2    1    2    0    0  0.20175282516E+02  0.15872779481E+02  0.95088481073E+02  0.13691692905E+03  0.95107513244E+02 0.  0.
         13    1    3    3    0    0  0.22406681347E+02  0.39411205163E+02 -0.66979292603E+02  0.80879713767E+02  0.00000000000E+00 0. -1.
        -14    1    3    3    0    0  0.34513937977E+01 -0.39158407542E+02 -0.93794623421E+02  0.10169918575E+03  0.00000000000E+00 0.  1.
        -13    1    4    4    0    0 -0.88927826239E+01 -0.36956541029E+02  0.32549163373E+02  0.50043136832E+02  0.00000000000E+00 0. -1.
         13    1    4    4    0    0  0.29068065140E+02  0.52829320510E+02  0.62539317699E+02  0.86873792221E+02  0.00000000000E+00 0.  1.
         21    1    1    2  502  501 -0.46033357660E+02 -0.16125577101E+02  0.24585596824E+03  0.25064768376E+03  0.00000000000E+00 0. -1.
<scales pt_clust_5="13000.00000" pt_clust_6="13000.00000" pt_clust_7="13000.00000" pt_clust_8="13000.00000" pt_clust_9="48.77606"></scales>
<clustering>
<clus scale="   48.776">  1  9  2 -1</clus>
<clus scale="   82.572">  5  6 -1 -1</clus>
<clus scale="   85.435">  2  5  1 -1</clus>
<clus scale="   95.108">  7  8 -1 -1</clus>
<clus scale="   48.776">  1  5  2 -1</clus>
</clustering>
</event>
<event>
 9    1  0.2374319E-005  0.9399200E+02  0.7546771E-02  0.1305374E+00
          1   -1    0    0  502    0  0.00000000000E+00  0.00000000000E+00  0.16391017963E+03  0.16391017963E+03  0.00000000000E+00 0. -1.
         -2   -1    0    0    0  501 -0.00000000000E+00 -0.00000000000E+00 -0.12543394269E+03  0.12543394269E+03  0.00000000000E+00 0.  1.
        -24    2    1    2    0    0  0.22543147564E+02 -0.81734907839E+01 -0.83138688587E+02  0.11220447738E+03  0.71433911775E+02 0.  0.
         23    2    1    2    0    0 -0.30532792165E+02 -0.11428078081E+02  0.64043687462E+02  0.11580039669E+03  0.90803555011E+02 0.  0.
         13    1    3    3    0    0  0.25519613268E+02  0.22252679190E+02 -0.72182344303E+02  0.79729061336E+02  0.00000000000E+00 0. -1.
        -14    1    3    3    0    0 -0.29764657045E+01 -0.30426169974E+02 -0.10956344284E+02  0.32475416048E+02  0.00000000000E+00 0.  1.
        -11    1    4    4    0    0 -0.62368806172E+02 -0.13408171764E+01  0.48211653905E+02  0.78841799486E+02  0.00000000000E+00 0.  1.
         11    1    4    4    0    0  0.31836014006E+02 -0.10087260904E+02  0.15832033558E+02  0.36958597199E+02  0.00000000000E+00 0. -1.
         21    1    1    2  502  501  0.79896446017E+01  0.19601568865E+02  0.57571238072E+02  0.61339248251E+02  0.00000000000E+00 0. -1.
<scales pt_clust_5="13000.00000" pt_clust_6="13000.00000" pt_clust_7="13000.00000" pt_clust_8="13000.00000" pt_clust_9="21.16733"></scales>
<clustering>
<clus scale="   21.167">  1  9  2 -1</clus>
<clus scale="   71.434">  5  6 -1 -1</clus>
<clus scale="   75.445">  2  5  1 -1</clus>
<clus scale="   90.804">  7  8 -1 -1</clus>
<clus scale="   21.167">  1  5  2 -1</clus>
</clustering>
</event>
<event>
 9    1  0.2374319E-005  0.8950229E+02  0.7546771E-02  0.1310125E+00
         -4   -1    0    0    0  501 -0.00000000000E+00  0.00000000000E+00  0.67534457304E+03  0.67534457304E+03  0.00000000000E+00 0.  1.
          3   -1    0    0  502    0  0.00000000000E+00 -0.00000000000E+00 -0.16912074983E+03  0.16912074983E+03  0.00000000000E+00 0. -1.
        -24    2    1    2    0    0  0.11961406749E+01  0.11461502086E+01  0.64933285029E+03  0.65425820770E+03  0.80111843416E+02 0.  0.
         23    2    1    2    0    0 -0.28050393824E+02  0.13359620459E+02 -0.10589187739E+03  0.14207516606E+03  0.89481612971E+02 0.  0.
         11    1    3    3    0    0  0.30130174089E+02  0.21010326359E+01  0.10777617737E+03  0.11192830802E+03  0.00000000000E+00 0. -1.
        -12    1    3    3    0    0 -0.28934033414E+02 -0.95488242731E+00  0.54155667293E+03  0.54232989968E+03  0.00000000000E+00 0.  1.
        -11    1    4    4    0    0 -0.18749033583E+02  0.44008476655E+02 -0.98055071114E+02  0.10910118812E+03  0.00000000000E+00 0. -1.
         11    1    4    4    0    0 -0.93013602404E+01 -0.30648856195E+02 -0.78368062785E+01  0.32973977938E+02  0.00000000000E+00 0.  1.
         21    1    1    2  502  501  0.26854253149E+02 -0.14505770668E+02 -0.37217149690E+02  0.48131949118E+02  0.00000000000E+00 0. -1.
<scales pt_clust_5="13000.00000" pt_clust_6="13000.00000" pt_clust_7="13000.00000" pt_clust_8="13000.00000" pt_clust_9="30.52160"></scales>
<clustering>
<clus scale="   30.522">  2  9  1 -1</clus>
<clus scale="   80.112">  5  6 -1 -1</clus>
<clus scale="   80.135">  1  5  2 -1</clus>
<clus scale="   89.482">  7  8 -1 -1</clus>
<clus scale="   30.522">  2  5  1 -1</clus>
</clustering>
</event>
<event>
 9    1  0.2374319E-005  0.2134005E+03  0.7546771E-02  0.1147798E+00
         -2   -1    0    0    0  501 -0.00000000000E+00  0.00000000000E+00  0.87175517433E+03  0.87175517433E+03  0.00000000000E+00 0.  1.
          1   -1    0    0  502    0  0.00000000000E+00 -0.00000000000E+00 -0.27785986775E+03  0.27785986775E+03  0.00000000000E+00 0. -1.
        -24    2    1    2    0    0  0.18499953259E+03 -0.54189280679E+02  0.64203752446E+03  0.67535163820E+03  0.82014310965E+02 0.  0.
         23    2    1    2    0    0  0.61616995430E+02  0.13135339637E+03 -0.11513364625E+03  0.20731422498E+03  0.93129278524E+02 0.  0.
         13    1    3    3    0    0  0.15516252752E+03 -0.97200413722E+01  0.45696511973E+03  0.48268727951E+03  0.00000000000E+00 0. -1.
        -14    1    3    3    0    0  0.29837005068E+02 -0.44469239307E+02  0.18507240473E+03  0.19266435869E+03  0.00000000000E+00 0.  1.
        -11    1    4    4    0    0  0.14356685276E+02  0.64516034480E+02 -0.58279467083E-01  0.66094148861E+02  0.00000000000E+00 0.  1.
         11    1    4    4    0    0  0.47260310154E+02  0.66837361886E+02 -0.11507536678E+03  0.14122007612E+03  0.00000000000E+00 0. -1.
         21    1    1    2  502  501 -0.24661652802E+03 -0.77164115686E+02  0.66991428366E+02  0.26694917890E+03  0.00000000000E+00 0.  1.
<scales pt_clust_5="13000.00000" pt_clust_6="13000.00000" pt_clust_7="13000.00000" pt_clust_8="13000.00000" pt_clust_9="197.01128"></scales>
<clustering>
<clus scale="   82.014">  5  6 -1 -1</clus>
<clus scale="   93.129">  7  8 -1 -1</clus>
<clus scale="  172.405">  2  7  1 -1</clus>
<clus scale="  197.011">  2  9  1 -1</clus>
<clus scale="  172.405">  2  5  1 -1</clus>
</clustering>
</event>
<event>
 9    1  0.2374319E-005  0.1083294E+03  0.7546771E-02  0.1268637E+00
          1   -1    0    0  502    0  0.00000000000E+00  0.00000000000E+00  0.67239440712E+03  0.67239440712E+03  0.00000000000E+00 0. -1.
         -2   -1    0    0    0  501 -0.00000000000E+00 -0.00000000000E+00 -0.28111488002E+02  0.28111488002E+02  0.00000000000E+00 0.  1.
         23    2    1    2    0    0 -0.16197613698E+02 -0.67329763201E+02  0.13722633772E+03  0.17865743608E+03  0.91059057755E+02 0.  0.
        -24    2    1    2    0    0  0.14945923341E+02  0.34845980325E+02  0.31060512032E+03  0.32272553360E+03  0.78984848543E+02 0.  0.
         11    1    4    4    0    0  0.24813004647E-02  0.51831165038E+02  0.27948984099E+03  0.28425523899E+03  0.00000000000E+00 0. -1.
        -12    1    4    4    0    0  0.14943442040E+02 -0.16985184713E+02  0.31115279326E+02  0.38470294608E+02  0.00000000000E+00 0.  1.
        -13    1    3    3    0    0  0.24437820928E+02  0.24659407344E+01  0.72089779371E+01  0.25597994420E+02  0.00000000000E+00 0.  1.
         13    1    3    3    0    0 -0.40635434627E+02 -0.69795703935E+02  0.13001735979E+03  0.15305944166E+03  0.00000000000E+00 0. -1.
         21    1    1    2  502  501  0.12516903578E+01  0.32483782876E+02  0.19645146108E+03  0.19912292545E+03  0.00000000000E+00 0. -1.
<scales pt_clust_5="13000.00000" pt_clust_6="13000.00000" pt_clust_7="13000.00000" pt_clust_8="13000.00000" pt_clust_9="32.50789"></scales>
<clustering>
<clus scale="   32.508">  1  9  2 -1</clus>
<clus scale="   78.985">  5  6 -1 -1</clus>
<clus scale="   91.059">  7  8 -1 -1</clus>
<clus scale="   98.398">  1  5  2 -1</clus>
<clus scale="   32.508">  1  5  2 -1</clus>
</clustering>
</event>
<event>
 9    1  0.2374319E-005  0.1095413E+03  0.7546771E-02  0.1267596E+00
          1   -1    0    0  502    0  0.00000000000E+00  0.00000000000E+00  0.25464919045E+03  0.25464919045E+03  0.00000000000E+00 0. -1.
         -2   -1    0    0    0  501 -0.00000000000E+00 -0.00000000000E+00 -0.17344706478E+03  0.17344706478E+03  0.00000000000E+00 0.  1.
        -24    2    1    2    0    0  0.48088320029E+02  0.23321913783E+02 -0.13600757876E+03  0.16690985054E+03  0.80650099461E+02 0.  0.
         23    2    1    2    0    0 -0.63803102517E+02 -0.70629065387E+01  0.14195298334E+03  0.18260597598E+03  0.95255301396E+02 0.  0.
         13    1    3    3    0    0  0.28503414710E+02  0.39218974112E+01 -0.65588344095E+00  0.28779439059E+02  0.00000000000E+00 0. -1.
        -14    1    3    3    0    0  0.19584905319E+02  0.19400016372E+02 -0.13535169532E+03  0.13813041149E+03  0.00000000000E+00 0.  1.
        -11    1    4    4    0    0 -0.82018660681E+02  0.17881035816E+02  0.10177454375E+03  0.13192744179E+03  0.00000000000E+00 0.  1.
         11    1    4    4    0    0  0.18215558165E+02 -0.24943942355E+02  0.40178439590E+02  0.50678534187E+02  0.00000000000E+00 0. -1.
         21    1    1    2  502  501  0.15714782487E+02 -0.16259007244E+02  0.75256721101E+02  0.78580428709E+02  0.00000000000E+00 0. -1.
<scales pt_clust_5="13000.00000" pt_clust_6="13000.00000" pt_clust_7="13000.00000" pt_clust_8="13000.00000" pt_clust_9="22.61216"></scales>
<clustering>
<clus scale="   22.612">  1  9  2 -1</clus>
<clus scale="   80.650">  5  6 -1 -1</clus>
<clus scale="   95.255">  7  8 -1 -1</clus>
<clus scale="   97.109">  2  5  1 -1</clus>
<clus scale="   22.612">  1  5  2 -1</clus>
</clustering>
</event>
<event>
 9    1  0.2374319E-005  0.2053874E+03  0.7546771E-02  0.1146317E+00
         -2   -1    0    0    0  501 -0.00000000000E+00  0.00000000000E+00  0.10686372454E+04  0.10686372454E+04  0.00000000000E+00 0.  1.
          1   -1    0    0  502    0  0.00000000000E+00 -0.00000000000E+00 -0.70021849423E+02  0.70021849423E+02  0.00000000000E+00 0. -1.
         23    2    1    2    0    0  0.20831532956E+03  0.34191651673E+02  0.64898931467E+03  0.68865636006E+03  0.92174324649E+02 0.  0.
        -24    2    1    2    0    0 -0.17590756435E+03 -0.34342974509E+01  0.14809680712E+03  0.24358004599E+03  0.80270224452E+02 0.  0.
         11    1    4    4    0    0 -0.17415036296E+03  0.14945896169E+02  0.13121077552E+03  0.21855890818E+03  0.00000000000E+00 0. -1.
        -12    1    4    4    0    0 -0.17572013823E+01 -0.18380193620E+02  0.16886031605E+02  0.25021137815E+02  0.00000000000E+00 0.  1.
        -11    1    3    3    0    0  0.17029734305E+03  0.10425798516E+02  0.59227805182E+03  0.61636285822E+03  0.00000000000E+00 0.  1.
         11    1    3    3    0    0  0.38017986509E+02  0.23765853157E+02  0.56711262844E+02  0.72293501836E+02  0.00000000000E+00 0. -1.
         21    1    1    2  502  501 -0.32407765212E+02 -0.30757354222E+02  0.20152927420E+03  0.20642268878E+03  0.00000000000E+00 0. -1.
<scales pt_clust_5="13000.00000" pt_clust_6="13000.00000" pt_clust_7="13000.00000" pt_clust_8="13000.00000" pt_clust_9="44.67973"></scales>
<clustering>
<clus scale="   44.680">  1  9  2 -1</clus>
<clus scale="   80.270">  5  6 -1 -1</clus>
<clus scale="   92.174">  7  8 -1 -1</clus>
<clus scale="  200.328">  2  5  1 -1</clus>
<clus scale="  200.328">  2  5  1 -1</clus>
</clustering>
</event>
<event>
 9    1  0.2374319E-005  0.9332990E+02  0.7546771E-02  0.1302857E+00
         -2   -1    0    0    0  501 -0.00000000000E+00  0.00000000000E+00  0.65757552022E+02  0.65757552022E+02  0.00000000000E+00 0.  1.
          1   -1    0    0  502    0  0.00000000000E+00 -0.00000000000E+00 -0.63335944008E+03  0.63335944008E+03  0.00000000000E+00 0. -1.
        -24    2    1    2    0    0  0.15717011033E+02 -0.13129742301E+02  0.17447526778E+02  0.83318957580E+02  0.78855677873E+02 0.  0.
         23    2    1    2    0    0  0.60528220219E+02  0.29780675959E+02 -0.33179909222E+03  0.35079555381E+03  0.91740551937E+02 0.  0.
         13    1    3    3    0    0 -0.65355430362E+01  0.30799672863E+02  0.12315213967E+02  0.33808248495E+02  0.00000000000E+00 0. -1.
        -14    1    3    3    0    0  0.22252554069E+02 -0.43929415164E+02  0.51323128110E+01  0.49510709085E+02  0.00000000000E+00 0.  1.
        -11    1    4    4    0    0  0.26748701300E+02 -0.32567177986E+02 -0.10398958131E+03  0.11220493360E+03  0.00000000000E+00 0.  1.
         11    1    4    4    0    0  0.33779518919E+02  0.62347853945E+02 -0.22780951091E+03  0.23859062020E+03  0.00000000000E+00 0. -1.
         21    1    1    2  502  501 -0.76245231252E+02 -0.16650933658E+02 -0.25325032261E+03  0.26500248071E+03  0.00000000000E+00 0.  1.
<scales pt_clust_5="13000.00000" pt_clust_6="13000.00000" pt_clust_7="13000.00000" pt_clust_8="13000.00000" pt_clust_9="78.04222"></scales>
<clustering>
<clus scale="   78.042">  2  9  1 -1</clus>
<clus scale="   78.856">  5  6 -1 -1</clus>
<clus scale="   80.699">  1  5  2 -1</clus>
<clus scale="   91.741">  7  8 -1 -1</clus>
<clus scale="   78.042">  2  5  1 -1</clus>
</clustering>
</event>
<event>
 9    1  0.2374319E-005  0.9660647E+02  0.7546771E-02  0.1292933E+00
         -2   -1    0    0    0  501 -0.00000000000E+00  0.00000000000E+00  0.48452326238E+02  0.48452326238E+02  0.00000000000E+00 0.  1.
          1   -1    0    0  502    0  0.00000000000E+00 -0.00000000000E+00 -0.59110379239E+03  0.59110379239E+03  0.00000000000E+00 0. -1.
         23    2    1    2    0    0  0.12807987140E+01  0.29294947519E+02 -0.20404744413E+02  0.96873046888E+02  0.90045539719E+02 0.  0.
        -24    2    1    2    0    0  0.86320874440E+01 -0.64828199316E+02 -0.29832131788E+03  0.31573932587E+03  0.80115571773E+02 0.  0.
         13    1    4    4    0    0  0.24807202680E+02 -0.78140287710E+02 -0.24913939947E+03  0.26228179928E+03  0.00000000000E+00 0. -1.
        -14    1    4    4    0    0 -0.16175115236E+02  0.13312088394E+02 -0.49181918413E+02  0.53457526590E+02  0.00000000000E+00 0.  1.
        -13    1    3    3    0    0 -0.43096505968E+02  0.12635638372E+02  0.86372882200E+00  0.44918973844E+02  0.00000000000E+00 0.  1.
         13    1    3    3    0    0  0.44377304682E+02  0.16659309147E+02 -0.21268473235E+02  0.51954073044E+02  0.00000000000E+00 0. -1.
         21    1    1    2  502  501 -0.99128861579E+01  0.35533251797E+02 -0.22392540386E+03  0.22694374587E+03  0.00000000000E+00 0. -1.
<scales pt_clust_5="13000.00000" pt_clust_6="13000.00000" pt_clust_7="13000.00000" pt_clust_8="13000.00000" pt_clust_9="36.89007"></scales>
<clustering>
<clus scale="   36.890">  2  9  1 -1</clus>
<clus scale="   80.116">  5  6 -1 -1</clus>
<clus scale="   87.425">  2  5  1 -1</clus>
<clus scale="   90.046">  7  8 -1 -1</clus>
<clus scale="   36.890">  2  5  1 -1</clus>
</clustering>
</event>
<event>
 9    1  0.2374319E-005  0.1186043E+03  0.7546771E-02  0.1250628E+00
         -2   -1    0    0    0  501 -0.00000000000E+00  0.00000000000E+00  0.69292900094E+03  0.69292900094E+03  0.00000000000E+00 0.  1.
          1   -1    0    0  502    0  0.00000000000E+00 -0.00000000000E+00 -0.63972528762E+02  0.63972528762E+02  0.00000000000E+00 0. -1.
        -24    2    1    2    0    0 -0.33125499233E+02 -0.45559619542E+02  0.35212009268E+03  0.36546135498E+03  0.80002904218E+02 0.  0.
         23    2    1    2    0    0  0.54333268086E+02  0.90123901090E+02  0.30373439644E+03  0.33523298688E+03  0.95142789238E+02 0.  0.
         11    1    3    3    0    0 -0.50907594659E+02 -0.82927230402E+01  0.13643062655E+03  0.14585495642E+03  0.00000000000E+00 0. -1.
        -12    1    3    3    0    0  0.17782095426E+02 -0.37266896502E+02  0.21568946613E+03  0.21960639857E+03  0.00000000000E+00 0.  1.
        -13    1    4    4    0    0  0.74596221292E+02  0.35181723163E+02  0.19518818813E+03  0.21189803836E+03  0.00000000000E+00 0.  1.
         13    1    4    4    0    0 -0.20262953206E+02  0.54942177926E+02  0.10854620831E+03  0.12333494852E+03  0.00000000000E+00 0. -1.
         21    1    1    2  502  501 -0.21207768853E+02 -0.44564281547E+02 -0.26898016942E+02  0.56207187840E+02  0.00000000000E+00 0. -1.
<scales pt_clust_5="13000.00000" pt_clust_6="13000.00000" pt_clust_7="13000.00000" pt_clust_8="13000.00000" pt_clust_9="49.35326"></scales>
<clustering>
<clus scale="   49.353">  2  9  1 -1</clus>
<clus scale="   80.003">  5  6 -1 -1</clus>
<clus scale="   95.143">  7  8 -1 -1</clus>
<clus scale="  106.842">  1  5  2 -1</clus>
<clus scale="   49.353">  2  5  1 -1</clus>
</clustering>
</event>
<event>
 9    1  0.2374319E-005  0.1559626E+03  0.7546771E-02  0.1195172E+00
          1   -1    0    0  502    0  0.00000000000E+00  0.00000000000E+00  0.15688241563E+03  0.15688241563E+03  0.00000000000E+00 0. -1.
         -2   -1    0    0    0  501 -0.00000000000E+00 -0.00000000000E+00 -0.30130096789E+03  0.30130096789E+03  0.00000000000E+00 0.  1.
         23    2    1    2    0    0 -0.63035573905E+02  0.63136651835E+02 -0.51236707753E+02  0.13720090652E+03  0.90769863639E+02 0.  0.
        -24    2    1    2    0    0  0.14683268540E+03 -0.94492920532E+02 -0.12146495102E+03  0.22714695284E+03  0.79707304088E+02 0.  0.
         11    1    4    4    0    0  0.73522033832E+02 -0.16337432731E+01 -0.50000707094E+02  0.88928225473E+02  0.00000000000E+00 0. -1.
        -12    1    4    4    0    0  0.73310651568E+02 -0.92859177259E+02 -0.71464243929E+02  0.13821872737E+03  0.00000000000E+00 0.  1.
        -13    1    3    3    0    0  0.81326150959E+01  0.24166316977E+02  0.17445966313E+02  0.30895178347E+02  0.00000000000E+00 0. -1.
         13    1    3    3    0    0 -0.71168189001E+02  0.38970334858E+02 -0.68682674066E+02  0.10630572817E+03  0.00000000000E+00 0.  1.
         21    1    1    2  502  501 -0.83797111496E+02  0.31356268698E+02  0.28283106519E+02  0.93835524169E+02  0.00000000000E+00 0.  1.
<scales pt_clust_5="13000.00000" pt_clust_6="13000.00000" pt_clust_7="13000.00000" pt_clust_8="13000.00000" pt_clust_9="89.47162"></scales>
<clustering>
<clus scale="   79.707">  5  6 -1 -1</clus>
<clus scale="   89.472">  1  9  2 -1</clus>
<clus scale="   90.770">  7  8 -1 -1</clus>
<clus scale="  149.795">  1  5  2 -1</clus>
<clus scale="   89.472">  1  5  2 -1</clus>
</clustering>
</event>
<event>
 9    1  0.2374319E-005  0.1201452E+03  0.7546771E-02  0.1243856E+00
          1   -1    0    0  502    0  0.00000000000E+00  0.00000000000E+00  0.72271481750E+03  0.72271481750E+03  0.00000000000E+00 0. -1.
         -2   -1    0    0    0  501 -0.00000000000E+00 -0.00000000000E+00 -0.30492548377E+02  0.30492548377E+02  0.00000000000E+00 0.  1.
        -24    2    1    2    0    0  0.64865347198E+02  0.25737151105E+01  0.16735530802E+03  0.20236940440E+03  0.93442171610E+02 0.  0.
         23    2    1    2    0    0 -0.86944664327E+02  0.24345024192E+02  0.42633549537E+03  0.44633645666E+03  0.96448033036E+02 0.  0.
         13    1    3    3    0    0  0.11933734478E+02  0.34334040096E+02  0.11758565866E+03  0.12307569805E+03  0.00000000000E+00 0. -1.
        -14    1    3    3    0    0  0.52931612720E+02 -0.31760324985E+02  0.49769649364E+02  0.79293706346E+02  0.00000000000E+00 0.  1.
        -11    1    4    4    0    0 -0.18481915455E+02  0.54299847092E+02  0.18071282476E+03  0.18959741461E+03  0.00000000000E+00 0.  1.
         11    1    4    4    0    0 -0.68462748872E+02 -0.29954822900E+02  0.24562267061E+03  0.25673904205E+03  0.00000000000E+00 0. -1.
         21    1    1    2  502  501  0.22079317129E+02 -0.26918739302E+02  0.98531465732E+02  0.10450150482E+03  0.00000000000E+00 0.  1.
<scales pt_clust_5="13000.00000" pt_clust_6="13000.00000" pt_clust_7="13000.00000" pt_clust_8="13000.00000" pt_clust_9="34.81544"></scales>
<clustering>
<clus scale="   34.815">  1  9  2 -1</clus>
<clus scale="   93.442">  5  6 -1 -1</clus>
<clus scale="   96.448">  7  8 -1 -1</clus>
<clus scale="  117.746">  2  5  1 -1</clus>
<clus scale="   34.815">  1  5  2 -1</clus>
</clustering>
</event>
<event>
 9    1  0.2374319E-005  0.1060715E+03  0.7546771E-02  0.1271924E+00
          1   -1    0    0  502    0  0.00000000000E+00  0.00000000000E+00  0.44236875587E+03  0.44236875587E+03  0.00000000000E+00 0. -1.
         -2   -1    0    0    0  501 -0.00000000000E+00 -0.00000000000E+00 -0.47364573764E+02  0.47364573764E+02  0.00000000000E+00 0.  1.
        -24    2    1    2    0    0  0.44204622290E+02 -0.42971158442E+02  0.34513942754E+02  0.10708330507E+03  0.80467713339E+02 0.  0.
         23    2    1    2    0    0 -0.36700723246E+02  0.16555670212E+02  0.24640402141E+03  0.26530543950E+03  0.89727371301E+02 0.  0.
         11    1    3    3    0    0 -0.13306475596E+02 -0.37194763378E+02 -0.49660793876E+00  0.39506446752E+02  0.00000000000E+00 0. -1.
        -12    1    3    3    0    0  0.57511097886E+02 -0.57763950646E+01  0.35010550693E+02  0.67576858315E+02  0.00000000000E+00 0.  1.
        -11    1    4    4    0    0 -0.25872364468E+02 -0.36131123588E+02  0.10500126228E+03  0.11401799163E+03  0.00000000000E+00 0. -1.
         11    1    4    4    0    0 -0.10828358778E+02  0.52686793800E+02  0.14140275913E+03  0.15128744787E+03  0.00000000000E+00 0.  1.
         21    1    1    2  502  501 -0.75038990433E+01  0.26415488230E+02  0.11408621795E+03  0.11734458507E+03  0.00000000000E+00 0.  1.
<scales pt_clust_5="13000.00000" pt_clust_6="13000.00000" pt_clust_7="13000.00000" pt_clust_8="13000.00000" pt_clust_9="27.46064"></scales>
<clustering>
<clus scale="   27.461">  1  9  2 -1</clus>
<clus scale="   80.468">  5  6 -1 -1</clus>
<clus scale="   89.727">  7  8 -1 -1</clus>
<clus scale="   98.363">  2  5  1 -1</clus>
<clus scale="   27.461">  1  5  2 -1</clus>
</clustering>
</event>
<event>
 9    1  0.2374319E-005  0.1251916E+03  0.7546771E-02  0.1239341E+00
         -2   -1    0    0    0  501 -0.00000000000E+00  0.00000000000E+00  0.19207416102E+03  0.19207416102E+03  0.00000000000E+00 0.  1.
          1   -1    0    0  502    0  0.00000000000E+00 -0.00000000000E+00 -0.60060984926E+03  0.60060984926E+03  0.00000000000E+00 0. -1.
         23    2    1    2    0    0 -0.20703375368E+02  0.80797413830E+02  0.16043562190E+03  0.20419552916E+03  0.94865027907E+02 0.  0.
        -24    2    1    2    0    0 -0.10800638315E+02 -0.48141735727E+02 -0.47495052798E+03  0.48409114559E+03  0.79573567849E+02 0.  0.
         13    1    4    4    0    0 -0.33330521641E+02 -0.59647370344E+02 -0.34812296004E+03  0.35476517271E+03  0.00000000000E+00 0. -1.
        -14    1    4    4    0    0  0.22529883326E+02  0.11505634617E+02 -0.12682756794E+03  0.12932597288E+03  0.00000000000E+00 0.  1.
        -13    1    3    3    0    0 -0.38404880666E+02 -0.48853063687E+01  0.53224749337E+02  0.65815461856E+02  0.00000000000E+00 0.  1.
         13    1    3    3    0    0  0.17701505298E+02  0.85682720198E+02  0.10721087256E+03  0.13838006730E+03  0.00000000000E+00 0. -1.
         21    1    1    2  502  501  0.31504013683E+02 -0.32655678103E+02 -0.94020782161E+02  0.10439733554E+03  0.00000000000E+00 0.  1.
<scales pt_clust_5="13000.00000" pt_clust_6="13000.00000" pt_clust_7="13000.00000" pt_clust_8="13000.00000" pt_clust_9="45.37506"></scales>
<clustering>
<clus scale="   45.375">  2  9  1 -1</clus>
<clus scale="   79.574">  5  6 -1 -1</clus>
<clus scale="   94.865">  7  8 -1 -1</clus>
<clus scale="  114.042">  2  5  1 -1</clus>
<clus scale="   45.375">  2  5  1 -1</clus>
</clustering>
</event>
<event>
 9    1  0.2374319E-005  0.1079231E+03  0.7546771E-02  0.1278343E+00
          1   -1    0    0  502    0  0.00000000000E+00  0.00000000000E+00  0.30943883691E+03  0.30943883691E+03  0.00000000000E+00 0. -1.
         -2   -1    0    0    0  501 -0.00000000000E+00 -0.00000000000E+00 -0.15323013825E+03  0.15323013825E+03  0.00000000000E+00 0.  1.
        -24    2    1    2    0    0 -0.81499921925E+01  0.11181424840E+01 -0.12568138869E+03  0.15043666242E+03  0.82266064222E+02 0.  0.
         23    2    1    2    0    0 -0.12374366673E+02  0.47721862223E+01  0.19925501577E+03  0.22688302840E+03  0.10769145072E+03 0.  0.
         13    1    3    3    0    0 -0.25701039176E+01  0.24595580571E+02 -0.24339141891E+01  0.24848982999E+02  0.00000000000E+00 0. -1.
        -14    1    3    3    0    0 -0.55798882749E+01 -0.23477438087E+02 -0.12324747450E+03  0.12558767942E+03  0.00000000000E+00 0.  1.
        -11    1    4    4    0    0 -0.54704681139E+02  0.86394770175E+01  0.61701201712E+02  0.82911283879E+02  0.00000000000E+00 0.  1.
         11    1    4    4    0    0  0.42330314466E+02 -0.38672907952E+01  0.13755381405E+03  0.14397174453E+03  0.00000000000E+00 0. -1.
         21    1    1    2  502  501  0.20524358866E+02 -0.58903287063E+01  0.82635071592E+02  0.85349284333E+02  0.00000000000E+00 0. -1.
<scales pt_clust_5="13000.00000" pt_clust_6="13000.00000" pt_clust_7="13000.00000" pt_clust_8="13000.00000" pt_clust_9="21.35288"></scales>
<clustering>
<clus scale="   21.353">  1  9  2 -1</clus>
<clus scale="   82.266">  5  6 -1 -1</clus>
<clus scale="   82.569">  2  5  1 -1</clus>
<clus scale="  107.691">  7  8 -1 -1</clus>
<clus scale="   21.353">  1  5  2 -1</clus>
</clustering>
</event>
<event>
 9    1  0.2374319E-005  0.1138378E+03  0.7546771E-02  0.1259947E+00
         -4   -1    0    0    0  501 -0.00000000000E+00  0.00000000000E+00  0.20155291377E+03  0.20155291377E+03  0.00000000000E+00 0.  1.
          3   -1    0    0  502    0  0.00000000000E+00 -0.00000000000E+00 -0.47935348781E+03  0.47935348781E+03  0.00000000000E+00 0. -1.
        -24    2    1    2    0    0  0.20451883460E+02 -0.48263437239E+02  0.12364449518E+03  0.15627994932E+03  0.79923854120E+02 0.  0.
         23    2    1    2    0    0  0.36833833958E+00  0.12408096059E+03 -0.50412018629E+02  0.16489602389E+03  0.96193069504E+02 0.  0.
         11    1    3    3    0    0 -0.29801156468E+02 -0.89496874653E+01  0.49437396599E+02  0.58414570229E+02  0.00000000000E+00 0. -1.
        -12    1    3    3    0    0  0.50253039928E+02 -0.39313749773E+02  0.74207098585E+02  0.97865379086E+02  0.00000000000E+00 0.  1.
        -11    1    4    4    0    0  0.23565462037E+02 -0.28344159349E+01 -0.22891640382E+02  0.32975629094E+02  0.00000000000E+00 0.  1.
         11    1    4    4    0    0 -0.23197123698E+02  0.12691537652E+03 -0.27520378247E+02  0.13192039480E+03  0.00000000000E+00 0. -1.
         21    1    1    2  502  501 -0.20820221800E+02 -0.75817523348E+02 -0.35103305060E+03  0.35973042837E+03  0.00000000000E+00 0.  1.
<scales pt_clust_5="13000.00000" pt_clust_6="13000.00000" pt_clust_7="13000.00000" pt_clust_8="13000.00000" pt_clust_9="78.62429"></scales>
<clustering>
<clus scale="   78.624">  2  9  1 -1</clus>
<clus scale="   79.924">  5  6 -1 -1</clus>
<clus scale="   96.193">  7  8 -1 -1</clus>
<clus scale="  100.468">  1  5  2 -1</clus>
<clus scale="   78.624">  2  5  1 -1</clus>
</clustering>
</event>
<event>
 9    1  0.2374319E-005  0.9834140E+02  0.7546771E-02  0.1288276E+00
         -2   -1    0    0    0  501 -0.00000000000E+00  0.00000000000E+00  0.30618589950E+02  0.30618589950E+02  0.00000000000E+00 0.  1.
          1   -1    0    0  502    0  0.00000000000E+00 -0.00000000000E+00 -0.85129684133E+03  0.85129684133E+03  0.00000000000E+00 0. -1.
         23    2    1    2    0    0  0.71667550308E+00  0.14965772632E+02 -0.10742710686E+03  0.14285383047E+03  0.92963141172E+02 0.  0.
        -24    2    1    2    0    0 -0.33056903432E+02 -0.66614122472E+02 -0.28399161337E+03  0.30549824043E+03  0.84544297649E+02 0.  0.
         11    1    4    4    0    0  0.27539827649E+02 -0.90909664249E+01 -0.69527816600E+02  0.75333956876E+02  0.00000000000E+00 0. -1.
        -12    1    4    4    0    0 -0.60596731081E+02 -0.57523156047E+02 -0.21446379677E+03  0.23016428355E+03  0.00000000000E+00 0.  1.
        -11    1    3    3    0    0  0.37692542112E+02  0.93710003023E+01 -0.96298857158E+02  0.10383647369E+03  0.00000000000E+00 0. -1.
         11    1    3    3    0    0 -0.36975866609E+02  0.55947723294E+01 -0.11128249706E+02  0.39017356784E+02  0.00000000000E+00 0.  1.
         21    1    1    2  502  501  0.32340227929E+02  0.51648349840E+02 -0.42925953115E+03  0.43356336038E+03  0.00000000000E+00 0. -1.
<scales pt_clust_5="13000.00000" pt_clust_6="13000.00000" pt_clust_7="13000.00000" pt_clust_8="13000.00000" pt_clust_9="60.93802"></scales>
<clustering>
<clus scale="   60.938">  2  9  1 -1</clus>
<clus scale="   84.544">  5  6 -1 -1</clus>
<clus scale="   90.425">  2  5  1 -1</clus>
<clus scale="   92.963">  7  8 -1 -1</clus>
<clus scale="   60.938">  2  5  1 -1</clus>
</clustering>
</event>
<event>
 9    1  0.2374319E-005  0.1303053E+03  0.7546771E-02  0.1229327E+00
          3   -1    0    0  502    0  0.00000000000E+00  0.00000000000E+00  0.16515825978E+03  0.16515825978E+03  0.00000000000E+00 0. -1.
         -4   -1    0    0    0  501 -0.00000000000E+00 -0.00000000000E+00 -0.20852668249E+03  0.20852668249E+03  0.00000000000E+00 0.  1.
        -24    2    1    2    0    0 -0.91872667225E+02 -0.21064126379E+01 -0.12113374696E+03  0.17218725346E+03  0.80808673066E+02 0.  0.
         23    2    1    2    0    0  0.10067221096E+03  0.20865004195E+02  0.17429714329E+02  0.13770346844E+03  0.89934464020E+02 0.  0.
         13    1    3    3    0    0 -0.27777904318E+02 -0.32727481330E+02 -0.17081266850E+02  0.46200321208E+02  0.00000000000E+00 0. -1.
        -14    1    3    3    0    0 -0.64094762907E+02  0.30621068692E+02 -0.10405248011E+03  0.12598693225E+03  0.00000000000E+00 0.  1.
        -13    1    4    4    0    0  0.36600142579E+02  0.52774884912E+02  0.84979684466E+00  0.64229907901E+02  0.00000000000E+00 0.  1.
         13    1    4    4    0    0  0.64072068386E+02 -0.31909880717E+02  0.16579917485E+02  0.73473560540E+02  0.00000000000E+00 0. -1.
         21    1    1    2  502  501 -0.87995437400E+01 -0.18758591557E+02  0.60335609928E+02  0.63794220370E+02  0.00000000000E+00 0. -1.
<scales pt_clust_5="13000.00000" pt_clust_6="13000.00000" pt_clust_7="13000.00000" pt_clust_8="13000.00000" pt_clust_9="20.71996"></scales>
<clustering>
<clus scale="   20.720">  1  9  2 -1</clus>
<clus scale="   80.809">  5  6 -1 -1</clus>
<clus scale="   89.934">  7  8 -1 -1</clus>
<clus scale="  124.183">  2  5  1 -1</clus>
<clus scale="   20.720">  1  5  2 -1</clus>
</clustering>
</event>
<event>
 9    1  0.2374319E-005  0.1479261E+03  0.7546771E-02  0.1205022E+00
          1   -1    0    0  502    0  0.00000000000E+00  0.00000000000E+00  0.28625339658E+03  0.28625339658E+03  0.00000000000E+00 0. -1.
         -2   -1    0    0    0  501 -0.00000000000E+00 -0.00000000000E+00 -0.10841696175E+03  0.10841696175E+03  0.00000000000E+00 0.  1.
         23    2    1    2    0    0  0.94350149318E+02  0.57489477096E+02  0.23429452678E+01  0.14405482749E+03  0.92408404799E+02 0.  0.
        -24    2    1    2    0    0 -0.11718030346E+03 -0.50995684098E+02  0.13288810480E+03  0.20184459589E+03  0.82159656623E+02 0.  0.
         11    1    4    4    0    0 -0.96531652467E+02 -0.21985305208E+01  0.68136906611E+02  0.11817711922E+03  0.00000000000E+00 0. -1.
        -12    1    4    4    0    0 -0.20648650989E+02 -0.48797153577E+02  0.64751198188E+02  0.83667476666E+02  0.00000000000E+00 0.  1.
        -13    1    3    3    0    0  0.37789262480E+02  0.13277087409E+02 -0.43298946348E+02  0.58983965310E+02  0.00000000000E+00 0.  1.
         13    1    3    3    0    0  0.56560886838E+02  0.44212389686E+02  0.45641891616E+02  0.85070862180E+02  0.00000000000E+00 0. -1.
         21    1    1    2  502  501  0.22830154137E+02 -0.64937929978E+01  0.42605384766E+02  0.48770934956E+02  0.00000000000E+00 0. -1.
<scales pt_clust_5="13000.00000" pt_clust_6="13000.00000" pt_clust_7="13000.00000" pt_clust_8="13000.00000" pt_clust_9="23.73574"></scales>
<clustering>
<clus scale="   23.736">  1  9  2 -1</clus>
<clus scale="   82.160">  5  6 -1 -1</clus>
<clus scale="   92.408">  7  8 -1 -1</clus>
<clus scale="  141.750">  1  5  2 -1</clus>
<clus scale="   23.736">  1  5  2 -1</clus>
</clustering>
</event>
<event>
 9    1  0.2374319E-005  0.3903537E+03  0.7546771E-02  0.1047348E+00
          1   -1    0    0  502    0  0.00000000000E+00  0.00000000000E+00  0.53938403977E+03  0.53938403977E+03  0.00000000000E+00 0. -1.
         -2   -1    0    0    0  501 -0.00000000000E+00 -0.00000000000E+00 -0.53490368092E+03  0.53490368092E+03  0.00000000000E+00 0.  1.
        -24    2    1    2    0    0  0.14479601112E+03  0.36912188771E+03 -0.33517748830E+03  0.52563132897E+03  0.82021293052E+02 0.  0.
         23    2    1    2    0    0 -0.12593056695E+03 -0.30134399013E+03  0.20350875852E+03  0.39540391142E+03  0.90894060843E+02 0.  0.
         13    1    3    3    0    0  0.47038320642E+02  0.11444731462E+03 -0.57738026697E+02  0.13654475881E+03  0.00000000000E+00 0. -1.
        -14    1    3    3    0    0  0.97757690481E+02  0.25467457309E+03 -0.27743946160E+03  0.38908657016E+03  0.00000000000E+00 0.  1.
        -11    1    4    4    0    0 -0.15308103475E+02 -0.76425581805E+02  0.96606092016E+01  0.78540021367E+02  0.00000000000E+00 0.  1.
         11    1    4    4    0    0 -0.11062246347E+03 -0.22491840832E+03  0.19384814932E+03  0.31686389005E+03  0.00000000000E+00 0. -1.
         21    1    1    2  502  501 -0.18865444176E+02 -0.67777897585E+02  0.13614908863E+03  0.15325248030E+03  0.00000000000E+00 0.  1.
<scales pt_clust_5="13000.00000" pt_clust_6="13000.00000" pt_clust_7="13000.00000" pt_clust_8="13000.00000" pt_clust_9="70.35445"></scales>
<clustering>
<clus scale="   70.354">  1  9  2 -1</clus>
<clus scale="   82.021">  5  6 -1 -1</clus>
<clus scale="   90.894">  7  8 -1 -1</clus>
<clus scale="  388.384">  2  5  1 -1</clus>
<clus scale="   70.354">  1  5  2 -1</clus>
</clustering>
</event>
<event>
 9    1  0.2374319E-005  0.9515288E+02  0.7546771E-02  0.1296765E+00
          1   -1    0    0  502    0  0.00000000000E+00  0.00000000000E+00  0.89124356991E+02  0.89124356991E+02  0.00000000000E+00 0. -1.
         -2   -1    0    0    0  501 -0.00000000000E+00 -0.00000000000E+00 -0.44608736962E+03  0.44608736962E+03  0.00000000000E+00 0.  1.
        -24    2    1    2    0    0  0.15153445944E+02 -0.25730767148E+02 -0.39945382068E+03  0.40841643723E+03  0.79680186008E+02 0.  0.
         23    2    1    2    0    0 -0.31297024101E+00  0.40115719314E+02  0.36350441158E+02  0.10523442963E+03  0.90241685047E+02 0.  0.
         13    1    3    3    0    0  0.32071534926E+02  0.54478999537E+01 -0.71534249926E+02  0.78583788906E+02  0.00000000000E+00 0. -1.
        -14    1    3    3    0    0 -0.16918088982E+02 -0.31178667102E+02 -0.32791957076E+03  0.32983264833E+03  0.00000000000E+00 0.  1.
        -11    1    4    4    0    0  0.13026541586E+02  0.57438804818E+02  0.51821945492E+02  0.78450118669E+02  0.00000000000E+00 0. -1.
         11    1    4    4    0    0 -0.13339511827E+02 -0.17323085504E+02 -0.15471504334E+02  0.26784310958E+02  0.00000000000E+00 0.  1.
         21    1    1    2  502  501 -0.14840475703E+02 -0.14384952166E+02  0.61403668908E+01  0.21560859757E+02  0.00000000000E+00 0. -1.
<scales pt_clust_5="13000.00000" pt_clust_6="13000.00000" pt_clust_7="13000.00000" pt_clust_8="13000.00000" pt_clust_9="20.66801"></scales>
<clustering>
<clus scale="   20.668">  1  9  2 -1</clus>
<clus scale="   79.680">  5  6 -1 -1</clus>
<clus scale="   85.202">  2  5  1 -1</clus>
<clus scale="   90.242">  7  8 -1 -1</clus>
<clus scale="   20.668">  1  5  2 -1</clus>
</clustering>
</event>
<event>
 9    1  0.2374319E-005  0.9398163E+02  0.7546771E-02  0.1299780E+00
          1   -1    0    0  502    0  0.00000000000E+00  0.00000000000E+00  0.16669685770E+03  0.16669685770E+03  0.00000000000E+00 0. -1.
         -2   -1    0    0    0  501 -0.00000000000E+00 -0.00000000000E+00 -0.16247018600E+03  0.16247018600E+03  0.00000000000E+00 0.  1.
         23    2    1    2    0    0 -0.69320625517E+01 -0.28070461556E+02 -0.10278860526E+03  0.13971673531E+03  0.90106961165E+02 0.  0.
        -24    2    1    2    0    0 -0.49373209749E+02  0.19497577572E+02  0.45727034618E+02  0.10578414631E+03  0.79255627836E+02 0.  0.
         13    1    4    4    0    0 -0.73219802752E+01  0.18834427674E+02  0.58450624487E+02  0.61845149882E+02  0.00000000000E+00 0. -1.
        -14    1    4    4    0    0 -0.42051229474E+02  0.66314989768E+00 -0.12723589869E+02  0.43938996429E+02  0.00000000000E+00 0.  1.
        -11    1    3    3    0    0 -0.34194078775E+02 -0.36078949012E+02 -0.99354959180E+02  0.11109605528E+03  0.00000000000E+00 0.  1.
         11    1    3    3    0    0  0.27262016223E+02  0.80084874555E+01 -0.34336460811E+01  0.28620680028E+02  0.00000000000E+00 0. -1.
         21    1    1    2  502  501  0.56305272301E+02  0.85728839845E+01  0.61288242335E+02  0.83666162080E+02  0.00000000000E+00 0. -1.
<scales pt_clust_5="13000.00000" pt_clust_6="13000.00000" pt_clust_7="13000.00000" pt_clust_8="13000.00000" pt_clust_9="56.95417"></scales>
<clustering>
<clus scale="   56.954">  1  9  2 -1</clus>
<clus scale="   79.256">  5  6 -1 -1</clus>
<clus scale="   83.635">  1  5  2 -1</clus>
<clus scale="   90.107">  7  8 -1 -1</clus>
<clus scale="   56.954">  1  5  2 -1</clus>
</clustering>
</event>
<event>
 9    1  0.2374319E-005  0.1666772E+03  0.7546771E-02  0.1182107E+00
         -2   -1    0    0    0  501 -0.00000000000E+00  0.00000000000E+00  0.14610343808E+03  0.14610343808E+03  0.00000000000E+00 0.  1.
          1   -1    0    0  502    0  0.00000000000E+00 -0.00000000000E+00 -0.44172443860E+03  0.44172443860E+03  0.00000000000E+00 0. -1.
         23    2    1    2    0    0 -0.10693613134E+03  0.92416968823E+02  0.60924549790E+02  0.17650821724E+03  0.86412485647E+02 0.  0.
        -24    2    1    2    0    0  0.12984457667E+03 -0.78491937869E+02 -0.33633786370E+03  0.37774803521E+03  0.80930965329E+02 0.  0.
         13    1    4    4    0    0  0.39030561409E+02  0.20910849188E+01 -0.15255313346E+03  0.15748084293E+03  0.00000000000E+00 0. -1.
        -14    1    4    4    0    0  0.90814015259E+02 -0.80583022788E+02 -0.18378473024E+03  0.22026719229E+03  0.00000000000E+00 0.  1.
        -13    1    3    3    0    0 -0.24698228335E+02  0.70416601759E+02  0.51911219274E+02  0.90902557569E+02  0.00000000000E+00 0.  1.
         13    1    3    3    0    0 -0.82237903004E+02  0.22000367064E+02  0.90133305158E+01  0.85605659675E+02  0.00000000000E+00 0. -1.
         21    1    1    2  502  501 -0.22908445329E+02 -0.13925030954E+02 -0.20207686610E+02  0.33571624217E+02  0.00000000000E+00 0.  1.
<scales pt_clust_5="13000.00000" pt_clust_6="13000.00000" pt_clust_7="13000.00000" pt_clust_8="13000.00000" pt_clust_9="26.80864"></scales>
<clustering>
<clus scale="   26.809">  2  9  1 -1</clus>
<clus scale="   80.931">  5  6 -1 -1</clus>
<clus scale="   86.412">  7  8 -1 -1</clus>
<clus scale="  163.902">  2  5  1 -1</clus>
<clus scale="   26.809">  2  5  1 -1</clus>
</clustering>
</event>
<event>
 9    1  0.2374319E-005  0.1359370E+03  0.7546771E-02  0.1230155E+00
         -4   -1    0    0    0  501 -0.00000000000E+00  0.00000000000E+00  0.60812814265E+03  0.60812814265E+03  0.00000000000E+00 0.  1.
          3   -1    0    0  502    0  0.00000000000E+00 -0.00000000000E+00 -0.66000488509E+02  0.66000488509E+02  0.00000000000E+00 0. -1.
        -24    2    1    2    0    0 -0.47822891416E+02  0.53325783580E+02  0.22886867420E+03  0.25286819335E+03  0.80192175681E+02 0.  0.
         23    2    1    2    0    0 -0.84470059620E+02  0.15224721204E+01  0.80528520235E+02  0.14799642093E+03  0.90997742513E+02 0.  0.
         13    1    3    3    0    0 -0.10558738956E+02  0.38388572039E+02  0.29642186730E+02  0.49636968739E+02  0.00000000000E+00 0. -1.
        -14    1    3    3    0    0 -0.37264152460E+02  0.14937211541E+02  0.19922648747E+03  0.20323122461E+03  0.00000000000E+00 0.  1.
        -11    1    4    4    0    0  0.16651815065E+02 -0.13224775731E+02  0.81646842111E+01  0.22778053173E+02  0.00000000000E+00 0. -1.
         11    1    4    4    0    0 -0.10112187468E+03  0.14747247851E+02  0.72363836024E+02  0.12521836775E+03  0.00000000000E+00 0.  1.
         21    1    1    2  502  501  0.13229295104E+03 -0.54848255701E+02  0.23273045971E+03  0.27326401688E+03  0.00000000000E+00 0. -1.
<scales pt_clust_5="13000.00000" pt_clust_6="13000.00000" pt_clust_7="13000.00000" pt_clust_8="13000.00000" pt_clust_9="100.98651"></scales>
<clustering>
<clus scale="   80.192">  5  6 -1 -1</clus>
<clus scale="   90.998">  7  8 -1 -1</clus>
<clus scale="  107.524">  1  5  2 -1</clus>
<clus scale="  100.987">  1  9  2 -1</clus>
<clus scale="  135.937">  2  5  1 -1</clus>
</clustering>
</event>
<event>
 9    1  0.2374319E-005  0.9763739E+02  0.7546771E-02  0.1289262E+00
          3   -1    0    0  502    0  0.00000000000E+00  0.00000000000E+00  0.18464203966E+03  0.18464203966E+03  0.00000000000E+00 0. -1.
         -4   -1    0    0    0  501 -0.00000000000E+00 -0.00000000000E+00 -0.11472010814E+03  0.11472010814E+03  0.00000000000E+00 0.  1.
        -24    2    1    2    0    0 -0.55471910137E+02 -0.20608232773E+02 -0.70558781101E+02  0.12218981688E+03  0.80311753099E+02 0.  0.
         23    2    1    2    0    0  0.30515059596E+02  0.26398147994E+02  0.10940928255E+03  0.13690073704E+03  0.71717428948E+02 0.  0.
         13    1    3    3    0    0 -0.50735794730E+02  0.22765968069E+02 -0.33324393075E+02  0.64829972565E+02  0.00000000000E+00 0. -1.
        -14    1    3    3    0    0 -0.47361154074E+01 -0.43374200843E+02 -0.37234388026E+02  0.57359844313E+02  0.00000000000E+00 0.  1.
        -11    1    4    4    0    0 -0.19107541509E+02  0.12270577736E+02  0.98210999509E+01  0.24741043323E+02  0.00000000000E+00 0.  1.
         11    1    4    4    0    0  0.49622601105E+02  0.14127570258E+02  0.99588182595E+02  0.11215969372E+03  0.00000000000E+00 0. -1.
         21    1    1    2  502  501  0.24956850541E+02 -0.57899152201E+01  0.31071430071E+02  0.40271593882E+02  0.00000000000E+00 0. -1.
<scales pt_clust_5="13000.00000" pt_clust_6="13000.00000" pt_clust_7="13000.00000" pt_clust_8="13000.00000" pt_clust_9="25.61967"></scales>
<clustering>
<clus scale="   25.620">  1  9  2 -1</clus>
<clus scale="   71.717">  7  8 -1 -1</clus>
<clus scale="   80.312">  5  6 -1 -1</clus>
<clus scale="   90.700">  1  7  2 -1</clus>
<clus scale="   25.620">  1  5  2 -1</clus>
</clustering>
</event>
<event>
 9    1  0.2374319E-005  0.1848824E+03  0.7546771E-02  0.1164628E+00
          1   -1    0    0  502    0  0.00000000000E+00  0.00000000000E+00  0.39943014586E+03  0.39943014586E+03  0.00000000000E+00 0. -1.
         -2   -1    0    0    0  501 -0.00000000000E+00 -0.00000000000E+00 -0.95157973037E+03  0.95157973037E+03  0.00000000000E+00 0.  1.
        -24    2    1    2    0    0  0.19110417639E+02 -0.15931388971E+03 -0.91049549707E+03  0.92798489755E+03  0.80048712566E+02 0.  0.
         23    2    1    2    0    0 -0.27934417276E+02  0.13974578632E+03  0.19729568272E+03  0.26055051862E+03  0.93014890586E+02 0.  0.
         13    1    3    3    0    0 -0.26820877947E+02 -0.79387830920E+02 -0.34537268775E+03  0.35539285395E+03  0.00000000000E+00 0. -1.
        -14    1    3    3    0    0  0.45931295586E+02 -0.79926058792E+02 -0.56512280932E+03  0.57259204361E+03  0.00000000000E+00 0.  1.
        -11    1    4    4    0    0 -0.27009353443E+01  0.71092856591E+02  0.28594628836E+02  0.76675563958E+02  0.00000000000E+00 0.  1.
         11    1    4    4    0    0 -0.25233481931E+02  0.68652929732E+02  0.16870105388E+03  0.18387495466E+03  0.00000000000E+00 0. -1.
         21    1    1    2  502  501  0.88239996364E+01  0.19568103389E+02  0.16105022984E+03  0.16247446006E+03  0.00000000000E+00 0. -1.
<scales pt_clust_5="13000.00000" pt_clust_6="13000.00000" pt_clust_7="13000.00000" pt_clust_8="13000.00000" pt_clust_9="21.46564"></scales>
<clustering>
<clus scale="   21.466">  1  9  2 -1</clus>
<clus scale="   80.049">  5  6 -1 -1</clus>
<clus scale="   93.015">  7  8 -1 -1</clus>
<clus scale="  178.711">  2  5  1 -1</clus>
<clus scale="   21.466">  1  5  2 -1</clus>
</clustering>
</event>
<event>
 9    1  0.2374319E-005  0.1035696E+03  0.7546771E-02  0.1275541E+00
          1   -1    0    0  502    0  0.00000000000E+00  0.00000000000E+00  0.60725837384E+03  0.60725837384E+03  0.00000000000E+00 0. -1.
         -2   -1    0    0    0  501 -0.00000000000E+00 -0.00000000000E+00 -0.64050325493E+02  0.64050325493E+02  0.00000000000E+00 0.  1.
         23    2    1    2    0    0  0.33407096682E+02  0.10463169518E+02 -0.58510259429E+01  0.94030973369E+02  0.87075125168E+02 0.  0.
        -24    2    1    2    0    0 -0.35463429425E+02 -0.46727847619E+02  0.52321946609E+03  0.53270149088E+03  0.81062458161E+02 0.  0.
         13    1    4    4    0    0  0.10961773065E+02 -0.51859279498E+02  0.25585799427E+03  0.26129075485E+03  0.00000000000E+00 0. -1.
        -14    1    4    4    0    0 -0.46425202489E+02  0.51314318787E+01  0.26736147182E+03  0.27141073603E+03  0.00000000000E+00 0.  1.
        -13    1    3    3    0    0 -0.16891272575E+02 -0.17483368234E+02 -0.23533058871E+02  0.33834717582E+02  0.00000000000E+00 0.  1.
         13    1    3    3    0    0  0.50298369258E+02  0.27946537752E+02  0.17682032928E+02  0.60196255787E+02  0.00000000000E+00 0. -1.
         21    1    1    2  502  501  0.20563327424E+01  0.36264678101E+02  0.25839608200E+02  0.44576235082E+02  0.00000000000E+00 0.  1.
<scales pt_clust_5="13000.00000" pt_clust_6="13000.00000" pt_clust_7="13000.00000" pt_clust_8="13000.00000" pt_clust_9="36.32293"></scales>
<clustering>
<clus scale="   36.323">  2  9  1 -1</clus>
<clus scale="   81.062">  5  6 -1 -1</clus>
<clus scale="   87.075">  7  8 -1 -1</clus>
<clus scale="   98.568">  1  5  2 -1</clus>
<clus scale="   98.568">  1  5  2 -1</clus>
</clustering>
</event>
<event>
 9    1  0.2374319E-005  0.1083065E+03  0.7546771E-02  0.1268205E+00
         -2   -1    0    0    0  501 -0.00000000000E+00  0.00000000000E+00  0.89245719787E+02  0.89245719787E+02  0.00000000000E+00 0.  1.
          1   -1    0    0  502    0  0.00000000000E+00 -0.00000000000E+00 -0.44670145568E+03  0.44670145568E+03  0.00000000000E+00 0. -1.
         23    2    1    2    0    0  0.56094450286E+02 -0.17891490775E+02  0.43190232051E+02  0.11696732279E+03  0.91374316206E+02 0.  0.
        -24    2    1    2    0    0 -0.41944235363E+02  0.35010125131E+02 -0.35690248022E+03  0.36992102123E+03  0.80480766744E+02 0.  0.
         11    1    4    4    0    0 -0.65303419598E+02  0.18888832858E+02 -0.27348487103E+03  0.28180720236E+03  0.00000000000E+00 0. -1.
        -12    1    4    4    0    0  0.23359184235E+02  0.16121292273E+02 -0.83417609189E+02  0.88113818868E+02  0.00000000000E+00 0.  1.
        -11    1    3    3    0    0  0.33306035001E+02 -0.96016605286E+00 -0.25945146786E+02  0.42229900877E+02  0.00000000000E+00 0. -1.
         11    1    3    3    0    0  0.22788415285E+02 -0.16931324722E+02  0.69135378837E+02  0.74737421918E+02  0.00000000000E+00 0.  1.
         21    1    1    2  502  501 -0.14150214923E+02 -0.17118634357E+02 -0.43743487720E+02  0.49058831443E+02  0.00000000000E+00 0. -1.
<scales pt_clust_5="13000.00000" pt_clust_6="13000.00000" pt_clust_7="13000.00000" pt_clust_8="13000.00000" pt_clust_9="22.20982"></scales>
<clustering>
<clus scale="   22.210">  2  9  1 -1</clus>
<clus scale="   80.481">  5  6 -1 -1</clus>
<clus scale="   91.374">  7  8 -1 -1</clus>
<clus scale="   99.288">  2  5  1 -1</clus>
<clus scale="   22.210">  2  5  1 -1</clus>
</clustering>
</event>
<event>
 9    1  0.2374319E-005  0.1315062E+03  0.7546771E-02  0.1228735E+00
         -2   -1    0    0    0  501 -0.00000000000E+00  0.00000000000E+00  0.14564177570E+03  0.14564177570E+03  0.00000000000E+00 0.  1.
          1   -1    0    0  502    0  0.00000000000E+00 -0.00000000000E+00 -0.19397304103E+03  0.19397304103E+03  0.00000000000E+00 0. -1.
         23    2    1    2    0    0 -0.65350751679E+02  0.51192581631E+02  0.55274063888E+02  0.13888852120E+03  0.96661253992E+02 0.  0.
        -24    2    1    2    0    0  0.66887462872E+02 -0.85566718781E+02 -0.77262879202E+02  0.15739192743E+03  0.83708244904E+02 0.  0.
         11    1    4    4    0    0  0.18633706613E+02 -0.51316322784E+02 -0.81467624887E+02  0.98069128226E+02  0.00000000000E+00 0. -1.
        -12    1    4    4    0    0  0.48253756259E+02 -0.34250395996E+02  0.42047456855E+01  0.59322799203E+02  0.00000000000E+00 0.  1.
        -13    1    3    3    0    0 -0.60203872569E+02  0.10843365105E+02  0.72374775278E+02  0.94763879910E+02  0.00000000000E+00 0.  1.
         13    1    3    3    0    0 -0.51468791093E+01  0.40349216526E+02 -0.17100711390E+02  0.44124641289E+02  0.00000000000E+00 0. -1.
         21    1    1    2  502  501 -0.15367111933E+01  0.34374137150E+02 -0.26342450011E+02  0.43334368100E+02  0.00000000000E+00 0.  1.
<scales pt_clust_5="13000.00000" pt_clust_6="13000.00000" pt_clust_7="13000.00000" pt_clust_8="13000.00000" pt_clust_9="34.40847"></scales>
<clustering>
<clus scale="   34.408">  2  9  1 -1</clus>
<clus scale="   83.708">  5  6 -1 -1</clus>
<clus scale="   96.661">  7  8 -1 -1</clus>
<clus scale="  122.301">  2  5  1 -1</clus>
<clus scale="   34.408">  2  5  1 -1</clus>
</clustering>
</event>
<event>
 9    1  0.2374319E-005  0.9370258E+02  0.7546771E-02  0.1297960E+00
          1   -1    0    0  502    0  0.00000000000E+00  0.00000000000E+00  0.43886528244E+03  0.43886528244E+03  0.00000000000E+00 0. -1.
         -2   -1    0    0    0  501 -0.00000000000E+00 -0.00000000000E+00 -0.75311714043E+02  0.75311714043E+02  0.00000000000E+00 0.  1.
         23    2    1    2    0    0  0.36462005514E+02  0.32819785791E+01 -0.33890205798E+02  0.10084827600E+03  0.87644620445E+02 0.  0.
        -24    2    1    2    0    0 -0.40380447516E+01 -0.36655073121E+00  0.27531302331E+03  0.28693357318E+03  0.80729018622E+02 0.  0.
         13    1    4    4    0    0  0.96642408411E+00  0.37317455513E+02  0.18852004979E+03  0.19218047672E+03  0.00000000000E+00 0. -1.
        -14    1    4    4    0    0 -0.50044688357E+01 -0.37684006245E+02  0.86792973525E+02  0.94753096457E+02  0.00000000000E+00 0.  1.
        -11    1    3    3    0    0 -0.15861405268E+02 -0.17392932653E+02  0.13633624714E+02  0.27202463238E+02  0.00000000000E+00 0. -1.
         11    1    3    3    0    0  0.52323410782E+02  0.20674911232E+02 -0.47523830513E+02  0.73645812759E+02  0.00000000000E+00 0.  1.
         21    1    1    2  502  501 -0.32423960763E+02 -0.29154278478E+01  0.12213075089E+03  0.12639514731E+03  0.00000000000E+00 0.  1.
<scales pt_clust_5="13000.00000" pt_clust_6="13000.00000" pt_clust_7="13000.00000" pt_clust_8="13000.00000" pt_clust_9="32.55477"></scales>
<clustering>
<clus scale="   32.555">  1  9  2 -1</clus>
<clus scale="   80.729">  5  6 -1 -1</clus>
<clus scale="   87.268">  1  5  2 -1</clus>
<clus scale="   87.645">  7  8 -1 -1</clus>
<clus scale="   32.555">  1  5  2 -1</clus>
</clustering>
</event>
<event>
 9    1  0.2374319E-005  0.1294405E+03  0.7546771E-02  0.1237425E+00
         -4   -1    0    0    0  501 -0.00000000000E+00  0.00000000000E+00  0.18339719559E+03  0.18339719559E+03  0.00000000000E+00 0.  1.
          3   -1    0    0  502    0  0.00000000000E+00 -0.00000000000E+00 -0.11365970708E+03  0.11365970708E+03  0.00000000000E+00 0. -1.
         23    2    1    2    0    0  0.41380021226E+02 -0.59054695294E+02  0.67233943930E+02  0.14556366618E+03  0.10709161733E+03 0.  0.
        -24    2    1    2    0    0 -0.66338455092E+02  0.39065770908E+02  0.24198908488E+02  0.11285168718E+03  0.78885936933E+02 0.  0.
         11    1    4    4    0    0 -0.19171044055E+02  0.55583742313E+02  0.22159220306E+02  0.62834006590E+02  0.00000000000E+00 0. -1.
        -12    1    4    4    0    0 -0.47167411037E+02 -0.16517971405E+02  0.20396881818E+01  0.50017680585E+02  0.00000000000E+00 0.  1.
        -11    1    3    3    0    0  0.76903464865E+02 -0.32593846652E+02  0.33970852722E+02  0.90169399368E+02  0.00000000000E+00 0. -1.
         11    1    3    3    0    0 -0.35523443638E+02 -0.26460848641E+02  0.33263091207E+02  0.55394266810E+02  0.00000000000E+00 0.  1.
         21    1    1    2  502  501  0.24958433866E+02  0.19988924385E+02 -0.21695363904E+02  0.38641549322E+02  0.00000000000E+00 0. -1.
<scales pt_clust_5="13000.00000" pt_clust_6="13000.00000" pt_clust_7="13000.00000" pt_clust_8="13000.00000" pt_clust_9="31.97625"></scales>
<clustering>
<clus scale="   31.976">  2  9  1 -1</clus>
<clus scale="   78.886">  5  6 -1 -1</clus>
<clus scale="  107.092">  7  8 -1 -1</clus>
<clus scale="  107.281">  2  5  1 -1</clus>
<clus scale="   31.976">  2  5  1 -1</clus>
</clustering>
</event>
<event>
 9    1  0.2374319E-005  0.1052156E+03  0.7546771E-02  0.1274844E+00
         -2   -1    0    0    0  501 -0.00000000000E+00  0.00000000000E+00  0.26798643915E+02  0.26798643915E+02  0.00000000000E+00 0.  1.
          1   -1    0    0  502    0  0.00000000000E+00 -0.00000000000E+00 -0.55683054136E+03  0.55683054136E+03  0.00000000000E+00 0. -1.
        -24    2    1    2    0    0  0.52655672587E+02  0.27366274133E+02 -0.19059821170E+03  0.21509467396E+03  0.80103106347E+02 0.  0.
         23    2    1    2    0    0 -0.17903914184E+02 -0.45889459323E+02 -0.25108710655E+03  0.27180855226E+03  0.91699298698E+02 0.  0.
         13    1    3    3    0    0  0.57002251835E+02 -0.35001535613E+01 -0.16549647228E+03  0.17507309938E+03  0.00000000000E+00 0. -1.
        -14    1    3    3    0    0 -0.43465792477E+01  0.30866427695E+02 -0.25101739417E+02  0.40021574576E+02  0.00000000000E+00 0.  1.
        -13    1    4    4    0    0  0.12144342735E+02  0.23042898374E+02 -0.95718463138E+02  0.99199215780E+02  0.00000000000E+00 0.  1.
         13    1    4    4    0    0 -0.30048256919E+02 -0.68932357697E+02 -0.15536864342E+03  0.17260933648E+03  0.00000000000E+00 0. -1.
         21    1    1    2  502  501 -0.34751758403E+02  0.18523185190E+02 -0.88346579191E+02  0.96725959062E+02  0.00000000000E+00 0.  1.
<scales pt_clust_5="13000.00000" pt_clust_6="13000.00000" pt_clust_7="13000.00000" pt_clust_8="13000.00000" pt_clust_9="39.38011"></scales>
<clustering>
<clus scale="   39.380">  2  9  1 -1</clus>
<clus scale="   80.103">  5  6 -1 -1</clus>
<clus scale="   91.699">  7  8 -1 -1</clus>
<clus scale="   95.279">  1  5  2 -1</clus>
<clus scale="   39.380">  2  5  1 -1</clus>
</clustering>
</event>
<event>
 9    1  0.2374319E-005  0.1096487E+03  0.7546771E-02  0.1267722E+00
          1   -1    0    0  502    0  0.00000000000E+00  0.00000000000E+00  0.80329571660E+03  0.80329571660E+03  0.00000000000E+00 0. -1.
         -2   -1    0    0    0  501 -0.00000000000E+00 -0.00000000000E+00 -0.22930443868E+02  0.22930443868E+02  0.00000000000E+00 0.  1.
         23    2    1    2    0    0 -0.15171475544E+02  0.42250737861E+02  0.23662634688E+03  0.25927184367E+03  0.95992512030E+02 0.  0.
        -24    2    1    2    0    0  0.54229544936E+02 -0.38969846728E+02  0.25688451290E+03  0.27743445346E+03  0.80751040255E+02 0.  0.
         11    1    4    4    0    0  0.11159280532E+02 -0.46864632424E+02  0.66724830507E+02  0.82298398043E+02  0.00000000000E+00 0. -1.
        -12    1    4    4    0    0  0.43070264404E+02  0.78947856960E+01  0.19015968239E+03  0.19513605542E+03  0.00000000000E+00 0.  1.
        -13    1    3    3    0    0 -0.32975193877E+02 -0.18387705498E+02  0.52987538752E+02  0.65062665083E+02  0.00000000000E+00 0.  1.
         13    1    3    3    0    0  0.17803718333E+02  0.60638443359E+02  0.18363880812E+03  0.19420917859E+03  0.00000000000E+00 0. -1.
         21    1    1    2  502  501 -0.39058069392E+02 -0.32808911332E+01  0.28685441295E+03  0.28951986333E+03  0.00000000000E+00 0. -1.
<scales pt_clust_5="13000.00000" pt_clust_6="13000.00000" pt_clust_7="13000.00000" pt_clust_8="13000.00000" pt_clust_9="39.19563"></scales>
<clustering>
<clus scale="   39.196">  1  9  2 -1</clus>
<clus scale="   80.751">  5  6 -1 -1</clus>
<clus scale="   95.993">  7  8 -1 -1</clus>
<clus scale="   96.587">  1  5  2 -1</clus>
<clus scale="   39.196">  1  5  2 -1</clus>
</clustering>
</event>
<event>
 9    1  0.2374319E-005  0.1292509E+03  0.7546771E-02  0.1231393E+00
         -2   -1    0    0    0  501 -0.00000000000E+00  0.00000000000E+00  0.57304690694E+02  0.57304690694E+02  0.00000000000E+00 0.  1.
          1   -1    0    0  502    0  0.00000000000E+00 -0.00000000000E+00 -0.57778928200E+03  0.57778928200E+03  0.00000000000E+00 0. -1.
         23    2    1    2    0    0  0.87394661918E+02  0.51994666647E+02 -0.60082790293E+02  0.14889141323E+03  0.90650090757E+02 0.  0.
        -24    2    1    2    0    0 -0.41140710806E+02 -0.41169086361E+02 -0.38159661119E+03  0.39418691337E+03  0.79874258957E+02 0.  0.
         13    1    4    4    0    0 -0.11019740834E+02 -0.61463268652E+02 -0.24818507359E+03  0.25591990707E+03  0.00000000000E+00 0. -1.
        -14    1    4    4    0    0 -0.30120969972E+02  0.20294182291E+02 -0.13341153760E+03  0.13826700630E+03  0.00000000000E+00 0.  1.
        -13    1    3    3    0    0  0.32459438900E+02 -0.14737703210E+02 -0.50657624400E+02  0.61943603217E+02  0.00000000000E+00 0. -1.
         13    1    3    3    0    0  0.54935223018E+02  0.66732369857E+02 -0.94251658924E+01  0.86947810018E+02  0.00000000000E+00 0.  1.
         21    1    1    2  502  501 -0.46253951113E+02 -0.10825580286E+02 -0.78805189825E+02  0.92015646090E+02  0.00000000000E+00 0. -1.
<scales pt_clust_5="13000.00000" pt_clust_6="13000.00000" pt_clust_7="13000.00000" pt_clust_8="13000.00000" pt_clust_9="47.50391"></scales>
<clustering>
<clus scale="   47.504">  2  9  1 -1</clus>
<clus scale="   79.874">  5  6 -1 -1</clus>
<clus scale="   90.650">  7  8 -1 -1</clus>
<clus scale="  121.935">  2  5  1 -1</clus>
<clus scale="   47.504">  2  5  1 -1</clus>
</clustering>
</event>
<event>
 9    1  0.2374319E-005  0.2224503E+03  0.7546771E-02  0.1132852E+00
          1   -1    0    0  502    0  0.00000000000E+00  0.00000000000E+00  0.12711864172E+03  0.12711864172E+03  0.00000000000E+00 0. -1.
         -2   -1    0    0    0  501 -0.00000000000E+00 -0.00000000000E+00 -0.54626863159E+03  0.54626863159E+03  0.00000000000E+00 0.  1.
         23    2    1    2    0    0 -0.21201790395E+03 -0.22783450448E+02 -0.34948227747E+03  0.41949871501E+03  0.91491160369E+02 0.  0.
        -24    2    1    2    0    0  0.17627093930E+03  0.47896512358E+02 -0.64729865966E+02  0.20992387148E+03  0.80700410973E+02 0.  0.
         13    1    4    4    0    0  0.12700299361E+03  0.70432735268E+02 -0.52146037503E+02  0.15430404988E+03  0.00000000000E+00 0. -1.
        -14    1    4    4    0    0  0.49267945691E+02 -0.22536222910E+02 -0.12583828462E+02  0.55619821597E+02  0.00000000000E+00 0.  1.
        -13    1    3    3    0    0 -0.90514760214E+02 -0.74872624133E+01 -0.71009141051E+02  0.11528780954E+03  0.00000000000E+00 0. -1.
         13    1    3    3    0    0 -0.12150314373E+03 -0.15296188035E+02 -0.27847313642E+03  0.30421090548E+03  0.00000000000E+00 0.  1.
         21    1    1    2  502  501  0.35746964647E+02 -0.25113061910E+02 -0.49378464342E+01  0.43964686822E+02  0.00000000000E+00 0.  1.
<scales pt_clust_5="13000.00000" pt_clust_6="13000.00000" pt_clust_7="13000.00000" pt_clust_8="13000.00000" pt_clust_9="43.68651"></scales>
<clustering>
<clus scale="   43.687">  1  9  2 -1</clus>
<clus scale="   80.700">  5  6 -1 -1</clus>
<clus scale="   91.491">  7  8 -1 -1</clus>
<clus scale="  218.234">  1  5  2 -1</clus>
<clus scale="   43.687">  1  5  2 -1</clus>
</clustering>
</event>
<event>
 9    1  0.2374319E-005  0.1235288E+03  0.7546771E-02  0.1242419E+00
         -2   -1    0    0    0  501 -0.00000000000E+00  0.00000000000E+00  0.46298563092E+03  0.46298563092E+03  0.00000000000E+00 0.  1.
          1   -1    0    0  502    0  0.00000000000E+00 -0.00000000000E+00 -0.76250167096E+02  0.76250167096E+02  0.00000000000E+00 0. -1.
         23    2    1    2    0    0  0.24950410905E+02  0.71858715155E+02  0.36250243295E+03  0.38266402643E+03  0.96112149500E+02 0.  0.
        -24    2    1    2    0    0 -0.54926344581E+02 -0.69150438279E+02  0.35555029647E+02  0.12441467252E+03  0.80100962308E+02 0.  0.
         13    1    4    4    0    0 -0.70764614490E+02 -0.69473816571E+02  0.18034535835E+02  0.10079427730E+03  0.00000000000E+00 0. -1.
        -14    1    4    4    0    0  0.15838269909E+02  0.32337829258E+00  0.17520493812E+02  0.23620395226E+02  0.00000000000E+00 0.  1.
        -13    1    3    3    0    0 -0.11735140782E+02  0.61018590926E+02  0.31784824431E+03  0.32386492305E+03  0.00000000000E+00 0.  1.
         13    1    3    3    0    0  0.36685551687E+02  0.10840124229E+02  0.44654188639E+02  0.58799103385E+02  0.00000000000E+00 0. -1.
         21    1    1    2  502  501  0.29975933676E+02 -0.27082768765E+01 -0.11321998778E+02  0.32157099057E+02  0.00000000000E+00 0.  1.
<scales pt_clust_5="13000.00000" pt_clust_6="13000.00000" pt_clust_7="13000.00000" pt_clust_8="13000.00000" pt_clust_9="30.09803"></scales>
<clustering>
<clus scale="   30.098">  2  9  1 -1</clus>
<clus scale="   80.101">  5  6 -1 -1</clus>
<clus scale="   96.112">  7  8 -1 -1</clus>
<clus scale="  111.526">  2  5  1 -1</clus>
<clus scale="   30.098">  2  5  1 -1</clus>
</clustering>
</event>
<event>
 9    1  0.2374319E-005  0.1610207E+03  0.7546771E-02  0.1188943E+00
          1   -1    0    0  502    0  0.00000000000E+00  0.00000000000E+00  0.47517892570E+03  0.47517892570E+03  0.00000000000E+00 0. -1.
         -2   -1    0    0    0  501 -0.00000000000E+00 -0.00000000000E+00 -0.16299223600E+03  0.16299223600E+03  0.00000000000E+00 0.  1.
        -24    2    1    2    0    0 -0.27694152203E+02 -0.12696506786E+03 -0.90097661316E+02  0.17754842411E+03  0.80738837024E+02 0.  0.
         23    2    1    2    0    0  0.22336385969E+02  0.15872576857E+03  0.28586014548E+03  0.33982520698E+03  0.89846339801E+02 0.  0.
         13    1    3    3    0    0 -0.31096862825E+02 -0.24734716257E+02  0.21722508934E+01  0.39793714828E+02  0.00000000000E+00 0. -1.
        -14    1    3    3    0    0  0.34027106212E+01 -0.10223035161E+03 -0.92269912209E+02  0.13775470928E+03  0.00000000000E+00 0.  1.
        -13    1    4    4    0    0 -0.29431791813E+02  0.10537902794E+03  0.17146456596E+03  0.20339878879E+03  0.00000000000E+00 0. -1.
         13    1    4    4    0    0  0.51768177782E+02  0.53346740628E+02  0.11439557952E+03  0.13642641819E+03  0.00000000000E+00 0.  1.
         21    1    1    2  502  501  0.53577662339E+01 -0.31760700708E+02  0.11642420554E+03  0.12079753062E+03  0.00000000000E+00 0. -1.
<scales pt_clust_5="13000.00000" pt_clust_6="13000.00000" pt_clust_7="13000.00000" pt_clust_8="13000.00000" pt_clust_9="32.20944"></scales>
<clustering>
<clus scale="   32.209">  1  9  2 -1</clus>
<clus scale="   80.739">  5  6 -1 -1</clus>
<clus scale="   89.846">  7  8 -1 -1</clus>
<clus scale="  156.122">  2  5  1 -1</clus>
<clus scale="   32.209">  1  5  2 -1</clus>
</clustering>
</event>
<event>
 9    1  0.2374319E-005  0.1153758E+03  0.7546771E-02  0.1260540E+00
          1   -1    0    0  502    0  0.00000000000E+00  0.00000000000E+00  0.12681068175E+04  0.12681068175E+04  0.00000000000E+00 0. -1.
         -2   -1    0    0    0  501 -0.00000000000E+00 -0.00000000000E+00 -0.31278623260E+02  0.31278623260E+02  0.00000000000E+00 0.  1.
         23    2    1    2    0    0 -0.17581307621E+02 -0.63476845175E+02  0.11843501069E+03  0.16355002621E+03  0.91560619613E+02 0.  0.
        -24    2    1    2    0    0 -0.47947672142E+02 -0.10698156514E+02  0.43680649428E+03  0.44710005678E+03  0.81762567883E+02 0.  0.
         11    1    4    4    0    0  0.14957518186E+00  0.31270311006E+02  0.12791282947E+03  0.13167971244E+03  0.00000000000E+00 0. -1.
        -12    1    4    4    0    0 -0.48097247324E+02 -0.41968467520E+02  0.30889366481E+03  0.31542034434E+03  0.00000000000E+00 0.  1.
        -13    1    3    3    0    0  0.18803827742E+02 -0.34617536713E+02  0.10934891318E+03  0.11622883721E+03  0.00000000000E+00 0. -1.
         13    1    3    3    0    0 -0.36385135363E+02 -0.28859308463E+02  0.90860975150E+01  0.47321189000E+02  0.00000000000E+00 0.  1.
         21    1    1    2  502  501  0.65528979763E+02  0.74175001690E+02  0.68158668925E+03  0.68873535776E+03  0.00000000000E+00 0. -1.
<scales pt_clust_5="13000.00000" pt_clust_6="13000.00000" pt_clust_7="13000.00000" pt_clust_8="13000.00000" pt_clust_9="70.20129"></scales>
<clustering>
<clus scale="   81.763">  5  6 -1 -1</clus>
<clus scale="   91.561">  7  8 -1 -1</clus>
<clus scale="   95.386">  1  5  2 -1</clus>
<clus scale="   70.201">  1  9  2 -1</clus>
<clus scale="   95.386">  1  5  2 -1</clus>
</clustering>
</event>
<event>
 9    1  0.2374319E-005  0.9917668E+02  0.7546771E-02  0.1289029E+00
          1   -1    0    0  502    0  0.00000000000E+00  0.00000000000E+00  0.19171144039E+03  0.19171144039E+03  0.00000000000E+00 0. -1.
         -2   -1    0    0    0  501 -0.00000000000E+00 -0.00000000000E+00 -0.74871835835E+02  0.74871835835E+02  0.00000000000E+00 0.  1.
         23    2    1    2    0    0 -0.24365828691E+02  0.25212964305E+02 -0.62164731322E+01  0.10029281864E+03  0.93758294329E+02 0.  0.
        -24    2    1    2    0    0  0.19732980288E+01 -0.31860420310E+02  0.83910739063E+02  0.12070568341E+03  0.80683762864E+02 0.  0.
         13    1    4    4    0    0  0.39235454657E+02 -0.19104656885E+02  0.26406643297E+02  0.51007054679E+02  0.00000000000E+00 0. -1.
        -14    1    4    4    0    0 -0.37262156628E+02 -0.12755763425E+02  0.57504095766E+02  0.69698628731E+02  0.00000000000E+00 0.  1.
        -11    1    3    3    0    0  0.58695656291E+01  0.47603403732E+02  0.22484021588E+02  0.52972323664E+02  0.00000000000E+00 0. -1.
         11    1    3    3    0    0 -0.30235394320E+02 -0.22390439428E+02 -0.28700494720E+02  0.47320494975E+02  0.00000000000E+00 0.  1.
         21    1    1    2  502  501  0.22392530662E+02  0.66474560048E+01  0.39145338621E+02  0.45584774174E+02  0.00000000000E+00 0. -1.
<scales pt_clust_5="13000.00000" pt_clust_6="13000.00000" pt_clust_7="13000.00000" pt_clust_8="13000.00000" pt_clust_9="23.35838"></scales>
<clustering>
<clus scale="   23.358">  1  9  2 -1</clus>
<clus scale="   80.684">  5  6 -1 -1</clus>
<clus scale="   86.921">  1  5  2 -1</clus>
<clus scale="   93.758">  7  8 -1 -1</clus>
<clus scale="   23.358">  1  5  2 -1</clus>
</clustering>
</event>
<event>
 9    1  0.2374319E-005  0.1485471E+03  0.7546771E-02  0.1203820E+00
          1   -1    0    0  502    0  0.00000000000E+00  0.00000000000E+00  0.50135342222E+03  0.50135342222E+03  0.00000000000E+00 0. -1.
         -2   -1    0    0    0  501 -0.00000000000E+00 -0.00000000000E+00 -0.65079757167E+02  0.65079757167E+02  0.00000000000E+00 0.  1.
         23    2    1    2    0    0 -0.48214912771E+01 -0.12476774605E+03  0.80906740891E+02  0.17462842102E+03  0.91427279712E+02 0.  0.
        -24    2    1    2    0    0 -0.17973622282E+02  0.99113194755E+02  0.28318434632E+03  0.31187918205E+03  0.83239255929E+02 0.  0.
         11    1    4    4    0    0 -0.44277405780E+02  0.22538340798E+02  0.11047906905E+03  0.12113665906E+03  0.00000000000E+00 0. -1.
        -12    1    4    4    0    0  0.26303783499E+02  0.76574853956E+02  0.17270527727E+03  0.19074252300E+03  0.00000000000E+00 0.  1.
        -13    1    3    3    0    0  0.24320402929E+02 -0.72281866674E+01  0.38916638637E+02  0.46456791150E+02  0.00000000000E+00 0. -1.
         13    1    3    3    0    0 -0.29141894206E+02 -0.11753955938E+03  0.41990102254E+02  0.12817162987E+03  0.00000000000E+00 0.  1.
         21    1    1    2  502  501  0.22795113559E+02  0.25654551291E+02  0.72182577843E+02  0.79925576308E+02  0.00000000000E+00 0. -1.
<scales pt_clust_5="13000.00000" pt_clust_6="13000.00000" pt_clust_7="13000.00000" pt_clust_8="13000.00000" pt_clust_9="34.31870"></scales>
<clustering>
<clus scale="   34.319">  1  9  2 -1</clus>
<clus scale="   83.239">  5  6 -1 -1</clus>
<clus scale="   91.427">  7  8 -1 -1</clus>
<clus scale="  143.653">  1  5  2 -1</clus>
<clus scale="   34.319">  1  5  2 -1</clus>
</clustering>
</event>
<event>
 9    1  0.2374319E-005  0.9734325E+02  0.7546771E-02  0.1291070E+00
         -2   -1    0    0    0  501 -0.00000000000E+00  0.00000000000E+00  0.10131907932E+03  0.10131907932E+03  0.00000000000E+00 0.  1.
          1   -1    0    0  502    0  0.00000000000E+00 -0.00000000000E+00 -0.32911752792E+03  0.32911752792E+03  0.00000000000E+00 0. -1.
        -24    2    1    2    0    0  0.32891907063E+02  0.12142274852E+02  0.65425335925E+02  0.11049652947E+03  0.81851671066E+02 0.  0.
         23    2    1    2    0    0 -0.18772541335E+02  0.70541311067E+01 -0.27335099266E+03  0.28891127909E+03  0.91360784391E+02 0.  0.
         13    1    3    3    0    0 -0.19795798986E+02 -0.16657638407E+02  0.34002624360E+02  0.42726210201E+02  0.00000000000E+00 0. -1.
        -14    1    3    3    0    0  0.52687706049E+02  0.28799913258E+02  0.31422711565E+02  0.67770319274E+02  0.00000000000E+00 0.  1.
        -13    1    4    4    0    0  0.29206756844E+02 -0.73211845753E+01 -0.39017935237E+02  0.49285227595E+02  0.00000000000E+00 0.  1.
         13    1    4    4    0    0 -0.47979298179E+02  0.14375315682E+02 -0.23433305743E+03  0.23962605150E+03  0.00000000000E+00 0. -1.
         21    1    1    2  502  501 -0.14119365728E+02 -0.19196405958E+02 -0.19872791865E+02  0.31028798668E+02  0.00000000000E+00 0.  1.
<scales pt_clust_5="13000.00000" pt_clust_6="13000.00000" pt_clust_7="13000.00000" pt_clust_8="13000.00000" pt_clust_9="23.82978"></scales>
<clustering>
<clus scale="   23.830">  2  9  1 -1</clus>
<clus scale="   81.852">  5  6 -1 -1</clus>
<clus scale="   88.479">  1  5  2 -1</clus>
<clus scale="   91.361">  7  8 -1 -1</clus>
<clus scale="   23.830">  2  5  1 -1</clus>
</clustering>
</event>
<event>
 9    1  0.2374319E-005  0.1413450E+03  0.7546771E-02  0.1213500E+00
          1   -1    0    0  502    0  0.00000000000E+00  0.00000000000E+00  0.61784830995E+02  0.61784830995E+02  0.00000000000E+00 0. -1.
         -2   -1    0    0    0  501 -0.00000000000E+00 -0.00000000000E+00 -0.45799519184E+03  0.45799519184E+03  0.00000000000E+00 0.  1.
         23    2    1    2    0    0  0.84652959842E+02 -0.39468565582E+02 -0.16577799086E+03  0.21032510222E+03  0.89612583337E+02 0.  0.
        -24    2    1    2    0    0 -0.10101585159E+03  0.77109698994E+02 -0.22116946684E+03  0.26737879287E+03  0.80158454723E+02 0.  0.
         13    1    4    4    0    0 -0.84949832761E+02  0.21370422566E+02 -0.99344841669E+02  0.13244835451E+03  0.00000000000E+00 0. -1.
        -14    1    4    4    0    0 -0.16066018830E+02  0.55739276427E+02 -0.12182462517E+03  0.13493043836E+03  0.00000000000E+00 0.  1.
        -13    1    3    3    0    0  0.19173269621E+02 -0.58105728163E+02 -0.83872824423E+02  0.10381975048E+03  0.00000000000E+00 0. -1.
         13    1    3    3    0    0  0.65479690221E+02  0.18637162581E+02 -0.81905166436E+02  0.10650535174E+03  0.00000000000E+00 0.  1.
         21    1    1    2  502  501  0.16362891749E+02 -0.37641133411E+02 -0.92629031451E+01  0.42076127740E+02  0.00000000000E+00 0. -1.
<scales pt_clust_5="13000.00000" pt_clust_6="13000.00000" pt_clust_7="13000.00000" pt_clust_8="13000.00000" pt_clust_9="41.04387"></scales>
<clustering>
<clus scale="   41.044">  1  9  2 -1</clus>
<clus scale="   80.158">  5  6 -1 -1</clus>
<clus scale="   89.613">  7  8 -1 -1</clus>
<clus scale="  135.548">  1  5  2 -1</clus>
<clus scale="   41.044">  1  5  2 -1</clus>
</clustering>
</event>
<event>
 9    1  0.2374319E-005  0.1818923E+03  0.7546771E-02  0.1197879E+00
         -2   -1    0    0    0  501 -0.00000000000E+00  0.00000000000E+00  0.16910516874E+03  0.16910516874E+03  0.00000000000E+00 0.  1.
          1   -1    0    0  502    0  0.00000000000E+00 -0.00000000000E+00 -0.11860191017E+04  0.11860191017E+04  0.00000000000E+00 0. -1.
        -24    2    1    2    0    0 -0.35641861898E+02 -0.16627601048E+02  0.11497200709E+03  0.14539832431E+03  0.79845418537E+02 0.  0.
         23    2    1    2    0    0  0.14628201830E+03 -0.91111181643E+02 -0.26492510976E+03  0.32911821805E+03  0.91835784842E+02 0.  0.
         13    1    3    3    0    0  0.14209649391E+02 -0.18622839792E+02  0.82761050201E+02  0.86012299865E+02  0.00000000000E+00 0. -1.
        -14    1    3    3    0    0 -0.49851511289E+02  0.19952387442E+01  0.32210956884E+02  0.59386024440E+02  0.00000000000E+00 0.  1.
        -11    1    4    4    0    0  0.10209136667E+03 -0.38653655437E+02 -0.22416124275E+03  0.24932912982E+03  0.00000000000E+00 0. -1.
         11    1    4    4    0    0  0.44190651636E+02 -0.52457526206E+02 -0.40763867004E+02  0.79789088231E+02  0.00000000000E+00 0.  1.
         21    1    1    2  502  501 -0.11064015640E+03  0.10773878269E+03 -0.86696083033E+03  0.88060772812E+03  0.00000000000E+00 0. -1.
<scales pt_clust_5="13000.00000" pt_clust_6="13000.00000" pt_clust_7="13000.00000" pt_clust_8="13000.00000" pt_clust_9="157.00639"></scales>
<clustering>
<clus scale="   79.845">  5  6 -1 -1</clus>
<clus scale="   89.006">  1  5  2 -1</clus>
<clus scale="   91.836">  7  8 -1 -1</clus>
<clus scale="  157.006">  2  9  1 -1</clus>
<clus scale="  157.006">  2  5  1 -1</clus>
</clustering>
</event>
<event>
 9    1  0.2374319E-005  0.2042519E+03  0.7546771E-02  0.1147581E+00
          1   -1    0    0  502    0  0.00000000000E+00  0.00000000000E+00  0.71578884774E+03  0.71578884774E+03  0.00000000000E+00 0. -1.
         -2   -1    0    0    0  501 -0.00000000000E+00 -0.00000000000E+00 -0.95492537365E+02  0.95492537365E+02  0.00000000000E+00 0.  1.
         23    2    1    2    0    0 -0.11053370070E+03  0.14328895411E+03  0.72187659669E+02  0.21451600024E+03  0.89758747709E+02 0.  0.
        -24    2    1    2    0    0  0.99183821012E+02 -0.16655050572E+03  0.51165641083E+03  0.55205872603E+03  0.73485052410E+02 0.  0.
         11    1    4    4    0    0  0.77954624265E+02 -0.74286598772E+02  0.21164880375E+03  0.23746713105E+03  0.00000000000E+00 0. -1.
        -12    1    4    4    0    0  0.21229196747E+02 -0.92263906952E+02  0.30000760708E+03  0.31459159497E+03  0.00000000000E+00 0.  1.
        -13    1    3    3    0    0 -0.44134181076E+02  0.73599639857E-01  0.14823866614E+02  0.46557259129E+02  0.00000000000E+00 0. -1.
         13    1    3    3    0    0 -0.66399519626E+02  0.14321535447E+03  0.57363793055E+02  0.16795874111E+03  0.00000000000E+00 0.  1.
         21    1    1    2  502  501  0.11349879691E+02  0.23261551615E+02  0.36452239869E+02  0.44706658833E+02  0.00000000000E+00 0.  1.
<scales pt_clust_5="13000.00000" pt_clust_6="13000.00000" pt_clust_7="13000.00000" pt_clust_8="13000.00000" pt_clust_9="25.88280"></scales>
<clustering>
<clus scale="   25.883">  1  9  2 -1</clus>
<clus scale="   73.485">  5  6 -1 -1</clus>
<clus scale="   89.759">  7  8 -1 -1</clus>
<clus scale="  197.642">  1  5  2 -1</clus>
<clus scale="   25.883">  1  5  2 -1</clus>
</clustering>
</event>
<event>
 9    1  0.2374319E-005  0.1130594E+03  0.7546771E-02  0.1261092E+00
         -2   -1    0    0    0  501 -0.00000000000E+00  0.00000000000E+00  0.14693476729E+03  0.14693476729E+03  0.00000000000E+00 0.  1.
          1   -1    0    0  502    0  0.00000000000E+00 -0.00000000000E+00 -0.39830167232E+03  0.39830167232E+03  0.00000000000E+00 0. -1.
        -24    2    1    2    0    0 -0.67413003770E+02  0.77100723128E+01  0.10537999750E+03  0.14715843140E+03  0.77114860867E+02 0.  0.
         23    2    1    2    0    0  0.78668404634E+01 -0.35463761779E+02 -0.27855976945E+03  0.29595435462E+03  0.93133609836E+02 0.  0.
         13    1    3    3    0    0 -0.15073620682E+02 -0.32901389393E+02  0.32130020166E+02  0.48394768935E+02  0.00000000000E+00 0. -1.
        -14    1    3    3    0    0 -0.52339383089E+02  0.40611461706E+02  0.73249977332E+02  0.98763662463E+02  0.00000000000E+00 0.  1.
        -13    1    4    4    0    0 -0.34298657548E+02 -0.39698157211E+02 -0.10606872664E+03  0.11833391891E+03  0.00000000000E+00 0.  1.
         13    1    4    4    0    0  0.42165498012E+02  0.42343954312E+01 -0.17249104282E+03  0.17762043570E+03  0.00000000000E+00 0. -1.
         21    1    1    2  502  501  0.59546163307E+02  0.27753689467E+02 -0.78187133084E+02  0.10212365359E+03  0.00000000000E+00 0. -1.
<scales pt_clust_5="13000.00000" pt_clust_6="13000.00000" pt_clust_7="13000.00000" pt_clust_8="13000.00000" pt_clust_9="65.69637"></scales>
<clustering>
<clus scale="   65.696">  2  9  1 -1</clus>
<clus scale="   77.115">  5  6 -1 -1</clus>
<clus scale="   93.134">  7  8 -1 -1</clus>
<clus scale="  100.276">  1  5  2 -1</clus>
<clus scale="   65.696">  2  5  1 -1</clus>
</clustering>
</event>
<event>
 9    1  0.2374319E-005  0.4193127E+03  0.7546771E-02  0.1086073E+00
         -2   -1    0    0    0  501 -0.00000000000E+00  0.00000000000E+00  0.18327719729E+03  0.18327719729E+03  0.00000000000E+00 0.  1.
          1   -1    0    0  502    0  0.00000000000E+00 -0.00000000000E+00 -0.13018221679E+04  0.13018221679E+04  0.00000000000E+00 0. -1.
        -24    2    1    2    0    0 -0.71255473114E+02  0.13963896436E+01 -0.32622073699E+02  0.11229930894E+03  0.80421655929E+02 0.  0.
         23    2    1    2    0    0 -0.36737543245E+03  0.15618937986E+02 -0.35104190455E+03  0.51679966745E+03  0.92966757172E+02 0.  0.
         13    1    3    3    0    0 -0.36758872006E+02  0.14437050441E+02  0.22895304813E+02  0.45649075337E+02  0.00000000000E+00 0. -1.
        -14    1    3    3    0    0 -0.34496601108E+02 -0.13040660797E+02 -0.55517378512E+02  0.66650233600E+02  0.00000000000E+00 0.  1.
        -13    1    4    4    0    0 -0.36034494874E+02 -0.73507886714E+01 -0.80208721652E+02  0.88238075364E+02  0.00000000000E+00 0. -1.
         13    1    4    4    0    0 -0.33134093757E+03  0.22969726657E+02 -0.27083318290E+03  0.42856159209E+03  0.00000000000E+00 0.  1.
         21    1    1    2  502  501  0.43863090556E+03 -0.17015327629E+02 -0.73488099235E+03  0.85600038879E+03  0.00000000000E+00 0. -1.
<scales pt_clust_5="13000.00000" pt_clust_6="13000.00000" pt_clust_7="13000.00000" pt_clust_8="13000.00000" pt_clust_9="408.87695"></scales>
<clustering>
<clus scale="   80.422">  5  6 -1 -1</clus>
<clus scale="   92.967">  7  8 -1 -1</clus>
<clus scale="  107.457">  1  5  2 -1</clus>
<clus scale="  408.877">  2  9  1 -1</clus>
<clus scale="  408.877">  2  5  1 -1</clus>
</clustering>
</event>
<event>
 9    1  0.2374319E-005  0.1143343E+03  0.7546771E-02  0.1258219E+00
          1   -1    0    0  502    0  0.00000000000E+00  0.00000000000E+00  0.18640494272E+03  0.18640494272E+03  0.00000000000E+00 0. -1.
         -2   -1    0    0    0  501 -0.00000000000E+00 -0.00000000000E+00 -0.14057655711E+03  0.14057655711E+03  0.00000000000E+00 0.  1.
        -24    2    1    2    0    0 -0.47025307382E+02  0.29876580554E+02 -0.61317915560E+02  0.11598468399E+03  0.81170010176E+02 0.  0.
         23    2    1    2    0    0  0.73395524283E+02 -0.40813758006E+02  0.32848190943E+02  0.13140272452E+03  0.95577228126E+02 0.  0.
         11    1    3    3    0    0 -0.54565997138E+02 -0.11100871976E+02 -0.26412751495E+02  0.61630437641E+02  0.00000000000E+00 0. -1.
        -12    1    3    3    0    0  0.75406897560E+01  0.40977452530E+02 -0.34905164065E+02  0.54354246350E+02  0.00000000000E+00 0.  1.
        -13    1    4    4    0    0  0.61894768785E+02  0.12467749827E+02 -0.75051924474E+01  0.63582506261E+02  0.00000000000E+00 0.  1.
         13    1    4    4    0    0  0.11500755498E+02 -0.53281507833E+02  0.40353383390E+02  0.67820218261E+02  0.00000000000E+00 0. -1.
         21    1    1    2  502  501 -0.26370216901E+02  0.10937177452E+02  0.74298110225E+02  0.79594091320E+02  0.00000000000E+00 0. -1.
<scales pt_clust_5="13000.00000" pt_clust_6="13000.00000" pt_clust_7="13000.00000" pt_clust_8="13000.00000" pt_clust_9="28.54838"></scales>
<clustering>
<clus scale="   28.548">  1  9  2 -1</clus>
<clus scale="   81.170">  5  6 -1 -1</clus>
<clus scale="   95.577">  7  8 -1 -1</clus>
<clus scale="  102.596">  2  5  1 -1</clus>
<clus scale="   28.548">  1  5  2 -1</clus>
</clustering>
</event>
<event>
 9    1  0.2374319E-005  0.9932206E+02  0.7546771E-02  0.1286635E+00
         -4   -1    0    0    0  501 -0.00000000000E+00  0.00000000000E+00  0.36155086988E+03  0.36155086988E+03  0.00000000000E+00 0.  1.
          3   -1    0    0  502    0  0.00000000000E+00 -0.00000000000E+00 -0.94094864293E+02  0.94094864293E+02  0.00000000000E+00 0. -1.
        -24    2    1    2    0    0  0.52222898835E+02 -0.75115869663E+01  0.24957483439E+03  0.26739398300E+03  0.80176611817E+02 0.  0.
         23    2    1    2    0    0  0.22387185074E+02 -0.31118474772E+02 -0.13127695089E+02  0.98694528800E+02  0.89992933661E+02 0.  0.
         11    1    3    3    0    0  0.45075871837E+02 -0.26481036931E+02  0.73724353513E+02  0.90378978971E+02  0.00000000000E+00 0. -1.
        -12    1    3    3    0    0  0.71470269976E+01  0.18969449965E+02  0.17585048088E+03  0.17701500403E+03  0.00000000000E+00 0.  1.
        -11    1    4    4    0    0 -0.25494279072E+02 -0.33882471514E+02 -0.25082698127E+02  0.49265828792E+02  0.00000000000E+00 0. -1.
         11    1    4    4    0    0  0.47881464146E+02  0.27639967419E+01  0.11955003038E+02  0.49428700007E+02  0.00000000000E+00 0.  1.
         21    1    1    2  502  501 -0.74610083909E+02  0.38630061738E+02  0.31008866284E+02  0.89557222372E+02  0.00000000000E+00 0.  1.
<scales pt_clust_5="13000.00000" pt_clust_6="13000.00000" pt_clust_7="13000.00000" pt_clust_8="13000.00000" pt_clust_9="84.01754"></scales>
<clustering>
<clus scale="   80.177">  5  6 -1 -1</clus>
<clus scale="   84.018">  2  9  1 -1</clus>
<clus scale="   89.993">  7  8 -1 -1</clus>
<clus scale="   90.523">  1  5  2 -1</clus>
<clus scale="   84.018">  2  5  1 -1</clus>
</clustering>
</event>
<event>
 9    1  0.2374319E-005  0.1519665E+03  0.7546771E-02  0.1200918E+00
         -2   -1    0    0    0  501 -0.00000000000E+00  0.00000000000E+00  0.89592880463E+03  0.89592880463E+03  0.00000000000E+00 0.  1.
          1   -1    0    0  502    0  0.00000000000E+00 -0.00000000000E+00 -0.70989884381E+02  0.70989884381E+02  0.00000000000E+00 0. -1.
        -24    2    1    2    0    0  0.11690851773E+03 -0.28613489500E+02  0.74773655022E+03  0.76098251235E+03  0.74149189281E+02 0.  0.
         23    2    1    2    0    0 -0.13766677240E+03  0.14713418292E+02  0.61578240129E+02  0.17647042448E+03  0.90450573017E+02 0.  0.
         11    1    3    3    0    0  0.46023126240E+02  0.24875643129E+02  0.29932970495E+03  0.30386707297E+03  0.00000000000E+00 0. -1.
        -12    1    3    3    0    0  0.70885391491E+02 -0.53489132629E+02  0.44840684528E+03  0.45711543939E+03  0.00000000000E+00 0.  1.
        -13    1    4    4    0    0 -0.10980524491E+03 -0.10933502383E+02  0.78063738921E+02  0.13516908159E+03  0.00000000000E+00 0.  1.
         13    1    4    4    0    0 -0.27861527488E+02  0.25646920675E+02 -0.16485498792E+02  0.41301342890E+02  0.00000000000E+00 0. -1.
         21    1    1    2  502  501  0.20758254666E+02  0.13900071208E+02  0.15624129902E+02  0.29465752180E+02  0.00000000000E+00 0.  1.
<scales pt_clust_5="13000.00000" pt_clust_6="13000.00000" pt_clust_7="13000.00000" pt_clust_8="13000.00000" pt_clust_9="24.98234"></scales>
<clustering>
<clus scale="   24.982">  2  9  1 -1</clus>
<clus scale="   74.149">  5  6 -1 -1</clus>
<clus scale="   90.451">  7  8 -1 -1</clus>
<clus scale="  142.866">  1  5  2 -1</clus>
<clus scale="   24.982">  2  5  1 -1</clus>
</clustering>
</event>
<event>
 9    1  0.2374319E-005  0.9888644E+02  0.7546771E-02  0.1288816E+00
          1   -1    0    0  502    0  0.00000000000E+00  0.00000000000E+00  0.23592899792E+03  0.23592899792E+03  0.00000000000E+00 0. -1.
         -2   -1    0    0    0  501 -0.00000000000E+00 -0.00000000000E+00 -0.19557795989E+03  0.19557795989E+03  0.00000000000E+00 0.  1.
         23    2    1    2    0    0 -0.32491311662E+02  0.16922044997E+02 -0.16602384047E+03  0.19296100331E+03  0.91257833924E+02 0.  0.
        -24    2    1    2    0    0  0.47536471123E+02 -0.32080891194E+02  0.16197208486E+03  0.18927369533E+03  0.79376796372E+02 0.  0.
         13    1    4    4    0    0  0.52478069267E+02 -0.49292403175E+02  0.15332602390E+03  0.16938877876E+03  0.00000000000E+00 0. -1.
        -14    1    4    4    0    0 -0.49415981440E+01  0.17211511981E+02  0.86460609668E+01  0.19884916573E+02  0.00000000000E+00 0.  1.
        -13    1    3    3    0    0  0.26301091156E+02  0.16730268625E+02 -0.99067762925E+02  0.10385601059E+03  0.00000000000E+00 0.  1.
         13    1    3    3    0    0 -0.58792402819E+02  0.19177637220E+00 -0.66956077549E+02  0.89104992723E+02  0.00000000000E+00 0. -1.
         21    1    1    2  502  501 -0.15045159460E+02  0.15158846197E+02  0.44402793636E+02  0.49272259172E+02  0.00000000000E+00 0. -1.
<scales pt_clust_5="13000.00000" pt_clust_6="13000.00000" pt_clust_7="13000.00000" pt_clust_8="13000.00000" pt_clust_9="21.35761"></scales>
<clustering>
<clus scale="   21.358">  1  9  2 -1</clus>
<clus scale="   79.377">  5  6 -1 -1</clus>
<clus scale="   88.041">  1  5  2 -1</clus>
<clus scale="   91.258">  7  8 -1 -1</clus>
<clus scale="   21.358">  1  5  2 -1</clus>
</clustering>
</event>
<event>
 9    1  0.2374319E-005  0.1098152E+03  0.7546771E-02  0.1264470E+00
         -2   -1    0    0    0  501 -0.00000000000E+00  0.00000000000E+00  0.53208440339E+03  0.53208440339E+03  0.00000000000E+00 0.  1.
          1   -1    0    0  502    0  0.00000000000E+00 -0.00000000000E+00 -0.46616038297E+02  0.46616038297E+02  0.00000000000E+00 0. -1.
        -24    2    1    2    0    0  0.48923044047E+02 -0.44618301905E+02  0.41366306580E+03  0.42695335754E+03  0.82387986983E+02 0.  0.
         23    2    1    2    0    0 -0.38572516715E+02  0.14910018485E+02  0.65052507615E+02  0.11957076187E+03  0.91406731978E+02 0.  0.
         11    1    3    3    0    0  0.15689633646E+02  0.15177955018E+02  0.29236021916E+02  0.36486708538E+02  0.00000000000E+00 0. -1.
        -12    1    3    3    0    0  0.33233410402E+02 -0.59796256923E+02  0.38442704389E+03  0.39046664900E+03  0.00000000000E+00 0.  1.
        -11    1    4    4    0    0 -0.17227282530E+02  0.50658411458E+02  0.55009637597E+02  0.76740563872E+02  0.00000000000E+00 0. -1.
         11    1    4    4    0    0 -0.21345234185E+02 -0.35748392973E+02  0.10042870017E+02  0.42830198000E+02  0.00000000000E+00 0.  1.
         21    1    1    2  502  501 -0.10350527332E+02  0.29708283420E+02  0.67527916747E+01  0.32176322276E+02  0.00000000000E+00 0. -1.
<scales pt_clust_5="13000.00000" pt_clust_6="13000.00000" pt_clust_7="13000.00000" pt_clust_8="13000.00000" pt_clust_9="31.45974"></scales>
<clustering>
<clus scale="   31.460">  2  9  1 -1</clus>
<clus scale="   82.388">  5  6 -1 -1</clus>
<clus scale="   91.407">  7  8 -1 -1</clus>
<clus scale="  102.430">  1  5  2 -1</clus>
<clus scale="   31.460">  2  5  1 -1</clus>
</clustering>
</event>
<event>
 9    1  0.2374319E-005  0.1321416E+03  0.7546771E-02  0.1239704E+00
          3   -1    0    0  502    0  0.00000000000E+00  0.00000000000E+00  0.18122510344E+02  0.18122510344E+02  0.00000000000E+00 0. -1.
         -4   -1    0    0    0  501 -0.00000000000E+00 -0.00000000000E+00 -0.18549628441E+04  0.18549628441E+04  0.00000000000E+00 0.  1.
        -24    2    1    2    0    0  0.15126099016E+02 -0.48059995335E+02 -0.90943957380E+03  0.91452018807E+03  0.82026056628E+02 0.  0.
         23    2    1    2    0    0  0.87050082195E+02  0.39996583922E+02 -0.40056122343E+03  0.42184839949E+03  0.91265189971E+02 0.  0.
         11    1    3    3    0    0  0.32637293749E+02 -0.31327264649E+02 -0.21740898508E+03  0.22206588493E+03  0.00000000000E+00 0. -1.
        -12    1    3    3    0    0 -0.17511194733E+02 -0.16732730686E+02 -0.69203058872E+03  0.69245430315E+03  0.00000000000E+00 0.  1.
        -11    1    4    4    0    0  0.16415921239E+02  0.39540780967E+02 -0.58053894680E+02  0.72133283005E+02  0.00000000000E+00 0. -1.
         11    1    4    4    0    0  0.70634160956E+02  0.45580295509E+00 -0.34250732875E+03  0.34971511648E+03  0.00000000000E+00 0.  1.
         21    1    1    2  502  501 -0.10217618121E+03  0.80634114133E+01 -0.52683953650E+03  0.53671676686E+03  0.00000000000E+00 0.  1.
<scales pt_clust_5="13000.00000" pt_clust_6="13000.00000" pt_clust_7="13000.00000" pt_clust_8="13000.00000" pt_clust_9="95.56192"></scales>
<clustering>
<clus scale="   82.026">  5  6 -1 -1</clus>
<clus scale="   91.265">  7  8 -1 -1</clus>
<clus scale="   96.264">  2  5  1 -1</clus>
<clus scale="   95.562">  2  9  1 -1</clus>
<clus scale="  132.142">  1  5  2 -1</clus>
</clustering>
</event>
<event>
 9    1  0.2374319E-005  0.1391152E+03  0.7546771E-02  0.1218160E+00
         -2   -1    0    0    0  501 -0.00000000000E+00  0.00000000000E+00  0.23946961374E+02  0.23946961374E+02  0.00000000000E+00 0.  1.
          1   -1    0    0  502    0  0.00000000000E+00 -0.00000000000E+00 -0.94576092809E+03  0.94576092809E+03  0.00000000000E+00 0. -1.
        -24    2    1    2    0    0 -0.30125073597E+02 -0.10964528940E+03 -0.42828066712E+03  0.45056959845E+03  0.81602841059E+02 0.  0.
         23    2    1    2    0    0  0.35049791388E+02  0.80281145848E+02 -0.41733253970E+03  0.43732715742E+03  0.97031147932E+02 0.  0.
         13    1    3    3    0    0  0.19245545891E+02 -0.72695277224E+02 -0.18750791095E+03  0.20202527326E+03  0.00000000000E+00 0. -1.
        -14    1    3    3    0    0 -0.49370619488E+02 -0.36950012176E+02 -0.24077275617E+03  0.24854432519E+03  0.00000000000E+00 0.  1.
        -13    1    4    4    0    0 -0.10881089101E+02  0.81498129666E+02 -0.22410556459E+03  0.23871247834E+03  0.00000000000E+00 0.  1.
         13    1    4    4    0    0  0.45930880490E+02 -0.12169838180E+01 -0.19322697511E+03  0.19861467908E+03  0.00000000000E+00 0. -1.
         21    1    1    2  502  501 -0.49247177916E+01  0.29364143552E+02 -0.76200759897E+02  0.81811133599E+02  0.00000000000E+00 0. -1.
<scales pt_clust_5="13000.00000" pt_clust_6="13000.00000" pt_clust_7="13000.00000" pt_clust_8="13000.00000" pt_clust_9="29.77425"></scales>
<clustering>
<clus scale="   29.774">  1  9  2 -1</clus>
<clus scale="   81.603">  5  6 -1 -1</clus>
<clus scale="   97.031">  7  8 -1 -1</clus>
<clus scale="  128.829">  1  5  2 -1</clus>
<clus scale="  139.115">  2  5  1 -1</clus>
</clustering>
</event>
<event>
 9    1  0.2374319E-005  0.1166994E+03  0.7546771E-02  0.1252507E+00
         -2   -1    0    0    0  501 -0.00000000000E+00  0.00000000000E+00  0.23379618573E+02  0.23379618573E+02  0.00000000000E+00 0.  1.
          1   -1    0    0  502    0  0.00000000000E+00 -0.00000000000E+00 -0.97060709191E+03  0.97060709191E+03  0.00000000000E+00 0. -1.
        -24    2    1    2    0    0  0.24171630284E+02 -0.63457149760E+02 -0.15144729163E+03  0.18455388838E+03  0.80701784413E+02 0.  0.
         23    2    1    2    0    0 -0.25167242675E+02  0.83594614373E+02 -0.64882489901E+03  0.66110088408E+03  0.91973798994E+02 0.  0.
         13    1    3    3    0    0  0.32248863104E+02 -0.76015583755E+02 -0.14761118973E+03  0.16913728589E+03  0.00000000000E+00 0. -1.
        -14    1    3    3    0    0 -0.80772328192E+01  0.12558433995E+02 -0.38361018969E+01  0.15416602485E+02  0.00000000000E+00 0.  1.
        -11    1    4    4    0    0  0.33525305896E+02  0.35313348741E+02 -0.19697923401E+03  0.20290834720E+03  0.00000000000E+00 0. -1.
         11    1    4    4    0    0 -0.58692548570E+02  0.48281265632E+02 -0.45184566500E+03  0.45819253687E+03  0.00000000000E+00 0.  1.
         21    1    1    2  502  501  0.99561239026E+00 -0.20137464613E+02 -0.14695528271E+03  0.14833193803E+03  0.00000000000E+00 0.  1.
<scales pt_clust_5="13000.00000" pt_clust_6="13000.00000" pt_clust_7="13000.00000" pt_clust_8="13000.00000" pt_clust_9="20.16206"></scales>
<clustering>
<clus scale="   20.162">  2  9  1 -1</clus>
<clus scale="   80.702">  5  6 -1 -1</clus>
<clus scale="   91.974">  7  8 -1 -1</clus>
<clus scale="  108.039">  1  5  2 -1</clus>
<clus scale="   20.162">  2  5  1 -1</clus>
</clustering>
</event>
<event>
 9    1  0.3350551E-005  0.1276033E+03  0.7546771E-02  0.1232964E+00
         -2   -1    0    0    0  501 -0.00000000000E+00  0.00000000000E+00  0.86100815396E+02  0.86100815396E+02  0.00000000000E+00 0.  1.
          1   -1    0    0  502    0  0.00000000000E+00 -0.00000000000E+00 -0.63601702668E+03  0.63601702668E+03  0.00000000000E+00 0. -1.
        -24    2    1    2    0    0  0.89218754305E+02 -0.12617963061E+02  0.26543291350E+02  0.12622741630E+03  0.84318534141E+02 0.  0.
         23    2    1    2    0    0 -0.80418954625E+02 -0.90864717133E+01 -0.52995757971E+03  0.54382366287E+03  0.91320138942E+02 0.  0.
         11    1    3    3    0    0  0.14175845761E+02 -0.33707726207E+02 -0.13014748119E+02  0.38814289607E+02  0.00000000000E+00 0. -1.
        -12    1    3    3    0    0  0.75042908544E+02  0.21089763146E+02  0.39558039469E+02  0.87413126697E+02  0.00000000000E+00 0.  1.
        -11    1    4    4    0    0 -0.15175904456E+01  0.27680170065E+02 -0.63110547391E+02  0.68930661447E+02  0.00000000000E+00 0.  1.
         11    1    4    4    0    0 -0.78901364179E+02 -0.36766641778E+02 -0.46684703232E+03  0.47489300142E+03  0.00000000000E+00 0. -1.
         21    1    1    2  502  501 -0.87997996800E+01  0.21704434774E+02 -0.46501922923E+02  0.52066762899E+02  0.00000000000E+00 0.  1.
<scales pt_clust_5="13000.00000" pt_clust_6="13000.00000" pt_clust_7="13000.00000" pt_clust_8="13000.00000" pt_clust_9="23.42048"></scales>
<clustering>
<clus scale="   23.420">  2  9  1 -1</clus>
<clus scale="   84.319">  5  6 -1 -1</clus>
<clus scale="   91.320">  7  8 -1 -1</clus>
<clus scale="  122.690">  1  5  2 -1</clus>
<clus scale="   23.420">  2  5  1 -1</clus>
</clustering>
</event>
<event>
 9    1  0.2374319E-005  0.1622074E+03  0.7546771E-02  0.1204985E+00
          1   -1    0    0  502    0  0.00000000000E+00  0.00000000000E+00  0.56176005473E+03  0.56176005473E+03  0.00000000000E+00 0. -1.
         -2   -1    0    0    0  501 -0.00000000000E+00 -0.00000000000E+00 -0.35356299059E+03  0.35356299059E+03  0.00000000000E+00 0.  1.
        -24    2    1    2    0    0  0.64825765531E+02 -0.79285331820E+01 -0.29773246954E+03  0.31657730758E+03  0.85506296505E+02 0.  0.
         23    2    1    2    0    0 -0.62955417264E+02  0.13642665356E+03  0.20308055160E+03  0.26975824392E+03  0.94615978371E+02 0.  0.
         11    1    3    3    0    0 -0.18472873736E+02  0.98047058926E+01 -0.82455799051E+02  0.85066668671E+02  0.00000000000E+00 0. -1.
        -12    1    3    3    0    0  0.83298639267E+02 -0.17733239075E+02 -0.21527667049E+03  0.23151063891E+03  0.00000000000E+00 0.  1.
        -13    1    4    4    0    0 -0.14396457472E+02  0.12180049507E+03  0.16836169337E+03  0.20829853188E+03  0.00000000000E+00 0. -1.
         13    1    4    4    0    0 -0.48558959793E+02  0.14626158488E+02  0.34718858224E+02  0.61459712045E+02  0.00000000000E+00 0.  1.
         21    1    1    2  502  501 -0.18703482664E+01 -0.12849812037E+03  0.30284898208E+03  0.32898749382E+03  0.00000000000E+00 0.  1.
<scales pt_clust_5="13000.00000" pt_clust_6="13000.00000" pt_clust_7="13000.00000" pt_clust_8="13000.00000" pt_clust_9="131.75379"></scales>
<clustering>
<clus scale="   85.506">  5  6 -1 -1</clus>
<clus scale="   94.616">  7  8 -1 -1</clus>
<clus scale="  107.594">  2  5  1 -1</clus>
<clus scale="  131.754">  1  9  2 -1</clus>
<clus scale="  131.754">  1  5  2 -1</clus>
</clustering>
</event>
<event>
 9    1  0.2374319E-005  0.1111450E+03  0.7546771E-02  0.1260426E+00
         -2   -1    0    0    0  501 -0.00000000000E+00  0.00000000000E+00  0.10190203107E+03  0.10190203107E+03  0.00000000000E+00 0.  1.
          1   -1    0    0  502    0  0.00000000000E+00 -0.00000000000E+00 -0.71212428781E+03  0.71212428781E+03  0.00000000000E+00 0. -1.
        -24    2    1    2    0    0  0.56159360688E+02 -0.25716860696E+02  0.59499427888E+02  0.12113378561E+03  0.85545200802E+02 0.  0.
         23    2    1    2    0    0 -0.88561181141E+02  0.42652966671E+02 -0.42801240647E+03  0.44843377438E+03  0.90751702668E+02 0.  0.
         13    1    3    3    0    0  0.38265877373E+02 -0.39827225835E+02 -0.22875668299E+01  0.55278551454E+02  0.00000000000E+00 0. -1.
        -14    1    3    3    0    0  0.17893483315E+02  0.14110365140E+02  0.61786994718E+02  0.65855234156E+02  0.00000000000E+00 0.  1.
        -11    1    4    4    0    0 -0.18831092077E+01  0.21176362045E+02 -0.15356138100E+02  0.26225853410E+02  0.00000000000E+00 0.  1.
         11    1    4    4    0    0 -0.86678071934E+02  0.21476604626E+02 -0.41265626837E+03  0.42220792097E+03  0.00000000000E+00 0. -1.
         21    1    1    2  502  501  0.32401820453E+02 -0.16936105976E+02 -0.24170927816E+03  0.24445875890E+03  0.00000000000E+00 0. -1.
<scales pt_clust_5="13000.00000" pt_clust_6="13000.00000" pt_clust_7="13000.00000" pt_clust_8="13000.00000" pt_clust_9="36.56104"></scales>
<clustering>
<clus scale="   36.561">  2  9  1 -1</clus>
<clus scale="   85.545">  5  6 -1 -1</clus>
<clus scale="   90.752">  7  8 -1 -1</clus>
<clus scale="  106.936">  1  5  2 -1</clus>
<clus scale="   36.561">  2  5  1 -1</clus>
</clustering>
</event>
<event>
 9    1  0.2374319E-005  0.1819748E+03  0.7546771E-02  0.1167124E+00
         -2   -1    0    0    0  501 -0.00000000000E+00  0.00000000000E+00  0.26126263537E+03  0.26126263537E+03  0.00000000000E+00 0.  1.
          1   -1    0    0  502    0  0.00000000000E+00 -0.00000000000E+00 -0.27298894343E+03  0.27298894343E+03  0.00000000000E+00 0. -1.
        -24    2    1    2    0    0  0.10186951048E+02 -0.15399662177E+03  0.16470649942E+03  0.23961657297E+03  0.80430949259E+02 0.  0.
         23    2    1    2    0    0 -0.39090082867E+02  0.17331300044E+03 -0.16168697032E+03  0.25687320997E+03  0.90971088436E+02 0.  0.
         11    1    3    3    0    0 -0.25965708180E+02 -0.25622326115E+02  0.15908218984E+02  0.39796897217E+02  0.00000000000E+00 0. -1.
        -12    1    3    3    0    0  0.36152659228E+02 -0.12837429566E+03  0.14879828044E+03  0.19981967575E+03  0.00000000000E+00 0.  1.
        -13    1    4    4    0    0 -0.29708893661E+02  0.43245736338E+02 -0.45363626886E+01  0.52662991374E+02  0.00000000000E+00 0.  1.
         13    1    4    4    0    0 -0.93811892051E+01  0.13006726410E+03 -0.15715060763E+03  0.20421021860E+03  0.00000000000E+00 0. -1.
         21    1    1    2  502  501  0.28903131819E+02 -0.19316378663E+02 -0.14745837168E+02  0.37761795870E+02  0.00000000000E+00 0. -1.
<scales pt_clust_5="13000.00000" pt_clust_6="13000.00000" pt_clust_7="13000.00000" pt_clust_8="13000.00000" pt_clust_9="34.76368"></scales>
<clustering>
<clus scale="   34.764">  2  9  1 -1</clus>
<clus scale="   80.431">  5  6 -1 -1</clus>
<clus scale="   90.971">  7  8 -1 -1</clus>
<clus scale="  176.941">  1  5  2 -1</clus>
<clus scale="   34.764">  2  5  1 -1</clus>
</clustering>
</event>
<event>
 9    1  0.2374319E-005  0.9905715E+02  0.7546771E-02  0.1287620E+00
          3   -1    0    0  502    0  0.00000000000E+00  0.00000000000E+00  0.26945265296E+03  0.26945265296E+03  0.00000000000E+00 0. -1.
         -4   -1    0    0    0  501 -0.00000000000E+00 -0.00000000000E+00 -0.46205416105E+02  0.46205416105E+02  0.00000000000E+00 0.  1.
         23    2    1    2    0    0 -0.27695568293E+02  0.40330168982E+02  0.73375547770E+02  0.12683435062E+03  0.91155989678E+02 0.  0.
        -24    2    1    2    0    0  0.26436248580E+01 -0.35443696922E+02  0.12640973590E+03  0.15415470164E+03  0.80752747958E+02 0.  0.
         13    1    4    4    0    0  0.10611600637E+02 -0.31746555661E+02  0.13663451931E+03  0.14067495062E+03  0.00000000000E+00 0. -1.
        -14    1    4    4    0    0 -0.79679757787E+01 -0.36971412609E+01 -0.10224783415E+02  0.13479751014E+02  0.00000000000E+00 0.  1.
        -11    1    3    3    0    0 -0.52413581475E+01  0.34422886907E+02 -0.13171025934E+02  0.37227448240E+02  0.00000000000E+00 0.  1.
         11    1    3    3    0    0 -0.22454210146E+02  0.59072820748E+01  0.86546573705E+02  0.89606902384E+02  0.00000000000E+00 0. -1.
         21    1    1    2  502  501  0.25051943435E+02 -0.48864720605E+01  0.23461953190E+02  0.34669016810E+02  0.00000000000E+00 0. -1.
<scales pt_clust_5="13000.00000" pt_clust_6="13000.00000" pt_clust_7="13000.00000" pt_clust_8="13000.00000" pt_clust_9="25.52406"></scales>
<clustering>
<clus scale="   25.524">  2  9  1 -1</clus>
<clus scale="   80.753">  5  6 -1 -1</clus>
<clus scale="   89.576">  1  5  2 -1</clus>
<clus scale="   91.156">  7  8 -1 -1</clus>
<clus scale="   89.576">  1  5  2 -1</clus>
</clustering>
</event>
<event>
 9    1  0.2374319E-005  0.1034522E+03  0.7546771E-02  0.1279469E+00
          1   -1    0    0  502    0  0.00000000000E+00  0.00000000000E+00  0.24143293694E+03  0.24143293694E+03  0.00000000000E+00 0. -1.
         -2   -1    0    0    0  501 -0.00000000000E+00 -0.00000000000E+00 -0.68575702743E+02  0.68575702743E+02  0.00000000000E+00 0.  1.
         23    2    1    2    0    0 -0.19358055717E+02 -0.25960329758E+02  0.32213058976E+02  0.10239072031E+03  0.91637903697E+02 0.  0.
        -24    2    1    2    0    0  0.28350001100E+02  0.45994503539E+02  0.15468737754E+03  0.18155195052E+03  0.78190210685E+02 0.  0.
         11    1    4    4    0    0  0.78052346496E+01  0.64567455283E+02  0.88706778442E+02  0.10999441127E+03  0.00000000000E+00 0. -1.
        -12    1    4    4    0    0  0.20544766451E+02 -0.18572951743E+02  0.65980599099E+02  0.71557539243E+02  0.00000000000E+00 0.  1.
        -11    1    3    3    0    0 -0.60468790784E+01  0.25149112639E+02 -0.16385430197E+02  0.30619028983E+02  0.00000000000E+00 0. -1.
         11    1    3    3    0    0 -0.13311176638E+02 -0.51109442397E+02  0.48598489173E+02  0.71771691324E+02  0.00000000000E+00 0.  1.
         21    1    1    2  502  501 -0.89919453839E+01 -0.20034173781E+02 -0.14043202324E+02  0.26065968856E+02  0.00000000000E+00 0.  1.
<scales pt_clust_5="13000.00000" pt_clust_6="13000.00000" pt_clust_7="13000.00000" pt_clust_8="13000.00000" pt_clust_9="21.95958"></scales>
<clustering>
<clus scale="   21.960">  2  9  1 -1</clus>
<clus scale="   78.190">  5  6 -1 -1</clus>
<clus scale="   91.638">  7  8 -1 -1</clus>
<clus scale="   91.753">  1  5  2 -1</clus>
<clus scale="   91.753">  1  5  2 -1</clus>
</clustering>
</event>
<event>
 9    1  0.2374319E-005  0.1979001E+03  0.7546771E-02  0.1152384E+00
         -2   -1    0    0    0  501 -0.00000000000E+00  0.00000000000E+00  0.13007113887E+03  0.13007113887E+03  0.00000000000E+00 0.  1.
          1   -1    0    0  502    0  0.00000000000E+00 -0.00000000000E+00 -0.12440461233E+04  0.12440461233E+04  0.00000000000E+00 0. -1.
         23    2    1    2    0    0 -0.15760361853E+03  0.11528264539E+03  0.92497429288E+01  0.21497540351E+03  0.89442034105E+02 0.  0.
        -24    2    1    2    0    0  0.11993031916E+03 -0.12793293188E+03 -0.10911843593E+04  0.11080939163E+04  0.80241540616E+02 0.  0.
         13    1    4    4    0    0  0.97431874821E+02 -0.49733554332E+02 -0.54368638770E+03  0.55458208124E+03  0.00000000000E+00 0. -1.
        -14    1    4    4    0    0  0.22498444339E+02 -0.78199377550E+02 -0.54749797162E+03  0.55351183508E+03  0.00000000000E+00 0.  1.
        -13    1    3    3    0    0 -0.15973471727E+03  0.87456112316E+02  0.23535160176E+02  0.18362367834E+03  0.00000000000E+00 0.  1.
         13    1    3    3    0    0  0.21310987380E+01  0.27826533075E+02 -0.14285417247E+02  0.31351725164E+02  0.00000000000E+00 0. -1.
         21    1    1    2  502  501  0.37673299375E+02  0.12650286491E+02 -0.32040368065E+02  0.51047942366E+02  0.00000000000E+00 0. -1.
<scales pt_clust_5="13000.00000" pt_clust_6="13000.00000" pt_clust_7="13000.00000" pt_clust_8="13000.00000" pt_clust_9="39.74050"></scales>
<clustering>
<clus scale="   39.740">  1  9  2 -1</clus>
<clus scale="   80.242">  5  6 -1 -1</clus>
<clus scale="   89.442">  7  8 -1 -1</clus>
<clus scale="  193.916">  2  5  1 -1</clus>
<clus scale="  193.916">  2  5  1 -1</clus>
</clustering>
</event>
<event>
 9    1  0.2374319E-005  0.9865349E+02  0.7546771E-02  0.1288087E+00
         -2   -1    0    0    0  501 -0.00000000000E+00  0.00000000000E+00  0.76714634373E+03  0.76714634373E+03  0.00000000000E+00 0.  1.
          1   -1    0    0  502    0  0.00000000000E+00 -0.00000000000E+00 -0.15635460070E+03  0.15635460070E+03  0.00000000000E+00 0. -1.
        -24    2    1    2    0    0  0.21665112063E+01  0.31484877949E+02  0.69890146492E+03  0.70462352905E+03  0.83875316501E+02 0.  0.
         23    2    1    2    0    0 -0.34611339376E+02 -0.66942223131E+02 -0.11302060484E+03  0.16474385563E+03  0.93207697105E+02 0.  0.
         11    1    3    3    0    0 -0.35607154948E+02  0.12210452487E+02  0.17469368930E+03  0.17870324484E+03  0.00000000000E+00 0. -1.
        -12    1    3    3    0    0  0.37773666154E+02  0.19274425462E+02  0.52420777561E+03  0.52592028421E+03  0.00000000000E+00 0.  1.
        -13    1    4    4    0    0 -0.58117890281E+02 -0.34753921597E+02 -0.32963356364E+02  0.75313392566E+02  0.00000000000E+00 0. -1.
         13    1    4    4    0    0  0.23506550905E+02 -0.32188301534E+02 -0.80057248471E+02  0.89430463064E+02  0.00000000000E+00 0.  1.
         21    1    1    2  502  501  0.32444828170E+02  0.35457345182E+02  0.24910882945E+02  0.54133559752E+02  0.00000000000E+00 0.  1.
<scales pt_clust_5="13000.00000" pt_clust_6="13000.00000" pt_clust_7="13000.00000" pt_clust_8="13000.00000" pt_clust_9="48.06132"></scales>
<clustering>
<clus scale="   48.061">  2  9  1 -1</clus>
<clus scale="   83.875">  5  6 -1 -1</clus>
<clus scale="   89.888">  1  5  2 -1</clus>
<clus scale="   93.208">  7  8 -1 -1</clus>
<clus scale="   48.061">  2  5  1 -1</clus>
</clustering>
</event>
<event>
 9    1  0.2374319E-005  0.1884339E+03  0.7546771E-02  0.1189493E+00
          1   -1    0    0  502    0  0.00000000000E+00  0.00000000000E+00  0.11447037435E+04  0.11447037435E+04  0.00000000000E+00 0. -1.
         -2   -1    0    0    0  501 -0.00000000000E+00 -0.00000000000E+00 -0.53344210560E+02  0.53344210560E+02  0.00000000000E+00 0.  1.
         23    2    1    2    0    0  0.22775780210E+02  0.26886629099E+02  0.83631275571E+02  0.12749995601E+03  0.89556806220E+02 0.  0.
        -24    2    1    2    0    0  0.15369439258E+03 -0.57275609175E+02  0.48624408432E+03  0.51917611380E+03  0.78791280574E+02 0.  0.
         13    1    4    4    0    0  0.77176297861E+02 -0.41114275859E+02  0.36164565067E+03  0.37206738809E+03  0.00000000000E+00 0. -1.
        -14    1    4    4    0    0  0.76518094719E+02 -0.16161333316E+02  0.12459843364E+03  0.14710872571E+03  0.00000000000E+00 0.  1.
        -13    1    3    3    0    0  0.22122582119E+02 -0.18675892180E+02 -0.35103022533E+01  0.29163672783E+02  0.00000000000E+00 0. -1.
         13    1    3    3    0    0  0.65319809175E+00  0.45562521279E+02  0.87141577825E+02  0.98336283226E+02  0.00000000000E+00 0.  1.
         21    1    1    2  502  501 -0.17647017279E+03  0.30388980076E+02  0.52148417309E+03  0.55137188428E+03  0.00000000000E+00 0.  1.
<scales pt_clust_5="13000.00000" pt_clust_6="13000.00000" pt_clust_7="13000.00000" pt_clust_8="13000.00000" pt_clust_9="171.17025"></scales>
<clustering>
<clus scale="   78.791">  5  6 -1 -1</clus>
<clus scale="   89.557">  7  8 -1 -1</clus>
<clus scale="   96.240">  2  7  1 -1</clus>
<clus scale="  171.170">  1  9  2 -1</clus>
<clus scale="  171.170">  1  5  2 -1</clus>
</clustering>
</event>
<event>
 9    1  0.2374319E-005  0.1326807E+03  0.7546771E-02  0.1227189E+00
          1   -1    0    0  502    0  0.00000000000E+00  0.00000000000E+00  0.24235417547E+03  0.24235417547E+03  0.00000000000E+00 0. -1.
         -2   -1    0    0    0  501 -0.00000000000E+00 -0.00000000000E+00 -0.13928138964E+03  0.13928138964E+03  0.00000000000E+00 0.  1.
         23    2    1    2    0    0 -0.34070072217E+02  0.11181047066E+03 -0.34094940589E+02  0.15375964889E+03  0.93900018543E+02 0.  0.
        -24    2    1    2    0    0  0.49089225935E+02 -0.33265953222E+02  0.95412696977E+02  0.13766339667E+03  0.79569166719E+02 0.  0.
         13    1    4    4    0    0  0.68264206918E+02 -0.38939886408E+02  0.82032287352E+02  0.11360287350E+03  0.00000000000E+00 0. -1.
        -14    1    4    4    0    0 -0.19174980983E+02  0.56739331866E+01  0.13380409626E+02  0.24060523171E+02  0.00000000000E+00 0.  1.
        -11    1    3    3    0    0  0.17216749158E+02  0.85872564085E+02 -0.13054469176E+01  0.87591197650E+02  0.00000000000E+00 0.  1.
         11    1    3    3    0    0 -0.51286821375E+02  0.25937906579E+02 -0.32789493671E+02  0.66168451241E+02  0.00000000000E+00 0. -1.
         21    1    1    2  502  501 -0.15019153719E+02 -0.78544517442E+02  0.41755029438E+02  0.90212519541E+02  0.00000000000E+00 0. -1.
<scales pt_clust_5="13000.00000" pt_clust_6="13000.00000" pt_clust_7="13000.00000" pt_clust_8="13000.00000" pt_clust_9="79.96759"></scales>
<clustering>
<clus scale="   79.569">  5  6 -1 -1</clus>
<clus scale="   79.968">  1  9  2 -1</clus>
<clus scale="   93.900">  7  8 -1 -1</clus>
<clus scale="  122.956">  1  5  2 -1</clus>
<clus scale="   79.968">  1  5  2 -1</clus>
</clustering>
</event>
<event>
 9    1  0.2374319E-005  0.9755933E+02  0.7546771E-02  0.1291418E+00
         -2   -1    0    0    0  501 -0.00000000000E+00  0.00000000000E+00  0.25352586567E+03  0.25352586567E+03  0.00000000000E+00 0.  1.
          1   -1    0    0  502    0  0.00000000000E+00 -0.00000000000E+00 -0.12141076566E+03  0.12141076566E+03  0.00000000000E+00 0. -1.
        -24    2    1    2    0    0 -0.20980369502E+02  0.32282796804E+02  0.21224041870E+03  0.22989115058E+03  0.79508432956E+02 0.  0.
         23    2    1    2    0    0  0.15926686700E+02 -0.82670777280E+01 -0.46548735044E+02  0.10345604167E+03  0.90633128052E+02 0.  0.
         11    1    3    3    0    0 -0.24091783044E+02  0.46342989918E+02  0.72197788381E+02  0.89110085691E+02  0.00000000000E+00 0. -1.
        -12    1    3    3    0    0  0.31114135413E+01 -0.14060193114E+02  0.14004263032E+03  0.14078106489E+03  0.00000000000E+00 0.  1.
        -13    1    4    4    0    0 -0.21557952098E+02  0.88583419454E+01 -0.56449732902E+02  0.61071989204E+02  0.00000000000E+00 0.  1.
         13    1    4    4    0    0  0.37484638798E+02 -0.17125419673E+02  0.99009978584E+01  0.42384052465E+02  0.00000000000E+00 0. -1.
         21    1    1    2  502  501  0.50536828026E+01 -0.24015719076E+02 -0.33576583649E+02  0.41589439069E+02  0.00000000000E+00 0. -1.
<scales pt_clust_5="13000.00000" pt_clust_6="13000.00000" pt_clust_7="13000.00000" pt_clust_8="13000.00000" pt_clust_9="24.54169"></scales>
<clustering>
<clus scale="   24.542">  2  9  1 -1</clus>
<clus scale="   79.508">  5  6 -1 -1</clus>
<clus scale="   87.322">  1  5  2 -1</clus>
<clus scale="   90.633">  7  8 -1 -1</clus>
<clus scale="   24.542">  2  5  1 -1</clus>
</clustering>
</event>
<event>
 9    1  0.2374319E-005  0.9926430E+02  0.7546771E-02  0.1282005E+00
         -2   -1    0    0    0  501 -0.00000000000E+00  0.00000000000E+00  0.10573787873E+03  0.10573787873E+03  0.00000000000E+00 0.  1.
          1   -1    0    0  502    0  0.00000000000E+00 -0.00000000000E+00 -0.23630802854E+03  0.23630802854E+03  0.00000000000E+00 0. -1.
        -24    2    1    2    0    0 -0.15031447521E+01  0.62329602141E+02  0.34135884164E+02  0.10819171673E+03  0.81565619188E+02 0.  0.
         23    2    1    2    0    0 -0.13070888193E+02 -0.44539293927E+02 -0.32414996224E+02  0.99579039554E+02  0.81918595671E+02 0.  0.
         11    1    3    3    0    0 -0.24446949972E+02  0.19701112527E+01 -0.13456310789E+02  0.27975113965E+02  0.00000000000E+00 0. -1.
        -12    1    3    3    0    0  0.22943805220E+02  0.60359490888E+02  0.47592194953E+02  0.80216602762E+02  0.00000000000E+00 0.  1.
        -11    1    4    4    0    0  0.74601455027E+01 -0.64736020212E+02 -0.25379565646E+02  0.69932313248E+02  0.00000000000E+00 0. -1.
         11    1    4    4    0    0 -0.20531033696E+02  0.20196726285E+02 -0.70354305777E+01  0.29646726306E+02  0.00000000000E+00 0.  1.
         21    1    1    2  502  501  0.14574032945E+02 -0.17790308214E+02 -0.13229103775E+03  0.13427515098E+03  0.00000000000E+00 0. -1.
<scales pt_clust_5="13000.00000" pt_clust_6="13000.00000" pt_clust_7="13000.00000" pt_clust_8="13000.00000" pt_clust_9="22.99777"></scales>
<clustering>
<clus scale="   22.998">  2  9  1 -1</clus>
<clus scale="   81.566">  5  6 -1 -1</clus>
<clus scale="   81.919">  7  8 -1 -1</clus>
<clus scale="   98.973">  1  5  2 -1</clus>
<clus scale="   22.998">  2  5  1 -1</clus>
</clustering>
</event>
<event>
 9    1  0.2374319E-005  0.9928424E+02  0.7546771E-02  0.1290234E+00
          1   -1    0    0  502    0  0.00000000000E+00  0.00000000000E+00  0.24093052508E+02  0.24093052508E+02  0.00000000000E+00 0. -1.
         -2   -1    0    0    0  501 -0.00000000000E+00 -0.00000000000E+00 -0.89890978640E+03  0.89890978640E+03  0.00000000000E+00 0.  1.
        -24    2    1    2    0    0 -0.52428311933E+02 -0.29202512290E+02 -0.50639487501E+03  0.51551698406E+03  0.75633833716E+02 0.  0.
         23    2    1    2    0    0  0.83241002164E+01  0.12731521553E+01 -0.33018414351E+03  0.34277609109E+03  0.91667706611E+02 0.  0.
         13    1    3    3    0    0 -0.34364830358E+02 -0.54210610309E+02 -0.38194214764E+03  0.38729773557E+03  0.00000000000E+00 0. -1.
        -14    1    3    3    0    0 -0.18063481575E+02  0.25008098019E+02 -0.12445272737E+03  0.12821924849E+03  0.00000000000E+00 0.  1.
        -13    1    4    4    0    0  0.13473447711E+02 -0.41158407388E+02 -0.22691676324E+03  0.23101247960E+03  0.00000000000E+00 0.  1.
         13    1    4    4    0    0 -0.51493474943E+01  0.42431559543E+02 -0.10326738027E+03  0.11176361149E+03  0.00000000000E+00 0. -1.
         21    1    1    2  502  501  0.44104211717E+02  0.27929360135E+02 -0.38237715366E+02  0.64709763754E+02  0.00000000000E+00 0. -1.
<scales pt_clust_5="13000.00000" pt_clust_6="13000.00000" pt_clust_7="13000.00000" pt_clust_8="13000.00000" pt_clust_9="52.20374"></scales>
<clustering>
<clus scale="   52.204">  1  9  2 -1</clus>
<clus scale="   75.634">  5  6 -1 -1</clus>
<clus scale="   84.705">  2  5  1 -1</clus>
<clus scale="   91.668">  7  8 -1 -1</clus>
<clus scale="   52.204">  1  5  2 -1</clus>
</clustering>
</event>
<event>
 9    1  0.2374319E-005  0.5594023E+03  0.7546771E-02  0.9994330E-01
          1   -1    0    0  502    0  0.00000000000E+00  0.00000000000E+00  0.12437190710E+04  0.12437190710E+04  0.00000000000E+00 0. -1.
         -2   -1    0    0    0  501 -0.00000000000E+00 -0.00000000000E+00 -0.12971708661E+04  0.12971708661E+04  0.00000000000E+00 0.  1.
        -24    2    1    2    0    0 -0.34621669171E+03 -0.42418370775E+03 -0.10951091470E+04  0.12270440345E+04  0.81087627160E+02 0.  0.
         23    2    1    2    0    0  0.43258128614E+03  0.41784735010E+03  0.56790372891E+03  0.83224286274E+03  0.91600000862E+02 0.  0.
         11    1    3    3    0    0 -0.17535494865E+03 -0.16739744887E+03 -0.54205477738E+03  0.59379680497E+03  0.00000000000E+00 0. -1.
        -12    1    3    3    0    0 -0.17086174306E+03 -0.25678625887E+03 -0.55305436962E+03  0.63324722956E+03  0.00000000000E+00 0.  1.
        -11    1    4    4    0    0  0.42148671935E+03  0.37519191485E+03  0.52566652193E+03  0.77119732872E+03  0.00000000000E+00 0. -1.
         11    1    4    4    0    0  0.11094566791E+02  0.42655435258E+02  0.42237206983E+02  0.61045534014E+02  0.00000000000E+00 0.  1.
         21    1    1    2  502  501 -0.86364594431E+02  0.63363576419E+01  0.47375362304E+03  0.48160303980E+03  0.00000000000E+00 0. -1.
<scales pt_clust_5="13000.00000" pt_clust_6="13000.00000" pt_clust_7="13000.00000" pt_clust_8="13000.00000" pt_clust_9="86.59672"></scales>
<clustering>
<clus scale="   81.088">  5  6 -1 -1</clus>
<clus scale="   86.597">  1  9  2 -1</clus>
<clus scale="   91.600">  7  8 -1 -1</clus>
<clus scale="  557.777">  2  5  1 -1</clus>
<clus scale="   86.597">  1  5  2 -1</clus>
</clustering>
</event>
<event>
 9    1  0.2374319E-005  0.9569129E+02  0.7546771E-02  0.1293438E+00
         -2   -1    0    0    0  501 -0.00000000000E+00  0.00000000000E+00  0.23136467591E+03  0.23136467591E+03  0.00000000000E+00 0.  1.
          1   -1    0    0  502    0  0.00000000000E+00 -0.00000000000E+00 -0.11072350674E+03  0.11072350674E+03  0.00000000000E+00 0. -1.
         23    2    1    2    0    0 -0.10454643257E+02 -0.11979896772E+02  0.13182458437E+03  0.16104777887E+03  0.91136428193E+02 0.  0.
        -24    2    1    2    0    0  0.62143344382E+02  0.47459523673E+02  0.87787614839E+01  0.11524515892E+03  0.84203196864E+02 0.  0.
         13    1    4    4    0    0  0.39799201442E+02 -0.48776846151E+01 -0.26710043854E+02  0.48178778371E+02  0.00000000000E+00 0. -1.
        -14    1    4    4    0    0  0.22344142940E+02  0.52337208288E+02  0.35488805338E+02  0.67066380545E+02  0.00000000000E+00 0.  1.
        -13    1    3    3    0    0  0.34284697135E+02  0.16853303301E+02  0.67464637705E+02  0.77530327166E+02  0.00000000000E+00 0. -1.
         13    1    3    3    0    0 -0.44739340392E+02 -0.28833200073E+02  0.64359946663E+02  0.83517451707E+02  0.00000000000E+00 0.  1.
         21    1    1    2  502  501 -0.51688701125E+02 -0.35479626901E+02 -0.19962176683E+02  0.65795244866E+02  0.00000000000E+00 0.  1.
<scales pt_clust_5="13000.00000" pt_clust_6="13000.00000" pt_clust_7="13000.00000" pt_clust_8="13000.00000" pt_clust_9="62.69391"></scales>
<clustering>
<clus scale="   62.694">  2  9  1 -1</clus>
<clus scale="   84.203">  5  6 -1 -1</clus>
<clus scale="   89.113">  2  5  1 -1</clus>
<clus scale="   91.136">  7  8 -1 -1</clus>
<clus scale="   62.694">  2  5  1 -1</clus>
</clustering>
</event>
<event>
 9    1  0.2374319E-005  0.1636901E+03  0.7546771E-02  0.1186334E+00
          1   -1    0    0  502    0  0.00000000000E+00  0.00000000000E+00  0.27923246226E+03  0.27923246226E+03  0.00000000000E+00 0. -1.
         -2   -1    0    0    0  501 -0.00000000000E+00 -0.00000000000E+00 -0.13426729648E+03  0.13426729648E+03  0.00000000000E+00 0.  1.
         23    2    1    2    0    0 -0.37869507233E+01 -0.13631625435E+03 -0.60777558638E+01  0.16429606941E+03  0.91431926106E+02 0.  0.
        -24    2    1    2    0    0  0.40770068402E+02  0.13181214126E+03  0.10925761656E+03  0.19322110499E+03  0.79752928318E+02 0.  0.
         13    1    4    4    0    0  0.64339777848E+02  0.83421983627E+02  0.76719404649E+02  0.13032536751E+03  0.00000000000E+00 0. -1.
        -14    1    4    4    0    0 -0.23569709446E+02  0.48390157630E+02  0.32538211916E+02  0.62895737483E+02  0.00000000000E+00 0.  1.
        -13    1    3    3    0    0  0.56357689162E+01 -0.11307875124E+03 -0.41767907463E+02  0.12067776915E+03  0.00000000000E+00 0. -1.
         13    1    3    3    0    0 -0.94227196395E+01 -0.23237503107E+02  0.35690151600E+02  0.43618300256E+02  0.00000000000E+00 0.  1.
         21    1    1    2  502  501 -0.36983117679E+02  0.45041130947E+01  0.41785305079E+02  0.55982584332E+02  0.00000000000E+00 0. -1.
<scales pt_clust_5="13000.00000" pt_clust_6="13000.00000" pt_clust_7="13000.00000" pt_clust_8="13000.00000" pt_clust_9="37.25638"></scales>
<clustering>
<clus scale="   37.256">  1  9  2 -1</clus>
<clus scale="   79.753">  5  6 -1 -1</clus>
<clus scale="   91.432">  7  8 -1 -1</clus>
<clus scale="  157.465">  1  5  2 -1</clus>
<clus scale="   37.256">  1  5  2 -1</clus>
</clustering>
</event>
<event>
 9    1  0.3920146E-005  0.1965955E+03  0.7546771E-02  0.1153754E+00
          3   -1    0    0  502    0  0.00000000000E+00  0.00000000000E+00  0.24286187646E+03  0.24286187646E+03  0.00000000000E+00 0. -1.
         -4   -1    0    0    0  501 -0.00000000000E+00 -0.00000000000E+00 -0.58859216273E+03  0.58859216273E+03  0.00000000000E+00 0.  1.
        -24    2    1    2    0    0  0.10483543457E+03  0.13783676131E+03 -0.51292496312E+03  0.54732201825E+03  0.80498029521E+02 0.  0.
         23    2    1    2    0    0 -0.12577200383E+03 -0.13203532555E+03  0.16453046412E+03  0.26224379081E+03  0.91921749632E+02 0.  0.
         13    1    3    3    0    0  0.34600395765E+02  0.48397752203E+01 -0.53435758319E+02  0.63843488928E+02  0.00000000000E+00 0. -1.
        -14    1    3    3    0    0  0.70235038808E+02  0.13299698609E+03 -0.45948920480E+03  0.48347852932E+03  0.00000000000E+00 0.  1.
        -13    1    4    4    0    0  0.34556752726E-01 -0.47602077041E+02  0.16394080327E+02  0.50346050516E+02  0.00000000000E+00 0.  1.
         13    1    4    4    0    0 -0.12580656058E+03 -0.84433248508E+02  0.14813638379E+03  0.21189774030E+03  0.00000000000E+00 0. -1.
         21    1    1    2  502  501  0.20936569255E+02 -0.58014357625E+01  0.26642127278E+01  0.21888230137E+02  0.00000000000E+00 0.  1.
<scales pt_clust_5="13000.00000" pt_clust_6="13000.00000" pt_clust_7="13000.00000" pt_clust_8="13000.00000" pt_clust_9="21.72548"></scales>
<clustering>
<clus scale="   21.725">  1  9  2 -1</clus>
<clus scale="   80.498">  5  6 -1 -1</clus>
<clus scale="   91.922">  7  8 -1 -1</clus>
<clus scale="  191.521">  2  5  1 -1</clus>
<clus scale="   21.725">  1  5  2 -1</clus>
</clustering>
</event>
<event>
 9    1  0.2374319E-005  0.1035506E+03  0.7546771E-02  0.1278659E+00
         -2   -1    0    0    0  501 -0.00000000000E+00  0.00000000000E+00  0.11085593897E+03  0.11085593897E+03  0.00000000000E+00 0.  1.
          1   -1    0    0  502    0  0.00000000000E+00 -0.00000000000E+00 -0.53197412331E+03  0.53197412331E+03  0.00000000000E+00 0. -1.
        -24    2    1    2    0    0  0.11208971585E+02  0.45823840947E+02  0.67437550145E+02  0.11400502201E+03  0.78891421789E+02 0.  0.
         23    2    1    2    0    0 -0.78627843434E+02 -0.52548494628E+02 -0.27473936166E+03  0.30453066554E+03  0.91178546585E+02 0.  0.
         13    1    3    3    0    0 -0.35726395564E+01  0.48220653225E+02  0.36578586611E+01  0.48490979376E+02  0.00000000000E+00 0. -1.
        -14    1    3    3    0    0  0.14781611142E+02 -0.23968122784E+01  0.63779691484E+02  0.65514042638E+02  0.00000000000E+00 0.  1.
        -13    1    4    4    0    0 -0.57994602264E+02 -0.65464975012E+02 -0.26365663848E+03  0.27778383657E+03  0.00000000000E+00 0. -1.
         13    1    4    4    0    0 -0.20633241171E+02  0.12916480384E+02 -0.11082723177E+02  0.26746828966E+02  0.00000000000E+00 0.  1.
         21    1    1    2  502  501  0.67418871849E+02  0.67246536815E+01 -0.21381637283E+03  0.22429437473E+03  0.00000000000E+00 0.  1.
<scales pt_clust_5="13000.00000" pt_clust_6="13000.00000" pt_clust_7="13000.00000" pt_clust_8="13000.00000" pt_clust_9="67.75342"></scales>
<clustering>
<clus scale="   67.753">  2  9  1 -1</clus>
<clus scale="   78.891">  5  6 -1 -1</clus>
<clus scale="   91.179">  7  8 -1 -1</clus>
<clus scale="   92.914">  1  5  2 -1</clus>
<clus scale="   67.753">  2  5  1 -1</clus>
</clustering>
</event>
<event>
 9    1  0.2374319E-005  0.1148103E+03  0.7546771E-02  0.1256216E+00
         -2   -1    0    0    0  501 -0.00000000000E+00  0.00000000000E+00  0.80900997159E+02  0.80900997159E+02  0.00000000000E+00 0.  1.
          1   -1    0    0  502    0  0.00000000000E+00 -0.00000000000E+00 -0.73966143382E+03  0.73966143382E+03  0.00000000000E+00 0. -1.
        -24    2    1    2    0    0  0.51826749773E+02 -0.42128395987E+02  0.35807818601E+02  0.11084707884E+03  0.80895372392E+02 0.  0.
         23    2    1    2    0    0 -0.50946282222E+02  0.64152375343E+02 -0.58664037819E+03  0.59955974611E+03  0.92811124864E+02 0.  0.
         11    1    3    3    0    0 -0.17307688845E+02 -0.23564552639E+02 -0.30510628089E+01  0.29396483097E+02  0.00000000000E+00 0. -1.
        -12    1    3    3    0    0  0.69134438618E+02 -0.18563843348E+02  0.38858881410E+02  0.81450595746E+02  0.00000000000E+00 0.  1.
        -11    1    4    4    0    0  0.14867916670E+02  0.54989528830E+02 -0.24748385780E+03  0.25395504149E+03  0.00000000000E+00 0.  1.
         11    1    4    4    0    0 -0.65814198891E+02  0.91628465132E+01 -0.33915652039E+03  0.34560470462E+03  0.00000000000E+00 0. -1.
         21    1    1    2  502  501 -0.88046755165E+00 -0.22023979356E+02 -0.10792787707E+03  0.11015560602E+03  0.00000000000E+00 0.  1.
<scales pt_clust_5="13000.00000" pt_clust_6="13000.00000" pt_clust_7="13000.00000" pt_clust_8="13000.00000" pt_clust_9="22.04157"></scales>
<clustering>
<clus scale="   22.042">  2  9  1 -1</clus>
<clus scale="   80.895">  5  6 -1 -1</clus>
<clus scale="   92.811">  7  8 -1 -1</clus>
<clus scale="  105.411">  1  5  2 -1</clus>
<clus scale="   22.042">  2  5  1 -1</clus>
</clustering>
</event>
<event>
 9    1  0.2374319E-005  0.1013489E+03  0.7546771E-02  0.1282952E+00
          1   -1    0    0  502    0  0.00000000000E+00  0.00000000000E+00  0.60787392920E+03  0.60787392920E+03  0.00000000000E+00 0. -1.
         -2   -1    0    0    0  501 -0.00000000000E+00 -0.00000000000E+00 -0.26925511627E+02  0.26925511627E+02  0.00000000000E+00 0.  1.
        -24    2    1    2    0    0  0.63311402756E+01  0.48640873821E+02  0.13553110890E+03  0.16504742605E+03  0.80411152359E+02 0.  0.
         23    2    1    2    0    0  0.33997048320E+02 -0.31458808492E+02  0.26780818462E+03  0.28681326243E+03  0.91625148442E+02 0.  0.
         11    1    3    3    0    0 -0.15301135287E+02  0.47315314686E+02  0.13444558539E+03  0.14334740729E+03  0.00000000000E+00 0. -1.
        -12    1    3    3    0    0  0.21632275563E+02  0.13255591345E+01  0.10855235068E+01  0.21700018763E+02  0.00000000000E+00 0.  1.
        -11    1    4    4    0    0 -0.48572245627E+01 -0.46483167192E+02  0.21246066996E+03  0.21754037268E+03  0.00000000000E+00 0. -1.
         11    1    4    4    0    0  0.38854272882E+02  0.15024358700E+02  0.55347514660E+02  0.69272889752E+02  0.00000000000E+00 0.  1.
         21    1    1    2  502  501 -0.40328188595E+02 -0.17182065329E+02  0.17760912405E+03  0.18293875234E+03  0.00000000000E+00 0. -1.
<scales pt_clust_5="13000.00000" pt_clust_6="13000.00000" pt_clust_7="13000.00000" pt_clust_8="13000.00000" pt_clust_9="43.83590"></scales>
<clustering>
<clus scale="   43.836">  1  9  2 -1</clus>
<clus scale="   80.411">  5  6 -1 -1</clus>
<clus scale="   91.337">  2  5  1 -1</clus>
<clus scale="   91.625">  7  8 -1 -1</clus>
<clus scale="   43.836">  1  5  2 -1</clus>
</clustering>
</event>
<event>
 9    1  0.2535130E-005  0.1224553E+03  0.7546771E-02  0.1241450E+00
          3   -1    0    0  502    0  0.00000000000E+00  0.00000000000E+00  0.39895415988E+03  0.39895415988E+03  0.00000000000E+00 0. -1.
         -4   -1    0    0    0  501 -0.00000000000E+00 -0.00000000000E+00 -0.30519162115E+03  0.30519162115E+03  0.00000000000E+00 0.  1.
         23    2    1    2    0    0  0.81079992396E+02  0.23891603717E+02 -0.26707971188E+03  0.29444475704E+03  0.90671762713E+02 0.  0.
        -24    2    1    2    0    0 -0.25161362106E+02 -0.96877697115E+01  0.33561972961E+03  0.34673422576E+03  0.82807447629E+02 0.  0.
         11    1    4    4    0    0 -0.53624974373E+02 -0.11391530367E+02  0.26429518401E+03  0.26992100535E+03  0.00000000000E+00 0. -1.
        -12    1    4    4    0    0  0.28463612267E+02  0.17037606552E+01  0.71324545605E+02  0.76813220407E+02  0.00000000000E+00 0.  1.
        -13    1    3    3    0    0  0.44680446198E+02  0.52650643719E+02 -0.10355392991E+03  0.12446625630E+03  0.00000000000E+00 0. -1.
         13    1    3    3    0    0  0.36399546197E+02 -0.28759040002E+02 -0.16352578197E+03  0.16997850074E+03  0.00000000000E+00 0.  1.
         21    1    1    2  502  501 -0.55918630289E+02 -0.14203834006E+02  0.25222521002E+02  0.62966798232E+02  0.00000000000E+00 0. -1.
<scales pt_clust_5="13000.00000" pt_clust_6="13000.00000" pt_clust_7="13000.00000" pt_clust_8="13000.00000" pt_clust_9="57.69439"></scales>
<clustering>
<clus scale="   57.694">  1  9  2 -1</clus>
<clus scale="   82.807">  5  6 -1 -1</clus>
<clus scale="   90.672">  7  8 -1 -1</clus>
<clus scale="  116.752">  1  5  2 -1</clus>
<clus scale="   57.694">  1  5  2 -1</clus>
</clustering>
</event>
<event>
 9    1  0.2374319E-005  0.9076786E+02  0.7546771E-02  0.1307345E+00
          1   -1    0    0  502    0  0.00000000000E+00  0.00000000000E+00  0.49960022409E+03  0.49960022409E+03  0.00000000000E+00 0. -1.
         -2   -1    0    0    0  501 -0.00000000000E+00 -0.00000000000E+00 -0.96964771597E+02  0.96964771597E+02  0.00000000000E+00 0.  1.
         23    2    1    2    0    0 -0.13428995408E+02 -0.10764217723E+02 -0.50959090403E+02  0.10511672840E+03  0.90313295782E+02 0.  0.
        -24    2    1    2    0    0 -0.62419655968E+02 -0.12931389561E+02  0.18700097194E+03  0.21326373897E+03  0.80303328475E+02 0.  0.
         13    1    4    4    0    0 -0.16149617785E+02 -0.30020869758E+02  0.14351053789E+03  0.14750368559E+03  0.00000000000E+00 0. -1.
        -14    1    4    4    0    0 -0.46270038182E+02  0.17089480197E+02  0.43490434050E+02  0.65760053381E+02  0.00000000000E+00 0.  1.
        -13    1    3    3    0    0 -0.32192185904E+02  0.28993538307E+02 -0.41817384260E+02  0.60213418133E+02  0.00000000000E+00 0.  1.
         13    1    3    3    0    0  0.18763190497E+02 -0.39757756030E+02 -0.91417061423E+01  0.44903310272E+02  0.00000000000E+00 0. -1.
         21    1    1    2  502  501  0.75848651375E+02  0.23695607284E+02  0.26659357095E+03  0.27818452831E+03  0.00000000000E+00 0. -1.
<scales pt_clust_5="13000.00000" pt_clust_6="13000.00000" pt_clust_7="13000.00000" pt_clust_8="13000.00000" pt_clust_9="79.46383"></scales>
<clustering>
<clus scale="   79.464">  1  9  2 -1</clus>
<clus scale="   80.303">  5  6 -1 -1</clus>
<clus scale="   80.814">  1  5  2 -1</clus>
<clus scale="   90.313">  7  8 -1 -1</clus>
<clus scale="   79.464">  1  5  2 -1</clus>
</clustering>
</event>
<event>
 9    1  0.2374319E-005  0.1181257E+03  0.7546771E-02  0.1249394E+00
          1   -1    0    0  502    0  0.00000000000E+00  0.00000000000E+00  0.48269019938E+03  0.48269019938E+03  0.00000000000E+00 0. -1.
         -2   -1    0    0    0  501 -0.00000000000E+00 -0.00000000000E+00 -0.15082341438E+03  0.15082341438E+03  0.00000000000E+00 0.  1.
         23    2    1    2    0    0 -0.73322441123E+02 -0.23605744440E+02 -0.10960652717E+03  0.16232653465E+03  0.91667341568E+02 0.  0.
        -24    2    1    2    0    0  0.25627927285E+02  0.42776486543E+02  0.37531364018E+03  0.38740530186E+03  0.82072656516E+02 0.  0.
         11    1    4    4    0    0  0.42389225020E+02  0.57925353075E+02  0.25128258309E+03  0.26133336849E+03  0.00000000000E+00 0. -1.
        -12    1    4    4    0    0 -0.16761297735E+02 -0.15148866532E+02  0.12403105710E+03  0.12607193337E+03  0.00000000000E+00 0.  1.
        -11    1    3    3    0    0 -0.48098714247E+02  0.20051809016E+02 -0.13554285914E+02  0.53844962844E+02  0.00000000000E+00 0.  1.
         11    1    3    3    0    0 -0.25223726876E+02 -0.43657553455E+02 -0.96052241253E+02  0.10848157180E+03  0.00000000000E+00 0. -1.
         21    1    1    2  502  501  0.47694513837E+02 -0.19170742103E+02  0.66159671988E+02  0.83781777258E+02  0.00000000000E+00 0. -1.
<scales pt_clust_5="13000.00000" pt_clust_6="13000.00000" pt_clust_7="13000.00000" pt_clust_8="13000.00000" pt_clust_9="51.40315"></scales>
<clustering>
<clus scale="   51.403">  1  9  2 -1</clus>
<clus scale="   82.073">  5  6 -1 -1</clus>
<clus scale="   91.667">  7  8 -1 -1</clus>
<clus scale="  110.845">  1  5  2 -1</clus>
<clus scale="   51.403">  1  5  2 -1</clus>
</clustering>
</event>
<event>
 9    1  0.2374319E-005  0.1691987E+03  0.7546771E-02  0.1211236E+00
          1   -1    0    0  502    0  0.00000000000E+00  0.00000000000E+00  0.45539688435E+03  0.45539688435E+03  0.00000000000E+00 0. -1.
         -2   -1    0    0    0  501 -0.00000000000E+00 -0.00000000000E+00 -0.11411825948E+03  0.11411825948E+03  0.00000000000E+00 0.  1.
         23    2    1    2    0    0 -0.55910650962E+02 -0.12911011187E+03  0.31387356908E+02  0.17092702119E+03  0.91844752287E+02 0.  0.
        -24    2    1    2    0    0  0.16742193271E+02 -0.10381849812E+02  0.20072743949E+03  0.21717997261E+03  0.80545339397E+02 0.  0.
         11    1    4    4    0    0 -0.16679789175E+02  0.23566876209E+02  0.38633369529E+02  0.48230179994E+02  0.00000000000E+00 0. -1.
        -12    1    4    4    0    0  0.33421982445E+02 -0.33948726021E+02  0.16209406996E+03  0.16894979262E+03  0.00000000000E+00 0.  1.
        -11    1    3    3    0    0  0.13629976060E+02 -0.83891312472E+02  0.18513116894E+02  0.86984274744E+02  0.00000000000E+00 0.  1.
         11    1    3    3    0    0 -0.69540627022E+02 -0.45218799395E+02  0.12874240014E+02  0.83942746448E+02  0.00000000000E+00 0. -1.
         21    1    1    2  502  501  0.39168457691E+02  0.13949196168E+03  0.10916382847E+03  0.18140815003E+03  0.00000000000E+00 0. -1.
<scales pt_clust_5="13000.00000" pt_clust_6="13000.00000" pt_clust_7="13000.00000" pt_clust_8="13000.00000" pt_clust_9="142.10117"></scales>
<clustering>
<clus scale="   80.545">  5  6 -1 -1</clus>
<clus scale="   82.919">  1  5  2 -1</clus>
<clus scale="   91.845">  7  8 -1 -1</clus>
<clus scale="  142.101">  1  9  2 -1</clus>
<clus scale="   82.919">  1  5  2 -1</clus>
</clustering>
</event>
<event>
 9    1  0.2374319E-005  0.1471247E+03  0.7546771E-02  0.1210287E+00
         -2   -1    0    0    0  501 -0.00000000000E+00  0.00000000000E+00  0.83514362174E+02  0.83514362174E+02  0.00000000000E+00 0.  1.
          1   -1    0    0  502    0  0.00000000000E+00 -0.00000000000E+00 -0.56503154652E+03  0.56503154652E+03  0.00000000000E+00 0. -1.
         23    2    1    2    0    0  0.21567136503E+02  0.10357405145E+03 -0.89756628671E+01  0.15088388685E+03  0.10720382118E+03 0.  0.
        -24    2    1    2    0    0  0.88392474534E+01 -0.83592212234E+02 -0.30812899569E+03  0.32927169932E+03  0.80066121091E+02 0.  0.
         11    1    4    4    0    0  0.20021368426E+02 -0.95175148296E+02 -0.28461783775E+03  0.30077645788E+03  0.00000000000E+00 0. -1.
        -12    1    4    4    0    0 -0.11182120972E+02  0.11582936062E+02 -0.23511157934E+02  0.28495241439E+02  0.00000000000E+00 0.  1.
        -11    1    3    3    0    0  0.41756429099E+02  0.20782550090E+01  0.15423060641E+02  0.44562196024E+02  0.00000000000E+00 0. -1.
         11    1    3    3    0    0 -0.20189292596E+02  0.10149579644E+03 -0.24398723508E+02  0.10632169082E+03  0.00000000000E+00 0.  1.
         21    1    1    2  502  501 -0.30406383957E+02 -0.19981839216E+02 -0.16441252579E+03  0.16839032253E+03  0.00000000000E+00 0.  1.
<scales pt_clust_5="13000.00000" pt_clust_6="13000.00000" pt_clust_7="13000.00000" pt_clust_8="13000.00000" pt_clust_9="36.38437"></scales>
<clustering>
<clus scale="   36.384">  2  9  1 -1</clus>
<clus scale="   80.066">  5  6 -1 -1</clus>
<clus scale="  107.204">  7  8 -1 -1</clus>
<clus scale="  128.700">  2  5  1 -1</clus>
<clus scale="   36.384">  2  5  1 -1</clus>
</clustering>
</event>
<event>
 9    1  0.2374319E-005  0.9204787E+02  0.7546771E-02  0.1303519E+00
         -2   -1    0    0    0  501 -0.00000000000E+00  0.00000000000E+00  0.91020281790E+02  0.91020281790E+02  0.00000000000E+00 0.  1.
          1   -1    0    0  502    0  0.00000000000E+00 -0.00000000000E+00 -0.28734346416E+03  0.28734346416E+03  0.00000000000E+00 0. -1.
        -24    2    1    2    0    0 -0.28070802584E+01  0.25283442011E+02  0.38034258784E+02  0.93070252301E+02  0.81045264405E+02 0.  0.
         23    2    1    2    0    0  0.28612250128E+02  0.18206775570E+02 -0.88188291440E+02  0.13062376117E+03  0.90195591359E+02 0.  0.
         13    1    3    3    0    0 -0.17627489675E+02 -0.11769605078E+02  0.47536268620E+02  0.52047563154E+02  0.00000000000E+00 0. -1.
        -14    1    3    3    0    0  0.14820409417E+02  0.37053047089E+02 -0.95020098360E+01  0.41022689147E+02  0.00000000000E+00 0.  1.
        -11    1    4    4    0    0  0.46119797479E+02  0.44946573827E+02 -0.59102819905E+02  0.87409230285E+02  0.00000000000E+00 0.  1.
         11    1    4    4    0    0 -0.17507547351E+02 -0.26739798257E+02 -0.29085471535E+02  0.43214530884E+02  0.00000000000E+00 0. -1.
         21    1    1    2  502  501 -0.25805169870E+02 -0.43490217582E+02 -0.14616914972E+03  0.15466973248E+03  0.00000000000E+00 0. -1.
<scales pt_clust_5="13000.00000" pt_clust_6="13000.00000" pt_clust_7="13000.00000" pt_clust_8="13000.00000" pt_clust_9="50.56981"></scales>
<clustering>
<clus scale="   50.570">  2  9  1 -1</clus>
<clus scale="   81.045">  5  6 -1 -1</clus>
<clus scale="   83.102">  1  5  2 -1</clus>
<clus scale="   90.196">  7  8 -1 -1</clus>
<clus scale="   50.570">  2  5  1 -1</clus>
</clustering>
</event>
<event>
 9    1  0.2374319E-005  0.1103658E+03  0.7546771E-02  0.1265108E+00
          1   -1    0    0  502    0  0.00000000000E+00  0.00000000000E+00  0.40267171607E+03  0.40267171607E+03  0.00000000000E+00 0. -1.
         -2   -1    0    0    0  501 -0.00000000000E+00 -0.00000000000E+00 -0.75917997892E+02  0.75917997892E+02  0.00000000000E+00 0.  1.
        -24    2    1    2    0    0 -0.81736627503E+02  0.17365006016E+01 -0.90816940296E+01  0.11161316211E+03  0.75439572377E+02 0.  0.
         23    2    1    2    0    0  0.60953124855E+02  0.15784125716E+02  0.31300873982E+03  0.33148030837E+03  0.89108369863E+02 0.  0.
         13    1    3    3    0    0 -0.26601853580E+02  0.12889303541E+02  0.30775611098E+02  0.42672368086E+02  0.00000000000E+00 0. -1.
        -14    1    3    3    0    0 -0.55134773923E+02 -0.11152802939E+02 -0.39857305127E+02  0.68940794026E+02  0.00000000000E+00 0.  1.
        -11    1    4    4    0    0  0.45850475014E+01  0.42480213297E+02  0.85562679360E+02  0.95637666646E+02  0.00000000000E+00 0.  1.
         11    1    4    4    0    0  0.56368077354E+02 -0.26696087581E+02  0.22744606046E+03  0.23584264172E+03  0.00000000000E+00 0. -1.
         21    1    1    2  502  501  0.20783502648E+02 -0.17520626317E+02  0.22826672391E+02  0.35496243482E+02  0.00000000000E+00 0. -1.
<scales pt_clust_5="13000.00000" pt_clust_6="13000.00000" pt_clust_7="13000.00000" pt_clust_8="13000.00000" pt_clust_9="27.18320"></scales>
<clustering>
<clus scale="   27.183">  2  9  1 -1</clus>
<clus scale="   75.440">  5  6 -1 -1</clus>
<clus scale="   89.108">  7  8 -1 -1</clus>
<clus scale="   99.657">  2  5  1 -1</clus>
<clus scale="  110.366">  1  5  2 -1</clus>
</clustering>
</event>
<event>
 9    1  0.2374319E-005  0.1892816E+03  0.7546771E-02  0.1182348E+00
         -2   -1    0    0    0  501 -0.00000000000E+00  0.00000000000E+00  0.22081783325E+03  0.22081783325E+03  0.00000000000E+00 0.  1.
          1   -1    0    0  502    0  0.00000000000E+00 -0.00000000000E+00 -0.35761407584E+03  0.35761407584E+03  0.00000000000E+00 0. -1.
         23    2    1    2    0    0 -0.12032222143E+03 -0.23875224423E+02 -0.21941668526E+02  0.15521944286E+03  0.92542829612E+02 0.  0.
        -24    2    1    2    0    0 -0.74298926278E+02 -0.20522780692E+02 -0.18136714099E+03  0.21280216335E+03  0.80306948162E+02 0.  0.
         11    1    4    4    0    0 -0.84582952345E+01  0.25385372206E+02 -0.74427410907E+02  0.79091082775E+02  0.00000000000E+00 0. -1.
        -12    1    4    4    0    0 -0.65840631044E+02 -0.45908152898E+02 -0.10693973008E+03  0.13371108058E+03  0.00000000000E+00 0.  1.
        -11    1    3    3    0    0 -0.33103133823E+02  0.35151880955E+02 -0.48885496664E+01  0.48532155541E+02  0.00000000000E+00 0.  1.
         11    1    3    3    0    0 -0.87219087609E+02 -0.59027105379E+02 -0.17053118860E+02  0.10668728732E+03  0.00000000000E+00 0. -1.
         21    1    1    2  502  501  0.19462114771E+03  0.44398005115E+02  0.66512566928E+02  0.21041030287E+03  0.00000000000E+00 0.  1.
<scales pt_clust_5="13000.00000" pt_clust_6="13000.00000" pt_clust_7="13000.00000" pt_clust_8="13000.00000" pt_clust_9="165.11616"></scales>
<clustering>
<clus scale="   80.307">  5  6 -1 -1</clus>
<clus scale="   92.543">  7  8 -1 -1</clus>
<clus scale="  111.314">  2  5  1 -1</clus>
<clus scale="  165.116">  1  9  2 -1</clus>
<clus scale="  111.314">  2  5  1 -1</clus>
</clustering>
</event>
<event>
 9    1  0.2374319E-005  0.1180424E+03  0.7546771E-02  0.1250261E+00
          1   -1    0    0  502    0  0.00000000000E+00  0.00000000000E+00  0.11284351675E+03  0.11284351675E+03  0.00000000000E+00 0. -1.
         -2   -1    0    0    0  501 -0.00000000000E+00 -0.00000000000E+00 -0.19936866182E+03  0.19936866182E+03  0.00000000000E+00 0.  1.
        -24    2    1    2    0    0 -0.51775646559E+02  0.57347992853E+01 -0.12034057665E+03  0.15615180169E+03  0.84781632937E+02 0.  0.
         23    2    1    2    0    0  0.70208509417E+02 -0.24372481218E+02  0.42291895384E+02  0.12851071154E+03  0.95933028365E+02 0.  0.
         11    1    3    3    0    0 -0.41363432270E+01 -0.31625458358E+02 -0.71759145835E+02  0.78528045707E+02  0.00000000000E+00 0. -1.
        -12    1    3    3    0    0 -0.47639303332E+02  0.37360257643E+02 -0.48581430820E+02  0.77623755987E+02  0.00000000000E+00 0.  1.
        -11    1    4    4    0    0  0.26106872895E+02  0.37288899666E+02  0.14649409586E+02  0.47818783463E+02  0.00000000000E+00 0.  1.
         11    1    4    4    0    0  0.44101636522E+02 -0.61661380884E+02  0.27642485798E+02  0.80691928082E+02  0.00000000000E+00 0. -1.
         21    1    1    2  502  501 -0.18432862858E+02  0.18637681933E+02 -0.84764637999E+01  0.27549665325E+02  0.00000000000E+00 0. -1.
<scales pt_clust_5="13000.00000" pt_clust_6="13000.00000" pt_clust_7="13000.00000" pt_clust_8="13000.00000" pt_clust_9="26.21323"></scales>
<clustering>
<clus scale="   26.213">  2  9  1 -1</clus>
<clus scale="   84.782">  5  6 -1 -1</clus>
<clus scale="   95.933">  7  8 -1 -1</clus>
<clus scale="  109.173">  2  5  1 -1</clus>
<clus scale="  118.042">  1  5  2 -1</clus>
</clustering>
</event>
<event>
 9    1  0.2374319E-005  0.9759661E+02  0.7546771E-02  0.1290101E+00
         -2   -1    0    0    0  501 -0.00000000000E+00  0.00000000000E+00  0.49551897344E+03  0.49551897344E+03  0.00000000000E+00 0.  1.
          1   -1    0    0  502    0  0.00000000000E+00 -0.00000000000E+00 -0.13578329850E+03  0.13578329850E+03  0.00000000000E+00 0. -1.
        -24    2    1    2    0    0 -0.53328092567E+01 -0.37134951664E+02  0.44208570892E+03  0.45113504697E+03  0.81704425138E+02 0.  0.
         23    2    1    2    0    0  0.50986294080E+02  0.44835917556E+01 -0.51188750189E+02  0.11596926871E+03  0.90602860660E+02 0.  0.
         13    1    3    3    0    0  0.37607932876E+02 -0.25379849451E+02  0.22718746131E+03  0.23167355471E+03  0.00000000000E+00 0. -1.
        -14    1    3    3    0    0 -0.42940742132E+02 -0.11755102214E+02  0.21489824761E+03  0.21946149226E+03  0.00000000000E+00 0.  1.
        -13    1    4    4    0    0  0.63251541138E+02 -0.14487368964E+02 -0.56498187258E+01  0.65134950430E+02  0.00000000000E+00 0.  1.
         13    1    4    4    0    0 -0.12265247058E+02  0.18970960720E+02 -0.45538931463E+02  0.50834318278E+02  0.00000000000E+00 0. -1.
         21    1    1    2  502  501 -0.45653484823E+02  0.32651359909E+02 -0.31161283793E+02  0.64197956261E+02  0.00000000000E+00 0. -1.
<scales pt_clust_5="13000.00000" pt_clust_6="13000.00000" pt_clust_7="13000.00000" pt_clust_8="13000.00000" pt_clust_9="56.12800"></scales>
<clustering>
<clus scale="   56.128">  2  9  1 -1</clus>
<clus scale="   81.704">  5  6 -1 -1</clus>
<clus scale="   89.397">  1  5  2 -1</clus>
<clus scale="   90.603">  7  8 -1 -1</clus>
<clus scale="   56.128">  2  5  1 -1</clus>
</clustering>
</event>
<event>
 9    1  0.2374319E-005  0.1543098E+03  0.7546771E-02  0.1197285E+00
         -2   -1    0    0    0  501 -0.00000000000E+00  0.00000000000E+00  0.29504337255E+03  0.29504337255E+03  0.00000000000E+00 0.  1.
          1   -1    0    0  502    0  0.00000000000E+00 -0.00000000000E+00 -0.47896431591E+03  0.47896431591E+03  0.00000000000E+00 0. -1.
        -24    2    1    2    0    0  0.50106289169E+02  0.13025963571E+03  0.20651640800E+03  0.26185391976E+03  0.80251078564E+02 0.  0.
         23    2    1    2    0    0  0.51860335474E+02 -0.90596993369E+02 -0.39522426925E+02  0.14457846768E+03  0.91889071624E+02 0.  0.
         11    1    3    3    0    0 -0.69974531189E+01  0.35567337429E+02  0.12144465339E+02  0.38229411195E+02  0.00000000000E+00 0. -1.
        -12    1    3    3    0    0  0.57103742288E+02  0.94692298280E+02  0.19437194266E+03  0.22362450856E+03  0.00000000000E+00 0.  1.
        -11    1    4    4    0    0  0.37912754542E+02 -0.17962301750E+02 -0.54840573492E+02  0.69047155930E+02  0.00000000000E+00 0.  1.
         11    1    4    4    0    0  0.13947580932E+02 -0.72634691619E+02  0.15318146568E+02  0.75531311750E+02  0.00000000000E+00 0. -1.
         21    1    1    2  502  501 -0.10196662464E+03 -0.39662642339E+02 -0.35091492443E+03  0.36757530103E+03  0.00000000000E+00 0. -1.
<scales pt_clust_5="13000.00000" pt_clust_6="13000.00000" pt_clust_7="13000.00000" pt_clust_8="13000.00000" pt_clust_9="109.40895"></scales>
<clustering>
<clus scale="   80.251">  5  6 -1 -1</clus>
<clus scale="   91.889">  7  8 -1 -1</clus>
<clus scale="  109.409">  2  9  1 -1</clus>
<clus scale="  147.676">  1  5  2 -1</clus>
<clus scale="  109.409">  2  5  1 -1</clus>
</clustering>
</event>
<event>
 9    1  0.2374319E-005  0.3266083E+03  0.7546771E-02  0.1072942E+00
          1   -1    0    0  502    0  0.00000000000E+00  0.00000000000E+00  0.14596595475E+04  0.14596595475E+04  0.00000000000E+00 0. -1.
         -2   -1    0    0    0  501 -0.00000000000E+00 -0.00000000000E+00 -0.13015779741E+03  0.13015779741E+03  0.00000000000E+00 0.  1.
        -24    2    1    2    0    0  0.12045065629E+03  0.31398933664E+03  0.30143193092E+03  0.45840371775E+03  0.78581774908E+02 0.  0.
         23    2    1    2    0    0  0.37666252094E+02 -0.29156730425E+03  0.75514054427E+03  0.81519520051E+03  0.88745331638E+02 0.  0.
         13    1    3    3    0    0  0.11397920697E+03  0.29190788049E+03  0.30224733004E+03  0.43537905189E+03  0.00000000000E+00 0. -1.
        -14    1    3    3    0    0  0.64714493220E+01  0.22081456151E+02 -0.81539912299E+00  0.23024665857E+02  0.00000000000E+00 0.  1.
        -11    1    4    4    0    0 -0.24661340030E+02 -0.13067016123E+03  0.28836825913E+03  0.31755176838E+03  0.00000000000E+00 0.  1.
         11    1    4    4    0    0  0.62327592124E+02 -0.16089714302E+03  0.46677228513E+03  0.49764343213E+03  0.00000000000E+00 0. -1.
         21    1    1    2  502  501 -0.15811690838E+03 -0.22422032389E+02  0.27292927487E+03  0.31621842662E+03  0.00000000000E+00 0.  1.
<scales pt_clust_5="13000.00000" pt_clust_6="13000.00000" pt_clust_7="13000.00000" pt_clust_8="13000.00000" pt_clust_9="159.69879"></scales>
<clustering>
<clus scale="   78.582">  5  6 -1 -1</clus>
<clus scale="   88.745">  7  8 -1 -1</clus>
<clus scale="  159.699">  1  9  2 -1</clus>
<clus scale="  323.994">  2  5  1 -1</clus>
<clus scale="  159.699">  1  5  2 -1</clus>
</clustering>
</event>
<event>
 9    1  0.2374319E-005  0.1310178E+03  0.7546771E-02  0.1228462E+00
          1   -1    0    0  502    0  0.00000000000E+00  0.00000000000E+00  0.31901889540E+03  0.31901889540E+03  0.00000000000E+00 0. -1.
         -2   -1    0    0    0  501 -0.00000000000E+00 -0.00000000000E+00 -0.74713012644E+02  0.74713012644E+02  0.00000000000E+00 0.  1.
        -24    2    1    2    0    0  0.45064889205E+02  0.78653848457E+02  0.43931057887E+02  0.12882854420E+03  0.80309301066E+02 0.  0.
         23    2    1    2    0    0 -0.30611157038E+02 -0.99925546223E+02  0.12873950649E+03  0.18879150972E+03  0.90256389728E+02 0.  0.
         11    1    3    3    0    0 -0.15937965153E+02  0.42953311444E+02  0.34855861841E+02  0.57566802950E+02  0.00000000000E+00 0. -1.
        -12    1    3    3    0    0  0.61002854358E+02  0.35700537013E+02  0.90751960460E+01  0.71261741251E+02  0.00000000000E+00 0.  1.
        -13    1    4    4    0    0 -0.44762187963E+02 -0.85174129039E+01  0.44216958070E+02  0.63492827743E+02  0.00000000000E+00 0. -1.
         13    1    4    4    0    0  0.14151030925E+02 -0.91408133319E+02  0.84522548421E+02  0.12529868197E+03  0.00000000000E+00 0.  1.
         21    1    1    2  502  501 -0.14453732167E+02  0.21271697765E+02  0.71635318379E+02  0.76111854127E+02  0.00000000000E+00 0. -1.
<scales pt_clust_5="13000.00000" pt_clust_6="13000.00000" pt_clust_7="13000.00000" pt_clust_8="13000.00000" pt_clust_9="25.71761"></scales>
<clustering>
<clus scale="   25.718">  1  9  2 -1</clus>
<clus scale="   80.309">  5  6 -1 -1</clus>
<clus scale="   90.256">  7  8 -1 -1</clus>
<clus scale="  124.375">  2  5  1 -1</clus>
<clus scale="   25.718">  1  5  2 -1</clus>
</clustering>
</event>
<event>
 9    1  0.2374319E-005  0.1351259E+03  0.7546771E-02  0.1223480E+00
          1   -1    0    0  502    0  0.00000000000E+00  0.00000000000E+00  0.17329909921E+03  0.17329909921E+03  0.00000000000E+00 0. -1.
         -2   -1    0    0    0  501 -0.00000000000E+00 -0.00000000000E+00 -0.19144308566E+03  0.19144308566E+03  0.00000000000E+00 0.  1.
         23    2    1    2    0    0  0.62754917459E+02  0.82506441611E+02 -0.12979074134E+03  0.18945468908E+03  0.91115037759E+02 0.  0.
        -24    2    1    2    0    0 -0.46431237091E+02 -0.69366178104E+02  0.10123039236E+03  0.15188600708E+03  0.76513007829E+02 0.  0.
         13    1    4    4    0    0 -0.60884901849E+02 -0.68116020847E+02  0.10251995836E+03  0.13732117620E+03  0.00000000000E+00 0. -1.
        -14    1    4    4    0    0  0.14453664758E+02 -0.12501572572E+01 -0.12895660082E+01  0.14564830881E+02  0.00000000000E+00 0.  1.
        -11    1    3    3    0    0  0.18202662457E+02  0.24342328167E+02 -0.10919785563E+03  0.11334927232E+03  0.00000000000E+00 0.  1.
         11    1    3    3    0    0  0.44552255002E+02  0.58164113444E+02 -0.20592885702E+02  0.76105416759E+02  0.00000000000E+00 0. -1.
         21    1    1    2  502  501 -0.16323680368E+02 -0.13140263507E+02  0.10416362526E+02  0.23401488715E+02  0.00000000000E+00 0.  1.
<scales pt_clust_5="13000.00000" pt_clust_6="13000.00000" pt_clust_7="13000.00000" pt_clust_8="13000.00000" pt_clust_9="20.95541"></scales>
<clustering>
<clus scale="   20.955">  1  9  2 -1</clus>
<clus scale="   76.513">  5  6 -1 -1</clus>
<clus scale="   91.115">  7  8 -1 -1</clus>
<clus scale="  125.743">  1  5  2 -1</clus>
<clus scale="   20.955">  1  5  2 -1</clus>
</clustering>
</event>
<event>
 9    1  0.2374319E-005  0.1270491E+03  0.7546771E-02  0.1232117E+00
          1   -1    0    0  502    0  0.00000000000E+00  0.00000000000E+00  0.53476366570E+03  0.53476366570E+03  0.00000000000E+00 0. -1.
         -2   -1    0    0    0  501 -0.00000000000E+00 -0.00000000000E+00 -0.45817457083E+02  0.45817457083E+02  0.00000000000E+00 0.  1.
         23    2    1    2    0    0  0.92591461173E+02  0.51485116198E+02  0.15994296129E+03  0.21284701444E+03  0.92185708306E+02 0.  0.
        -24    2    1    2    0    0 -0.78676627797E+02 -0.15182876164E+02  0.27950318954E+03  0.30479182573E+03  0.91408383548E+02 0.  0.
         11    1    4    4    0    0 -0.56965900177E+00 -0.32248187092E+02  0.14305837130E+03  0.14664913120E+03  0.00000000000E+00 0. -1.
        -12    1    4    4    0    0 -0.78106968795E+02  0.17065310928E+02  0.13644481824E+03  0.15814269454E+03  0.00000000000E+00 0.  1.
        -11    1    3    3    0    0  0.71985377420E+02  0.44894433476E+02  0.16922921911E+03  0.18930381222E+03  0.00000000000E+00 0. -1.
         11    1    3    3    0    0  0.20606083753E+02  0.65906827225E+01 -0.92862578197E+01  0.23543202218E+02  0.00000000000E+00 0.  1.
         21    1    1    2  502  501 -0.13914833376E+02 -0.36302240034E+02  0.49500057787E+02  0.62942282611E+02  0.00000000000E+00 0. -1.
<scales pt_clust_5="13000.00000" pt_clust_6="13000.00000" pt_clust_7="13000.00000" pt_clust_8="13000.00000" pt_clust_9="38.87770"></scales>
<clustering>
<clus scale="   38.878">  2  9  1 -1</clus>
<clus scale="   91.408">  5  6 -1 -1</clus>
<clus scale="   92.186">  7  8 -1 -1</clus>
<clus scale="  126.486">  1  5  2 -1</clus>
<clus scale="  126.486">  1  5  2 -1</clus>
</clustering>
</event>
<event>
 9    1  0.2374319E-005  0.1585256E+03  0.7546771E-02  0.1204242E+00
          1   -1    0    0  502    0  0.00000000000E+00  0.00000000000E+00  0.51322446963E+03  0.51322446963E+03  0.00000000000E+00 0. -1.
         -2   -1    0    0    0  501 -0.00000000000E+00 -0.00000000000E+00 -0.25869842925E+03  0.25869842925E+03  0.00000000000E+00 0.  1.
         23    2    1    2    0    0  0.51997680817E+02 -0.19388432193E+02 -0.14774301894E+03  0.18853905239E+03  0.10314700440E+03 0.  0.
        -24    2    1    2    0    0  0.34899585425E+02  0.12926893806E+03 -0.26137228739E+01  0.15495073879E+03  0.77938825350E+02 0.  0.
         11    1    4    4    0    0 -0.20473353194E+02  0.16784830927E+02 -0.12320523391E+02  0.29200754046E+02  0.00000000000E+00 0. -1.
        -12    1    4    4    0    0  0.55372938619E+02  0.11248410713E+03  0.97068005173E+01  0.12574998475E+03  0.00000000000E+00 0.  1.
        -11    1    3    3    0    0  0.60899730566E+00 -0.52066687942E+02 -0.43674287577E+02  0.67961417483E+02  0.00000000000E+00 0. -1.
         11    1    3    3    0    0  0.51388683511E+02  0.32678255749E+02 -0.10406873136E+03  0.12057763491E+03  0.00000000000E+00 0.  1.
         21    1    1    2  502  501 -0.86897266242E+02 -0.10988050586E+03  0.40488278220E+03  0.42843310769E+03  0.00000000000E+00 0. -1.
<scales pt_clust_5="13000.00000" pt_clust_6="13000.00000" pt_clust_7="13000.00000" pt_clust_8="13000.00000" pt_clust_9="138.04310"></scales>
<clustering>
<clus scale="   77.939">  5  6 -1 -1</clus>
<clus scale="  103.147">  7  8 -1 -1</clus>
<clus scale="  117.128">  2  7  1 -1</clus>
<clus scale="  138.043">  1  9  2 -1</clus>
<clus scale="  138.043">  1  5  2 -1</clus>
</clustering>
</event>
<event>
 9    1  0.2374319E-005  0.9193512E+02  0.7546771E-02  0.1304514E+00
         -2   -1    0    0    0  501 -0.00000000000E+00  0.00000000000E+00  0.24547816796E+03  0.24547816796E+03  0.00000000000E+00 0.  1.
          1   -1    0    0  502    0  0.00000000000E+00 -0.00000000000E+00 -0.59451872192E+02  0.59451872192E+02  0.00000000000E+00 0. -1.
         23    2    1    2    0    0  0.26530166683E+02  0.16328565123E+01  0.15662015107E+03  0.18277190044E+03  0.90383515658E+02 0.  0.
        -24    2    1    2    0    0  0.97598575244E+01 -0.39685872178E+01  0.11620473302E+02  0.81676642683E+02  0.80156310149E+02 0.  0.
         11    1    4    4    0    0  0.32601584212E+01 -0.24665522385E+02 -0.27412888163E+02  0.37020035993E+02  0.00000000000E+00 0. -1.
        -12    1    4    4    0    0  0.64996991032E+01  0.20696935167E+02  0.39033361466E+02  0.44656606690E+02  0.00000000000E+00 0.  1.
        -11    1    3    3    0    0  0.45997144331E+02 -0.30605331221E+02  0.77851988557E+02  0.95463897407E+02  0.00000000000E+00 0. -1.
         11    1    3    3    0    0 -0.19466977648E+02  0.32238187733E+02  0.78768162515E+02  0.87308003030E+02  0.00000000000E+00 0.  1.
         21    1    1    2  502  501 -0.36290024207E+02  0.23357307055E+01  0.17785671389E+02  0.40481497028E+02  0.00000000000E+00 0.  1.
<scales pt_clust_5="13000.00000" pt_clust_6="13000.00000" pt_clust_7="13000.00000" pt_clust_8="13000.00000" pt_clust_9="36.36511"></scales>
<clustering>
<clus scale="   36.365">  2  9  1 -1</clus>
<clus scale="   80.156">  5  6 -1 -1</clus>
<clus scale="   81.902">  2  5  1 -1</clus>
<clus scale="   90.384">  7  8 -1 -1</clus>
<clus scale="   36.365">  2  5  1 -1</clus>
</clustering>
</event>
<event>
 9    1  0.2374319E-005  0.1281235E+03  0.7546771E-02  0.1233215E+00
          1   -1    0    0  502    0  0.00000000000E+00  0.00000000000E+00  0.10823531909E+04  0.10823531909E+04  0.00000000000E+00 0. -1.
         -2   -1    0    0    0  501 -0.00000000000E+00 -0.00000000000E+00 -0.36838282024E+02  0.36838282024E+02  0.00000000000E+00 0.  1.
         23    2    1    2    0    0  0.43416421273E+02  0.55809847188E+02  0.17504272662E+03  0.21040293171E+03  0.92896247771E+02 0.  0.
        -24    2    1    2    0    0 -0.13213371251E+03 -0.50181767923E+02  0.44388344792E+03  0.47303588052E+03  0.82176037324E+02 0.  0.
         11    1    4    4    0    0 -0.83701142863E+02  0.11977424528E+02  0.23953956597E+03  0.25402469109E+03  0.00000000000E+00 0. -1.
        -12    1    4    4    0    0 -0.48432569643E+02 -0.62159192451E+02  0.20434388195E+03  0.21901118943E+03  0.00000000000E+00 0.  1.
        -11    1    3    3    0    0 -0.91586303767E+01  0.57940164473E+02  0.60063621563E+02  0.83955832464E+02  0.00000000000E+00 0. -1.
         11    1    3    3    0    0  0.52575051650E+02 -0.21303172845E+01  0.11497910506E+03  0.12644709925E+03  0.00000000000E+00 0.  1.
         21    1    1    2  502  501  0.88717291233E+02 -0.56280792649E+01  0.42658873438E+03  0.43575266074E+03  0.00000000000E+00 0. -1.
<scales pt_clust_5="13000.00000" pt_clust_6="13000.00000" pt_clust_7="13000.00000" pt_clust_8="13000.00000" pt_clust_9="88.89563"></scales>
<clustering>
<clus scale="   82.176">  5  6 -1 -1</clus>
<clus scale="   88.896">  1  9  2 -1</clus>
<clus scale="   92.896">  7  8 -1 -1</clus>
<clus scale="  120.577">  1  5  2 -1</clus>
<clus scale="   88.896">  1  5  2 -1</clus>
</clustering>
</event>
<event>
 9    1  0.2374319E-005  0.2224583E+03  0.7546771E-02  0.1132335E+00
          1   -1    0    0  502    0  0.00000000000E+00  0.00000000000E+00  0.68672752129E+02  0.68672752129E+02  0.00000000000E+00 0. -1.
         -2   -1    0    0    0  501 -0.00000000000E+00 -0.00000000000E+00 -0.11248130037E+04  0.11248130037E+04  0.00000000000E+00 0.  1.
        -24    2    1    2    0    0  0.10985926351E+03  0.19155108041E+03 -0.71975039783E+03  0.75957583962E+03  0.10076679397E+03 0.  0.
         23    2    1    2    0    0 -0.64390867107E+02 -0.15073404827E+03 -0.31337680270E+03  0.36861821914E+03  0.10395880887E+03 0.  0.
         13    1    3    3    0    0  0.96655738543E+02  0.16070941803E+03 -0.44666357335E+03  0.48443595716E+03  0.00000000000E+00 0. -1.
        -14    1    3    3    0    0  0.13203524963E+02  0.30841662376E+02 -0.27308682448E+03  0.27513988245E+03  0.00000000000E+00 0.  1.
        -13    1    4    4    0    0 -0.82633478968E+02 -0.14033675590E+03 -0.22483740362E+03  0.27762304473E+03  0.00000000000E+00 0.  1.
         13    1    4    4    0    0  0.18242611861E+02 -0.10397292368E+02 -0.88539399081E+02  0.90995174409E+02  0.00000000000E+00 0. -1.
         21    1    1    2  502  501 -0.45468396399E+02 -0.40817032142E+02 -0.23013051000E+02  0.65291697024E+02  0.00000000000E+00 0. -1.
<scales pt_clust_5="13000.00000" pt_clust_6="13000.00000" pt_clust_7="13000.00000" pt_clust_8="13000.00000" pt_clust_9="61.10160"></scales>
<clustering>
<clus scale="   61.102">  1  9  2 -1</clus>
<clus scale="  100.767">  5  6 -1 -1</clus>
<clus scale="  103.959">  7  8 -1 -1</clus>
<clus scale="  220.985">  2  5  1 -1</clus>
<clus scale="   61.102">  1  5  2 -1</clus>
</clustering>
</event>
<event>
 9    1  0.2374319E-005  0.1214040E+03  0.7546771E-02  0.1242676E+00
          1   -1    0    0  502    0  0.00000000000E+00  0.00000000000E+00  0.37889660465E+03  0.37889660465E+03  0.00000000000E+00 0. -1.
         -2   -1    0    0    0  501 -0.00000000000E+00 -0.00000000000E+00 -0.81344927327E+02  0.81344927327E+02  0.00000000000E+00 0.  1.
        -24    2    1    2    0    0 -0.14516521848E+02  0.88567374905E+02 -0.11158814663E+02  0.12104289153E+03  0.80448450211E+02 0.  0.
         23    2    1    2    0    0  0.24030039717E+02 -0.57517838672E+02  0.25367760669E+03  0.27529872506E+03  0.86898304406E+02 0.  0.
         13    1    3    3    0    0 -0.49896241256E+01  0.46116844351E+02  0.34625516789E+02  0.57884247380E+02  0.00000000000E+00 0. -1.
        -14    1    3    3    0    0 -0.95268977227E+01  0.42450530554E+02 -0.45784331452E+02  0.63158644151E+02  0.00000000000E+00 0.  1.
        -13    1    4    4    0    0  0.35264875248E+02 -0.18120637984E+02  0.21609997383E+03  0.21970700407E+03  0.00000000000E+00 0. -1.
         13    1    4    4    0    0 -0.11234835530E+02 -0.39397200688E+02  0.37577632863E+02  0.55591720994E+02  0.00000000000E+00 0.  1.
         21    1    1    2  502  501 -0.95135178690E+01 -0.31049536233E+02  0.55032885288E+02  0.63899915381E+02  0.00000000000E+00 0. -1.
<scales pt_clust_5="13000.00000" pt_clust_6="13000.00000" pt_clust_7="13000.00000" pt_clust_8="13000.00000" pt_clust_9="32.47431"></scales>
<clustering>
<clus scale="   32.474">  1  9  2 -1</clus>
<clus scale="   80.448">  5  6 -1 -1</clus>
<clus scale="   86.898">  7  8 -1 -1</clus>
<clus scale="  116.874">  2  5  1 -1</clus>
<clus scale="   32.474">  1  5  2 -1</clus>
</clustering>
</event>
<event>
 9    1  0.2374319E-005  0.9756587E+02  0.7546771E-02  0.1299928E+00
          1   -1    0    0  502    0  0.00000000000E+00  0.00000000000E+00  0.57821788874E+03  0.57821788874E+03  0.00000000000E+00 0. -1.
         -2   -1    0    0    0  501 -0.00000000000E+00 -0.00000000000E+00 -0.22366202924E+02  0.22366202924E+02  0.00000000000E+00 0.  1.
         23    2    1    2    0    0  0.11177873631E+02  0.30412387189E+02  0.13022871741E+03  0.16201933183E+03  0.90779330772E+02 0.  0.
        -24    2    1    2    0    0  0.80774636046E+01 -0.46499094061E+02  0.32360472347E+03  0.33350633585E+03  0.65414431379E+02 0.  0.
         13    1    4    4    0    0  0.25429938587E+02 -0.53575171581E+02  0.27695718087E+03  0.28323534529E+03  0.00000000000E+00 0. -1.
        -14    1    4    4    0    0 -0.17352474983E+02  0.70760775201E+01  0.46647542598E+02  0.50270990556E+02  0.00000000000E+00 0.  1.
        -11    1    3    3    0    0  0.33223660711E+02 -0.12256968782E+02  0.97942859774E+02  0.10414820544E+03  0.00000000000E+00 0. -1.
         11    1    3    3    0    0 -0.22045787080E+02  0.42669355971E+02  0.32285857633E+02  0.57871126393E+02  0.00000000000E+00 0.  1.
         21    1    1    2  502  501 -0.19255337236E+02  0.16086706872E+02  0.10201824494E+03  0.10505842399E+03  0.00000000000E+00 0.  1.
<scales pt_clust_5="13000.00000" pt_clust_6="13000.00000" pt_clust_7="13000.00000" pt_clust_8="13000.00000" pt_clust_9="25.09084"></scales>
<clustering>
<clus scale="   25.091">  1  9  2 -1</clus>
<clus scale="   65.414">  5  6 -1 -1</clus>
<clus scale="   74.547">  1  5  2 -1</clus>
<clus scale="   90.779">  7  8 -1 -1</clus>
<clus scale="   25.091">  1  5  2 -1</clus>
</clustering>
</event>
<event>
 9    1  0.2374319E-005  0.1149066E+03  0.7546771E-02  0.1255254E+00
         -2   -1    0    0    0  501 -0.00000000000E+00  0.00000000000E+00  0.88010708764E+02  0.88010708764E+02  0.00000000000E+00 0.  1.
          1   -1    0    0  502    0  0.00000000000E+00 -0.00000000000E+00 -0.23536291349E+03  0.23536291349E+03  0.00000000000E+00 0. -1.
         23    2    1    2    0    0 -0.68496342993E+02 -0.16932415147E+02  0.27871457114E+01  0.11698462784E+03  0.93269390928E+02 0.  0.
        -24    2    1    2    0    0  0.63222690800E+02 -0.10551957153E+02 -0.84446511387E+02  0.13498345380E+03  0.83551583357E+02 0.  0.
         11    1    4    4    0    0  0.56081932588E+02  0.47369079838E+01 -0.98219452758E+02  0.11320195387E+03  0.00000000000E+00 0. -1.
        -12    1    4    4    0    0  0.71407582115E+01 -0.15288865137E+02  0.13772941370E+02  0.21781499925E+02  0.00000000000E+00 0.  1.
        -13    1    3    3    0    0 -0.80320010944E+02  0.79316134954E+01  0.21706498563E+02  0.83578626039E+02  0.00000000000E+00 0.  1.
         13    1    3    3    0    0  0.11823667951E+02 -0.24864028642E+02 -0.18919352852E+02  0.33406001803E+02  0.00000000000E+00 0. -1.
         21    1    1    2  502  501  0.52736521931E+01  0.27484372300E+02 -0.65692839054E+02  0.71405540619E+02  0.00000000000E+00 0. -1.
<scales pt_clust_5="13000.00000" pt_clust_6="13000.00000" pt_clust_7="13000.00000" pt_clust_8="13000.00000" pt_clust_9="27.98575"></scales>
<clustering>
<clus scale="   27.986">  2  9  1 -1</clus>
<clus scale="   83.552">  5  6 -1 -1</clus>
<clus scale="   93.269">  7  8 -1 -1</clus>
<clus scale="  107.169">  2  5  1 -1</clus>
<clus scale="   27.986">  2  5  1 -1</clus>
</clustering>
</event>
<event>
 9    1  0.2374319E-005  0.9486949E+02  0.7546771E-02  0.1297417E+00
         -2   -1    0    0    0  501 -0.00000000000E+00  0.00000000000E+00  0.10175444230E+03  0.10175444230E+03  0.00000000000E+00 0.  1.
          1   -1    0    0  502    0  0.00000000000E+00 -0.00000000000E+00 -0.29801979820E+03  0.29801979820E+03  0.00000000000E+00 0. -1.
        -24    2    1    2    0    0 -0.97971869574E+00 -0.27207810085E+02  0.57576002453E+02  0.10261825213E+03  0.80462940741E+02 0.  0.
         23    2    1    2    0    0  0.25383830684E+02  0.24374295974E+02 -0.93890836455E+02  0.13532966500E+03  0.90885553822E+02 0.  0.
         13    1    3    3    0    0  0.14693959003E+01 -0.23104178598E+02 -0.16474134929E+02  0.28414068957E+02  0.00000000000E+00 0. -1.
        -14    1    3    3    0    0 -0.24491145960E+01 -0.41036314862E+01  0.74050137382E+02  0.74204183170E+02  0.00000000000E+00 0.  1.
        -11    1    4    4    0    0 -0.16550781092E+02  0.31019407010E+02 -0.33374210683E+01  0.35316714816E+02  0.00000000000E+00 0.  1.
         11    1    4    4    0    0  0.41934611777E+02 -0.66451110366E+01 -0.90553415387E+02  0.10001295018E+03  0.00000000000E+00 0. -1.
         21    1    1    2  502  501 -0.24404111989E+02  0.28335141109E+01 -0.15995052189E+03  0.16182632338E+03  0.00000000000E+00 0.  1.
<scales pt_clust_5="13000.00000" pt_clust_6="13000.00000" pt_clust_7="13000.00000" pt_clust_8="13000.00000" pt_clust_9="24.56806"></scales>
<clustering>
<clus scale="   24.568">  2  9  1 -1</clus>
<clus scale="   80.463">  5  6 -1 -1</clus>
<clus scale="   84.937">  1  5  2 -1</clus>
<clus scale="   90.886">  7  8 -1 -1</clus>
<clus scale="   24.568">  2  5  1 -1</clus>
</clustering>
</event>
<event>
 9    1  0.2374319E-005  0.1448338E+03  0.7546771E-02  0.1230930E+00
         -2   -1    0    0    0  501 -0.00000000000E+00  0.00000000000E+00  0.57307346553E+02  0.57307346553E+02  0.00000000000E+00 0.  1.
          1   -1    0    0  502    0  0.00000000000E+00 -0.00000000000E+00 -0.66694946285E+03  0.66694946285E+03  0.00000000000E+00 0. -1.
         23    2    1    2    0    0 -0.10080154734E+03 -0.63426198895E+02 -0.99702673499E+02  0.18040694062E+03  0.91772580167E+02 0.  0.
        -24    2    1    2    0    0  0.30568395083E+01  0.36516172598E+02 -0.24751432885E+03  0.26252244769E+03  0.79447576604E+02 0.  0.
         11    1    4    4    0    0  0.37106639760E+02  0.18200848358E+02 -0.18034691243E+03  0.18502211332E+03  0.00000000000E+00 0. -1.
        -12    1    4    4    0    0 -0.34049800251E+02  0.18315324240E+02 -0.67167416415E+02  0.77500334367E+02  0.00000000000E+00 0.  1.
        -11    1    3    3    0    0 -0.25148187397E+02 -0.39225387803E+01 -0.77577941302E+02  0.81646522379E+02  0.00000000000E+00 0. -1.
         11    1    3    3    0    0 -0.75653359939E+02 -0.59503660115E+02 -0.22124732197E+02  0.98760418244E+02  0.00000000000E+00 0.  1.
         21    1    1    2  502  501  0.97744707828E+02  0.26910026297E+02 -0.26242511395E+03  0.28132742109E+03  0.00000000000E+00 0.  1.
<scales pt_clust_5="13000.00000" pt_clust_6="13000.00000" pt_clust_7="13000.00000" pt_clust_8="13000.00000" pt_clust_9="112.04736"></scales>
<clustering>
<clus scale="   79.448">  5  6 -1 -1</clus>
<clus scale="   87.491">  2  5  1 -1</clus>
<clus scale="   91.773">  7  8 -1 -1</clus>
<clus scale="  112.047">  2  9  1 -1</clus>
<clus scale="   87.491">  2  5  1 -1</clus>
</clustering>
</event>
<event>
 9    1  0.2374319E-005  0.9566941E+02  0.7546771E-02  0.1296327E+00
          1   -1    0    0  502    0  0.00000000000E+00  0.00000000000E+00  0.81929426377E+02  0.81929426377E+02  0.00000000000E+00 0. -1.
         -2   -1    0    0    0  501 -0.00000000000E+00 -0.00000000000E+00 -0.20538618595E+03  0.20538618595E+03  0.00000000000E+00 0.  1.
        -24    2    1    2    0    0  0.27786959891E+02  0.12844934450E+02 -0.13815340410E+03  0.16279326982E+03  0.80487130360E+02 0.  0.
         23    2    1    2    0    0 -0.11536033753E+02  0.62761235220E+01 -0.41252086335E+01  0.93154052561E+02  0.92131375552E+02 0.  0.
         13    1    3    3    0    0  0.35703306942E+02 -0.21257036073E+02 -0.36592651627E+02  0.55367949775E+02  0.00000000000E+00 0. -1.
        -14    1    3    3    0    0 -0.79163470510E+01  0.34101970523E+02 -0.10156075247E+03  0.10742532004E+03  0.00000000000E+00 0.  1.
        -11    1    4    4    0    0 -0.43841847278E+02  0.29348114725E+02  0.29036316050E+01  0.52837964449E+02  0.00000000000E+00 0. -1.
         11    1    4    4    0    0  0.32305813525E+02 -0.23071991203E+02 -0.70288402385E+01  0.40316088112E+02  0.00000000000E+00 0.  1.
         21    1    1    2  502  501 -0.16250926138E+02 -0.19121057972E+02  0.18821853153E+02  0.31368289951E+02  0.00000000000E+00 0. -1.
<scales pt_clust_5="13000.00000" pt_clust_6="13000.00000" pt_clust_7="13000.00000" pt_clust_8="13000.00000" pt_clust_9="25.09397"></scales>
<clustering>
<clus scale="   25.094">  1  9  2 -1</clus>
<clus scale="   80.487">  5  6 -1 -1</clus>
<clus scale="   84.514">  2  5  1 -1</clus>
<clus scale="   92.131">  7  8 -1 -1</clus>
<clus scale="   25.094">  1  5  2 -1</clus>
</clustering>
</event>
<event>
 9    1  0.2374319E-005  0.9671199E+02  0.7546771E-02  0.1292601E+00
          3   -1    0    0  502    0  0.00000000000E+00  0.00000000000E+00  0.24011388550E+03  0.24011388550E+03  0.00000000000E+00 0. -1.
         -4   -1    0    0    0  501 -0.00000000000E+00 -0.00000000000E+00 -0.12065578194E+03  0.12065578194E+03  0.00000000000E+00 0.  1.
        -24    2    1    2    0    0  0.14401688081E+02  0.34715011807E+02 -0.87988922153E+02  0.12475542332E+03  0.80058257296E+02 0.  0.
         23    2    1    2    0    0 -0.27240819241E+01 -0.17552634390E+02  0.17431202950E+03  0.19691383928E+03  0.89860229672E+02 0.  0.
         13    1    3    3    0    0  0.24905590368E+02  0.50779963366E+02 -0.30736074296E+02  0.64370795973E+02  0.00000000000E+00 0. -1.
        -14    1    3    3    0    0 -0.10503902287E+02 -0.16064951559E+02 -0.57252847858E+02  0.60384627345E+02  0.00000000000E+00 0.  1.
        -11    1    4    4    0    0  0.35887262462E+02 -0.23821716281E+02  0.13395657209E+03  0.14071152398E+03  0.00000000000E+00 0. -1.
         11    1    4    4    0    0 -0.38611344386E+02  0.62690818901E+01  0.40355457403E+02  0.56202315302E+02  0.00000000000E+00 0.  1.
         21    1    1    2  502  501 -0.11677606157E+02 -0.17162377417E+02  0.33134996216E+02  0.39100404836E+02  0.00000000000E+00 0. -1.
<scales pt_clust_5="13000.00000" pt_clust_6="13000.00000" pt_clust_7="13000.00000" pt_clust_8="13000.00000" pt_clust_9="20.75846"></scales>
<clustering>
<clus scale="   20.758">  1  9  2 -1</clus>
<clus scale="   80.058">  5  6 -1 -1</clus>
<clus scale="   87.679">  2  5  1 -1</clus>
<clus scale="   89.860">  7  8 -1 -1</clus>
<clus scale="   20.758">  1  5  2 -1</clus>
</clustering>
</event>
<event>
 9    1  0.2374319E-005  0.1063084E+03  0.7546771E-02  0.1273384E+00
          1   -1    0    0  502    0  0.00000000000E+00  0.00000000000E+00  0.12554531871E+03  0.12554531871E+03  0.00000000000E+00 0. -1.
         -2   -1    0    0    0  501 -0.00000000000E+00 -0.00000000000E+00 -0.24001596612E+03  0.24001596612E+03  0.00000000000E+00 0.  1.
        -24    2    1    2    0    0  0.52757761265E+01 -0.53576214667E+02 -0.11779527235E+03  0.15314530818E+03  0.81728297665E+02 0.  0.
         23    2    1    2    0    0 -0.79964681728E+02  0.70752078841E+01 -0.36910482969E+01  0.12415502309E+03  0.94638454291E+02 0.  0.
         11    1    3    3    0    0 -0.24792998970E+01 -0.71372941205E+02 -0.11209672393E+03  0.13291320168E+03  0.00000000000E+00 0. -1.
        -12    1    3    3    0    0  0.77550760235E+01  0.17796726538E+02 -0.56985484182E+01  0.20232106506E+02  0.00000000000E+00 0.  1.
        -13    1    4    4    0    0 -0.33499263032E+02 -0.42513202527E+02  0.94378593063E+01  0.54942207828E+02  0.00000000000E+00 0. -1.
         13    1    4    4    0    0 -0.46465418696E+02  0.49588410411E+02 -0.13128907603E+02  0.69212815262E+02  0.00000000000E+00 0.  1.
         21    1    1    2  502  501  0.74688905602E+02  0.46501006783E+02  0.70156732355E+01  0.88260953557E+02  0.00000000000E+00 0.  1.
<scales pt_clust_5="13000.00000" pt_clust_6="13000.00000" pt_clust_7="13000.00000" pt_clust_8="13000.00000" pt_clust_9="87.98168"></scales>
<clustering>
<clus scale="   81.728">  5  6 -1 -1</clus>
<clus scale="   87.982">  1  9  2 -1</clus>
<clus scale="   94.638">  7  8 -1 -1</clus>
<clus scale="   94.998">  2  5  1 -1</clus>
<clus scale="   87.982">  1  5  2 -1</clus>
</clustering>
</event>
<event>
 9    1  0.2374319E-005  0.9379933E+02  0.7546771E-02  0.1298680E+00
          3   -1    0    0  502    0  0.00000000000E+00  0.00000000000E+00  0.14559192153E+03  0.14559192153E+03  0.00000000000E+00 0. -1.
         -4   -1    0    0    0  501 -0.00000000000E+00 -0.00000000000E+00 -0.14243238880E+03  0.14243238880E+03  0.00000000000E+00 0.  1.
        -24    2    1    2    0    0 -0.36093756687E+02 -0.26691406435E+01 -0.88325910625E+02  0.12494952901E+03  0.80628994344E+02 0.  0.
         23    2    1    2    0    0 -0.53829582549E+01  0.17143566103E+02  0.66010816652E+02  0.11229305744E+03  0.89047317398E+02 0.  0.
         13    1    3    3    0    0  0.10457467885E+02 -0.29730874982E+02 -0.17725921605E+02  0.36159256886E+02  0.00000000000E+00 0. -1.
        -14    1    3    3    0    0 -0.46551224572E+02  0.27061734339E+02 -0.70599989020E+02  0.88790272126E+02  0.00000000000E+00 0.  1.
        -13    1    4    4    0    0 -0.31746810710E+02 -0.21435751508E+02  0.10470821656E+02  0.39711327592E+02  0.00000000000E+00 0.  1.
         13    1    4    4    0    0  0.26363852455E+02  0.38579317611E+02  0.55539994996E+02  0.72581729848E+02  0.00000000000E+00 0. -1.
         21    1    1    2  502  501  0.41476714942E+02 -0.14474425459E+02  0.25474626697E+02  0.50781723879E+02  0.00000000000E+00 0.  1.
<scales pt_clust_5="13000.00000" pt_clust_6="13000.00000" pt_clust_7="13000.00000" pt_clust_8="13000.00000" pt_clust_9="43.92979"></scales>
<clustering>
<clus scale="   43.930">  1  9  2 -1</clus>
<clus scale="   80.629">  5  6 -1 -1</clus>
<clus scale="   85.848">  2  5  1 -1</clus>
<clus scale="   89.047">  7  8 -1 -1</clus>
<clus scale="   43.930">  1  5  2 -1</clus>
</clustering>
</event>
<event>
 9    1  0.2374319E-005  0.1230440E+03  0.7546771E-02  0.1245498E+00
          1   -1    0    0  502    0  0.00000000000E+00  0.00000000000E+00  0.19144622833E+03  0.19144622833E+03  0.00000000000E+00 0. -1.
         -2   -1    0    0    0  501 -0.00000000000E+00 -0.00000000000E+00 -0.35537282699E+03  0.35537282699E+03  0.00000000000E+00 0.  1.
         23    2    1    2    0    0 -0.56109896795E+02 -0.63383806602E+02 -0.32646184449E+03  0.34922665031E+03  0.90642649557E+02 0.  0.
        -24    2    1    2    0    0  0.44398637501E+02  0.47082599373E+02  0.13164823509E+03  0.16075641197E+03  0.65752231973E+02 0.  0.
         11    1    4    4    0    0  0.28062312721E+02 -0.82065348324E+01  0.72433040201E+02  0.78111368711E+02  0.00000000000E+00 0. -1.
        -12    1    4    4    0    0  0.16336324780E+02  0.55289134205E+02  0.59215194893E+02  0.82645043255E+02  0.00000000000E+00 0.  1.
        -11    1    3    3    0    0 -0.23081706458E+02  0.15270865097E+02 -0.15790207434E+03  0.16030916872E+03  0.00000000000E+00 0. -1.
         11    1    3    3    0    0 -0.33028190337E+02 -0.78654671699E+02 -0.16855977015E+03  0.18891748159E+03  0.00000000000E+00 0.  1.
         21    1    1    2  502  501  0.11711259294E+02  0.16301207230E+02  0.30887010736E+02  0.36835993044E+02  0.00000000000E+00 0.  1.
<scales pt_clust_5="13000.00000" pt_clust_6="13000.00000" pt_clust_7="13000.00000" pt_clust_8="13000.00000" pt_clust_9="20.07194"></scales>
<clustering>
<clus scale="   20.072">  1  9  2 -1</clus>
<clus scale="   65.752">  5  6 -1 -1</clus>
<clus scale="   90.643">  7  8 -1 -1</clus>
<clus scale="  106.052">  1  5  2 -1</clus>
<clus scale="   20.072">  1  5  2 -1</clus>
</clustering>
</event>
<event>
 9    1  0.2374319E-005  0.1103039E+03  0.7546771E-02  0.1260414E+00
          1   -1    0    0  502    0  0.00000000000E+00  0.00000000000E+00  0.22459149943E+03  0.22459149943E+03  0.00000000000E+00 0. -1.
         -2   -1    0    0    0  501 -0.00000000000E+00 -0.00000000000E+00 -0.10702124820E+03  0.10702124820E+03  0.00000000000E+00 0.  1.
         23    2    1    2    0    0  0.63131354996E+02  0.26328731474E+02 -0.35565372000E+02  0.11892410892E+03  0.90549864235E+02 0.  0.
        -24    2    1    2    0    0 -0.40116056563E+02 -0.33666633662E+02  0.67513182946E+02  0.12372375209E+03  0.89480705979E+02 0.  0.
         13    1    4    4    0    0 -0.40455070853E+02 -0.35456667727E+02  0.88008886853E+02  0.10314723559E+03  0.00000000000E+00 0. -1.
        -14    1    4    4    0    0  0.33901428944E+00  0.17900340645E+01 -0.20495703907E+02  0.20576516500E+02  0.00000000000E+00 0.  1.
        -13    1    3    3    0    0 -0.13399867530E+02  0.33194678825E+02 -0.46442057798E+01  0.36097254735E+02  0.00000000000E+00 0. -1.
         13    1    3    3    0    0  0.76531222525E+02 -0.68659473512E+01 -0.30921166221E+02  0.82826854188E+02  0.00000000000E+00 0.  1.
         21    1    1    2  502  501 -0.23015298433E+02  0.73379021889E+01  0.85622440284E+02  0.88964886617E+02  0.00000000000E+00 0. -1.
<scales pt_clust_5="13000.00000" pt_clust_6="13000.00000" pt_clust_7="13000.00000" pt_clust_8="13000.00000" pt_clust_9="24.15675"></scales>
<clustering>
<clus scale="   24.157">  1  9  2 -1</clus>
<clus scale="   89.481">  5  6 -1 -1</clus>
<clus scale="   90.550">  7  8 -1 -1</clus>
<clus scale="  109.428">  1  5  2 -1</clus>
<clus scale="   24.157">  1  5  2 -1</clus>
</clustering>
</event>
<event>
 9    1  0.2374319E-005  0.1043496E+03  0.7546771E-02  0.1289422E+00
          1   -1    0    0  502    0  0.00000000000E+00  0.00000000000E+00  0.20194531102E+03  0.20194531102E+03  0.00000000000E+00 0. -1.
         -2   -1    0    0    0  501 -0.00000000000E+00 -0.00000000000E+00 -0.28043315824E+03  0.28043315824E+03  0.00000000000E+00 0.  1.
        -24    2    1    2    0    0 -0.22563305883E-01  0.31494156285E+02 -0.25564758366E+03  0.26624189662E+03  0.67358578454E+02 0.  0.
         23    2    1    2    0    0 -0.10200109822E+02 -0.11310541241E+02  0.13820069268E+03  0.17108450885E+03  0.99692061504E+02 0.  0.
         11    1    3    3    0    0  0.22297233704E+02  0.39297973399E+02 -0.11387789568E+03  0.12251396846E+03  0.00000000000E+00 0. -1.
        -12    1    3    3    0    0 -0.22319797010E+02 -0.78038171140E+01 -0.14176968798E+03  0.14372792815E+03  0.00000000000E+00 0.  1.
        -13    1    4    4    0    0  0.21084436062E+02 -0.46936400513E+02  0.54953855828E+02  0.75282836075E+02  0.00000000000E+00 0. -1.
         13    1    4    4    0    0 -0.31284545884E+02  0.35625859272E+02  0.83246836857E+02  0.95801672776E+02  0.00000000000E+00 0.  1.
         21    1    1    2  502  501  0.10222673128E+02 -0.20183615044E+02  0.38959043751E+02  0.45052063794E+02  0.00000000000E+00 0. -1.
<scales pt_clust_5="13000.00000" pt_clust_6="13000.00000" pt_clust_7="13000.00000" pt_clust_8="13000.00000" pt_clust_9="22.62480"></scales>
<clustering>
<clus scale="   22.625">  1  9  2 -1</clus>
<clus scale="   67.359">  5  6 -1 -1</clus>
<clus scale="   74.078">  2  5  1 -1</clus>
<clus scale="   99.692">  7  8 -1 -1</clus>
<clus scale="   22.625">  1  5  2 -1</clus>
</clustering>
</event>
<event>
 9    1  0.2374319E-005  0.1052801E+03  0.7546771E-02  0.1278954E+00
          1   -1    0    0  502    0  0.00000000000E+00  0.00000000000E+00  0.23647630391E+03  0.23647630391E+03  0.00000000000E+00 0. -1.
         -2   -1    0    0    0  501 -0.00000000000E+00 -0.00000000000E+00 -0.13108655118E+03  0.13108655118E+03  0.00000000000E+00 0.  1.
        -24    2    1    2    0    0 -0.15285059817E+02 -0.31539230592E+02 -0.92980191565E+02  0.12750114863E+03  0.79892870511E+02 0.  0.
         23    2    1    2    0    0  0.16965009463E+02  0.52761724919E+02  0.17538224238E+03  0.20873039728E+03  0.98680477518E+02 0.  0.
         13    1    3    3    0    0  0.31228176729E+02 -0.25075969863E+02 -0.38184135307E+02  0.55335625735E+02  0.00000000000E+00 0. -1.
        -14    1    3    3    0    0 -0.46513236545E+02 -0.64632607286E+01 -0.54796056258E+02  0.72165522894E+02  0.00000000000E+00 0.  1.
        -13    1    4    4    0    0 -0.20253737698E+02  0.29786119761E+02  0.15734979889E+03  0.16141990594E+03  0.00000000000E+00 0. -1.
         13    1    4    4    0    0  0.37218747160E+02  0.22975605158E+02  0.18032443482E+02  0.47310491336E+02  0.00000000000E+00 0.  1.
         21    1    1    2  502  501 -0.16799496457E+01 -0.21222494328E+02  0.22987701913E+02  0.31331309190E+02  0.00000000000E+00 0. -1.
<scales pt_clust_5="13000.00000" pt_clust_6="13000.00000" pt_clust_7="13000.00000" pt_clust_8="13000.00000" pt_clust_9="21.28888"></scales>
<clustering>
<clus scale="   21.289">  1  9  2 -1</clus>
<clus scale="   79.893">  5  6 -1 -1</clus>
<clus scale="   87.914">  2  5  1 -1</clus>
<clus scale="   98.680">  7  8 -1 -1</clus>
<clus scale="   21.289">  1  5  2 -1</clus>
</clustering>
</event>
<event>
 9    1  0.2374319E-005  0.1266109E+03  0.7546771E-02  0.1253886E+00
         -2   -1    0    0    0  501 -0.00000000000E+00  0.00000000000E+00  0.99688686067E+02  0.99688686067E+02  0.00000000000E+00 0.  1.
          1   -1    0    0  502    0  0.00000000000E+00 -0.00000000000E+00 -0.38497348973E+03  0.38497348973E+03  0.00000000000E+00 0. -1.
         23    2    1    2    0    0  0.23227660802E+01  0.86887643442E+02  0.22986089615E+02  0.12700794861E+03  0.89709536115E+02 0.  0.
        -24    2    1    2    0    0 -0.17124654362E+02  0.10181079288E+02 -0.15782294183E+03  0.17799894916E+03  0.79866368200E+02 0.  0.
         11    1    4    4    0    0 -0.40226438673E+02  0.28983070544E+02 -0.74296979899E+02  0.89320915628E+02  0.00000000000E+00 0. -1.
        -12    1    4    4    0    0  0.23101784311E+02 -0.18801991255E+02 -0.83525961933E+02  0.88678033528E+02  0.00000000000E+00 0.  1.
        -13    1    3    3    0    0  0.43609998026E+02  0.25519001118E+02  0.42428201834E+01  0.50705550673E+02  0.00000000000E+00 0. -1.
         13    1    3    3    0    0 -0.41287231946E+02  0.61368642324E+02  0.18743269431E+02  0.76302397940E+02  0.00000000000E+00 0.  1.
         21    1    1    2  502  501  0.14801888282E+02 -0.97068722730E+02 -0.15044795144E+03  0.17965527803E+03  0.00000000000E+00 0. -1.
<scales pt_clust_5="13000.00000" pt_clust_6="13000.00000" pt_clust_7="13000.00000" pt_clust_8="13000.00000" pt_clust_9="89.34490"></scales>
<clustering>
<clus scale="   79.866">  5  6 -1 -1</clus>
<clus scale="   82.314">  2  5  1 -1</clus>
<clus scale="   89.345">  2  9  1 -1</clus>
<clus scale="   89.710">  7  8 -1 -1</clus>
<clus scale="   82.314">  2  5  1 -1</clus>
</clustering>
</event>
<event>
 9    1  0.2374319E-005  0.1198669E+03  0.7546771E-02  0.1246847E+00
          1   -1    0    0  502    0  0.00000000000E+00  0.00000000000E+00  0.36492299731E+03  0.36492299731E+03  0.00000000000E+00 0. -1.
         -2   -1    0    0    0  501 -0.00000000000E+00 -0.00000000000E+00 -0.10542326547E+03  0.10542326547E+03  0.00000000000E+00 0.  1.
        -24    2    1    2    0    0 -0.78085469532E+02  0.63513099613E+01 -0.37705697679E+02  0.11873361776E+03  0.80859586063E+02 0.  0.
         23    2    1    2    0    0  0.61372440596E+02 -0.54789624143E+02  0.26159903615E+03  0.28921544264E+03  0.91886000926E+02 0.  0.
         13    1    3    3    0    0 -0.76508390479E+01 -0.30079380689E+02 -0.25908272277E+00  0.31038228117E+02  0.00000000000E+00 0. -1.
        -14    1    3    3    0    0 -0.70434630484E+02  0.36430690650E+02 -0.37446614956E+02  0.87695389641E+02  0.00000000000E+00 0.  1.
        -11    1    4    4    0    0  0.33736280045E-01 -0.60105544498E+02  0.15291841077E+03  0.16430678005E+03  0.00000000000E+00 0. -1.
         11    1    4    4    0    0  0.61338704316E+02  0.53159203553E+01  0.10868062538E+03  0.12490866259E+03  0.00000000000E+00 0.  1.
         21    1    1    2  502  501  0.16713028936E+02  0.48438314182E+02  0.35606393369E+02  0.62397202387E+02  0.00000000000E+00 0.  1.
<scales pt_clust_5="13000.00000" pt_clust_6="13000.00000" pt_clust_7="13000.00000" pt_clust_8="13000.00000" pt_clust_9="51.24057"></scales>
<clustering>
<clus scale="   51.241">  1  9  2 -1</clus>
<clus scale="   80.860">  5  6 -1 -1</clus>
<clus scale="   91.886">  7  8 -1 -1</clus>
<clus scale="  111.639">  2  5  1 -1</clus>
<clus scale="   51.241">  1  5  2 -1</clus>
</clustering>
</event>
<event>
 9    1  0.2374319E-005  0.1787267E+03  0.7546771E-02  0.1170149E+00
          3   -1    0    0  502    0  0.00000000000E+00  0.00000000000E+00  0.25925476770E+03  0.25925476770E+03  0.00000000000E+00 0. -1.
         -4   -1    0    0    0  501 -0.00000000000E+00 -0.00000000000E+00 -0.22312226450E+03  0.22312226450E+03  0.00000000000E+00 0.  1.
        -24    2    1    2    0    0  0.13544167907E+03 -0.10192337024E+03 -0.11062947849E+03  0.21840002015E+03  0.82017470471E+02 0.  0.
         23    2    1    2    0    0 -0.82688212033E+02  0.89319174289E+02  0.63895040885E+02  0.16493801004E+03  0.91141184994E+02 0.  0.
         11    1    3    3    0    0  0.77679348544E+02 -0.24133516284E+02 -0.15871728751E+02  0.82875928785E+02  0.00000000000E+00 0. -1.
        -12    1    3    3    0    0  0.57762330524E+02 -0.77789853955E+02 -0.94757749735E+02  0.13552409137E+03  0.00000000000E+00 0.  1.
        -11    1    4    4    0    0 -0.16040615388E+02  0.32536301037E+02 -0.21883395567E+02  0.42365023649E+02  0.00000000000E+00 0.  1.
         11    1    4    4    0    0 -0.66647596645E+02  0.56782873252E+02  0.85778436452E+02  0.12257298639E+03  0.00000000000E+00 0. -1.
         21    1    1    2  502  501 -0.52753467035E+02  0.12604195950E+02  0.82866940801E+02  0.99039002002E+02  0.00000000000E+00 0.  1.
<scales pt_clust_5="13000.00000" pt_clust_6="13000.00000" pt_clust_7="13000.00000" pt_clust_8="13000.00000" pt_clust_9="54.23831"></scales>
<clustering>
<clus scale="   54.238">  1  9  2 -1</clus>
<clus scale="   82.017">  5  6 -1 -1</clus>
<clus scale="   91.141">  7  8 -1 -1</clus>
<clus scale="  174.251">  2  5  1 -1</clus>
<clus scale="   54.238">  1  5  2 -1</clus>
</clustering>
</event>
<event>
 9    1  0.2374319E-005  0.2393458E+03  0.7546771E-02  0.1120675E+00
          1   -1    0    0  502    0  0.00000000000E+00  0.00000000000E+00  0.60533710160E+03  0.60533710160E+03  0.00000000000E+00 0. -1.
         -2   -1    0    0    0  501 -0.00000000000E+00 -0.00000000000E+00 -0.24213188105E+03  0.24213188105E+03  0.00000000000E+00 0.  1.
        -24    2    1    2    0    0  0.14393805049E+03 -0.12043514100E+03 -0.71854950270E+01  0.20638607374E+03  0.85561641685E+02 0.  0.
         23    2    1    2    0    0 -0.15200388659E+03  0.25381821163E+03  0.78110588295E+02  0.31970497866E+03  0.92634460570E+02 0.  0.
         11    1    3    3    0    0  0.11580959601E+03 -0.12957519910E+03 -0.18395055634E+02  0.17475689635E+03  0.00000000000E+00 0. -1.
        -12    1    3    3    0    0  0.28128454478E+02  0.91400580970E+01  0.11209560607E+02  0.31629177390E+02  0.00000000000E+00 0.  1.
        -11    1    4    4    0    0 -0.50876436758E+02  0.11967086464E+03  0.78143665866E+02  0.15171011890E+03  0.00000000000E+00 0. -1.
         11    1    4    4    0    0 -0.10112744983E+03  0.13414734698E+03 -0.33077570597E-01  0.16799485976E+03  0.00000000000E+00 0.  1.
         21    1    1    2  502  501  0.80658360963E+01 -0.13338307062E+03  0.29228012729E+03  0.32137793024E+03  0.00000000000E+00 0. -1.
<scales pt_clust_5="13000.00000" pt_clust_6="13000.00000" pt_clust_7="13000.00000" pt_clust_8="13000.00000" pt_clust_9="133.62672"></scales>
<clustering>
<clus scale="   85.562">  5  6 -1 -1</clus>
<clus scale="   92.634">  7  8 -1 -1</clus>
<clus scale="  133.627">  1  9  2 -1</clus>
<clus scale="  236.698">  2  5  1 -1</clus>
<clus scale="  133.627">  1  5  2 -1</clus>
</clustering>
</event>
<event>
 9    1  0.2374319E-005  0.1008804E+03  0.7546771E-02  0.1283841E+00
         -2   -1    0    0    0  501 -0.00000000000E+00  0.00000000000E+00  0.21551726907E+03  0.21551726907E+03  0.00000000000E+00 0.  1.
          1   -1    0    0  502    0  0.00000000000E+00 -0.00000000000E+00 -0.14156702168E+03  0.14156702168E+03  0.00000000000E+00 0. -1.
        -24    2    1    2    0    0 -0.37122689696E+02  0.36032701716E+02  0.12731473809E+03  0.15904487471E+03  0.80061101381E+02 0.  0.
         23    2    1    2    0    0  0.43777091061E+02  0.30618602658E+02  0.97228938600E+01  0.10602476763E+03  0.91064725088E+02 0.  0.
         11    1    3    3    0    0  0.10054538785E+02  0.20583339251E+02  0.55878214834E+00  0.22914620713E+02  0.00000000000E+00 0. -1.
        -12    1    3    3    0    0 -0.47177228481E+02  0.15449362464E+02  0.12675595594E+03  0.13613025400E+03  0.00000000000E+00 0.  1.
        -11    1    4    4    0    0 -0.18542631813E+02 -0.17431378193E+02 -0.50804714757E+01  0.25951750051E+02  0.00000000000E+00 0. -1.
         11    1    4    4    0    0  0.62319722874E+02  0.48049980851E+02  0.14803365336E+02  0.80073017579E+02  0.00000000000E+00 0.  1.
         21    1    1    2  502  501 -0.66544013651E+01 -0.66651304374E+02 -0.63087384552E+02  0.92014648409E+02  0.00000000000E+00 0. -1.
<scales pt_clust_5="13000.00000" pt_clust_6="13000.00000" pt_clust_7="13000.00000" pt_clust_8="13000.00000" pt_clust_9="66.98267"></scales>
<clustering>
<clus scale="   66.983">  2  9  1 -1</clus>
<clus scale="   80.061">  5  6 -1 -1</clus>
<clus scale="   91.065">  7  8 -1 -1</clus>
<clus scale="   91.071">  1  5  2 -1</clus>
<clus scale="   66.983">  2  5  1 -1</clus>
</clustering>
</event>
<event>
 9    1  0.2374319E-005  0.1353881E+03  0.7546771E-02  0.1222163E+00
         -2   -1    0    0    0  501 -0.00000000000E+00  0.00000000000E+00  0.19218177654E+03  0.19218177654E+03  0.00000000000E+00 0.  1.
          1   -1    0    0  502    0  0.00000000000E+00 -0.00000000000E+00 -0.31087825987E+03  0.31087825987E+03  0.00000000000E+00 0. -1.
        -24    2    1    2    0    0 -0.97073845218E+02 -0.31024182356E+02  0.13863272994E+03  0.18982995511E+03  0.80190689789E+02 0.  0.
         23    2    1    2    0    0  0.73430033429E+02  0.62462887343E+02 -0.15662762558E+03  0.20511795538E+03  0.90816190301E+02 0.  0.
         11    1    3    3    0    0 -0.84935299499E+02 -0.50202964208E+02  0.80210916691E+02  0.12715397702E+03  0.00000000000E+00 0. -1.
        -12    1    3    3    0    0 -0.12138545718E+02  0.19178781852E+02  0.58421813247E+02  0.62675978082E+02  0.00000000000E+00 0.  1.
        -11    1    4    4    0    0  0.59768176299E+02  0.32493376357E+01 -0.12016856326E+03  0.13425079773E+03  0.00000000000E+00 0.  1.
         11    1    4    4    0    0  0.13661857130E+02  0.59213549707E+02 -0.36459062311E+02  0.70867157653E+02  0.00000000000E+00 0. -1.
         21    1    1    2  502  501  0.23643811789E+02 -0.31438704987E+02 -0.10070158769E+03  0.10811212592E+03  0.00000000000E+00 0. -1.
<scales pt_clust_5="13000.00000" pt_clust_6="13000.00000" pt_clust_7="13000.00000" pt_clust_8="13000.00000" pt_clust_9="39.33729"></scales>
<clustering>
<clus scale="   39.337">  2  9  1 -1</clus>
<clus scale="   80.191">  5  6 -1 -1</clus>
<clus scale="   90.816">  7  8 -1 -1</clus>
<clus scale="  128.503">  1  5  2 -1</clus>
<clus scale="   39.337">  2  5  1 -1</clus>
</clustering>
</event>
<event>
 9    1  0.2374319E-005  0.1715214E+03  0.7546771E-02  0.1178063E+00
         -2   -1    0    0    0  501 -0.00000000000E+00  0.00000000000E+00  0.12387350828E+03  0.12387350828E+03  0.00000000000E+00 0.  1.
          1   -1    0    0  502    0  0.00000000000E+00 -0.00000000000E+00 -0.79129133414E+03  0.79129133414E+03  0.00000000000E+00 0. -1.
        -24    2    1    2    0    0  0.73411485013E+02  0.12301872600E+03  0.40945277155E+02  0.16892631637E+03  0.79603590142E+02 0.  0.
         23    2    1    2    0    0 -0.11715883411E+03 -0.10585251709E+03 -0.49621652640E+03  0.52894913548E+03  0.92873026632E+02 0.  0.
         13    1    3    3    0    0  0.78146029574E+02  0.96196787454E+02  0.52799497842E+01  0.12405039994E+03  0.00000000000E+00 0. -1.
        -14    1    3    3    0    0 -0.47345445608E+01  0.26821938546E+02  0.35665327371E+02  0.44875916437E+02  0.00000000000E+00 0.  1.
        -13    1    4    4    0    0 -0.11620249291E+03 -0.67982245287E+02 -0.44704881335E+03  0.46688033430E+03  0.00000000000E+00 0. -1.
         13    1    4    4    0    0 -0.95634120644E+00 -0.37870271805E+02 -0.49167713041E+02  0.62068801186E+02  0.00000000000E+00 0.  1.
         21    1    1    2  502  501  0.43747349101E+02 -0.17166208908E+02 -0.21214657662E+03  0.21728939057E+03  0.00000000000E+00 0. -1.
<scales pt_clust_5="13000.00000" pt_clust_6="13000.00000" pt_clust_7="13000.00000" pt_clust_8="13000.00000" pt_clust_9="46.99478"></scales>
<clustering>
<clus scale="   46.995">  2  9  1 -1</clus>
<clus scale="   79.604">  5  6 -1 -1</clus>
<clus scale="   92.873">  7  8 -1 -1</clus>
<clus scale="  164.715">  1  5  2 -1</clus>
<clus scale="   46.995">  2  5  1 -1</clus>
</clustering>
</event>
<event>
 9    1  0.2374319E-005  0.9683918E+02  0.7546771E-02  0.1291732E+00
          1   -1    0    0  502    0  0.00000000000E+00  0.00000000000E+00  0.17078763246E+03  0.17078763246E+03  0.00000000000E+00 0. -1.
         -2   -1    0    0    0  501 -0.00000000000E+00 -0.00000000000E+00 -0.11894308899E+03  0.11894308899E+03  0.00000000000E+00 0.  1.
        -24    2    1    2    0    0 -0.38619286006E+02 -0.12979418307E+02 -0.73628545111E+02  0.11628837339E+03  0.80261501234E+02 0.  0.
         23    2    1    2    0    0  0.22244752418E+02 -0.33099119311E+01  0.11713377269E+03  0.14888604908E+03  0.89112010296E+02 0.  0.
         13    1    3    3    0    0  0.22701703818E+02 -0.16714377474E+02 -0.18287292656E+02  0.33603018366E+02  0.00000000000E+00 0. -1.
        -14    1    3    3    0    0 -0.61320989824E+02  0.37349591662E+01 -0.55341252454E+02  0.82685355029E+02  0.00000000000E+00 0.  1.
        -11    1    4    4    0    0 -0.32842723005E+02 -0.88415616198E+01  0.62205297199E+02  0.70896520831E+02  0.00000000000E+00 0.  1.
         11    1    4    4    0    0  0.55087475423E+02  0.55316496887E+01  0.54928475488E+02  0.77989528247E+02  0.00000000000E+00 0. -1.
         21    1    1    2  502  501  0.16374533588E+02  0.16289330238E+02  0.83393158975E+01  0.24556298978E+02  0.00000000000E+00 0. -1.
<scales pt_clust_5="13000.00000" pt_clust_6="13000.00000" pt_clust_7="13000.00000" pt_clust_8="13000.00000" pt_clust_9="23.09692"></scales>
<clustering>
<clus scale="   23.097">  1  9  2 -1</clus>
<clus scale="   80.262">  5  6 -1 -1</clus>
<clus scale="   88.763">  2  5  1 -1</clus>
<clus scale="   89.112">  7  8 -1 -1</clus>
<clus scale="   23.097">  1  5  2 -1</clus>
</clustering>
</event>
<event>
 9    1  0.2374319E-005  0.1009171E+03  0.7546771E-02  0.1285846E+00
          3   -1    0    0  502    0  0.00000000000E+00  0.00000000000E+00  0.17224951692E+03  0.17224951692E+03  0.00000000000E+00 0. -1.
         -4   -1    0    0    0  501 -0.00000000000E+00 -0.00000000000E+00 -0.13160261704E+03  0.13160261704E+03  0.00000000000E+00 0.  1.
         23    2    1    2    0    0 -0.61717150668E+01 -0.49491935450E+02 -0.80853673423E+02  0.13143718661E+03  0.90834331486E+02 0.  0.
        -24    2    1    2    0    0 -0.61557378175E+00  0.28229823184E+02  0.44581494675E+02  0.92323191434E+02  0.75754604883E+02 0.  0.
         13    1    4    4    0    0  0.37792765245E+01 -0.25360826583E+02  0.22788790845E+02  0.34304277346E+02  0.00000000000E+00 0. -1.
        -14    1    4    4    0    0 -0.43948503063E+01  0.53590649767E+02  0.21792703829E+02  0.58018914087E+02  0.00000000000E+00 0.  1.
        -11    1    3    3    0    0  0.38566752318E+01  0.26231659100E+02 -0.27923850699E+02  0.38506042653E+02  0.00000000000E+00 0. -1.
         11    1    3    3    0    0 -0.10028390299E+02 -0.75723594550E+02 -0.52929822724E+02  0.92931143957E+02  0.00000000000E+00 0.  1.
         21    1    1    2  502  501  0.67872888485E+01  0.21262112266E+02  0.76919078626E+02  0.80091755909E+02  0.00000000000E+00 0.  1.
<scales pt_clust_5="13000.00000" pt_clust_6="13000.00000" pt_clust_7="13000.00000" pt_clust_8="13000.00000" pt_clust_9="22.31916"></scales>
<clustering>
<clus scale="   22.319">  1  9  2 -1</clus>
<clus scale="   75.755">  5  6 -1 -1</clus>
<clus scale="   87.591">  1  5  2 -1</clus>
<clus scale="   90.834">  7  8 -1 -1</clus>
<clus scale="   22.319">  1  5  2 -1</clus>
</clustering>
</event>
<event>
 9    1  0.2374319E-005  0.2016675E+03  0.7546771E-02  0.1149089E+00
         -2   -1    0    0    0  501 -0.00000000000E+00  0.00000000000E+00  0.12085446476E+03  0.12085446476E+03  0.00000000000E+00 0.  1.
          1   -1    0    0  502    0  0.00000000000E+00 -0.00000000000E+00 -0.69743960651E+03  0.69743960651E+03  0.00000000000E+00 0. -1.
        -24    2    1    2    0    0 -0.54295002029E+02 -0.17282514440E+03 -0.31786230803E+02  0.20159271223E+03  0.82539562469E+02 0.  0.
         23    2    1    2    0    0  0.12084260904E+03  0.14326740556E+03 -0.45993540943E+03  0.50487981454E+03  0.90744479861E+02 0.  0.
         13    1    3    3    0    0 -0.44765063510E+02 -0.84447402350E+02 -0.54258966091E+02  0.10990591465E+03  0.00000000000E+00 0. -1.
        -14    1    3    3    0    0 -0.95299385189E+01 -0.88377742050E+02  0.22472735288E+02  0.91686797574E+02  0.00000000000E+00 0.  1.
        -11    1    4    4    0    0  0.39542362527E+02  0.78118860303E+02 -0.31122470422E+03  0.32330631185E+03  0.00000000000E+00 0. -1.
         11    1    4    4    0    0  0.81300246518E+02  0.65148545254E+02 -0.14871070522E+03  0.18157350269E+03  0.00000000000E+00 0.  1.
         21    1    1    2  502  501 -0.66547607015E+02  0.29557738844E+02 -0.84863501517E+02  0.11182154450E+03  0.00000000000E+00 0.  1.
<scales pt_clust_5="13000.00000" pt_clust_6="13000.00000" pt_clust_7="13000.00000" pt_clust_8="13000.00000" pt_clust_9="72.81651"></scales>
<clustering>
<clus scale="   72.817">  2  9  1 -1</clus>
<clus scale="   82.540">  5  6 -1 -1</clus>
<clus scale="   90.744">  7  8 -1 -1</clus>
<clus scale="  198.111">  1  5  2 -1</clus>
<clus scale="   72.817">  2  5  1 -1</clus>
</clustering>
</event>
<event>
 9    1  0.2374319E-005  0.1416535E+03  0.7546771E-02  0.1213218E+00
          1   -1    0    0  502    0  0.00000000000E+00  0.00000000000E+00  0.12127537022E+03  0.12127537022E+03  0.00000000000E+00 0. -1.
         -2   -1    0    0    0  501 -0.00000000000E+00 -0.00000000000E+00 -0.21508631738E+03  0.21508631738E+03  0.00000000000E+00 0.  1.
        -24    2    1    2    0    0 -0.67933706970E+02  0.79446710266E+02 -0.88095072714E+02  0.15883262457E+03  0.80872074758E+02 0.  0.
         23    2    1    2    0    0  0.90529862773E+02 -0.74676553573E+02 -0.20924581547E+02  0.14987684028E+03  0.90845943396E+02 0.  0.
         13    1    3    3    0    0 -0.83789136323E+02  0.76275786356E+02 -0.64962440653E+02  0.13060908715E+03  0.00000000000E+00 0. -1.
        -14    1    3    3    0    0  0.15855429353E+02  0.31709239100E+01 -0.23132632061E+02  0.28223537420E+02  0.00000000000E+00 0.  1.
        -11    1    4    4    0    0  0.13212886235E+02 -0.68023108856E+02 -0.20534906316E+02  0.72273135248E+02  0.00000000000E+00 0. -1.
         11    1    4    4    0    0  0.77316976538E+02 -0.66534447165E+01 -0.38967523062E+00  0.77603705030E+02  0.00000000000E+00 0.  1.
         21    1    1    2  502  501 -0.22596155803E+02 -0.47701566935E+01  0.15208707098E+02  0.27652222760E+02  0.00000000000E+00 0. -1.
<scales pt_clust_5="13000.00000" pt_clust_6="13000.00000" pt_clust_7="13000.00000" pt_clust_8="13000.00000" pt_clust_9="23.09417"></scales>
<clustering>
<clus scale="   23.094">  1  9  2 -1</clus>
<clus scale="   80.872">  5  6 -1 -1</clus>
<clus scale="   90.846">  7  8 -1 -1</clus>
<clus scale="  135.473">  2  5  1 -1</clus>
<clus scale="   23.094">  1  5  2 -1</clus>
</clustering>
</event>
<event>
 9    1  0.2374319E-005  0.9892082E+02  0.7546771E-02  0.1288538E+00
         -2   -1    0    0    0  501 -0.00000000000E+00  0.00000000000E+00  0.15198221756E+03  0.15198221756E+03  0.00000000000E+00 0.  1.
          1   -1    0    0  502    0  0.00000000000E+00 -0.00000000000E+00 -0.79793496652E+02  0.79793496652E+02  0.00000000000E+00 0. -1.
         23    2    1    2    0    0 -0.22592703127E+02 -0.27837556365E+02  0.45678715210E+02  0.10847105684E+03  0.91619132113E+02 0.  0.
        -24    2    1    2    0    0  0.41521984622E+02  0.71352131274E+01  0.10910502926E+02  0.91207162145E+02  0.80154356582E+02 0.  0.
         13    1    4    4    0    0  0.63937621470E+01  0.40135423819E+02 -0.37892902105E+01  0.40817779948E+02  0.00000000000E+00 0. -1.
        -14    1    4    4    0    0  0.35128222475E+02 -0.33000210692E+02  0.14699793137E+02  0.50389382197E+02  0.00000000000E+00 0.  1.
        -11    1    3    3    0    0  0.23694763313E+02 -0.38657456095E+02  0.44715138021E+01  0.45561334000E+02  0.00000000000E+00 0.  1.
         11    1    3    3    0    0 -0.46287466440E+02  0.10819899730E+02  0.41207201408E+02  0.62909722837E+02  0.00000000000E+00 0. -1.
         21    1    1    2  502  501 -0.18929281495E+02  0.20702343238E+02  0.15599502775E+02  0.32097495233E+02  0.00000000000E+00 0. -1.
<scales pt_clust_5="13000.00000" pt_clust_6="13000.00000" pt_clust_7="13000.00000" pt_clust_8="13000.00000" pt_clust_9="28.05182"></scales>
<clustering>
<clus scale="   28.052">  1  9  2 -1</clus>
<clus scale="   80.154">  5  6 -1 -1</clus>
<clus scale="   88.408">  2  5  1 -1</clus>
<clus scale="   91.619">  7  8 -1 -1</clus>
<clus scale="   88.408">  2  5  1 -1</clus>
</clustering>
</event>
<event>
 9    1  0.2374319E-005  0.1817995E+03  0.7546771E-02  0.1195587E+00
         -2   -1    0    0    0  501 -0.00000000000E+00  0.00000000000E+00  0.76837559062E+02  0.76837559062E+02  0.00000000000E+00 0.  1.
          1   -1    0    0  502    0  0.00000000000E+00 -0.00000000000E+00 -0.90800683605E+03  0.90800683605E+03  0.00000000000E+00 0. -1.
         23    2    1    2    0    0 -0.36125105612E+01  0.22440697914E+02 -0.39829884562E+01  0.93803951986E+02  0.90921295941E+02 0.  0.
        -24    2    1    2    0    0  0.13112805320E+03  0.59983838285E+02 -0.47092624366E+03  0.50377407826E+03  0.10594417291E+03 0.  0.
         11    1    4    4    0    0  0.47535594471E+02 -0.28433186544E+02 -0.18283760433E+03  0.19104362956E+03  0.00000000000E+00 0. -1.
        -12    1    4    4    0    0  0.83592458727E+02  0.88417024829E+02 -0.28808863933E+03  0.31273044870E+03  0.00000000000E+00 0.  1.
        -13    1    3    3    0    0  0.37413898762E+02 -0.58781313099E+01  0.14617512150E+02  0.40595860746E+02  0.00000000000E+00 0. -1.
         13    1    3    3    0    0 -0.41026409323E+02  0.28318829224E+02 -0.18600500606E+02  0.53208091240E+02  0.00000000000E+00 0.  1.
         21    1    1    2  502  501 -0.12751554264E+03 -0.82424536199E+02 -0.35626004488E+03  0.38726636487E+03  0.00000000000E+00 0.  1.
<scales pt_clust_5="13000.00000" pt_clust_6="13000.00000" pt_clust_7="13000.00000" pt_clust_8="13000.00000" pt_clust_9="147.73923"></scales>
<clustering>
<clus scale="   90.921">  7  8 -1 -1</clus>
<clus scale="   93.719">  1  7  2 -1</clus>
<clus scale="  105.944">  5  6 -1 -1</clus>
<clus scale="  147.739">  1  9  2 -1</clus>
<clus scale="  181.799">  2  5  1 -1</clus>
</clustering>
</event>
<event>
 9    1  0.2374319E-005  0.1079637E+03  0.7546771E-02  0.1267863E+00
         -2   -1    0    0    0  501 -0.00000000000E+00  0.00000000000E+00  0.15385940015E+03  0.15385940015E+03  0.00000000000E+00 0.  1.
          1   -1    0    0  502    0  0.00000000000E+00 -0.00000000000E+00 -0.18097488167E+03  0.18097488167E+03  0.00000000000E+00 0. -1.
        -24    2    1    2    0    0  0.39998119982E+02  0.43839987031E+02  0.97740356094E+02  0.14058413957E+03  0.81785873003E+02 0.  0.
         23    2    1    2    0    0 -0.15528839590E+02 -0.62378686353E+02 -0.69253402733E+02  0.13073589330E+03  0.90352612790E+02 0.  0.
         13    1    3    3    0    0  0.28486986173E+02  0.29386246876E+01 -0.53021024767E+01  0.29124837973E+02  0.00000000000E+00 0. -1.
        -14    1    3    3    0    0  0.11511133809E+02  0.40901362344E+02  0.10304245857E+03  0.11145930159E+03  0.00000000000E+00 0.  1.
        -11    1    4    4    0    0  0.28912257133E+02 -0.46657845855E+02 -0.11316152836E+02  0.56043987254E+02  0.00000000000E+00 0.  1.
         11    1    4    4    0    0 -0.44441096723E+02 -0.15720840497E+02 -0.57937249896E+02  0.74691906050E+02  0.00000000000E+00 0. -1.
         21    1    1    2  502  501 -0.24469280392E+02  0.18538699321E+02 -0.55602434884E+02  0.63514248956E+02  0.00000000000E+00 0. -1.
<scales pt_clust_5="13000.00000" pt_clust_6="13000.00000" pt_clust_7="13000.00000" pt_clust_8="13000.00000" pt_clust_9="30.69901"></scales>
<clustering>
<clus scale="   30.699">  2  9  1 -1</clus>
<clus scale="   81.786">  5  6 -1 -1</clus>
<clus scale="   90.353">  7  8 -1 -1</clus>
<clus scale="  100.903">  1  5  2 -1</clus>
<clus scale="   30.699">  2  5  1 -1</clus>
</clustering>
</event>
<event>
 9    1  0.4885273E-005  0.1167280E+03  0.7546771E-02  0.1252350E+00
          1   -1    0    0  502    0  0.00000000000E+00  0.00000000000E+00  0.19080647333E+03  0.19080647333E+03  0.00000000000E+00 0. -1.
         -2   -1    0    0    0  501 -0.00000000000E+00 -0.00000000000E+00 -0.99691266141E+03  0.99691266141E+03  0.00000000000E+00 0.  1.
        -24    2    1    2    0    0 -0.56378784769E+02  0.44685138057E+02 -0.94805004939E+03  0.95419386648E+03  0.80695165575E+02 0.  0.
         23    2    1    2    0    0  0.62164199493E+02 -0.65348508515E+02  0.16013506543E+03  0.20539404345E+03  0.91698738482E+02 0.  0.
         13    1    3    3    0    0 -0.41725331977E+02  0.10686711526E+02 -0.17374590056E+03  0.17900515941E+03  0.00000000000E+00 0. -1.
        -14    1    3    3    0    0 -0.14653452792E+02  0.33998426531E+02 -0.77430414882E+03  0.77518870707E+03  0.00000000000E+00 0.  1.
        -13    1    4    4    0    0  0.47465145545E+02 -0.81430100988E+02  0.84169025482E+02  0.12636544717E+03  0.00000000000E+00 0.  1.
         13    1    4    4    0    0  0.14699053947E+02  0.16081592474E+02  0.75966039952E+02  0.79028596277E+02  0.00000000000E+00 0. -1.
         21    1    1    2  502  501 -0.57854147235E+01  0.20663370457E+02 -0.18191204119E+02  0.28131224813E+02  0.00000000000E+00 0.  1.
<scales pt_clust_5="13000.00000" pt_clust_6="13000.00000" pt_clust_7="13000.00000" pt_clust_8="13000.00000" pt_clust_9="21.45800"></scales>
<clustering>
<clus scale="   21.458">  1  9  2 -1</clus>
<clus scale="   80.695">  5  6 -1 -1</clus>
<clus scale="   91.699">  7  8 -1 -1</clus>
<clus scale="  108.298">  2  5  1 -1</clus>
<clus scale="   21.458">  1  5  2 -1</clus>
</clustering>
</event>
<event>
 9    1  0.2374319E-005  0.1892259E+03  0.7546771E-02  0.1160330E+00
         -2   -1    0    0    0  501 -0.00000000000E+00  0.00000000000E+00  0.12259168282E+03  0.12259168282E+03  0.00000000000E+00 0.  1.
          1   -1    0    0  502    0  0.00000000000E+00 -0.00000000000E+00 -0.78784563448E+03  0.78784563448E+03  0.00000000000E+00 0. -1.
        -24    2    1    2    0    0  0.62806651630E+02 -0.17138674361E+03  0.55464010381E+01  0.19948209173E+03  0.80276092223E+02 0.  0.
         23    2    1    2    0    0 -0.68745501152E+02  0.71838837667E+02 -0.41465085399E+03  0.43607775978E+03  0.91333013423E+02 0.  0.
         13    1    3    3    0    0 -0.16273821470E+02 -0.18296166378E+02 -0.10049735460E+02  0.26468550247E+02  0.00000000000E+00 0. -1.
        -14    1    3    3    0    0  0.79080473100E+02 -0.15309057723E+03  0.15596136498E+02  0.17301354148E+03  0.00000000000E+00 0.  1.
        -13    1    4    4    0    0 -0.26948190293E+02 -0.19827590158E+02 -0.12529652371E+03  0.12968637995E+03  0.00000000000E+00 0.  1.
         13    1    4    4    0    0 -0.41797310859E+02  0.91666427825E+02 -0.28935433028E+03  0.30639137983E+03  0.00000000000E+00 0. -1.
         21    1    1    2  502  501  0.59388495222E+01  0.99547905938E+02 -0.25614949871E+03  0.27487746580E+03  0.00000000000E+00 0. -1.
<scales pt_clust_5="13000.00000" pt_clust_6="13000.00000" pt_clust_7="13000.00000" pt_clust_8="13000.00000" pt_clust_9="99.72490"></scales>
<clustering>
<clus scale="   80.276">  5  6 -1 -1</clus>
<clus scale="   91.333">  7  8 -1 -1</clus>
<clus scale="   99.725">  2  9  1 -1</clus>
<clus scale="  184.144">  1  5  2 -1</clus>
<clus scale="   99.725">  2  5  1 -1</clus>
</clustering>
</event>
<event>
 9    1  0.2374319E-005  0.1063684E+03  0.7546771E-02  0.1270655E+00
         -2   -1    0    0    0  501 -0.00000000000E+00  0.00000000000E+00  0.10351160881E+03  0.10351160881E+03  0.00000000000E+00 0.  1.
          1   -1    0    0  502    0  0.00000000000E+00 -0.00000000000E+00 -0.13911466745E+03  0.13911466745E+03  0.00000000000E+00 0. -1.
        -24    2    1    2    0    0 -0.37364562801E+02  0.41687775904E+02  0.23981701620E+01  0.98561882669E+02  0.81084599537E+02 0.  0.
         23    2    1    2    0    0  0.60501962340E+02 -0.25423547507E+02 -0.27039891829E+02  0.11373263975E+03  0.88865704177E+02 0.  0.
         11    1    3    3    0    0 -0.22360837875E+02 -0.62202387858E+01 -0.30658690536E+02  0.38453267044E+02  0.00000000000E+00 0. -1.
        -12    1    3    3    0    0 -0.15003724926E+02  0.47908014690E+02  0.33056860698E+02  0.60108615625E+02  0.00000000000E+00 0.  1.
        -11    1    4    4    0    0  0.18417157387E+02 -0.26874108296E+02 -0.54475153019E+02  0.63474023658E+02  0.00000000000E+00 0.  1.
         11    1    4    4    0    0  0.42084804954E+02  0.14505607885E+01  0.27435261190E+02  0.50258616089E+02  0.00000000000E+00 0. -1.
         21    1    1    2  502  501 -0.23137399539E+02 -0.16264228397E+02 -0.10961336983E+02  0.30331753844E+02  0.00000000000E+00 0.  1.
<scales pt_clust_5="13000.00000" pt_clust_6="13000.00000" pt_clust_7="13000.00000" pt_clust_8="13000.00000" pt_clust_9="28.28187"></scales>
<clustering>
<clus scale="   28.282">  2  9  1 -1</clus>
<clus scale="   81.085">  5  6 -1 -1</clus>
<clus scale="   88.866">  7  8 -1 -1</clus>
<clus scale="   99.959">  1  5  2 -1</clus>
<clus scale="   28.282">  2  5  1 -1</clus>
</clustering>
</event>
<event>
 9    1  0.2374319E-005  0.1061308E+03  0.7546771E-02  0.1271922E+00
         -2   -1    0    0    0  501 -0.00000000000E+00  0.00000000000E+00  0.10146471887E+03  0.10146471887E+03  0.00000000000E+00 0.  1.
          1   -1    0    0  502    0  0.00000000000E+00 -0.00000000000E+00 -0.38512913385E+03  0.38512913385E+03  0.00000000000E+00 0. -1.
         23    2    1    2    0    0  0.45878911629E+02  0.34106623400E+02  0.50243371050E+02  0.11800108746E+03  0.90176072297E+02 0.  0.
        -24    2    1    2    0    0 -0.58783868064E+02  0.56815566074E+01 -0.29491888981E+03  0.31141085205E+03  0.80695377685E+02 0.  0.
         13    1    4    4    0    0 -0.70312963429E+02  0.18487303450E+02 -0.27766889198E+03  0.28702910443E+03  0.00000000000E+00 0. -1.
        -14    1    4    4    0    0  0.11529095366E+02 -0.12805746843E+02 -0.17249997831E+02  0.24381747626E+02  0.00000000000E+00 0.  1.
        -11    1    3    3    0    0  0.37121546556E+02  0.11263150914E+02  0.74219837843E+02  0.83746355841E+02  0.00000000000E+00 0.  1.
         11    1    3    3    0    0  0.87573650732E+01  0.22843472485E+02 -0.23976466794E+02  0.34254731617E+02  0.00000000000E+00 0. -1.
         21    1    1    2  502  501  0.12904956435E+02 -0.39788180007E+02 -0.38988896222E+02  0.57181913202E+02  0.00000000000E+00 0.  1.
<scales pt_clust_5="13000.00000" pt_clust_6="13000.00000" pt_clust_7="13000.00000" pt_clust_8="13000.00000" pt_clust_9="41.82866"></scales>
<clustering>
<clus scale="   41.829">  2  9  1 -1</clus>
<clus scale="   80.695">  5  6 -1 -1</clus>
<clus scale="   90.176">  7  8 -1 -1</clus>
<clus scale="   98.203">  2  5  1 -1</clus>
<clus scale="   41.829">  2  5  1 -1</clus>
</clustering>
</event>
<event>
 9    1  0.2374319E-005  0.9749908E+02  0.7546771E-02  0.1291059E+00
          1   -1    0    0  502    0  0.00000000000E+00  0.00000000000E+00  0.70638696889E+03  0.70638696889E+03  0.00000000000E+00 0. -1.
         -2   -1    0    0    0  501 -0.00000000000E+00 -0.00000000000E+00 -0.68737780109E+02  0.68737780109E+02  0.00000000000E+00 0.  1.
         23    2    1    2    0    0 -0.36016251049E+02  0.96131849099E+01 -0.27031826831E+02  0.10170786122E+03  0.90687296285E+02 0.  0.
        -24    2    1    2    0    0  0.19184841275E+02  0.80896404817E+01  0.48268405524E+03  0.48978796858E+03  0.80466493446E+02 0.  0.
         13    1    4    4    0    0  0.26045499121E+02 -0.32447534879E+02  0.21892156925E+03  0.22284044522E+03  0.00000000000E+00 0. -1.
        -14    1    4    4    0    0 -0.68606578464E+01  0.40537175361E+02  0.26376248599E+03  0.26694752336E+03  0.00000000000E+00 0.  1.
        -13    1    3    3    0    0 -0.39249532294E+02 -0.17440456944E+02  0.19981157880E+02  0.47370264870E+02  0.00000000000E+00 0.  1.
         13    1    3    3    0    0  0.32332812452E+01  0.27053641854E+02 -0.47012984711E+02  0.54337596345E+02  0.00000000000E+00 0. -1.
         21    1    1    2  502  501  0.16831409774E+02 -0.17702825392E+02  0.18199696037E+03  0.18362891920E+03  0.00000000000E+00 0.  1.
<scales pt_clust_5="13000.00000" pt_clust_6="13000.00000" pt_clust_7="13000.00000" pt_clust_8="13000.00000" pt_clust_9="24.42716"></scales>
<clustering>
<clus scale="   24.427">  1  9  2 -1</clus>
<clus scale="   80.466">  5  6 -1 -1</clus>
<clus scale="   88.072">  1  5  2 -1</clus>
<clus scale="   90.687">  7  8 -1 -1</clus>
<clus scale="   24.427">  1  5  2 -1</clus>
</clustering>
</event>
<event>
 9    1  0.2374319E-005  0.1039954E+03  0.7546771E-02  0.1276006E+00
          1   -1    0    0  502    0  0.00000000000E+00  0.00000000000E+00  0.18215727378E+03  0.18215727378E+03  0.00000000000E+00 0. -1.
         -2   -1    0    0    0  501 -0.00000000000E+00 -0.00000000000E+00 -0.99527883766E+02  0.99527883766E+02  0.00000000000E+00 0.  1.
        -24    2    1    2    0    0 -0.47620348065E+02 -0.30665560472E+02 -0.33864675867E+02  0.10604303059E+03  0.83007432894E+02 0.  0.
         23    2    1    2    0    0  0.15412785234E+02  0.28601643976E+02  0.73410735994E+02  0.12181127921E+03  0.91614647289E+02 0.  0.
         13    1    3    3    0    0 -0.37679609574E+02 -0.55559972083E+02 -0.60338349047E+01  0.67402304405E+02  0.00000000000E+00 0. -1.
        -14    1    3    3    0    0 -0.99407384904E+01  0.24894411610E+02 -0.27830840962E+02  0.38640726181E+02  0.00000000000E+00 0.  1.
        -11    1    4    4    0    0 -0.32448050707E+02  0.36148133799E+02  0.33070418165E+02  0.58764071757E+02  0.00000000000E+00 0.  1.
         11    1    4    4    0    0  0.47860835941E+02 -0.75464898230E+01  0.40340317828E+02  0.63047207457E+02  0.00000000000E+00 0. -1.
         21    1    1    2  502  501  0.32207562831E+02  0.20639164958E+01  0.43083329890E+02  0.53830847748E+02  0.00000000000E+00 0. -1.
<scales pt_clust_5="13000.00000" pt_clust_6="13000.00000" pt_clust_7="13000.00000" pt_clust_8="13000.00000" pt_clust_9="32.27362"></scales>
<clustering>
<clus scale="   32.274">  1  9  2 -1</clus>
<clus scale="   83.007">  5  6 -1 -1</clus>
<clus scale="   91.615">  7  8 -1 -1</clus>
<clus scale="   96.499">  2  5  1 -1</clus>
<clus scale="   32.274">  1  5  2 -1</clus>
</clustering>
</event>
<event>
 9    1  0.2374319E-005  0.1234523E+03  0.7546771E-02  0.1240349E+00
         -2   -1    0    0    0  501 -0.00000000000E+00  0.00000000000E+00  0.63940311747E+02  0.63940311747E+02  0.00000000000E+00 0.  1.
          1   -1    0    0  502    0  0.00000000000E+00 -0.00000000000E+00 -0.54732583918E+03  0.54732583918E+03  0.00000000000E+00 0. -1.
         23    2    1    2    0    0 -0.76861826584E+02  0.21291240481E+02 -0.21457947526E+02  0.12342074633E+03  0.91712484460E+02 0.  0.
        -24    2    1    2    0    0  0.10001154147E+03 -0.88263844589E+01 -0.40178453180E+03  0.42220648192E+03  0.82141888746E+02 0.  0.
         11    1    4    4    0    0  0.10562530983E+03  0.41055791374E+01 -0.38923238585E+03  0.40333040061E+03  0.00000000000E+00 0. -1.
        -12    1    4    4    0    0 -0.56137683599E+01 -0.12931963596E+02 -0.12552145947E+02  0.18876081308E+02  0.00000000000E+00 0.  1.
        -13    1    3    3    0    0 -0.47627451306E+02  0.39534451832E+02 -0.49289807757E+02  0.79125420367E+02  0.00000000000E+00 0. -1.
         13    1    3    3    0    0 -0.29234375278E+02 -0.18243211351E+02  0.27831860231E+02  0.44295325963E+02  0.00000000000E+00 0.  1.
         21    1    1    2  502  501 -0.23149714889E+02 -0.12464856022E+02 -0.60143048105E+02  0.65638922679E+02  0.00000000000E+00 0.  1.
<scales pt_clust_5="13000.00000" pt_clust_6="13000.00000" pt_clust_7="13000.00000" pt_clust_8="13000.00000" pt_clust_9="26.29224"></scales>
<clustering>
<clus scale="   26.292">  2  9  1 -1</clus>
<clus scale="   82.142">  5  6 -1 -1</clus>
<clus scale="   91.712">  7  8 -1 -1</clus>
<clus scale="  116.519">  2  5  1 -1</clus>
<clus scale="   26.292">  2  5  1 -1</clus>
</clustering>
</event>
<event>
 9    1  0.2374319E-005  0.1118795E+03  0.7546771E-02  0.1260131E+00
         -4   -1    0    0    0  501 -0.00000000000E+00  0.00000000000E+00  0.28405815630E+03  0.28405815630E+03  0.00000000000E+00 0.  1.
          3   -1    0    0  502    0  0.00000000000E+00 -0.00000000000E+00 -0.82016676947E+02  0.82016676947E+02  0.00000000000E+00 0. -1.
        -24    2    1    2    0    0 -0.28493690465E+02 -0.39698911023E+02  0.73264515445E+02  0.11856588600E+03  0.79386939519E+02 0.  0.
         23    2    1    2    0    0  0.84892825515E+02  0.45966933663E+02  0.13813146360E+03  0.18999671197E+03  0.87742227632E+02 0.  0.
         11    1    3    3    0    0 -0.35729884567E+02 -0.15101096015E+02 -0.22120897665E+01  0.38853070575E+02  0.00000000000E+00 0. -1.
        -12    1    3    3    0    0  0.72361941018E+01 -0.24597815009E+02  0.75476605212E+02  0.79712815422E+02  0.00000000000E+00 0.  1.
        -13    1    4    4    0    0  0.73834957504E+01  0.33129360534E+02  0.93877528995E+02  0.99825152086E+02  0.00000000000E+00 0.  1.
         13    1    4    4    0    0  0.77509329764E+02  0.12837573129E+02  0.44253934607E+02  0.90171559888E+02  0.00000000000E+00 0. -1.
         21    1    1    2  502  501 -0.56399135050E+02 -0.62680226397E+01 -0.93544996917E+01  0.57512235278E+02  0.00000000000E+00 0. -1.
<scales pt_clust_5="13000.00000" pt_clust_6="13000.00000" pt_clust_7="13000.00000" pt_clust_8="13000.00000" pt_clust_9="56.74637"></scales>
<clustering>
<clus scale="   56.746">  2  9  1 -1</clus>
<clus scale="   79.387">  5  6 -1 -1</clus>
<clus scale="   87.742">  7  8 -1 -1</clus>
<clus scale="  105.454">  1  5  2 -1</clus>
<clus scale="   56.746">  2  5  1 -1</clus>
</clustering>
</event>
<event>
 9    1  0.2374319E-005  0.1914814E+03  0.7546771E-02  0.1158875E+00
          1   -1    0    0  502    0  0.00000000000E+00  0.00000000000E+00  0.40560795957E+03  0.40560795957E+03  0.00000000000E+00 0. -1.
         -2   -1    0    0    0  501 -0.00000000000E+00 -0.00000000000E+00 -0.50099614803E+03  0.50099614803E+03  0.00000000000E+00 0.  1.
         23    2    1    2    0    0  0.15272156016E+03  0.42615957321E+02 -0.31825298855E+03  0.36753563237E+03  0.93045588707E+02 0.  0.
        -24    2    1    2    0    0 -0.76559817953E+01 -0.18024068776E+03  0.26878661286E+03  0.33390171052E+03  0.81846132775E+02 0.  0.
         11    1    4    4    0    0 -0.75624736591E+01 -0.18719507731E+03  0.26787286963E+03  0.32688692581E+03  0.00000000000E+00 0. -1.
        -12    1    4    4    0    0 -0.93508136222E-01  0.69543895532E+01  0.91374322938E+00  0.70147847093E+01  0.00000000000E+00 0.  1.
        -13    1    3    3    0    0  0.11778919586E+03  0.70198345323E+02 -0.21377746214E+03  0.25397422244E+03  0.00000000000E+00 0.  1.
         13    1    3    3    0    0  0.34932364305E+02 -0.27582388002E+02 -0.10447552642E+03  0.11356140992E+03  0.00000000000E+00 0. -1.
         21    1    1    2  502  501 -0.14506557837E+03  0.13762473044E+03 -0.45921812773E+02  0.20516676472E+03  0.00000000000E+00 0.  1.
<scales pt_clust_5="13000.00000" pt_clust_6="13000.00000" pt_clust_7="13000.00000" pt_clust_8="13000.00000" pt_clust_9="173.10789"></scales>
<clustering>
<clus scale="   81.846">  5  6 -1 -1</clus>
<clus scale="   93.046">  7  8 -1 -1</clus>
<clus scale="  183.841">  2  7  1 -1</clus>
<clus scale="  173.108">  2  9  1 -1</clus>
<clus scale="  191.481">  1  5  2 -1</clus>
</clustering>
</event>
<event>
 9    1  0.2374319E-005  0.9978008E+02  0.7546771E-02  0.1286523E+00
         -2   -1    0    0    0  501 -0.00000000000E+00  0.00000000000E+00  0.11855376812E+03  0.11855376812E+03  0.00000000000E+00 0.  1.
          1   -1    0    0  502    0  0.00000000000E+00 -0.00000000000E+00 -0.23788784481E+03  0.23788784481E+03  0.00000000000E+00 0. -1.
        -24    2    1    2    0    0 -0.41374352539E+02 -0.75941763806E+01  0.38052937957E+02  0.97567142213E+02  0.79383956752E+02 0.  0.
         23    2    1    2    0    0  0.27618156954E+02  0.40554566708E+02 -0.61005223481E+01  0.10342922956E+03  0.90845768636E+02 0.  0.
         11    1    3    3    0    0 -0.41061288441E+02  0.17335018332E+02 -0.79204468827E+01  0.45268816506E+02  0.00000000000E+00 0. -1.
        -12    1    3    3    0    0 -0.31306409775E+00 -0.24929194713E+02  0.45973384840E+02  0.52298325707E+02  0.00000000000E+00 0.  1.
        -11    1    4    4    0    0  0.51610192102E+02  0.85975271821E+01  0.19650624174E+02  0.55889859839E+02  0.00000000000E+00 0.  1.
         11    1    4    4    0    0 -0.23992035148E+02  0.31957039525E+02 -0.25751146522E+02  0.47539369716E+02  0.00000000000E+00 0. -1.
         21    1    1    2  502  501  0.13756195585E+02 -0.32960390327E+02 -0.15128649230E+03  0.15544524116E+03  0.00000000000E+00 0. -1.
<scales pt_clust_5="13000.00000" pt_clust_6="13000.00000" pt_clust_7="13000.00000" pt_clust_8="13000.00000" pt_clust_9="35.71583"></scales>
<clustering>
<clus scale="   35.716">  2  9  1 -1</clus>
<clus scale="   79.384">  5  6 -1 -1</clus>
<clus scale="   89.470">  1  5  2 -1</clus>
<clus scale="   90.846">  7  8 -1 -1</clus>
<clus scale="   35.716">  2  5  1 -1</clus>
</clustering>
</event>
<event>
 9    1  0.2374319E-005  0.1226753E+03  0.7546771E-02  0.1242142E+00
         -2   -1    0    0    0  501 -0.00000000000E+00  0.00000000000E+00  0.14498318501E+03  0.14498318501E+03  0.00000000000E+00 0.  1.
          1   -1    0    0  502    0  0.00000000000E+00 -0.00000000000E+00 -0.46093403895E+03  0.46093403895E+03  0.00000000000E+00 0. -1.
        -24    2    1    2    0    0  0.13959934356E+02 -0.89326283897E+02  0.97745776421E+02  0.15628365225E+03  0.81830791212E+02 0.  0.
         23    2    1    2    0    0  0.67743492311E+01  0.13679854716E+02 -0.18025419899E+03  0.20336611237E+03  0.92914849051E+02 0.  0.
         13    1    3    3    0    0 -0.34319131865E+02 -0.43145208714E+02  0.44836224931E+02  0.71060529923E+02  0.00000000000E+00 0. -1.
        -14    1    3    3    0    0  0.48279066221E+02 -0.46181075184E+02  0.52909551489E+02  0.85223122326E+02  0.00000000000E+00 0.  1.
        -11    1    4    4    0    0  0.46929641992E+02 -0.64219261029E+01 -0.11268738293E+03  0.12223779573E+03  0.00000000000E+00 0. -1.
         11    1    4    4    0    0 -0.40155292761E+02  0.20101780819E+02 -0.67566816055E+02  0.81128316639E+02  0.00000000000E+00 0.  1.
         21    1    1    2  502  501 -0.20734283587E+02  0.75646429182E+02 -0.23344243137E+03  0.24626745934E+03  0.00000000000E+00 0. -1.
<scales pt_clust_5="13000.00000" pt_clust_6="13000.00000" pt_clust_7="13000.00000" pt_clust_8="13000.00000" pt_clust_9="78.43655"></scales>
<clustering>
<clus scale="   78.437">  2  9  1 -1</clus>
<clus scale="   81.831">  5  6 -1 -1</clus>
<clus scale="   92.915">  7  8 -1 -1</clus>
<clus scale="  114.509">  1  5  2 -1</clus>
<clus scale="   78.437">  2  5  1 -1</clus>
</clustering>
</event>
<event>
 9    1  0.2374319E-005  0.1270556E+03  0.7546771E-02  0.1234805E+00
         -2   -1    0    0    0  501 -0.00000000000E+00  0.00000000000E+00  0.11955577453E+03  0.11955577453E+03  0.00000000000E+00 0.  1.
          1   -1    0    0  502    0  0.00000000000E+00 -0.00000000000E+00 -0.26285940129E+03  0.26285940129E+03  0.00000000000E+00 0. -1.
        -24    2    1    2    0    0  0.98633182049E+02 -0.17595529731E+02  0.33629491434E+02  0.13418138618E+03  0.82677653784E+02 0.  0.
         23    2    1    2    0    0 -0.58878603386E+02  0.14524286250E+02 -0.63350764050E+02  0.12785600833E+03  0.93038673317E+02 0.  0.
         11    1    3    3    0    0  0.96443393728E+02 -0.23663642514E+02  0.53844127487E+02  0.11296232219E+03  0.00000000000E+00 0. -1.
        -12    1    3    3    0    0  0.21897883206E+01  0.60681127831E+01 -0.20214636052E+02  0.21219063984E+02  0.00000000000E+00 0.  1.
        -13    1    4    4    0    0  0.18463490464E+02 -0.14232186403E+02  0.81842398754E+00  0.23326496259E+02  0.00000000000E+00 0. -1.
         13    1    4    4    0    0 -0.77342093849E+02  0.28756472652E+02 -0.64169188038E+02  0.10452951207E+03  0.00000000000E+00 0.  1.
         21    1    1    2  502  501 -0.39754578663E+02  0.30712434813E+01 -0.11358235414E+03  0.12037778131E+03  0.00000000000E+00 0.  1.
<scales pt_clust_5="13000.00000" pt_clust_6="13000.00000" pt_clust_7="13000.00000" pt_clust_8="13000.00000" pt_clust_9="39.87304"></scales>
<clustering>
<clus scale="   39.873">  2  9  1 -1</clus>
<clus scale="   82.678">  5  6 -1 -1</clus>
<clus scale="   93.039">  7  8 -1 -1</clus>
<clus scale="  119.677">  1  5  2 -1</clus>
<clus scale="   39.873">  2  5  1 -1</clus>
</clustering>
</event>
<event>
 9    1  0.2374319E-005  0.2157011E+03  0.7546771E-02  0.1137597E+00
         -2   -1    0    0    0  501 -0.00000000000E+00  0.00000000000E+00  0.39827205001E+03  0.39827205001E+03  0.00000000000E+00 0.  1.
          1   -1    0    0  502    0  0.00000000000E+00 -0.00000000000E+00 -0.26809937917E+03  0.26809937917E+03  0.00000000000E+00 0. -1.
        -24    2    1    2    0    0  0.53213235465E+02  0.20593634639E+03  0.28145674185E+03  0.36175085356E+03  0.80027216153E+02 0.  0.
         23    2    1    2    0    0 -0.67610769274E+02 -0.18334965161E+03 -0.16909821790E+03  0.27245239895E+03  0.86300588240E+02 0.  0.
         11    1    3    3    0    0 -0.20673256613E+02  0.31807503266E+02  0.52303898634E+02  0.64612681536E+02  0.00000000000E+00 0. -1.
        -12    1    3    3    0    0  0.73886492078E+02  0.17412884312E+03  0.22915284322E+03  0.29713817203E+03  0.00000000000E+00 0.  1.
        -11    1    4    4    0    0 -0.36744571418E+02 -0.21734043994E+02 -0.10589178423E+02  0.43984803019E+02  0.00000000000E+00 0.  1.
         11    1    4    4    0    0 -0.30866197857E+02 -0.16161560761E+03 -0.15850903948E+03  0.22846759593E+03  0.00000000000E+00 0. -1.
         21    1    1    2  502  501  0.14397533810E+02 -0.22586694781E+02  0.17814146891E+02  0.32168176672E+02  0.00000000000E+00 0. -1.
<scales pt_clust_5="13000.00000" pt_clust_6="13000.00000" pt_clust_7="13000.00000" pt_clust_8="13000.00000" pt_clust_9="26.78522"></scales>
<clustering>
<clus scale="   26.785">  1  9  2 -1</clus>
<clus scale="   80.027">  5  6 -1 -1</clus>
<clus scale="   86.301">  7  8 -1 -1</clus>
<clus scale="  213.269">  1  5  2 -1</clus>
<clus scale="  215.701">  2  5  1 -1</clus>
</clustering>
</event>
<event>
 9    1  0.2374319E-005  0.1577285E+03  0.7546771E-02  0.1192485E+00
         -2   -1    0    0    0  501 -0.00000000000E+00  0.00000000000E+00  0.50790441947E+03  0.50790441947E+03  0.00000000000E+00 0.  1.
          1   -1    0    0  502    0  0.00000000000E+00 -0.00000000000E+00 -0.86678205429E+02  0.86678205429E+02  0.00000000000E+00 0. -1.
        -24    2    1    2    0    0  0.11652525340E+03 -0.56794097644E+02  0.38076081572E+03  0.41138427670E+03  0.86339562920E+02 0.  0.
         23    2    1    2    0    0 -0.95050124394E+02  0.71835072439E+02  0.41336227003E+02  0.15696534549E+03  0.93459254455E+02 0.  0.
         13    1    3    3    0    0  0.30680940942E+02 -0.11111327387E+02  0.21216897093E+02  0.38922210313E+02  0.00000000000E+00 0. -1.
        -14    1    3    3    0    0  0.85844312457E+02 -0.45682770257E+02  0.35954391862E+03  0.37246206639E+03  0.00000000000E+00 0.  1.
        -13    1    4    4    0    0 -0.37341461428E+02  0.58493206493E+02  0.63166653961E+02  0.93839576513E+02  0.00000000000E+00 0.  1.
         13    1    4    4    0    0 -0.57708662965E+02  0.13341865946E+02 -0.21830426958E+02  0.63125768980E+02  0.00000000000E+00 0. -1.
         21    1    1    2  502  501 -0.21475129005E+02 -0.15040974794E+02 -0.87082867449E+00  0.26233002709E+02  0.00000000000E+00 0. -1.
<scales pt_clust_5="13000.00000" pt_clust_6="13000.00000" pt_clust_7="13000.00000" pt_clust_8="13000.00000" pt_clust_9="26.21854"></scales>
<clustering>
<clus scale="   26.219">  2  9  1 -1</clus>
<clus scale="   86.340">  5  6 -1 -1</clus>
<clus scale="   93.459">  7  8 -1 -1</clus>
<clus scale="  153.617">  1  5  2 -1</clus>
<clus scale="   26.219">  2  5  1 -1</clus>
</clustering>
</event>
<event>
 9    1  0.2374319E-005  0.1708157E+03  0.7546771E-02  0.1178508E+00
          1   -1    0    0  502    0  0.00000000000E+00  0.00000000000E+00  0.25296282248E+03  0.25296282248E+03  0.00000000000E+00 0. -1.
         -2   -1    0    0    0  501 -0.00000000000E+00 -0.00000000000E+00 -0.21786609124E+03  0.21786609124E+03  0.00000000000E+00 0.  1.
        -24    2    1    2    0    0 -0.13702894547E+03 -0.78450271347E+02 -0.89083486034E+02  0.19726007617E+03  0.77745052560E+02 0.  0.
         23    2    1    2    0    0  0.10729808615E+03  0.67838025283E+02  0.10434161900E+02  0.15552346968E+03  0.89240130673E+02 0.  0.
         13    1    3    3    0    0 -0.13479199244E+03 -0.50197149832E+02 -0.57710309371E+02  0.15498101459E+03  0.00000000000E+00 0. -1.
        -14    1    3    3    0    0 -0.22369530308E+01 -0.28253121516E+02 -0.31373176663E+02  0.42279061581E+02  0.00000000000E+00 0.  1.
        -13    1    4    4    0    0  0.44346349624E+01  0.25211531999E+02  0.33150772320E+02  0.41883899513E+02  0.00000000000E+00 0. -1.
         13    1    4    4    0    0  0.10286345119E+03  0.42626493284E+02 -0.22716610419E+02  0.11363957017E+03  0.00000000000E+00 0.  1.
         21    1    1    2  502  501  0.29730859318E+02  0.10612246065E+02  0.11374605537E+03  0.11804536786E+03  0.00000000000E+00 0. -1.
<scales pt_clust_5="13000.00000" pt_clust_6="13000.00000" pt_clust_7="13000.00000" pt_clust_8="13000.00000" pt_clust_9="31.56808"></scales>
<clustering>
<clus scale="   31.568">  1  9  2 -1</clus>
<clus scale="   77.745">  5  6 -1 -1</clus>
<clus scale="   89.240">  7  8 -1 -1</clus>
<clus scale="  165.102">  2  5  1 -1</clus>
<clus scale="   31.568">  1  5  2 -1</clus>
</clustering>
</event>
<event>
 9    1  0.2374319E-005  0.9368173E+02  0.7546771E-02  0.1300662E+00
         -2   -1    0    0    0  501 -0.00000000000E+00  0.00000000000E+00  0.52671339097E+03  0.52671339097E+03  0.00000000000E+00 0.  1.
          1   -1    0    0  502    0  0.00000000000E+00 -0.00000000000E+00 -0.27948978685E+02  0.27948978685E+02  0.00000000000E+00 0. -1.
        -24    2    1    2    0    0  0.29501503103E+01  0.17421252156E+02  0.34875355081E+03  0.35824062731E+03  0.79969396884E+02 0.  0.
         23    2    1    2    0    0  0.41667745845E+01 -0.42558165178E+02  0.11461458059E+03  0.15242842789E+03  0.90936044073E+02 0.  0.
         11    1    3    3    0    0 -0.20757894587E+02 -0.24569650632E+02  0.17441660589E+03  0.17735757760E+03  0.00000000000E+00 0. -1.
        -12    1    3    3    0    0  0.23708044897E+02  0.41990902788E+02  0.17433694492E+03  0.18088304971E+03  0.00000000000E+00 0.  1.
        -13    1    4    4    0    0 -0.31591585599E+02  0.10519539414E+02  0.58500407331E+02  0.67312603932E+02  0.00000000000E+00 0.  1.
         13    1    4    4    0    0  0.35758360184E+02 -0.53077704592E+02  0.56114173261E+02  0.85115823961E+02  0.00000000000E+00 0. -1.
         21    1    1    2  502  501 -0.71169248948E+01  0.25136913021E+02  0.35396280874E+02  0.43993314446E+02  0.00000000000E+00 0.  1.
<scales pt_clust_5="13000.00000" pt_clust_6="13000.00000" pt_clust_7="13000.00000" pt_clust_8="13000.00000" pt_clust_9="26.12499"></scales>
<clustering>
<clus scale="   26.125">  2  9  1 -1</clus>
<clus scale="   79.969">  5  6 -1 -1</clus>
<clus scale="   83.078">  1  5  2 -1</clus>
<clus scale="   90.936">  7  8 -1 -1</clus>
<clus scale="   26.125">  2  5  1 -1</clus>
</clustering>
</event>
<event>
 9    1  0.2374319E-005  0.1461825E+03  0.7546771E-02  0.1207740E+00
         -2   -1    0    0    0  501 -0.00000000000E+00  0.00000000000E+00  0.35951152277E+02  0.35951152277E+02  0.00000000000E+00 0.  1.
          1   -1    0    0  502    0  0.00000000000E+00 -0.00000000000E+00 -0.11558406493E+04  0.11558406493E+04  0.00000000000E+00 0. -1.
        -24    2    1    2    0    0 -0.12336489059E+03  0.11878587534E+02 -0.29421591429E+03  0.32912486472E+03  0.80001095517E+02 0.  0.
         23    2    1    2    0    0  0.81152255371E+02 -0.82916748152E+02 -0.35482579151E+03  0.38462303790E+03  0.92588677937E+02 0.  0.
         11    1    3    3    0    0 -0.99030730875E+02  0.29905717374E+02 -0.27356212800E+03  0.29246824693E+03  0.00000000000E+00 0. -1.
        -12    1    3    3    0    0 -0.24334159717E+02 -0.18027129841E+02 -0.20653786290E+02  0.36656617786E+02  0.00000000000E+00 0.  1.
        -11    1    4    4    0    0  0.46625714682E+02 -0.19345737163E+02 -0.26260963499E+03  0.26741734275E+03  0.00000000000E+00 0. -1.
         11    1    4    4    0    0  0.34526540690E+02 -0.63571010988E+02 -0.92216156524E+02  0.11720569514E+03  0.00000000000E+00 0.  1.
         21    1    1    2  502  501  0.42212635220E+02  0.71038160618E+02 -0.47084779122E+03  0.47804389896E+03  0.00000000000E+00 0. -1.
<scales pt_clust_5="13000.00000" pt_clust_6="13000.00000" pt_clust_7="13000.00000" pt_clust_8="13000.00000" pt_clust_9="82.63369"></scales>
<clustering>
<clus scale="   80.001">  5  6 -1 -1</clus>
<clus scale="   82.634">  2  9  1 -1</clus>
<clus scale="   92.589">  7  8 -1 -1</clus>
<clus scale="  138.553">  1  5  2 -1</clus>
<clus scale="   82.634">  2  5  1 -1</clus>
</clustering>
</event>
<event>
 9    1  0.2374319E-005  0.9394951E+02  0.7546771E-02  0.1301486E+00
          1   -1    0    0  502    0  0.00000000000E+00  0.00000000000E+00  0.39587217537E+03  0.39587217537E+03  0.00000000000E+00 0. -1.
         -2   -1    0    0    0  501 -0.00000000000E+00 -0.00000000000E+00 -0.48735068762E+02  0.48735068762E+02  0.00000000000E+00 0.  1.
         23    2    1    2    0    0 -0.11131539627E+02 -0.11613250756E+02  0.22501457484E+02  0.97193416271E+02  0.93174383872E+02 0.  0.
        -24    2    1    2    0    0  0.12996680879E+02 -0.26105482282E+02  0.20876754953E+03  0.22554669498E+03  0.80230991262E+02 0.  0.
         11    1    4    4    0    0  0.16656461137E+02 -0.48978437275E+02  0.84041378482E+02  0.98687781983E+02  0.00000000000E+00 0. -1.
        -12    1    4    4    0    0 -0.36597802578E+01  0.22872954992E+02  0.12472617105E+03  0.12685891300E+03  0.00000000000E+00 0.  1.
        -13    1    3    3    0    0 -0.32389244336E+02  0.20897640495E+02  0.39142057377E+02  0.54935190749E+02  0.00000000000E+00 0.  1.
         13    1    3    3    0    0  0.21257704710E+02 -0.32510891251E+02 -0.16640599893E+02  0.42258225522E+02  0.00000000000E+00 0. -1.
         21    1    1    2  502  501 -0.18651412525E+01  0.37718733038E+02  0.11586809959E+03  0.12186713288E+03  0.00000000000E+00 0.  1.
<scales pt_clust_5="13000.00000" pt_clust_6="13000.00000" pt_clust_7="13000.00000" pt_clust_8="13000.00000" pt_clust_9="37.76482"></scales>
<clustering>
<clus scale="   37.765">  1  9  2 -1</clus>
<clus scale="   80.231">  5  6 -1 -1</clus>
<clus scale="   81.130">  1  5  2 -1</clus>
<clus scale="   93.174">  7  8 -1 -1</clus>
<clus scale="   37.765">  1  5  2 -1</clus>
</clustering>
</event>
<event>
 9    1  0.2374319E-005  0.1036551E+03  0.7546771E-02  0.1273719E+00
          1   -1    0    0  502    0  0.00000000000E+00  0.00000000000E+00  0.38924094923E+03  0.38924094923E+03  0.00000000000E+00 0. -1.
         -2   -1    0    0    0  501 -0.00000000000E+00 -0.00000000000E+00 -0.14431641517E+03  0.14431641517E+03  0.00000000000E+00 0.  1.
        -24    2    1    2    0    0  0.19234740978E+01  0.48027315246E+02 -0.11210647052E+03  0.15348775977E+03  0.93168175390E+02 0.  0.
         23    2    1    2    0    0  0.55531591018E+01 -0.10799949709E+02  0.26594644920E+03  0.28138742276E+03  0.91125689888E+02 0.  0.
         13    1    3    3    0    0 -0.29865074845E+02  0.42685645129E+02 -0.19828593463E+02  0.55741906267E+02  0.00000000000E+00 0. -1.
        -14    1    3    3    0    0  0.31788548942E+02  0.53416701165E+01 -0.92277877058E+02  0.97745853507E+02  0.00000000000E+00 0.  1.
        -13    1    4    4    0    0 -0.32198450716E+01  0.36231876635E+02  0.17374912917E+03  0.17751584767E+03  0.00000000000E+00 0.  1.
         13    1    4    4    0    0  0.87730041734E+01 -0.47031826344E+02  0.92197320026E+02  0.10387157509E+03  0.00000000000E+00 0. -1.
         21    1    1    2  502  501 -0.74766331996E+01 -0.37227365537E+02  0.91084555379E+02  0.98682181864E+02  0.00000000000E+00 0. -1.
<scales pt_clust_5="13000.00000" pt_clust_6="13000.00000" pt_clust_7="13000.00000" pt_clust_8="13000.00000" pt_clust_9="37.97074"></scales>
<clustering>
<clus scale="   37.971">  1  9  2 -1</clus>
<clus scale="   91.126">  7  8 -1 -1</clus>
<clus scale="   93.168">  5  6 -1 -1</clus>
<clus scale="  101.823">  1  7  2 -1</clus>
<clus scale="   37.971">  1  5  2 -1</clus>
</clustering>
</event>
<event>
 9    1  0.2374319E-005  0.1126231E+03  0.7546771E-02  0.1261240E+00
          1   -1    0    0  502    0  0.00000000000E+00  0.00000000000E+00  0.36282425515E+03  0.36282425515E+03  0.00000000000E+00 0. -1.
         -2   -1    0    0    0  501 -0.00000000000E+00 -0.00000000000E+00 -0.23721250555E+03  0.23721250555E+03  0.00000000000E+00 0.  1.
        -24    2    1    2    0    0 -0.65711154468E+02 -0.32398915650E+02 -0.18706027356E+03  0.21555541531E+03  0.78134151097E+02 0.  0.
         23    2    1    2    0    0  0.63512714976E+02  0.79180134195E+01  0.33369055526E+03  0.35214055996E+03  0.92504202078E+02 0.  0.
         13    1    3    3    0    0 -0.24777205578E+02  0.10313326477E+02 -0.96155396784E+01  0.28508476329E+02  0.00000000000E+00 0. -1.
        -14    1    3    3    0    0 -0.40933948889E+02 -0.42712242127E+02 -0.17744473388E+03  0.18704693898E+03  0.00000000000E+00 0.  1.
        -11    1    4    4    0    0  0.11257063502E+02  0.44432223358E+02  0.10172655100E+03  0.11157614051E+03  0.00000000000E+00 0.  1.
         11    1    4    4    0    0  0.52255651473E+02 -0.36514209939E+02  0.23196400426E+03  0.24056441946E+03  0.00000000000E+00 0. -1.
         21    1    1    2  502  501  0.21984394920E+01  0.24480902231E+02 -0.21018532104E+02  0.32340785427E+02  0.00000000000E+00 0. -1.
<scales pt_clust_5="13000.00000" pt_clust_6="13000.00000" pt_clust_7="13000.00000" pt_clust_8="13000.00000" pt_clust_9="24.57942"></scales>
<clustering>
<clus scale="   24.579">  2  9  1 -1</clus>
<clus scale="   78.134">  5  6 -1 -1</clus>
<clus scale="   92.504">  7  8 -1 -1</clus>
<clus scale="  101.153">  2  5  1 -1</clus>
<clus scale="  112.623">  1  5  2 -1</clus>
</clustering>
</event>
<event>
 9    1  0.2374319E-005  0.9979494E+02  0.7546771E-02  0.1281192E+00
          1   -1    0    0  502    0  0.00000000000E+00  0.00000000000E+00  0.72700852458E+03  0.72700852458E+03  0.00000000000E+00 0. -1.
         -2   -1    0    0    0  501 -0.00000000000E+00 -0.00000000000E+00 -0.48198032795E+02  0.48198032795E+02  0.00000000000E+00 0.  1.
         23    2    1    2    0    0 -0.34780605259E+02  0.36864918972E+02  0.57936254627E+02  0.11904649312E+03  0.90811591607E+02 0.  0.
        -24    2    1    2    0    0 -0.65419438588E+02 -0.39550212542E+02  0.35234098636E+03  0.36952900109E+03  0.81015984349E+02 0.  0.
         13    1    4    4    0    0 -0.75159570555E+02 -0.54418609643E+02  0.31050614185E+03  0.32407469856E+03  0.00000000000E+00 0. -1.
        -14    1    4    4    0    0  0.97401319670E+01  0.14868397102E+02  0.41834844513E+02  0.45454302530E+02  0.00000000000E+00 0.  1.
        -13    1    3    3    0    0 -0.61914190180E+02  0.26348605341E+02  0.59615479354E+02  0.89897838281E+02  0.00000000000E+00 0. -1.
         13    1    3    3    0    0  0.27133584921E+02  0.10516313631E+02 -0.16792247269E+01  0.29148654836E+02  0.00000000000E+00 0.  1.
         21    1    1    2  502  501  0.10020004385E+03  0.26852935694E+01  0.26853325080E+03  0.28663106317E+03  0.00000000000E+00 0.  1.
<scales pt_clust_5="13000.00000" pt_clust_6="13000.00000" pt_clust_7="13000.00000" pt_clust_8="13000.00000" pt_clust_9="100.23602"></scales>
<clustering>
<clus scale="   81.016">  5  6 -1 -1</clus>
<clus scale="   90.812">  7  8 -1 -1</clus>
<clus scale="  100.236">  1  9  2 -1</clus>
<clus scale="  100.236">  1  5  2 -1</clus>
<clus scale="   99.795">  1  5  2 -1</clus>
</clustering>
</event>
<event>
 9    1  0.2374319E-005  0.1106938E+03  0.7546771E-02  0.1262406E+00
          1   -1    0    0  502    0  0.00000000000E+00  0.00000000000E+00  0.88885251952E+03  0.88885251952E+03  0.00000000000E+00 0. -1.
         -2   -1    0    0    0  501 -0.00000000000E+00 -0.00000000000E+00 -0.73941411390E+02  0.73941411390E+02  0.00000000000E+00 0.  1.
         23    2    1    2    0    0 -0.63774433485E+02 -0.11904528594E+01 -0.23786681166E+02  0.11372304116E+03  0.91096258678E+02 0.  0.
        -24    2    1    2    0    0  0.48774138353E+02  0.29028939782E+02  0.65455834068E+03  0.66223586427E+03  0.82994714660E+02 0.  0.
         11    1    4    4    0    0  0.65166740559E+02  0.23942447905E+02  0.32999355088E+03  0.33721756850E+03  0.00000000000E+00 0. -1.
        -12    1    4    4    0    0 -0.16392602206E+02  0.50864918773E+01  0.32456478980E+03  0.32501829577E+03  0.00000000000E+00 0.  1.
        -13    1    3    3    0    0 -0.84679325369E+02  0.69676758202E+01 -0.61616062523E+01  0.85188626253E+02  0.00000000000E+00 0.  1.
         13    1    3    3    0    0  0.20904891885E+02 -0.81581286796E+01 -0.17625074914E+02  0.28534414905E+02  0.00000000000E+00 0. -1.
         21    1    1    2  502  501  0.15000295131E+02 -0.27838486923E+02  0.18413944862E+03  0.18683502548E+03  0.00000000000E+00 0. -1.
<scales pt_clust_5="13000.00000" pt_clust_6="13000.00000" pt_clust_7="13000.00000" pt_clust_8="13000.00000" pt_clust_9="31.62262"></scales>
<clustering>
<clus scale="   31.623">  1  9  2 -1</clus>
<clus scale="   82.995">  5  6 -1 -1</clus>
<clus scale="   91.096">  7  8 -1 -1</clus>
<clus scale="  104.128">  1  5  2 -1</clus>
<clus scale="   31.623">  1  5  2 -1</clus>
</clustering>
</event>
<event>
 9    1  0.2374319E-005  0.2095457E+03  0.7546771E-02  0.1142656E+00
         -2   -1    0    0    0  501 -0.00000000000E+00  0.00000000000E+00  0.10583039307E+03  0.10583039307E+03  0.00000000000E+00 0.  1.
          1   -1    0    0  502    0  0.00000000000E+00 -0.00000000000E+00 -0.11635697970E+04  0.11635697970E+04  0.00000000000E+00 0. -1.
        -24    2    1    2    0    0 -0.11140929839E+02 -0.19364479451E+03 -0.23918363620E+02  0.21131223472E+03  0.80363833069E+02 0.  0.
         23    2    1    2    0    0  0.11801816362E+00  0.16122740779E+03 -0.75477688946E+03  0.77695092531E+03  0.89276517148E+02 0.  0.
         13    1    3    3    0    0  0.92134939735E+01 -0.43857990617E+02 -0.38986028228E+02  0.59399681894E+02  0.00000000000E+00 0. -1.
        -14    1    3    3    0    0 -0.20354423812E+02 -0.14978680390E+03  0.15067664608E+02  0.15191255283E+03  0.00000000000E+00 0.  1.
        -11    1    4    4    0    0 -0.44213234578E+02  0.84667812872E+02 -0.36929722871E+03  0.38144972379E+03  0.00000000000E+00 0.  1.
         11    1    4    4    0    0  0.44331252742E+02  0.76559594916E+02 -0.38547966076E+03  0.39550120152E+03  0.00000000000E+00 0. -1.
         21    1    1    2  502  501  0.11022911675E+02  0.32417386725E+02 -0.27904415082E+03  0.28113703003E+03  0.00000000000E+00 0. -1.
<scales pt_clust_5="13000.00000" pt_clust_6="13000.00000" pt_clust_7="13000.00000" pt_clust_8="13000.00000" pt_clust_9="34.24020"></scales>
<clustering>
<clus scale="   34.240">  2  9  1 -1</clus>
<clus scale="   80.364">  5  6 -1 -1</clus>
<clus scale="   89.277">  7  8 -1 -1</clus>
<clus scale="  205.906">  1  5  2 -1</clus>
<clus scale="   34.240">  2  5  1 -1</clus>
</clustering>
</event>
<event>
 9    1  0.2374319E-005  0.1661657E+03  0.7546771E-02  0.1183258E+00
          1   -1    0    0  502    0  0.00000000000E+00  0.00000000000E+00  0.10820196855E+04  0.10820196855E+04  0.00000000000E+00 0. -1.
         -2   -1    0    0    0  501 -0.00000000000E+00 -0.00000000000E+00 -0.64690494322E+02  0.64690494322E+02  0.00000000000E+00 0.  1.
         23    2    1    2    0    0 -0.24160684781E+02  0.14268754061E+03  0.95219760083E+02  0.19567948124E+03  0.90995514922E+02 0.  0.
        -24    2    1    2    0    0 -0.17893994157E+01 -0.13851270387E+03  0.90610408339E+03  0.92025721507E+03  0.81607357904E+02 0.  0.
         11    1    4    4    0    0 -0.36411874646E+02 -0.98249272524E+02  0.51376122133E+03  0.52433704495E+03  0.00000000000E+00 0. -1.
        -12    1    4    4    0    0  0.34622475230E+02 -0.40263431350E+02  0.39234286206E+03  0.39592017012E+03  0.00000000000E+00 0.  1.
        -13    1    3    3    0    0 -0.51457571374E+02  0.41827795288E+02  0.40951051648E+02  0.77938660120E+02  0.00000000000E+00 0. -1.
         13    1    3    3    0    0  0.27296886593E+02  0.10085974532E+03  0.54268708435E+02  0.11774082112E+03  0.00000000000E+00 0.  1.
         21    1    1    2  502  501  0.25950084197E+02 -0.41748367325E+01  0.16005347685E+02  0.30773483489E+02  0.00000000000E+00 0.  1.
<scales pt_clust_5="13000.00000" pt_clust_6="13000.00000" pt_clust_7="13000.00000" pt_clust_8="13000.00000" pt_clust_9="26.28376"></scales>
<clustering>
<clus scale="   26.284">  2  9  1 -1</clus>
<clus scale="   81.607">  5  6 -1 -1</clus>
<clus scale="   90.996">  7  8 -1 -1</clus>
<clus scale="  161.216">  1  5  2 -1</clus>
<clus scale="  161.216">  1  5  2 -1</clus>
</clustering>
</event>
<event>
 9    1  0.2374319E-005  0.1134380E+03  0.7546771E-02  0.1258684E+00
         -4   -1    0    0    0  501 -0.00000000000E+00  0.00000000000E+00  0.32506201340E+03  0.32506201340E+03  0.00000000000E+00 0.  1.
          3   -1    0    0  502    0  0.00000000000E+00 -0.00000000000E+00 -0.85982395916E+02  0.85982395916E+02  0.00000000000E+00 0. -1.
        -24    2    1    2    0    0  0.65173632940E+02  0.15836744842E+02  0.24042291345E+03  0.26216269114E+03  0.80172903148E+02 0.  0.
         23    2    1    2    0    0 -0.52443949266E+02 -0.45446284056E+02  0.74692271685E+01  0.11546869342E+03  0.91986397126E+02 0.  0.
         13    1    3    3    0    0  0.47483199190E+02  0.44390830053E+02  0.11275117859E+03  0.13014618040E+03  0.00000000000E+00 0. -1.
        -14    1    3    3    0    0  0.17690433749E+02 -0.28554085211E+02  0.12767173486E+03  0.13201651075E+03  0.00000000000E+00 0.  1.
        -11    1    4    4    0    0 -0.16062554637E+02 -0.19561338343E+02 -0.41869723206E+02  0.48925712469E+02  0.00000000000E+00 0. -1.
         11    1    4    4    0    0 -0.36381394629E+02 -0.25884945713E+02  0.49338950374E+02  0.66542980950E+02  0.00000000000E+00 0.  1.
         21    1    1    2  502  501 -0.12729683673E+02  0.29609539214E+02 -0.88125231366E+01  0.33413024750E+02  0.00000000000E+00 0.  1.
<scales pt_clust_5="13000.00000" pt_clust_6="13000.00000" pt_clust_7="13000.00000" pt_clust_8="13000.00000" pt_clust_9="32.22995"></scales>
<clustering>
<clus scale="   32.230">  2  9  1 -1</clus>
<clus scale="   80.173">  5  6 -1 -1</clus>
<clus scale="   91.986">  7  8 -1 -1</clus>
<clus scale="  104.088">  1  5  2 -1</clus>
<clus scale="   32.230">  2  5  1 -1</clus>
</clustering>
</event>
<event>
 9    1  0.2374319E-005  0.1171049E+03  0.7546771E-02  0.1251269E+00
         -2   -1    0    0    0  501 -0.00000000000E+00  0.00000000000E+00  0.83667091616E+02  0.83667091616E+02  0.00000000000E+00 0.  1.
          1   -1    0    0  502    0  0.00000000000E+00 -0.00000000000E+00 -0.50834729392E+03  0.50834729392E+03  0.00000000000E+00 0. -1.
        -24    2    1    2    0    0 -0.73113394374E+02 -0.33972828734E+02  0.25520544234E+02  0.11728901778E+03  0.81275420548E+02 0.  0.
         23    2    1    2    0    0  0.29515449286E+02  0.83612612180E+00 -0.29102158161E+03  0.30638990380E+03  0.91155643478E+02 0.  0.
         11    1    3    3    0    0  0.12126919863E+02 -0.20522009230E+02 -0.73513857469E+01  0.24945098128E+02  0.00000000000E+00 0. -1.
        -12    1    3    3    0    0 -0.85240314237E+02 -0.13450819504E+02  0.32871929981E+02  0.92343919654E+02  0.00000000000E+00 0.  1.
        -11    1    4    4    0    0 -0.12453092796E+02 -0.34540707193E+02 -0.75021126102E+02  0.83524303859E+02  0.00000000000E+00 0.  1.
         11    1    4    4    0    0  0.41968542082E+02  0.35376833314E+02 -0.21600045550E+03  0.22286559994E+03  0.00000000000E+00 0. -1.
         21    1    1    2  502  501  0.43597945088E+02  0.33136702612E+02 -0.15917916493E+03  0.16833546395E+03  0.00000000000E+00 0. -1.
<scales pt_clust_5="13000.00000" pt_clust_6="13000.00000" pt_clust_7="13000.00000" pt_clust_8="13000.00000" pt_clust_9="54.76150"></scales>
<clustering>
<clus scale="   54.761">  2  9  1 -1</clus>
<clus scale="   81.275">  5  6 -1 -1</clus>
<clus scale="   91.156">  7  8 -1 -1</clus>
<clus scale="  109.590">  1  5  2 -1</clus>
<clus scale="   54.761">  2  5  1 -1</clus>
</clustering>
</event>
<event>
 9    1  0.2374319E-005  0.1065633E+03  0.7546771E-02  0.1272211E+00
         -4   -1    0    0    0  501 -0.00000000000E+00  0.00000000000E+00  0.21096798763E+03  0.21096798763E+03  0.00000000000E+00 0.  1.
          3   -1    0    0  502    0  0.00000000000E+00 -0.00000000000E+00 -0.25281947986E+03  0.25281947986E+03  0.00000000000E+00 0. -1.
        -24    2    1    2    0    0 -0.53489452118E+02 -0.15548721991E+02  0.18075526046E+03  0.20512306944E+03  0.79373327932E+02 0.  0.
         23    2    1    2    0    0  0.32304413631E+02  0.30413420822E+02 -0.19993872111E+03  0.22426084034E+03  0.91372211342E+02 0.  0.
         11    1    3    3    0    0 -0.27970744891E+02  0.24625312310E+02  0.13130156227E+03  0.13648761420E+03  0.00000000000E+00 0. -1.
        -12    1    3    3    0    0 -0.25518707226E+02 -0.40174034301E+02  0.49453698197E+02  0.68635455239E+02  0.00000000000E+00 0.  1.
        -13    1    4    4    0    0  0.90780431501E+01 -0.21843019094E+02 -0.96188742172E+01  0.25535291104E+02  0.00000000000E+00 0.  1.
         13    1    4    4    0    0  0.23226370480E+02  0.52256439916E+02 -0.19031984689E+03  0.19872554924E+03  0.00000000000E+00 0. -1.
         21    1    1    2  502  501  0.21185038487E+02 -0.14864698831E+02 -0.22668031582E+02  0.34403557706E+02  0.00000000000E+00 0. -1.
<scales pt_clust_5="13000.00000" pt_clust_6="13000.00000" pt_clust_7="13000.00000" pt_clust_8="13000.00000" pt_clust_9="25.87982"></scales>
<clustering>
<clus scale="   25.880">  2  9  1 -1</clus>
<clus scale="   79.373">  5  6 -1 -1</clus>
<clus scale="   91.372">  7  8 -1 -1</clus>
<clus scale="   96.473">  1  5  2 -1</clus>
<clus scale="   25.880">  2  5  1 -1</clus>
</clustering>
</event>
<event>
 9    1  0.2374319E-005  0.1795725E+03  0.7546771E-02  0.1169674E+00
          1   -1    0    0  502    0  0.00000000000E+00  0.00000000000E+00  0.22386700706E+03  0.22386700706E+03  0.00000000000E+00 0. -1.
         -2   -1    0    0    0  501 -0.00000000000E+00 -0.00000000000E+00 -0.33342972567E+03  0.33342972567E+03  0.00000000000E+00 0.  1.
         23    2    1    2    0    0 -0.11897163231E+03  0.12587645824E+03 -0.18015068171E+03  0.26609971588E+03  0.91409291864E+02 0.  0.
        -24    2    1    2    0    0  0.11234347424E+03 -0.70174228518E+02 -0.46651821091E+02  0.16122841344E+03  0.79200570313E+02 0.  0.
         13    1    4    4    0    0  0.89432737309E+02 -0.83358938601E+02 -0.20351888506E+02  0.12394001175E+03  0.00000000000E+00 0. -1.
        -14    1    4    4    0    0  0.22910736929E+02  0.13184710083E+02 -0.26299932585E+02  0.37288401690E+02  0.00000000000E+00 0.  1.
        -11    1    3    3    0    0  0.92357207771E+01  0.20585717430E+02 -0.51286408697E+02  0.56030045667E+02  0.00000000000E+00 0. -1.
         11    1    3    3    0    0 -0.12820735308E+03  0.10529074081E+03 -0.12886427301E+03  0.21006967022E+03  0.00000000000E+00 0.  1.
         21    1    1    2  502  501  0.66281580688E+01 -0.55702229723E+02  0.11723978418E+03  0.12996860340E+03  0.00000000000E+00 0.  1.
<scales pt_clust_5="13000.00000" pt_clust_6="13000.00000" pt_clust_7="13000.00000" pt_clust_8="13000.00000" pt_clust_9="56.09519"></scales>
<clustering>
<clus scale="   56.095">  1  9  2 -1</clus>
<clus scale="   79.201">  5  6 -1 -1</clus>
<clus scale="   91.409">  7  8 -1 -1</clus>
<clus scale="  173.676">  1  5  2 -1</clus>
<clus scale="   56.095">  1  5  2 -1</clus>
</clustering>
</event>
<event>
 9    1  0.2374319E-005  0.1101721E+03  0.7546771E-02  0.1262066E+00
         -2   -1    0    0    0  501 -0.00000000000E+00  0.00000000000E+00  0.83889040294E+02  0.83889040294E+02  0.00000000000E+00 0.  1.
          1   -1    0    0  502    0  0.00000000000E+00 -0.00000000000E+00 -0.39854229823E+03  0.39854229823E+03  0.00000000000E+00 0. -1.
        -24    2    1    2    0    0 -0.11237343291E+02 -0.77212867815E+02 -0.13695980370E+02  0.12468228995E+03  0.96280780574E+02 0.  0.
         23    2    1    2    0    0 -0.26417527920E+02 -0.10556833200E+02 -0.17501990993E+03  0.19969326630E+03  0.91848240194E+02 0.  0.
         13    1    3    3    0    0  0.33426823823E+02 -0.64649426519E+01 -0.22106535128E+02  0.40593680909E+02  0.00000000000E+00 0. -1.
        -14    1    3    3    0    0 -0.44664167113E+02 -0.70747925163E+02  0.84105547578E+01  0.84088609039E+02  0.00000000000E+00 0.  1.
        -13    1    4    4    0    0 -0.18076696648E+02 -0.43650040641E+02 -0.44918993992E+02  0.65190559369E+02  0.00000000000E+00 0.  1.
         13    1    4    4    0    0 -0.83408312718E+01  0.33093207441E+02 -0.13010091593E+03  0.13450270693E+03  0.00000000000E+00 0. -1.
         21    1    1    2  502  501  0.37654871211E+02  0.87769701015E+02 -0.12593736764E+03  0.15805578227E+03  0.00000000000E+00 0. -1.
<scales pt_clust_5="13000.00000" pt_clust_6="13000.00000" pt_clust_7="13000.00000" pt_clust_8="13000.00000" pt_clust_9="95.50607"></scales>
<clustering>
<clus scale="   91.848">  7  8 -1 -1</clus>
<clus scale="   95.506">  2  9  1 -1</clus>
<clus scale="   96.281">  5  6 -1 -1</clus>
<clus scale="  106.320">  2  7  1 -1</clus>
<clus scale="   95.506">  2  5  1 -1</clus>
</clustering>
</event>
<event>
 9    1  0.2374319E-005  0.9269304E+02  0.7546771E-02  0.1303755E+00
          3   -1    0    0  502    0  0.00000000000E+00  0.00000000000E+00  0.35861121929E+02  0.35861121929E+02  0.00000000000E+00 0. -1.
         -4   -1    0    0    0  501 -0.00000000000E+00 -0.00000000000E+00 -0.45147877828E+03  0.45147877828E+03  0.00000000000E+00 0.  1.
         23    2    1    2    0    0 -0.58506053006E+01 -0.18053930518E+02 -0.31392871115E+03  0.32775134458E+03  0.92247136557E+02 0.  0.
        -24    2    1    2    0    0 -0.14165366433E+02 -0.12071185793E+02 -0.88513886298E+02  0.12109512847E+03  0.80516774267E+02 0.  0.
         13    1    4    4    0    0 -0.38409888219E+02  0.14687515863E+02 -0.68271608293E+02  0.79699781267E+02  0.00000000000E+00 0. -1.
        -14    1    4    4    0    0  0.24244521786E+02 -0.26758701656E+02 -0.20242278006E+02  0.41395347200E+02  0.00000000000E+00 0.  1.
        -13    1    3    3    0    0 -0.23918482901E+02  0.31590359971E+02 -0.16627355621E+03  0.17092963512E+03  0.00000000000E+00 0.  1.
         13    1    3    3    0    0  0.18067877600E+02 -0.49644290489E+02 -0.14765515494E+03  0.15682170946E+03  0.00000000000E+00 0. -1.
         21    1    1    2  502  501  0.20015971733E+02  0.30125116311E+02 -0.13175058905E+02  0.38493427158E+02  0.00000000000E+00 0. -1.
<scales pt_clust_5="13000.00000" pt_clust_6="13000.00000" pt_clust_7="13000.00000" pt_clust_8="13000.00000" pt_clust_9="36.16852"></scales>
<clustering>
<clus scale="   36.169">  1  9  2 -1</clus>
<clus scale="   80.517">  5  6 -1 -1</clus>
<clus scale="   81.027">  1  5  2 -1</clus>
<clus scale="   92.247">  7  8 -1 -1</clus>
<clus scale="   36.169">  1  5  2 -1</clus>
</clustering>
</event>
<event>
 9    1  0.2374319E-005  0.9714330E+02  0.7546771E-02  0.1292402E+00
         -2   -1    0    0    0  501 -0.00000000000E+00  0.00000000000E+00  0.25356885918E+03  0.25356885918E+03  0.00000000000E+00 0.  1.
          1   -1    0    0  502    0  0.00000000000E+00 -0.00000000000E+00 -0.91973710863E+02  0.91973710863E+02  0.00000000000E+00 0. -1.
        -24    2    1    2    0    0  0.31945118785E+02  0.22756270418E+02  0.17962556516E+03  0.20028129414E+03  0.79428676601E+02 0.  0.
         23    2    1    2    0    0 -0.90050094377E+01 -0.22111902803E+02  0.24596311001E+02  0.96849482370E+02  0.90580446455E+02 0.  0.
         11    1    3    3    0    0 -0.19276176298E+01  0.37774632683E+02  0.14398298807E+03  0.14886819484E+03  0.00000000000E+00 0. -1.
        -12    1    3    3    0    0  0.33872736415E+02 -0.15018362265E+02  0.35642577091E+02  0.51413099294E+02  0.00000000000E+00 0.  1.
        -13    1    4    4    0    0  0.35079003682E+02  0.10332811224E+02 -0.64211177157E+00  0.36574797261E+02  0.00000000000E+00 0.  1.
         13    1    4    4    0    0 -0.44084013120E+02 -0.32444714026E+02  0.25238422772E+02  0.60274685110E+02  0.00000000000E+00 0. -1.
         21    1    1    2  502  501 -0.22940109347E+02 -0.64436761529E+00 -0.42626727842E+02  0.48411793532E+02  0.00000000000E+00 0. -1.
<scales pt_clust_5="13000.00000" pt_clust_6="13000.00000" pt_clust_7="13000.00000" pt_clust_8="13000.00000" pt_clust_9="22.94916"></scales>
<clustering>
<clus scale="   22.949">  2  9  1 -1</clus>
<clus scale="   79.429">  5  6 -1 -1</clus>
<clus scale="   86.838">  1  5  2 -1</clus>
<clus scale="   90.580">  7  8 -1 -1</clus>
<clus scale="   22.949">  2  5  1 -1</clus>
</clustering>
</event>
<event>
 9    1  0.2374319E-005  0.1306183E+03  0.7546771E-02  0.1229495E+00
         -2   -1    0    0    0  501 -0.00000000000E+00  0.00000000000E+00  0.12006159473E+03  0.12006159473E+03  0.00000000000E+00 0.  1.
          1   -1    0    0  502    0  0.00000000000E+00 -0.00000000000E+00 -0.30820198647E+03  0.30820198647E+03  0.00000000000E+00 0. -1.
         23    2    1    2    0    0  0.95331265775E+02 -0.26645928299E+01  0.61018047710E+02  0.14613264348E+03  0.92392624470E+02 0.  0.
        -24    2    1    2    0    0 -0.76624766418E+02 -0.59889791926E+01 -0.20781904714E+03  0.23593826749E+03  0.81061007935E+02 0.  0.
         13    1    4    4    0    0 -0.57740480443E+02 -0.41631962995E+02 -0.12603864281E+03  0.14475124492E+03  0.00000000000E+00 0. -1.
        -14    1    4    4    0    0 -0.18884285975E+02  0.35642983802E+02 -0.81780404336E+02  0.91187022566E+02  0.00000000000E+00 0.  1.
        -13    1    3    3    0    0  0.26230442333E+02 -0.24375089085E+02 -0.17032313438E+02  0.39651995838E+02  0.00000000000E+00 0. -1.
         13    1    3    3    0    0  0.69100823441E+02  0.21710496255E+02  0.78050361148E+02  0.10648064765E+03  0.00000000000E+00 0.  1.
         21    1    1    2  502  501 -0.18706499357E+02  0.86535720225E+01 -0.41339392305E+02  0.46192670231E+02  0.00000000000E+00 0. -1.
<scales pt_clust_5="13000.00000" pt_clust_6="13000.00000" pt_clust_7="13000.00000" pt_clust_8="13000.00000" pt_clust_9="20.61110"></scales>
<clustering>
<clus scale="   20.611">  2  9  1 -1</clus>
<clus scale="   81.061">  5  6 -1 -1</clus>
<clus scale="   92.393">  7  8 -1 -1</clus>
<clus scale="  122.864">  2  5  1 -1</clus>
<clus scale="   20.611">  2  5  1 -1</clus>
</clustering>
</event>
<event>
 9    1  0.2374319E-005  0.1477905E+03  0.7546771E-02  0.1205376E+00
          1   -1    0    0  502    0  0.00000000000E+00  0.00000000000E+00  0.49555750739E+03  0.49555750739E+03  0.00000000000E+00 0. -1.
         -2   -1    0    0    0  501 -0.00000000000E+00 -0.00000000000E+00 -0.69918439285E+02  0.69918439285E+02  0.00000000000E+00 0.  1.
        -24    2    1    2    0    0  0.29816401929E+02 -0.13814884207E+03  0.10180761119E+03  0.19196692798E+03  0.80699388789E+02 0.  0.
         23    2    1    2    0    0 -0.39747238602E+02  0.99098048519E+02  0.28300970473E+03  0.31615048450E+03  0.91958521514E+02 0.  0.
         13    1    3    3    0    0 -0.14198958751E+02 -0.10907259948E+03  0.68385726710E+02  0.12951853151E+03  0.00000000000E+00 0. -1.
        -14    1    3    3    0    0  0.44015360680E+02 -0.29076242593E+02  0.33421884476E+02  0.62448396465E+02  0.00000000000E+00 0.  1.
        -13    1    4    4    0    0  0.49242768105E+01  0.94315620011E+02  0.16884654192E+03  0.19346534418E+03  0.00000000000E+00 0.  1.
         13    1    4    4    0    0 -0.44671515412E+02  0.47824285078E+01  0.11416316281E+03  0.12268514032E+03  0.00000000000E+00 0. -1.
         21    1    1    2  502  501  0.99308366728E+01  0.39050793555E+02  0.40821752191E+02  0.57358534206E+02  0.00000000000E+00 0. -1.
<scales pt_clust_5="13000.00000" pt_clust_6="13000.00000" pt_clust_7="13000.00000" pt_clust_8="13000.00000" pt_clust_9="40.29375"></scales>
<clustering>
<clus scale="   40.294">  2  9  1 -1</clus>
<clus scale="   80.699">  5  6 -1 -1</clus>
<clus scale="   91.959">  7  8 -1 -1</clus>
<clus scale="  141.060">  2  5  1 -1</clus>
<clus scale="  147.791">  1  5  2 -1</clus>
</clustering>
</event>
<event>
 9    1  0.2374319E-005  0.1138976E+03  0.7546771E-02  0.1257856E+00
         -2   -1    0    0    0  501 -0.00000000000E+00  0.00000000000E+00  0.30244330820E+03  0.30244330820E+03  0.00000000000E+00 0.  1.
          1   -1    0    0  502    0  0.00000000000E+00 -0.00000000000E+00 -0.13501286001E+03  0.13501286001E+03  0.00000000000E+00 0. -1.
         23    2    1    2    0    0  0.53478013907E+02 -0.45715328201E+02  0.25298849622E+03  0.27789124912E+03  0.90942717748E+02 0.  0.
        -24    2    1    2    0    0 -0.56625576629E+02  0.22690336122E+02 -0.38158898929E+02  0.10677536760E+03  0.78889608161E+02 0.  0.
         13    1    4    4    0    0 -0.46291014969E+01  0.37974120447E+02 -0.36008681467E+02  0.52536535339E+02  0.00000000000E+00 0. -1.
        -14    1    4    4    0    0 -0.51996475133E+02 -0.15283784325E+02 -0.21502174618E+01  0.54238832257E+02  0.00000000000E+00 0.  1.
        -13    1    3    3    0    0  0.21722061149E+02 -0.70951040936E+02  0.17157425935E+03  0.18693213908E+03  0.00000000000E+00 0.  1.
         13    1    3    3    0    0  0.31755952759E+02  0.25235712735E+02  0.81414236872E+02  0.90959110035E+02  0.00000000000E+00 0. -1.
         21    1    1    2  502  501  0.31475627220E+01  0.23024992079E+02 -0.47399149100E+02  0.52789551492E+02  0.00000000000E+00 0.  1.
<scales pt_clust_5="13000.00000" pt_clust_6="13000.00000" pt_clust_7="13000.00000" pt_clust_8="13000.00000" pt_clust_9="23.23914"></scales>
<clustering>
<clus scale="   23.239">  2  9  1 -1</clus>
<clus scale="   78.890">  5  6 -1 -1</clus>
<clus scale="   90.943">  7  8 -1 -1</clus>
<clus scale="  104.526">  2  5  1 -1</clus>
<clus scale="   23.239">  2  5  1 -1</clus>
</clustering>
</event>
<event>
 9    1  0.2374319E-005  0.1212867E+03  0.7546771E-02  0.1244975E+00
          1   -1    0    0  502    0  0.00000000000E+00  0.00000000000E+00  0.83650040914E+03  0.83650040914E+03  0.00000000000E+00 0. -1.
         -2   -1    0    0    0  501 -0.00000000000E+00 -0.00000000000E+00 -0.32216092423E+02  0.32216092423E+02  0.00000000000E+00 0.  1.
        -24    2    1    2    0    0  0.21663931523E+01 -0.11068092777E+03  0.22285408579E+03  0.26141482524E+03  0.80117452995E+02 0.  0.
         23    2    1    2    0    0 -0.67385053083E+01  0.37058324179E+02  0.29522553129E+03  0.31174403039E+03  0.92776609742E+02 0.  0.
         11    1    3    3    0    0  0.35464911910E+02 -0.22584488879E+02  0.78594145459E+02  0.89133937505E+02  0.00000000000E+00 0. -1.
        -12    1    3    3    0    0 -0.33298518758E+02 -0.88096438892E+02  0.14425994033E+03  0.17228088774E+03  0.00000000000E+00 0.  1.
        -11    1    4    4    0    0  0.38416221414E+02  0.33482829203E+02  0.19851406440E+03  0.20495057864E+03  0.00000000000E+00 0.  1.
         11    1    4    4    0    0 -0.45154726723E+02  0.35754949759E+01  0.96711466886E+02  0.10679345175E+03  0.00000000000E+00 0. -1.
         21    1    1    2  502  501  0.45721121560E+01  0.73622603592E+02  0.28620469964E+03  0.29555764593E+03  0.00000000000E+00 0. -1.
<scales pt_clust_5="13000.00000" pt_clust_6="13000.00000" pt_clust_7="13000.00000" pt_clust_8="13000.00000" pt_clust_9="73.76444"></scales>
<clustering>
<clus scale="   73.764">  1  9  2 -1</clus>
<clus scale="   80.117">  5  6 -1 -1</clus>
<clus scale="   92.777">  7  8 -1 -1</clus>
<clus scale="  111.901">  2  5  1 -1</clus>
<clus scale="   73.764">  1  5  2 -1</clus>
</clustering>
</event>
<event>
 9    1  0.2374319E-005  0.1142524E+03  0.7546771E-02  0.1265901E+00
         -2   -1    0    0    0  501 -0.00000000000E+00  0.00000000000E+00  0.20352611115E+03  0.20352611115E+03  0.00000000000E+00 0.  1.
          1   -1    0    0  502    0  0.00000000000E+00 -0.00000000000E+00 -0.10371928482E+03  0.10371928482E+03  0.00000000000E+00 0. -1.
         23    2    1    2    0    0  0.34065372800E+02 -0.30929042277E+02  0.13810135331E+03  0.18150410776E+03  0.10841910379E+03 0.  0.
        -24    2    1    2    0    0 -0.38631904470E+01  0.15984655492E+02 -0.12654047290E+02  0.83398157547E+02  0.80775579960E+02 0.  0.
         13    1    4    4    0    0 -0.14967682061E+02  0.40836465881E+02 -0.28407421491E+02  0.51948340182E+02  0.00000000000E+00 0. -1.
        -14    1    4    4    0    0  0.11104491614E+02 -0.24851810388E+02  0.15753374201E+02  0.31449817365E+02  0.00000000000E+00 0.  1.
        -11    1    3    3    0    0 -0.22844099571E+02  0.21174427746E+02  0.11421997719E+02  0.33176366701E+02  0.00000000000E+00 0. -1.
         11    1    3    3    0    0  0.56909472371E+02 -0.52103470023E+02  0.12667935559E+03  0.14832774106E+03  0.00000000000E+00 0.  1.
         21    1    1    2  502  501 -0.30202182353E+02  0.14944386785E+02 -0.25640479698E+02  0.42343130663E+02  0.00000000000E+00 0. -1.
<scales pt_clust_5="13000.00000" pt_clust_6="13000.00000" pt_clust_7="13000.00000" pt_clust_8="13000.00000" pt_clust_9="33.69728"></scales>
<clustering>
<clus scale="   33.697">  2  9  1 -1</clus>
<clus scale="   80.776">  5  6 -1 -1</clus>
<clus scale="   88.451">  2  5  1 -1</clus>
<clus scale="  108.419">  7  8 -1 -1</clus>
<clus scale="   33.697">  2  5  1 -1</clus>
</clustering>
</event>
<event>
 9    1  0.2374319E-005  0.2267065E+03  0.7546771E-02  0.1129635E+00
         -4   -1    0    0    0  501 -0.00000000000E+00  0.00000000000E+00  0.63058550780E+02  0.63058550780E+02  0.00000000000E+00 0.  1.
          3   -1    0    0  502    0  0.00000000000E+00 -0.00000000000E+00 -0.11353302303E+04  0.11353302303E+04  0.00000000000E+00 0. -1.
        -24    2    1    2    0    0  0.17823335667E+03  0.12907323924E+03 -0.36972626937E+03  0.43797410432E+03  0.81833802753E+02 0.  0.
         23    2    1    2    0    0 -0.13019583393E+03 -0.14715273096E+03 -0.41315814578E+03  0.46651084830E+03  0.91256981935E+02 0.  0.
         13    1    3    3    0    0  0.15617496951E+03  0.10721001520E+03 -0.24642375272E+03  0.31082032490E+03  0.00000000000E+00 0. -1.
        -14    1    3    3    0    0  0.22058387151E+02  0.21863224032E+02 -0.12330251665E+03  0.12715377942E+03  0.00000000000E+00 0.  1.
        -11    1    4    4    0    0 -0.60490573167E+02 -0.80253204433E+01 -0.11800320727E+03  0.13284679950E+03  0.00000000000E+00 0. -1.
         11    1    4    4    0    0 -0.69705260761E+02 -0.13912741051E+03 -0.29515493851E+03  0.33366404880E+03  0.00000000000E+00 0.  1.
         21    1    1    2  502  501 -0.48037522738E+02  0.18079491720E+02 -0.28938726439E+03  0.29390382849E+03  0.00000000000E+00 0.  1.
<scales pt_clust_5="13000.00000" pt_clust_6="13000.00000" pt_clust_7="13000.00000" pt_clust_8="13000.00000" pt_clust_9="51.32710"></scales>
<clustering>
<clus scale="   51.327">  2  9  1 -1</clus>
<clus scale="   81.834">  5  6 -1 -1</clus>
<clus scale="   91.257">  7  8 -1 -1</clus>
<clus scale="  223.080">  1  5  2 -1</clus>
<clus scale="   51.327">  2  5  1 -1</clus>
</clustering>
</event>
<event>
 9    1  0.2374319E-005  0.9478546E+02  0.7546771E-02  0.1297716E+00
         -2   -1    0    0    0  501 -0.00000000000E+00  0.00000000000E+00  0.23061004427E+03  0.23061004427E+03  0.00000000000E+00 0.  1.
          1   -1    0    0  502    0  0.00000000000E+00 -0.00000000000E+00 -0.51479182196E+02  0.51479182196E+02  0.00000000000E+00 0. -1.
        -24    2    1    2    0    0 -0.31283062585E+02 -0.95163220357E+01  0.13308627376E+03  0.15888004002E+03  0.80384827321E+02 0.  0.
         23    2    1    2    0    0  0.93063645449E+01  0.11095256188E+02  0.39582388015E+02  0.10024773347E+03  0.90956745184E+02 0.  0.
         11    1    3    3    0    0 -0.16765557334E+02 -0.39579130982E+02  0.35521905797E+02  0.55761970136E+02  0.00000000000E+00 0. -1.
        -12    1    3    3    0    0 -0.14517505251E+02  0.30062808946E+02  0.97564367966E+02  0.10311806989E+03  0.00000000000E+00 0.  1.
        -11    1    4    4    0    0  0.11417493312E+02  0.50938787861E+02  0.22551080304E+02  0.56865371582E+02  0.00000000000E+00 0.  1.
         11    1    4    4    0    0 -0.21111287674E+01 -0.39843531673E+02  0.17031307711E+02  0.43382361891E+02  0.00000000000E+00 0. -1.
         21    1    1    2  502  501  0.21976698040E+02 -0.15789341518E+01  0.64622002914E+01  0.22961452968E+02  0.00000000000E+00 0.  1.
<scales pt_clust_5="13000.00000" pt_clust_6="13000.00000" pt_clust_7="13000.00000" pt_clust_8="13000.00000" pt_clust_9="22.03334"></scales>
<clustering>
<clus scale="   22.033">  2  9  1 -1</clus>
<clus scale="   80.385">  5  6 -1 -1</clus>
<clus scale="   84.693">  1  5  2 -1</clus>
<clus scale="   90.957">  7  8 -1 -1</clus>
<clus scale="   22.033">  2  5  1 -1</clus>
</clustering>
</event>
<event>
 9    1  0.2374319E-005  0.1407654E+03  0.7546771E-02  0.1215189E+00
         -2   -1    0    0    0  501 -0.00000000000E+00  0.00000000000E+00  0.24182243506E+03  0.24182243506E+03  0.00000000000E+00 0.  1.
          1   -1    0    0  502    0  0.00000000000E+00 -0.00000000000E+00 -0.14201208691E+03  0.14201208691E+03  0.00000000000E+00 0. -1.
         23    2    1    2    0    0  0.78916383880E+02 -0.66602441892E+02  0.13400048607E+03  0.19272348767E+03  0.92317558035E+02 0.  0.
        -24    2    1    2    0    0 -0.71539960253E+02  0.88989610199E+02  0.11897780712E+02  0.13934528139E+03  0.78983755438E+02 0.  0.
         13    1    4    4    0    0 -0.47125051522E+02  0.36722789203E+02 -0.31139634162E+02  0.67372179300E+02  0.00000000000E+00 0. -1.
        -14    1    4    4    0    0 -0.24414908731E+02  0.52266820996E+02  0.43037414874E+02  0.71973102090E+02  0.00000000000E+00 0.  1.
        -13    1    3    3    0    0  0.50820264260E+02 -0.59752653028E+01  0.11070359758E+03  0.12195773683E+03  0.00000000000E+00 0.  1.
         13    1    3    3    0    0  0.28096119621E+02 -0.60627176589E+02  0.23296888491E+02  0.70765750842E+02  0.00000000000E+00 0. -1.
         21    1    1    2  502  501 -0.73764236272E+01 -0.22387168307E+02 -0.46087918638E+02  0.51765752914E+02  0.00000000000E+00 0.  1.
<scales pt_clust_5="13000.00000" pt_clust_6="13000.00000" pt_clust_7="13000.00000" pt_clust_8="13000.00000" pt_clust_9="23.57110"></scales>
<clustering>
<clus scale="   23.571">  2  9  1 -1</clus>
<clus scale="   78.984">  5  6 -1 -1</clus>
<clus scale="   92.318">  7  8 -1 -1</clus>
<clus scale="  132.404">  2  5  1 -1</clus>
<clus scale="   23.571">  2  5  1 -1</clus>
</clustering>
</event>
<event>
 9    1  0.2374319E-005  0.2830840E+03  0.7546771E-02  0.1094016E+00
         -2   -1    0    0    0  501 -0.00000000000E+00  0.00000000000E+00  0.98368203400E+03  0.98368203400E+03  0.00000000000E+00 0.  1.
          1   -1    0    0  502    0  0.00000000000E+00 -0.00000000000E+00 -0.87913012173E+02  0.87913012173E+02  0.00000000000E+00 0. -1.
        -24    2    1    2    0    0  0.61009683369E+02 -0.20278246436E+02  0.60040732269E+02  0.11481206186E+03  0.73780290548E+02 0.  0.
         23    2    1    2    0    0  0.13497318026E+03 -0.92745984528E+02  0.15864658509E+03  0.24290386699E+03  0.83749463309E+02 0.  0.
         11    1    3    3    0    0  0.36066936229E+02 -0.45508908182E+02  0.53047983004E+02  0.78650957487E+02  0.00000000000E+00 0. -1.
        -12    1    3    3    0    0  0.24942747140E+02  0.25230661746E+02  0.69927492657E+01  0.36161104371E+02  0.00000000000E+00 0.  1.
        -11    1    4    4    0    0  0.30229221149E+02 -0.43900936141E+02  0.99962224648E+02  0.11328523453E+03  0.00000000000E+00 0.  1.
         11    1    4    4    0    0  0.10474395911E+03 -0.48845048387E+02  0.58684360438E+02  0.12961863246E+03  0.00000000000E+00 0. -1.
         21    1    1    2  502  501 -0.19598286363E+03  0.11302423096E+03  0.67708170447E+03  0.71387911733E+03  0.00000000000E+00 0. -1.
<scales pt_clust_5="13000.00000" pt_clust_6="13000.00000" pt_clust_7="13000.00000" pt_clust_8="13000.00000" pt_clust_9="226.23828"></scales>
<clustering>
<clus scale="   73.780">  5  6 -1 -1</clus>
<clus scale="   83.749">  7  8 -1 -1</clus>
<clus scale="   89.849">  5  7 -1 -1</clus>
<clus scale="  226.238">  1  9  2 -1</clus>
<clus scale="  283.084">  2  5  1 -1</clus>
</clustering>
</event>
<event>
 9    1  0.2374319E-005  0.1149559E+03  0.7546771E-02  0.1254878E+00
         -2   -1    0    0    0  501 -0.00000000000E+00  0.00000000000E+00  0.44244531370E+02  0.44244531370E+02  0.00000000000E+00 0.  1.
          1   -1    0    0  502    0  0.00000000000E+00 -0.00000000000E+00 -0.45382885656E+03  0.45382885656E+03  0.00000000000E+00 0. -1.
         23    2    1    2    0    0  0.57559990193E+02  0.13956632415E+02 -0.10539415757E+03  0.15097288059E+03  0.90426446162E+02 0.  0.
        -24    2    1    2    0    0 -0.91725793736E+02  0.52039435621E+01 -0.18761097053E+03  0.22411620347E+03  0.81175699128E+02 0.  0.
         13    1    4    4    0    0 -0.14206945835E+02  0.26375994720E+02 -0.10366825439E+03  0.10791032099E+03  0.00000000000E+00 0. -1.
        -14    1    4    4    0    0 -0.77518847901E+02 -0.21172051158E+02 -0.83942716141E+02  0.11620588248E+03  0.00000000000E+00 0.  1.
        -13    1    3    3    0    0  0.40280319575E+02  0.27446117741E+02 -0.59064671106E+01  0.49098674909E+02  0.00000000000E+00 0.  1.
         13    1    3    3    0    0  0.17279670618E+02 -0.13489485326E+02 -0.99487690458E+02  0.10187420568E+03  0.00000000000E+00 0. -1.
         21    1    1    2  502  501  0.34165803543E+02 -0.19160575977E+02 -0.11657919709E+03  0.12298430387E+03  0.00000000000E+00 0. -1.
<scales pt_clust_5="13000.00000" pt_clust_6="13000.00000" pt_clust_7="13000.00000" pt_clust_8="13000.00000" pt_clust_9="39.17180"></scales>
<clustering>
<clus scale="   39.172">  2  9  1 -1</clus>
<clus scale="   81.176">  5  6 -1 -1</clus>
<clus scale="   90.426">  7  8 -1 -1</clus>
<clus scale="  107.830">  2  5  1 -1</clus>
<clus scale="   39.172">  2  5  1 -1</clus>
</clustering>
</event>
<event>
 9    1  0.2374319E-005  0.1388022E+03  0.7546771E-02  0.1217267E+00
         -2   -1    0    0    0  501 -0.00000000000E+00  0.00000000000E+00  0.41439495049E+02  0.41439495049E+02  0.00000000000E+00 0.  1.
          1   -1    0    0  502    0  0.00000000000E+00 -0.00000000000E+00 -0.83899942570E+03  0.83899942570E+03  0.00000000000E+00 0. -1.
        -24    2    1    2    0    0  0.75080953673E+02  0.69649758737E+02 -0.10380452371E+03  0.16649415088E+03  0.80353497986E+02 0.  0.
         23    2    1    2    0    0 -0.75312054916E+02 -0.89887038195E+02 -0.61154005089E+03  0.62927502522E+03  0.90852838566E+02 0.  0.
         11    1    3    3    0    0  0.91877681452E+02  0.63021800563E+02 -0.82913851811E+02  0.13888110929E+03  0.00000000000E+00 0. -1.
        -12    1    3    3    0    0 -0.16796727779E+02  0.66279581743E+01 -0.20890671897E+02  0.27613041592E+02  0.00000000000E+00 0.  1.
        -11    1    4    4    0    0 -0.88832200837E+02 -0.43582956115E+02 -0.37259910717E+03  0.38551359072E+03  0.00000000000E+00 0.  1.
         11    1    4    4    0    0  0.13520145921E+02 -0.46304082080E+02 -0.23894094372E+03  0.24376143450E+03  0.00000000000E+00 0. -1.
         21    1    1    2  502  501  0.23110124273E+00  0.20237279458E+02 -0.82215356054E+02  0.84669744648E+02  0.00000000000E+00 0.  1.
<scales pt_clust_5="13000.00000" pt_clust_6="13000.00000" pt_clust_7="13000.00000" pt_clust_8="13000.00000" pt_clust_9="20.23860"></scales>
<clustering>
<clus scale="   20.239">  2  9  1 -1</clus>
<clus scale="   80.353">  5  6 -1 -1</clus>
<clus scale="   90.853">  7  8 -1 -1</clus>
<clus scale="  132.168">  1  5  2 -1</clus>
<clus scale="   20.239">  2  5  1 -1</clus>
</clustering>
</event>
<event>
 9    1  0.2374319E-005  0.9737454E+02  0.7546771E-02  0.1292898E+00
          1   -1    0    0  502    0  0.00000000000E+00  0.00000000000E+00  0.80763169482E+02  0.80763169482E+02  0.00000000000E+00 0. -1.
         -2   -1    0    0    0  501 -0.00000000000E+00 -0.00000000000E+00 -0.18575214630E+03  0.18575214630E+03  0.00000000000E+00 0.  1.
        -24    2    1    2    0    0  0.41247965326E+01 -0.34880086039E+02 -0.11871165536E+03  0.14741819450E+03  0.80037694890E+02 0.  0.
         23    2    1    2    0    0  0.10502898849E+01  0.12390177942E+02  0.27747931458E+01  0.93554339907E+02  0.92682767655E+02 0.  0.
         13    1    3    3    0    0 -0.18140706648E+02  0.11509735186E+02 -0.80521027259E+02  0.83337836980E+02  0.00000000000E+00 0. -1.
        -14    1    3    3    0    0  0.22265503180E+02 -0.46389821225E+02 -0.38190628096E+02  0.64080357517E+02  0.00000000000E+00 0.  1.
        -11    1    4    4    0    0  0.31396756204E+02  0.34917709661E+02 -0.18163264694E+02  0.50347859264E+02  0.00000000000E+00 0.  1.
         11    1    4    4    0    0 -0.30346466320E+02 -0.22527531719E+02  0.20938057840E+02  0.43206480643E+02  0.00000000000E+00 0. -1.
         21    1    1    2  502  501 -0.51750864176E+01  0.22489908097E+02  0.10947885396E+02  0.25542781373E+02  0.00000000000E+00 0. -1.
<scales pt_clust_5="13000.00000" pt_clust_6="13000.00000" pt_clust_7="13000.00000" pt_clust_8="13000.00000" pt_clust_9="23.07764"></scales>
<clustering>
<clus scale="   23.078">  1  9  2 -1</clus>
<clus scale="   80.038">  5  6 -1 -1</clus>
<clus scale="   85.427">  2  5  1 -1</clus>
<clus scale="   92.683">  7  8 -1 -1</clus>
<clus scale="   23.078">  1  5  2 -1</clus>
</clustering>
</event>
<event>
 9    1  0.2374319E-005  0.1263400E+03  0.7546771E-02  0.1252368E+00
          1   -1    0    0  502    0  0.00000000000E+00  0.00000000000E+00  0.22924261484E+03  0.22924261484E+03  0.00000000000E+00 0. -1.
         -2   -1    0    0    0  501 -0.00000000000E+00 -0.00000000000E+00 -0.12542744484E+03  0.12542744484E+03  0.00000000000E+00 0.  1.
        -24    2    1    2    0    0  0.10253024467E+02  0.21596907468E+02 -0.22757135588E+02  0.88362825308E+02  0.81966766151E+02 0.  0.
         23    2    1    2    0    0  0.79134507211E+02 -0.38369016709E+02  0.20871646354E+02  0.12686526138E+03  0.89020880973E+02 0.  0.
         13    1    3    3    0    0 -0.31903210635E+02 -0.65112710549E+01  0.60954108205E+00  0.32566593926E+02  0.00000000000E+00 0. -1.
        -14    1    3    3    0    0  0.42156235102E+02  0.28108178523E+02 -0.23366676671E+02  0.55796231382E+02  0.00000000000E+00 0.  1.
        -11    1    4    4    0    0  0.60080482328E+02  0.66180895613E+01 -0.19474338038E+02  0.63503647991E+02  0.00000000000E+00 0.  1.
         11    1    4    4    0    0  0.19054024883E+02 -0.44987106271E+02  0.40345984392E+02  0.63361613391E+02  0.00000000000E+00 0. -1.
         21    1    1    2  502  501 -0.89387531678E+02  0.16772109241E+02  0.10570065923E+03  0.13944197298E+03  0.00000000000E+00 0. -1.
<scales pt_clust_5="13000.00000" pt_clust_6="13000.00000" pt_clust_7="13000.00000" pt_clust_8="13000.00000" pt_clust_9="89.64979"></scales>
<clustering>
<clus scale="   81.967">  5  6 -1 -1</clus>
<clus scale="   85.382">  2  5  1 -1</clus>
<clus scale="   89.021">  7  8 -1 -1</clus>
<clus scale="   89.650">  1  9  2 -1</clus>
<clus scale="   89.650">  1  5  2 -1</clus>
</clustering>
</event>
<event>
 9    1  0.2374319E-005  0.1522875E+03  0.7546771E-02  0.1199979E+00
          1   -1    0    0  502    0  0.00000000000E+00  0.00000000000E+00  0.11157614204E+04  0.11157614204E+04  0.00000000000E+00 0. -1.
         -2   -1    0    0    0  501 -0.00000000000E+00 -0.00000000000E+00 -0.25221308451E+02  0.25221308451E+02  0.00000000000E+00 0.  1.
         23    2    1    2    0    0 -0.77526922920E+02 -0.11120031348E+03  0.51830341362E+03  0.54301009975E+03  0.88575427560E+02 0.  0.
        -24    2    1    2    0    0  0.46665855972E+02  0.10639010718E+03  0.50860692798E+03  0.52709039428E+03  0.75144657398E+02 0.  0.
         11    1    4    4    0    0  0.48326829123E+02  0.40826871294E+02  0.15431975077E+03  0.16678399596E+03  0.00000000000E+00 0. -1.
        -12    1    4    4    0    0 -0.16609731506E+01  0.65563235888E+02  0.35428717721E+03  0.36030639832E+03  0.00000000000E+00 0.  1.
        -11    1    3    3    0    0 -0.92630156562E+02 -0.72413457284E+02  0.42250927720E+03  0.43856372857E+03  0.00000000000E+00 0. -1.
         11    1    3    3    0    0  0.15103233642E+02 -0.38786856193E+02  0.95794136420E+02  0.10444637118E+03  0.00000000000E+00 0.  1.
         21    1    1    2  502  501  0.30861066948E+02  0.48102062949E+01  0.63629770336E+02  0.70882234803E+02  0.00000000000E+00 0. -1.
<scales pt_clust_5="13000.00000" pt_clust_6="13000.00000" pt_clust_7="13000.00000" pt_clust_8="13000.00000" pt_clust_9="31.23369"></scales>
<clustering>
<clus scale="   31.234">  2  9  1 -1</clus>
<clus scale="   75.145">  5  6 -1 -1</clus>
<clus scale="   88.575">  7  8 -1 -1</clus>
<clus scale="  144.888">  1  5  2 -1</clus>
<clus scale="  144.888">  1  5  2 -1</clus>
</clustering>
</event>
<event>
 9    1  0.2374319E-005  0.9252513E+02  0.7546771E-02  0.1302020E+00
         -2   -1    0    0    0  501 -0.00000000000E+00  0.00000000000E+00  0.12590318030E+03  0.12590318030E+03  0.00000000000E+00 0.  1.
          1   -1    0    0  502    0  0.00000000000E+00 -0.00000000000E+00 -0.35093196693E+03  0.35093196693E+03  0.00000000000E+00 0. -1.
        -24    2    1    2    0    0 -0.12889348227E+02 -0.17964588107E+01  0.68589771863E+02  0.10687151182E+03  0.80917245824E+02 0.  0.
         23    2    1    2    0    0  0.80779545403E+02 -0.27848414292E+01 -0.77623000037E+02  0.14350359819E+03  0.89637393210E+02 0.  0.
         11    1    3    3    0    0  0.18114617681E+02  0.27646146088E+02  0.10375197257E+02  0.34642365470E+02  0.00000000000E+00 0. -1.
        -12    1    3    3    0    0 -0.31003965908E+02 -0.29442604899E+02  0.58214574607E+02  0.72229146346E+02  0.00000000000E+00 0.  1.
        -11    1    4    4    0    0  0.97933084988E+01 -0.39085114510E+02 -0.33364111137E+02  0.52313659589E+02  0.00000000000E+00 0.  1.
         11    1    4    4    0    0  0.70986236904E+02  0.36300273081E+02 -0.44258888900E+02  0.91189938601E+02  0.00000000000E+00 0. -1.
         21    1    1    2  502  501 -0.67890197176E+02  0.45813002399E+01 -0.21599555846E+03  0.22646003722E+03  0.00000000000E+00 0. -1.
<scales pt_clust_5="13000.00000" pt_clust_6="13000.00000" pt_clust_7="13000.00000" pt_clust_8="13000.00000" pt_clust_9="68.04460"></scales>
<clustering>
<clus scale="   68.045">  2  9  1 -1</clus>
<clus scale="   80.917">  5  6 -1 -1</clus>
<clus scale="   84.105">  1  5  2 -1</clus>
<clus scale="   89.637">  7  8 -1 -1</clus>
<clus scale="   68.045">  2  5  1 -1</clus>
</clustering>
</event>
<event>
 9    1  0.2374319E-005  0.1200195E+03  0.7546771E-02  0.1247642E+00
          1   -1    0    0  502    0  0.00000000000E+00  0.00000000000E+00  0.26741263115E+03  0.26741263115E+03  0.00000000000E+00 0. -1.
         -2   -1    0    0    0  501 -0.00000000000E+00 -0.00000000000E+00 -0.99407539173E+02  0.99407539173E+02  0.00000000000E+00 0.  1.
         23    2    1    2    0    0  0.37705938851E+02 -0.33001932052E+02 -0.19222732868E+02  0.10921288817E+03  0.95116119242E+02 0.  0.
        -24    2    1    2    0    0 -0.64595980484E+02  0.44960157333E+02  0.19647615371E+03  0.22675918533E+03  0.81380542589E+02 0.  0.
         13    1    4    4    0    0 -0.37927988078E+02 -0.61264254438E+01  0.14324605770E+03  0.14830879413E+03  0.00000000000E+00 0. -1.
        -14    1    4    4    0    0 -0.26667992406E+02  0.51086582776E+02  0.53230096013E+02  0.78450391206E+02  0.00000000000E+00 0.  1.
        -13    1    3    3    0    0  0.24468579234E+02  0.27014831359E+02 -0.29511723391E+02  0.46898340062E+02  0.00000000000E+00 0.  1.
         13    1    3    3    0    0  0.13237359616E+02 -0.60016763410E+02  0.10288990523E+02  0.62314548108E+02  0.00000000000E+00 0. -1.
         21    1    1    2  502  501  0.26890041633E+02 -0.11958225281E+02 -0.92483288662E+01  0.30848096825E+02  0.00000000000E+00 0.  1.
<scales pt_clust_5="13000.00000" pt_clust_6="13000.00000" pt_clust_7="13000.00000" pt_clust_8="13000.00000" pt_clust_9="29.42913"></scales>
<clustering>
<clus scale="   29.429">  2  9  1 -1</clus>
<clus scale="   81.381">  5  6 -1 -1</clus>
<clus scale="   95.116">  7  8 -1 -1</clus>
<clus scale="  109.455">  1  5  2 -1</clus>
<clus scale="  109.455">  1  5  2 -1</clus>
</clustering>
</event>
<event>
 9    1  0.3533272E-005  0.1112712E+03  0.7546771E-02  0.1265318E+00
         -2   -1    0    0    0  501 -0.00000000000E+00  0.00000000000E+00  0.95640540821E+02  0.95640540821E+02  0.00000000000E+00 0.  1.
          1   -1    0    0  502    0  0.00000000000E+00 -0.00000000000E+00 -0.55809500280E+03  0.55809500280E+03  0.00000000000E+00 0. -1.
        -24    2    1    2    0    0  0.28021017558E+02 -0.18189546281E+02  0.51684083773E+02  0.12221431230E+03  0.10558909317E+03 0.  0.
         23    2    1    2    0    0 -0.46495775382E+02  0.33874169578E+02 -0.45860390938E+03  0.47092898824E+03  0.90262117043E+02 0.  0.
         11    1    3    3    0    0  0.20136354098E+02  0.43131983125E+02  0.13231249562E+02  0.49405532986E+02  0.00000000000E+00 0. -1.
        -12    1    3    3    0    0  0.78846634596E+01 -0.61321529406E+02  0.38452834210E+02  0.72808779315E+02  0.00000000000E+00 0.  1.
        -13    1    4    4    0    0 -0.14762100014E+01 -0.29308936398E+02 -0.11663533154E+03  0.12027050142E+03  0.00000000000E+00 0.  1.
         13    1    4    4    0    0 -0.45019565380E+02  0.63183105976E+02 -0.34196857784E+03  0.35065848682E+03  0.00000000000E+00 0. -1.
         21    1    1    2  502  501  0.18474757824E+02 -0.15684623297E+02 -0.55534636370E+02  0.60592243079E+02  0.00000000000E+00 0. -1.
<scales pt_clust_5="13000.00000" pt_clust_6="13000.00000" pt_clust_7="13000.00000" pt_clust_8="13000.00000" pt_clust_9="24.23477"></scales>
<clustering>
<clus scale="   24.235">  2  9  1 -1</clus>
<clus scale="   90.262">  7  8 -1 -1</clus>
<clus scale="   96.848">  2  7  1 -1</clus>
<clus scale="  105.589">  5  6 -1 -1</clus>
<clus scale="   24.235">  2  5  1 -1</clus>
</clustering>
</event>
<event>
 9    1  0.2374319E-005  0.1573500E+03  0.7546771E-02  0.1193785E+00
         -2   -1    0    0    0  501 -0.00000000000E+00  0.00000000000E+00  0.62896912025E+02  0.62896912025E+02  0.00000000000E+00 0.  1.
          1   -1    0    0  502    0  0.00000000000E+00 -0.00000000000E+00 -0.57922001282E+03  0.57922001282E+03  0.00000000000E+00 0. -1.
         23    2    1    2    0    0 -0.12826980016E+03  0.30328147260E+02 -0.88435610525E+02  0.18328549935E+03  0.91650307770E+02 0.  0.
        -24    2    1    2    0    0  0.11785727394E+03 -0.10660740802E+02 -0.35007820227E+03  0.37790236471E+03  0.79066182006E+02 0.  0.
         11    1    4    4    0    0  0.44579719423E+02  0.17370460870E+02 -0.22668582885E+03  0.23167984223E+03  0.00000000000E+00 0. -1.
        -12    1    4    4    0    0  0.73277554516E+02 -0.28031201672E+02 -0.12339237342E+03  0.14622252248E+03  0.00000000000E+00 0.  1.
        -13    1    3    3    0    0 -0.11528931398E+03 -0.57003226200E+01 -0.41395938910E+02  0.12262847693E+03  0.00000000000E+00 0.  1.
         13    1    3    3    0    0 -0.12980486181E+02  0.36028469880E+02 -0.47039671616E+02  0.60657022422E+02  0.00000000000E+00 0. -1.
         21    1    1    2  502  501  0.10412526224E+02 -0.19667406459E+02 -0.77809287995E+02  0.80929060773E+02  0.00000000000E+00 0. -1.
<scales pt_clust_5="13000.00000" pt_clust_6="13000.00000" pt_clust_7="13000.00000" pt_clust_8="13000.00000" pt_clust_9="22.25371"></scales>
<clustering>
<clus scale="   22.254">  2  9  1 -1</clus>
<clus scale="   79.066">  5  6 -1 -1</clus>
<clus scale="   91.650">  7  8 -1 -1</clus>
<clus scale="  150.369">  2  5  1 -1</clus>
<clus scale="   22.254">  2  5  1 -1</clus>
</clustering>
</event>
<event>
 9    1  0.2374319E-005  0.1193180E+03  0.7546771E-02  0.1245368E+00
         -2   -1    0    0    0  501 -0.00000000000E+00  0.00000000000E+00  0.47044689306E+03  0.47044689306E+03  0.00000000000E+00 0.  1.
          1   -1    0    0  502    0  0.00000000000E+00 -0.00000000000E+00 -0.62521887386E+02  0.62521887386E+02  0.00000000000E+00 0. -1.
         23    2    1    2    0    0 -0.61904728115E+02 -0.40200204257E+02  0.29983389363E+03  0.32056076068E+03  0.86084759020E+02 0.  0.
        -24    2    1    2    0    0  0.68696389981E+02  0.60677092639E+02  0.12932026944E+03  0.18214076431E+03  0.89725260481E+02 0.  0.
         13    1    4    4    0    0  0.58806106517E+02  0.59862831214E+02  0.41236154112E+02  0.93499396418E+02  0.00000000000E+00 0. -1.
        -14    1    4    4    0    0  0.98902834639E+01  0.81426142519E+00  0.88084115332E+02  0.88641367896E+02  0.00000000000E+00 0.  1.
        -13    1    3    3    0    0 -0.47650629175E+02 -0.66673323686E+02  0.19551371874E+03  0.21199417154E+03  0.00000000000E+00 0.  1.
         13    1    3    3    0    0 -0.14254098940E+02  0.26473119429E+02  0.10432017489E+03  0.10856658914E+03  0.00000000000E+00 0. -1.
         21    1    1    2  502  501 -0.67916618655E+01 -0.20476888382E+02 -0.21229157397E+02  0.30267255450E+02  0.00000000000E+00 0. -1.
<scales pt_clust_5="13000.00000" pt_clust_6="13000.00000" pt_clust_7="13000.00000" pt_clust_8="13000.00000" pt_clust_9="21.57382"></scales>
<clustering>
<clus scale="   21.574">  2  9  1 -1</clus>
<clus scale="   86.085">  7  8 -1 -1</clus>
<clus scale="   89.725">  5  6 -1 -1</clus>
<clus scale="  116.605">  1  7  2 -1</clus>
<clus scale="   21.574">  2  5  1 -1</clus>
</clustering>
</event>
<event>
 9    1  0.2374319E-005  0.1621096E+03  0.7546771E-02  0.1187738E+00
          1   -1    0    0  502    0  0.00000000000E+00  0.00000000000E+00  0.32502210012E+03  0.32502210012E+03  0.00000000000E+00 0. -1.
         -2   -1    0    0    0  501 -0.00000000000E+00 -0.00000000000E+00 -0.99029809363E+02  0.99029809363E+02  0.00000000000E+00 0.  1.
         23    2    1    2    0    0 -0.10735418928E+02 -0.14351126104E+03  0.53553957231E+02  0.17834901669E+03  0.90717220822E+02 0.  0.
        -24    2    1    2    0    0  0.23234571221E+02  0.11902451630E+03  0.13269206035E+03  0.19737489151E+03  0.81504503798E+02 0.  0.
         11    1    4    4    0    0 -0.16753379288E+02  0.14792779408E+02 -0.19912674692E+01  0.22438074478E+02  0.00000000000E+00 0. -1.
        -12    1    4    4    0    0  0.39987950509E+02  0.10423173689E+03  0.13468332782E+03  0.17493681703E+03  0.00000000000E+00 0.  1.
        -11    1    3    3    0    0 -0.15127636628E+02 -0.57102364944E+02  0.68601206990E+02  0.90529835262E+02  0.00000000000E+00 0. -1.
         11    1    3    3    0    0  0.43922177001E+01 -0.86408896100E+02 -0.15047249759E+02  0.87819181429E+02  0.00000000000E+00 0.  1.
         21    1    1    2  502  501 -0.12499152293E+02  0.24486744749E+02  0.39746273173E+02  0.48328001279E+02  0.00000000000E+00 0. -1.
<scales pt_clust_5="13000.00000" pt_clust_6="13000.00000" pt_clust_7="13000.00000" pt_clust_8="13000.00000" pt_clust_9="27.49235"></scales>
<clustering>
<clus scale="   27.492">  1  9  2 -1</clus>
<clus scale="   81.505">  5  6 -1 -1</clus>
<clus scale="   90.717">  7  8 -1 -1</clus>
<clus scale="  157.140">  1  5  2 -1</clus>
<clus scale="   27.492">  1  5  2 -1</clus>
</clustering>
</event>
<event>
 9    1  0.2374319E-005  0.9321454E+02  0.7546771E-02  0.1301941E+00
         -4   -1    0    0    0  501 -0.00000000000E+00  0.00000000000E+00  0.13283709911E+03  0.13283709911E+03  0.00000000000E+00 0.  1.
          3   -1    0    0  502    0  0.00000000000E+00 -0.00000000000E+00 -0.23058492642E+03  0.23058492642E+03  0.00000000000E+00 0. -1.
        -24    2    1    2    0    0  0.11503511891E+02  0.19396214520E+01  0.75508437237E+02  0.11078155863E+03  0.80218057329E+02 0.  0.
         23    2    1    2    0    0 -0.46551544525E+02 -0.49483911157E+01 -0.32626987665E+02  0.10767836563E+03  0.91315810399E+02 0.  0.
         13    1    3    3    0    0  0.90550628483E+01  0.21951925174E+02 -0.78573971158E+01  0.25012394357E+02  0.00000000000E+00 0. -1.
        -14    1    3    3    0    0  0.24484490424E+01 -0.20012303722E+02  0.83365834353E+02  0.85769164275E+02  0.00000000000E+00 0.  1.
        -13    1    4    4    0    0 -0.18857019926E+02  0.28969006335E+02 -0.49819387425E+02  0.60636308363E+02  0.00000000000E+00 0. -1.
         13    1    4    4    0    0 -0.27694524599E+02 -0.33917397450E+02  0.17192399760E+02  0.47042057269E+02  0.00000000000E+00 0.  1.
         21    1    1    2  502  501  0.35048032634E+02  0.30087696637E+01 -0.14062927688E+03  0.14496210126E+03  0.00000000000E+00 0.  1.
<scales pt_clust_5="13000.00000" pt_clust_6="13000.00000" pt_clust_7="13000.00000" pt_clust_8="13000.00000" pt_clust_9="35.17694"></scales>
<clustering>
<clus scale="   35.177">  2  9  1 -1</clus>
<clus scale="   80.218">  5  6 -1 -1</clus>
<clus scale="   82.373">  1  5  2 -1</clus>
<clus scale="   91.316">  7  8 -1 -1</clus>
<clus scale="   35.177">  2  5  1 -1</clus>
</clustering>
</event>
<event>
 9    1  0.2374319E-005  0.1146378E+03  0.7546771E-02  0.1256797E+00
          1   -1    0    0  502    0  0.00000000000E+00  0.00000000000E+00  0.59274703514E+02  0.59274703514E+02  0.00000000000E+00 0. -1.
         -2   -1    0    0    0  501 -0.00000000000E+00 -0.00000000000E+00 -0.45398183007E+03  0.45398183007E+03  0.00000000000E+00 0.  1.
        -24    2    1    2    0    0  0.13339285074E+02 -0.71845414659E+02 -0.27775221806E+03  0.29827390587E+03  0.80506696316E+02 0.  0.
         23    2    1    2    0    0  0.28824946941E+02  0.56563706697E+02 -0.12621174088E+03  0.16918915650E+03  0.93087252936E+02 0.  0.
         11    1    3    3    0    0  0.25019757199E+02 -0.86411282765E+02 -0.23452024350E+03  0.25118248875E+03  0.00000000000E+00 0. -1.
        -12    1    3    3    0    0 -0.11680472125E+02  0.14565868106E+02 -0.43231974558E+02  0.47091417126E+02  0.00000000000E+00 0.  1.
        -13    1    4    4    0    0 -0.22973646685E+02 -0.18180528387E+01 -0.68069272969E+02  0.71864592678E+02  0.00000000000E+00 0. -1.
         13    1    4    4    0    0  0.51798593626E+02  0.58381759536E+02 -0.58142467913E+02  0.97324563822E+02  0.00000000000E+00 0.  1.
         21    1    1    2  502  501 -0.42164232015E+02  0.15281707962E+02  0.92568323893E+01  0.45793471211E+02  0.00000000000E+00 0. -1.
<scales pt_clust_5="13000.00000" pt_clust_6="13000.00000" pt_clust_7="13000.00000" pt_clust_8="13000.00000" pt_clust_9="44.84811"></scales>
<clustering>
<clus scale="   44.848">  1  9  2 -1</clus>
<clus scale="   80.507">  5  6 -1 -1</clus>
<clus scale="   93.087">  7  8 -1 -1</clus>
<clus scale="  104.680">  2  5  1 -1</clus>
<clus scale="   44.848">  1  5  2 -1</clus>
</clustering>
</event>
<event>
 9    1  0.2374319E-005  0.1018453E+03  0.7546771E-02  0.1279082E+00
         -2   -1    0    0    0  501 -0.00000000000E+00  0.00000000000E+00  0.10708981998E+04  0.10708981998E+04  0.00000000000E+00 0.  1.
          1   -1    0    0  502    0  0.00000000000E+00 -0.00000000000E+00 -0.29216054728E+03  0.29216054728E+03  0.00000000000E+00 0. -1.
        -24    2    1    2    0    0  0.37073177944E+02 -0.37893517934E+02  0.10330738270E+04  0.10375871757E+04  0.80841052903E+02 0.  0.
         23    2    1    2    0    0 -0.62095873893E+02  0.34449451978E+02 -0.55583386727E+02  0.12512021121E+03  0.86734607148E+02 0.  0.
         13    1    3    3    0    0 -0.21772695782E+02 -0.93376030589E+01  0.12950722197E+03  0.13165622528E+03  0.00000000000E+00 0. -1.
        -14    1    3    3    0    0  0.58845873726E+02 -0.28555914875E+02  0.90356660503E+03  0.90593095038E+03  0.00000000000E+00 0.  1.
        -13    1    4    4    0    0 -0.40481005267E+02  0.17714972160E+02 -0.78080866695E+02  0.89717076245E+02  0.00000000000E+00 0. -1.
         13    1    4    4    0    0 -0.21614868625E+02  0.16734479818E+02  0.22497479968E+02  0.35403134966E+02  0.00000000000E+00 0.  1.
         21    1    1    2  502  501  0.25022695948E+02  0.34440659564E+01 -0.19875278774E+03  0.20035136021E+03  0.00000000000E+00 0. -1.
<scales pt_clust_5="13000.00000" pt_clust_6="13000.00000" pt_clust_7="13000.00000" pt_clust_8="13000.00000" pt_clust_9="25.25860"></scales>
<clustering>
<clus scale="   25.259">  2  9  1 -1</clus>
<clus scale="   80.841">  5  6 -1 -1</clus>
<clus scale="   86.735">  7  8 -1 -1</clus>
<clus scale="   96.875">  1  5  2 -1</clus>
<clus scale="   25.259">  2  5  1 -1</clus>
</clustering>
</event>
<event>
 9    1  0.2374319E-005  0.1563043E+03  0.7546771E-02  0.1195023E+00
         -2   -1    0    0    0  501 -0.00000000000E+00  0.00000000000E+00  0.31977934649E+02  0.31977934649E+02  0.00000000000E+00 0.  1.
          1   -1    0    0  502    0  0.00000000000E+00 -0.00000000000E+00 -0.99436827270E+03  0.99436827270E+03  0.00000000000E+00 0. -1.
        -24    2    1    2    0    0 -0.12125337522E+03  0.46055245533E+02 -0.26066018652E+03  0.30118463528E+03  0.77103729120E+02 0.  0.
         23    2    1    2    0    0  0.10534554085E+03 -0.69035112446E+02 -0.58362801129E+03  0.60379745461E+03  0.89923194500E+02 0.  0.
         11    1    3    3    0    0 -0.62304152027E+02  0.22825950731E+02 -0.20947176329E+03  0.21972995018E+03  0.00000000000E+00 0. -1.
        -12    1    3    3    0    0 -0.58949223193E+02  0.23229294802E+02 -0.51188423230E+02  0.81454685101E+02  0.00000000000E+00 0.  1.
        -13    1    4    4    0    0  0.83848881168E+02 -0.30325391376E+01 -0.35976304704E+03  0.36941748901E+03  0.00000000000E+00 0. -1.
         13    1    4    4    0    0  0.21496659686E+02 -0.66002573309E+02 -0.22386496425E+03  0.23437996561E+03  0.00000000000E+00 0.  1.
         21    1    1    2  502  501  0.15907834366E+02  0.22979866914E+02 -0.11810214024E+03  0.12136411746E+03  0.00000000000E+00 0.  1.
<scales pt_clust_5="13000.00000" pt_clust_6="13000.00000" pt_clust_7="13000.00000" pt_clust_8="13000.00000" pt_clust_9="27.94877"></scales>
<clustering>
<clus scale="   27.949">  2  9  1 -1</clus>
<clus scale="   77.104">  5  6 -1 -1</clus>
<clus scale="   89.923">  7  8 -1 -1</clus>
<clus scale="  149.298">  1  5  2 -1</clus>
<clus scale="   27.949">  2  5  1 -1</clus>
</clustering>
</event>
<event>
 9    1  0.2589829E-005  0.1227675E+03  0.7546771E-02  0.1241301E+00
         -2   -1    0    0    0  501 -0.00000000000E+00  0.00000000000E+00  0.18263175092E+03  0.18263175092E+03  0.00000000000E+00 0.  1.
          1   -1    0    0  502    0  0.00000000000E+00 -0.00000000000E+00 -0.36357395663E+03  0.36357395663E+03  0.00000000000E+00 0. -1.
        -24    2    1    2    0    0  0.82810431931E+02 -0.14847342424E+02  0.14323507651E+03  0.18430901682E+03  0.79846824130E+02 0.  0.
         23    2    1    2    0    0 -0.83771185728E+02  0.37619006305E+02 -0.30917611040E+03  0.33461103736E+03  0.89117214323E+02 0.  0.
         13    1    3    3    0    0  0.30053963385E+01  0.22885309113E+02  0.11646865214E+02  0.25853805322E+02  0.00000000000E+00 0. -1.
        -14    1    3    3    0    0  0.79805035593E+02 -0.37732651537E+02  0.13158821129E+03  0.15845521149E+03  0.00000000000E+00 0.  1.
        -11    1    4    4    0    0  0.51762168712E+01 -0.20564230573E+02 -0.62893701872E+02  0.66372423004E+02  0.00000000000E+00 0.  1.
         11    1    4    4    0    0 -0.88947402599E+02  0.58183236878E+02 -0.24628240853E+03  0.26823861436E+03  0.00000000000E+00 0. -1.
         21    1    1    2  502  501  0.96075379622E+00 -0.22771663881E+02 -0.15001171819E+02  0.27285653368E+02  0.00000000000E+00 0.  1.
<scales pt_clust_5="13000.00000" pt_clust_6="13000.00000" pt_clust_7="13000.00000" pt_clust_8="13000.00000" pt_clust_9="22.79192"></scales>
<clustering>
<clus scale="   22.792">  2  9  1 -1</clus>
<clus scale="   79.847">  5  6 -1 -1</clus>
<clus scale="   89.117">  7  8 -1 -1</clus>
<clus scale="  116.213">  1  5  2 -1</clus>
<clus scale="   22.792">  2  5  1 -1</clus>
</clustering>
</event>
<event>
 9    1  0.2374319E-005  0.2407831E+03  0.7546771E-02  0.1144569E+00
          1   -1    0    0  502    0  0.00000000000E+00  0.00000000000E+00  0.74404329103E+03  0.74404329103E+03  0.00000000000E+00 0. -1.
         -2   -1    0    0    0  501 -0.00000000000E+00 -0.00000000000E+00 -0.14382145406E+03  0.14382145406E+03  0.00000000000E+00 0.  1.
         23    2    1    2    0    0  0.56892538434E+02 -0.75657183125E+02  0.16689206968E+02  0.13070373235E+03  0.88567294940E+02 0.  0.
        -24    2    1    2    0    0 -0.18451903797E+03 -0.12444739384E+03  0.22185562548E+03  0.32456348535E+03  0.81161002083E+02 0.  0.
         13    1    4    4    0    0 -0.19506569901E+02 -0.50557187422E+02  0.34741129018E+02  0.64369880493E+02  0.00000000000E+00 0. -1.
        -14    1    4    4    0    0 -0.16501246807E+03 -0.73890206421E+02  0.18711449646E+03  0.26019360486E+03  0.00000000000E+00 0.  1.
        -11    1    3    3    0    0  0.30983159460E+02 -0.76548384439E+02  0.43560300053E+02  0.93365470443E+02  0.00000000000E+00 0.  1.
         11    1    3    3    0    0  0.25909378974E+02  0.89120131389E+00 -0.26871093085E+02  0.37338261906E+02  0.00000000000E+00 0. -1.
         21    1    1    2  502  501  0.12762649954E+03  0.20010457697E+03  0.36167700452E+03  0.43259752739E+03  0.00000000000E+00 0. -1.
<scales pt_clust_5="13000.00000" pt_clust_6="13000.00000" pt_clust_7="13000.00000" pt_clust_8="13000.00000" pt_clust_9="226.69226"></scales>
<clustering>
<clus scale="   81.161">  5  6 -1 -1</clus>
<clus scale="   88.567">  7  8 -1 -1</clus>
<clus scale="  129.634">  2  7  1 -1</clus>
<clus scale="  226.692">  1  9  2 -1</clus>
<clus scale="  226.692">  1  5  2 -1</clus>
</clustering>
</event>
<event>
 9    1  0.2374319E-005  0.9199131E+02  0.7546771E-02  0.1305274E+00
          1   -1    0    0  502    0  0.00000000000E+00  0.00000000000E+00  0.17714084067E+03  0.17714084067E+03  0.00000000000E+00 0. -1.
         -2   -1    0    0    0  501 -0.00000000000E+00 -0.00000000000E+00 -0.15785396915E+03  0.15785396915E+03  0.00000000000E+00 0.  1.
         23    2    1    2    0    0  0.84766999181E+01 -0.15838873041E+01 -0.12439683652E+03  0.15479470033E+03  0.91719480889E+02 0.  0.
        -24    2    1    2    0    0  0.61284393714E+01 -0.15568235256E+02  0.13036631140E+03  0.15403030904E+03  0.80312098951E+02 0.  0.
         11    1    4    4    0    0  0.68293616700E+01 -0.26260225680E+02  0.13814820123E+03  0.14078765974E+03  0.00000000000E+00 0. -1.
        -12    1    4    4    0    0 -0.70092229857E+00  0.10691990424E+02 -0.77818898251E+01  0.13242649303E+02  0.00000000000E+00 0.  1.
        -13    1    3    3    0    0 -0.45500142023E+00  0.28888748545E+02 -0.11915808617E+03  0.12261083280E+03  0.00000000000E+00 0.  1.
         13    1    3    3    0    0  0.89317013383E+01 -0.30472635849E+02 -0.52387503474E+01  0.32183867536E+02  0.00000000000E+00 0. -1.
         21    1    1    2  502  501 -0.14605139289E+02  0.17152122560E+02  0.13317396637E+02  0.26169800442E+02  0.00000000000E+00 0.  1.
<scales pt_clust_5="13000.00000" pt_clust_6="13000.00000" pt_clust_7="13000.00000" pt_clust_8="13000.00000" pt_clust_9="22.52788"></scales>
<clustering>
<clus scale="   22.528">  1  9  2 -1</clus>
<clus scale="   80.312">  5  6 -1 -1</clus>
<clus scale="   80.622">  1  5  2 -1</clus>
<clus scale="   91.719">  7  8 -1 -1</clus>
<clus scale="   22.528">  1  5  2 -1</clus>
</clustering>
</event>
<event>
 9    1  0.2374319E-005  0.5940888E+03  0.7546771E-02  0.9918483E-01
          1   -1    0    0  502    0  0.00000000000E+00  0.00000000000E+00  0.18981910222E+04  0.18981910222E+04  0.00000000000E+00 0. -1.
         -2   -1    0    0    0  501 -0.00000000000E+00 -0.00000000000E+00 -0.21156190344E+03  0.21156190344E+03  0.00000000000E+00 0.  1.
         23    2    1    2    0    0 -0.10312918979E+03  0.56185120601E+03  0.65942042599E+03  0.87711454712E+03  0.90455641429E+02 0.  0.
        -24    2    1    2    0    0  0.13482741441E+03 -0.59164801077E+03  0.83377495237E+03  0.10343728017E+04  0.80750364848E+02 0.  0.
         13    1    4    4    0    0  0.58165550246E+02 -0.23429874449E+03  0.26678255434E+03  0.35979447495E+03  0.00000000000E+00 0. -1.
        -14    1    4    4    0    0  0.76661864163E+02 -0.35734926628E+03  0.56699239804E+03  0.67457832678E+03  0.00000000000E+00 0.  1.
        -13    1    3    3    0    0 -0.27378036690E+02  0.67079625048E+02  0.12801014947E+03  0.14709123480E+03  0.00000000000E+00 0. -1.
         13    1    3    3    0    0 -0.75751153104E+02  0.49477158096E+03  0.53141027653E+03  0.73002331232E+03  0.00000000000E+00 0.  1.
         21    1    1    2  502  501 -0.31698224614E+02  0.29796804762E+02  0.19343374041E+03  0.19826557681E+03  0.00000000000E+00 0.  1.
<scales pt_clust_5="13000.00000" pt_clust_6="13000.00000" pt_clust_7="13000.00000" pt_clust_8="13000.00000" pt_clust_9="43.50433"></scales>
<clustering>
<clus scale="   43.504">  1  9  2 -1</clus>
<clus scale="   80.750">  5  6 -1 -1</clus>
<clus scale="   90.456">  7  8 -1 -1</clus>
<clus scale="  592.689">  1  5  2 -1</clus>
<clus scale="   43.504">  1  5  2 -1</clus>
</clustering>
</event>
<event>
 9    1  0.2374319E-005  0.9971157E+02  0.7546771E-02  0.1286781E+00
         -4   -1    0    0    0  501 -0.00000000000E+00  0.00000000000E+00  0.28993447311E+03  0.28993447311E+03  0.00000000000E+00 0.  1.
          3   -1    0    0  502    0  0.00000000000E+00 -0.00000000000E+00 -0.15933692047E+03  0.15933692047E+03  0.00000000000E+00 0. -1.
         23    2    1    2    0    0  0.39642684296E+02  0.15661342114E+02  0.25097289220E+03  0.27014802790E+03  0.90419822515E+02 0.  0.
        -24    2    1    2    0    0 -0.21090574125E+02 -0.36576884598E+02 -0.12190977192E+03  0.15112345154E+03  0.78699582673E+02 0.  0.
         13    1    4    4    0    0 -0.28851131444E+02 -0.54850608474E+02 -0.11399030377E+03  0.12974885891E+03  0.00000000000E+00 0. -1.
        -14    1    4    4    0    0  0.77605573186E+01  0.18273723876E+02 -0.79194681430E+01  0.21374592625E+02  0.00000000000E+00 0.  1.
        -11    1    3    3    0    0  0.27953931825E+02  0.35132783841E+02  0.24133743010E+03  0.24547808451E+03  0.00000000000E+00 0.  1.
         11    1    3    3    0    0  0.11688752472E+02 -0.19471441727E+02  0.96354621025E+01  0.24669943397E+02  0.00000000000E+00 0. -1.
         21    1    1    2  502  501 -0.18552110171E+02  0.20915542484E+02  0.15344323536E+01  0.27999914140E+02  0.00000000000E+00 0. -1.
<scales pt_clust_5="13000.00000" pt_clust_6="13000.00000" pt_clust_7="13000.00000" pt_clust_8="13000.00000" pt_clust_9="27.95784"></scales>
<clustering>
<clus scale="   27.958">  2  9  1 -1</clus>
<clus scale="   78.700">  5  6 -1 -1</clus>
<clus scale="   89.220">  2  5  1 -1</clus>
<clus scale="   90.420">  7  8 -1 -1</clus>
<clus scale="   27.958">  2  5  1 -1</clus>
</clustering>
</event>
<event>
 9    1  0.2374319E-005  0.1250319E+03  0.7546771E-02  0.1237848E+00
          1   -1    0    0  502    0  0.00000000000E+00  0.00000000000E+00  0.31504703106E+03  0.31504703106E+03  0.00000000000E+00 0. -1.
         -2   -1    0    0    0  501 -0.00000000000E+00 -0.00000000000E+00 -0.22647612364E+03  0.22647612364E+03  0.00000000000E+00 0.  1.
         23    2    1    2    0    0  0.87285309123E+02  0.14996293283E+02 -0.19214370965E+03  0.23002002437E+03  0.90257367859E+02 0.  0.
        -24    2    1    2    0    0 -0.66024728906E+02 -0.34980108393E+01  0.17948398107E+03  0.20742688697E+03  0.80249068966E+02 0.  0.
         11    1    4    4    0    0 -0.22024678919E+02  0.37697696521E+02  0.72472413218E+02  0.84607644348E+02  0.00000000000E+00 0. -1.
        -12    1    4    4    0    0 -0.44000049987E+02 -0.41195707360E+02  0.10701156785E+03  0.12281924262E+03  0.00000000000E+00 0.  1.
        -13    1    3    3    0    0  0.12615922849E+01  0.37479875695E+02 -0.59567921038E+02  0.70389416207E+02  0.00000000000E+00 0. -1.
         13    1    3    3    0    0  0.86023716838E+02 -0.22483582412E+02 -0.13257578861E+03  0.15963060816E+03  0.00000000000E+00 0.  1.
         21    1    1    2  502  501 -0.21260580217E+02 -0.11498282444E+02  0.10123063599E+03  0.10407624337E+03  0.00000000000E+00 0. -1.
<scales pt_clust_5="13000.00000" pt_clust_6="13000.00000" pt_clust_7="13000.00000" pt_clust_8="13000.00000" pt_clust_9="24.17070"></scales>
<clustering>
<clus scale="   24.171">  1  9  2 -1</clus>
<clus scale="   80.249">  5  6 -1 -1</clus>
<clus scale="   90.257">  7  8 -1 -1</clus>
<clus scale="  118.011">  1  5  2 -1</clus>
<clus scale="   24.171">  1  5  2 -1</clus>
</clustering>
</event>
<event>
 9    1  0.2374319E-005  0.9671378E+02  0.7546771E-02  0.1292502E+00
         -2   -1    0    0    0  501 -0.00000000000E+00  0.00000000000E+00  0.21746471949E+03  0.21746471949E+03  0.00000000000E+00 0.  1.
          1   -1    0    0  502    0  0.00000000000E+00 -0.00000000000E+00 -0.15435728816E+03  0.15435728816E+03  0.00000000000E+00 0. -1.
         23    2    1    2    0    0 -0.61376937963E+01 -0.33218425999E+02  0.17778118151E+03  0.20260425335E+03  0.91110920658E+02 0.  0.
        -24    2    1    2    0    0  0.25879307725E+02  0.13591159505E+02 -0.11143513116E+03  0.14119188120E+03  0.81626592940E+02 0.  0.
         13    1    4    4    0    0  0.41045213995E+02  0.38752787063E+02 -0.63434254902E+02  0.84914031774E+02  0.00000000000E+00 0. -1.
        -14    1    4    4    0    0 -0.15165906271E+02 -0.25161627559E+02 -0.48000876259E+02  0.56277849426E+02  0.00000000000E+00 0.  1.
        -11    1    3    3    0    0  0.56891509146E+01 -0.51737120336E+02  0.17225504346E+03  0.17994692567E+03  0.00000000000E+00 0.  1.
         11    1    3    3    0    0 -0.11826844711E+02  0.18518694337E+02  0.55261380483E+01  0.22657327678E+02  0.00000000000E+00 0. -1.
         21    1    1    2  502  501 -0.19741613928E+02  0.19627266494E+02 -0.32386190202E+01  0.28025873112E+02  0.00000000000E+00 0.  1.
<scales pt_clust_5="13000.00000" pt_clust_6="13000.00000" pt_clust_7="13000.00000" pt_clust_8="13000.00000" pt_clust_9="27.83812"></scales>
<clustering>
<clus scale="   27.838">  2  9  1 -1</clus>
<clus scale="   81.627">  5  6 -1 -1</clus>
<clus scale="   87.837">  2  5  1 -1</clus>
<clus scale="   91.111">  7  8 -1 -1</clus>
<clus scale="   27.838">  2  5  1 -1</clus>
</clustering>
</event>
<event>
 9    1  0.2374319E-005  0.2540364E+03  0.7546771E-02  0.1111376E+00
         -2   -1    0    0    0  501 -0.00000000000E+00  0.00000000000E+00  0.41167129910E+03  0.41167129910E+03  0.00000000000E+00 0.  1.
          1   -1    0    0  502    0  0.00000000000E+00 -0.00000000000E+00 -0.22939606821E+03  0.22939606821E+03  0.00000000000E+00 0. -1.
         23    2    1    2    0    0 -0.11964001254E+03  0.19500597930E+03  0.13748589149E+03  0.28187860309E+03  0.90620703780E+02 0.  0.
        -24    2    1    2    0    0  0.14128128173E+03 -0.20323306320E+03  0.11577516683E+03  0.28452272685E+03  0.79279343420E+02 0.  0.
         11    1    4    4    0    0  0.70561253576E+02 -0.51789004994E+02  0.13474178427E+02  0.88558144904E+02  0.00000000000E+00 0. -1.
        -12    1    4    4    0    0  0.70720028150E+02 -0.15144405821E+03  0.10230098840E+03  0.19596458194E+03  0.00000000000E+00 0.  1.
        -11    1    3    3    0    0 -0.68272753435E+02  0.12791372246E+03  0.35200580512E+02  0.14920512767E+03  0.00000000000E+00 0. -1.
         11    1    3    3    0    0 -0.51367259102E+02  0.67092256846E+02  0.10228531098E+03  0.13267347541E+03  0.00000000000E+00 0.  1.
         21    1    1    2  502  501 -0.21641269188E+02  0.82270839001E+01 -0.70985827433E+02  0.74666037379E+02  0.00000000000E+00 0.  1.
<scales pt_clust_5="13000.00000" pt_clust_6="13000.00000" pt_clust_7="13000.00000" pt_clust_8="13000.00000" pt_clust_9="23.15231"></scales>
<clustering>
<clus scale="   23.152">  2  9  1 -1</clus>
<clus scale="   79.279">  5  6 -1 -1</clus>
<clus scale="   90.621">  7  8 -1 -1</clus>
<clus scale="  250.215">  2  5  1 -1</clus>
<clus scale="   23.152">  2  5  1 -1</clus>
</clustering>
</event>
<event>
 9    1  0.2374319E-005  0.1008197E+03  0.7546771E-02  0.1290800E+00
         -2   -1    0    0    0  501 -0.00000000000E+00  0.00000000000E+00  0.34153817581E+02  0.34153817581E+02  0.00000000000E+00 0.  1.
          1   -1    0    0  502    0  0.00000000000E+00 -0.00000000000E+00 -0.49716986195E+03  0.49716986195E+03  0.00000000000E+00 0. -1.
        -24    2    1    2    0    0  0.27601732471E+02 -0.28735868829E+02 -0.47626237121E+02  0.95584397614E+02  0.72667137085E+02 0.  0.
         23    2    1    2    0    0 -0.13200037281E+02 -0.36598102862E+01 -0.29572889165E+03  0.31093694391E+03  0.95071397052E+02 0.  0.
         13    1    3    3    0    0  0.89214740396E+00  0.20411334618E+02 -0.31185688541E+02  0.37282243463E+02  0.00000000000E+00 0. -1.
        -14    1    3    3    0    0  0.26709585067E+02 -0.49147203446E+02 -0.16440548580E+02  0.58302154151E+02  0.00000000000E+00 0.  1.
        -13    1    4    4    0    0  0.35342407040E+02  0.18916314551E+02 -0.16210054157E+03  0.16698352694E+03  0.00000000000E+00 0.  1.
         13    1    4    4    0    0 -0.48542444321E+02 -0.22576124837E+02 -0.13362835008E+03  0.14395341698E+03  0.00000000000E+00 0. -1.
         21    1    1    2  502  501 -0.14401695190E+02  0.32395679115E+02 -0.11966091559E+03  0.12480233800E+03  0.00000000000E+00 0. -1.
<scales pt_clust_5="13000.00000" pt_clust_6="13000.00000" pt_clust_7="13000.00000" pt_clust_8="13000.00000" pt_clust_9="35.45263"></scales>
<clustering>
<clus scale="   35.453">  2  9  1 -1</clus>
<clus scale="   72.667">  5  6 -1 -1</clus>
<clus scale="   80.041">  1  5  2 -1</clus>
<clus scale="   95.071">  7  8 -1 -1</clus>
<clus scale="   35.453">  2  5  1 -1</clus>
</clustering>
</event>
<event>
 9    1  0.2374319E-005  0.9740845E+02  0.7546771E-02  0.1293155E+00
          1   -1    0    0  502    0  0.00000000000E+00  0.00000000000E+00  0.22119440626E+03  0.22119440626E+03  0.00000000000E+00 0. -1.
         -2   -1    0    0    0  501 -0.00000000000E+00 -0.00000000000E+00 -0.17194041080E+03  0.17194041080E+03  0.00000000000E+00 0.  1.
        -24    2    1    2    0    0 -0.40501036465E+01  0.25771060964E+02 -0.10577914615E+03  0.13520236911E+03  0.80061863150E+02 0.  0.
         23    2    1    2    0    0  0.23988269024E+02 -0.31314005250E+02 -0.32860080494E+00  0.10119851519E+03  0.93193495071E+02 0.  0.
         13    1    3    3    0    0  0.30882578133E+02  0.23177207829E+02 -0.87610683220E+02  0.95742093193E+02  0.00000000000E+00 0. -1.
        -14    1    3    3    0    0 -0.34932681779E+02  0.25938531355E+01 -0.18168462926E+02  0.39460275917E+02  0.00000000000E+00 0.  1.
        -13    1    4    4    0    0  0.43444219119E+02 -0.50324670422E+02 -0.17855776984E+02  0.68838952633E+02  0.00000000000E+00 0. -1.
         13    1    4    4    0    0 -0.19455950095E+02  0.19010665172E+02  0.17527176180E+02  0.32359562562E+02  0.00000000000E+00 0.  1.
         21    1    1    2  502  501 -0.19938165377E+02  0.55429442855E+01  0.15536174241E+03  0.15673393275E+03  0.00000000000E+00 0. -1.
<scales pt_clust_5="13000.00000" pt_clust_6="13000.00000" pt_clust_7="13000.00000" pt_clust_8="13000.00000" pt_clust_9="20.69431"></scales>
<clustering>
<clus scale="   20.694">  1  9  2 -1</clus>
<clus scale="   80.062">  5  6 -1 -1</clus>
<clus scale="   84.931">  2  5  1 -1</clus>
<clus scale="   93.193">  7  8 -1 -1</clus>
<clus scale="   20.694">  1  5  2 -1</clus>
</clustering>
</event>
<event>
 9    1  0.2374319E-005  0.1512316E+03  0.7546771E-02  0.1200441E+00
         -4   -1    0    0    0  501 -0.00000000000E+00  0.00000000000E+00  0.50428546630E+03  0.50428546630E+03  0.00000000000E+00 0.  1.
          3   -1    0    0  502    0  0.00000000000E+00 -0.00000000000E+00 -0.10560237289E+03  0.10560237289E+03  0.00000000000E+00 0. -1.
        -24    2    1    2    0    0  0.11251154241E+03 -0.38888389188E+02  0.33745308784E+03  0.36876027547E+03  0.89097700779E+02 0.  0.
         23    2    1    2    0    0 -0.84295010859E+02  0.80684979196E+02  0.96417432787E+02  0.17963542907E+03  0.96730818809E+02 0.  0.
         11    1    3    3    0    0  0.34575111442E+02 -0.43096866929E+01  0.20254245308E+02  0.40301937715E+02  0.00000000000E+00 0. -1.
        -12    1    3    3    0    0  0.77936430972E+02 -0.34578702495E+02  0.31719884253E+03  0.32845833776E+03  0.00000000000E+00 0.  1.
        -13    1    4    4    0    0  0.12972900324E+02  0.46790118678E+02  0.30063465712E+02  0.57108872509E+02  0.00000000000E+00 0.  1.
         13    1    4    4    0    0 -0.97267911183E+02  0.33894860518E+02  0.66353967075E+02  0.12252655656E+03  0.00000000000E+00 0. -1.
         21    1    1    2  502  501 -0.28216531555E+02 -0.41796590008E+02 -0.35187427222E+02  0.61492134650E+02  0.00000000000E+00 0.  1.
<scales pt_clust_5="13000.00000" pt_clust_6="13000.00000" pt_clust_7="13000.00000" pt_clust_8="13000.00000" pt_clust_9="50.42943"></scales>
<clustering>
<clus scale="   50.429">  2  9  1 -1</clus>
<clus scale="   89.098">  5  6 -1 -1</clus>
<clus scale="   96.731">  7  8 -1 -1</clus>
<clus scale="  146.467">  1  5  2 -1</clus>
<clus scale="   50.429">  2  5  1 -1</clus>
</clustering>
</event>
<event>
 9    1  0.2374319E-005  0.2057157E+03  0.7546771E-02  0.1146438E+00
         -2   -1    0    0    0  501 -0.00000000000E+00  0.00000000000E+00  0.18405335705E+03  0.18405335705E+03  0.00000000000E+00 0.  1.
          1   -1    0    0  502    0  0.00000000000E+00 -0.00000000000E+00 -0.56111598676E+03  0.56111598676E+03  0.00000000000E+00 0. -1.
        -24    2    1    2    0    0  0.81860946484E+02 -0.16992495811E+03  0.93594654801E+02  0.22559118371E+03  0.80967381171E+02 0.  0.
         23    2    1    2    0    0 -0.62383443573E+02  0.12839346857E+03 -0.34245070885E+03  0.38341221800E+03  0.96725715907E+02 0.  0.
         11    1    3    3    0    0  0.24815026790E+02 -0.79877082873E+02 -0.14128248698E+00  0.83643014554E+02  0.00000000000E+00 0. -1.
        -12    1    3    3    0    0  0.57045919694E+02 -0.90047875239E+02  0.93735937288E+02  0.14194816916E+03  0.00000000000E+00 0.  1.
        -13    1    4    4    0    0 -0.85259254041E+02  0.12052630207E+03 -0.28215849698E+03  0.31844802921E+03  0.00000000000E+00 0. -1.
         13    1    4    4    0    0  0.22875810468E+02  0.78671665054E+01 -0.60292211863E+02  0.64964188787E+02  0.00000000000E+00 0.  1.
         21    1    1    2  502  501 -0.19477502910E+02  0.41531489539E+02 -0.12820657567E+03  0.13616594210E+03  0.00000000000E+00 0. -1.
<scales pt_clust_5="13000.00000" pt_clust_6="13000.00000" pt_clust_7="13000.00000" pt_clust_8="13000.00000" pt_clust_9="45.87197"></scales>
<clustering>
<clus scale="   45.872">  2  9  1 -1</clus>
<clus scale="   80.967">  5  6 -1 -1</clus>
<clus scale="   96.726">  7  8 -1 -1</clus>
<clus scale="  198.793">  1  5  2 -1</clus>
<clus scale="   45.872">  2  5  1 -1</clus>
</clustering>
</event>
<event>
 9    1  0.2374319E-005  0.1024807E+03  0.7546771E-02  0.1279238E+00
         -2   -1    0    0    0  501 -0.00000000000E+00  0.00000000000E+00  0.49656081365E+03  0.49656081365E+03  0.00000000000E+00 0.  1.
          1   -1    0    0  502    0  0.00000000000E+00 -0.00000000000E+00 -0.28908401559E+02  0.28908401559E+02  0.00000000000E+00 0. -1.
        -24    2    1    2    0    0 -0.19336215407E+02 -0.46337945917E+02  0.29905298401E+03  0.31392985194E+03  0.81229121822E+02 0.  0.
         23    2    1    2    0    0 -0.50230673403E+01  0.49765154211E+02  0.13215838982E+03  0.16757267495E+03  0.90071969063E+02 0.  0.
         11    1    3    3    0    0 -0.25185240903E+01 -0.31909700319E+02  0.29694930354E+02  0.43661892157E+02  0.00000000000E+00 0. -1.
        -12    1    3    3    0    0 -0.16817691316E+02 -0.14428245598E+02  0.26935805366E+03  0.27026795978E+03  0.00000000000E+00 0.  1.
        -11    1    4    4    0    0  0.37634554861E+02  0.49306740092E+01  0.71317337340E+02  0.80788822686E+02  0.00000000000E+00 0.  1.
         11    1    4    4    0    0 -0.42657622202E+02  0.44834480202E+02  0.60841052482E+02  0.86783852266E+02  0.00000000000E+00 0. -1.
         21    1    1    2  502  501  0.24359282747E+02 -0.34272082943E+01  0.36441038252E+02  0.43966688316E+02  0.00000000000E+00 0. -1.
<scales pt_clust_5="13000.00000" pt_clust_6="13000.00000" pt_clust_7="13000.00000" pt_clust_8="13000.00000" pt_clust_9="24.59920"></scales>
<clustering>
<clus scale="   24.599">  2  9  1 -1</clus>
<clus scale="   81.229">  5  6 -1 -1</clus>
<clus scale="   90.072">  7  8 -1 -1</clus>
<clus scale="   94.802">  1  5  2 -1</clus>
<clus scale="   24.599">  2  5  1 -1</clus>
</clustering>
</event>
<event>
 9    1  0.2374319E-005  0.9982644E+02  0.7546771E-02  0.1287086E+00
         -2   -1    0    0    0  501 -0.00000000000E+00  0.00000000000E+00  0.28588329327E+03  0.28588329327E+03  0.00000000000E+00 0.  1.
          1   -1    0    0  502    0  0.00000000000E+00 -0.00000000000E+00 -0.14216843851E+03  0.14216843851E+03  0.00000000000E+00 0. -1.
        -24    2    1    2    0    0  0.31650104314E+02  0.27814122210E+02  0.24715562990E+03  0.26273898841E+03  0.78552632944E+02 0.  0.
         23    2    1    2    0    0 -0.28809833953E+02 -0.31183497359E+01 -0.53794498910E+02  0.10979066616E+03  0.91216290348E+02 0.  0.
         11    1    3    3    0    0  0.36428054632E+01 -0.24244559070E+02  0.36677055955E+02  0.44116608094E+02  0.00000000000E+00 0. -1.
        -12    1    3    3    0    0  0.28007298850E+02  0.52058681280E+02  0.21047857395E+03  0.21862238032E+03  0.00000000000E+00 0.  1.
        -13    1    4    4    0    0 -0.17182673500E+02  0.42293372957E+02 -0.12529096373E+02  0.47338693693E+02  0.00000000000E+00 0.  1.
         13    1    4    4    0    0 -0.11627160452E+02 -0.45411722693E+02 -0.41265402537E+02  0.62451972464E+02  0.00000000000E+00 0. -1.
         21    1    1    2  502  501 -0.28402703608E+01 -0.24695772474E+02 -0.49646276232E+02  0.55522077208E+02  0.00000000000E+00 0. -1.
<scales pt_clust_5="13000.00000" pt_clust_6="13000.00000" pt_clust_7="13000.00000" pt_clust_8="13000.00000" pt_clust_9="24.85857"></scales>
<clustering>
<clus scale="   24.859">  2  9  1 -1</clus>
<clus scale="   78.553">  5  6 -1 -1</clus>
<clus scale="   88.405">  1  5  2 -1</clus>
<clus scale="   91.216">  7  8 -1 -1</clus>
<clus scale="   24.859">  2  5  1 -1</clus>
</clustering>
</event>
<event>
 9    1  0.2374319E-005  0.1177601E+03  0.7546771E-02  0.1250196E+00
          1   -1    0    0  502    0  0.00000000000E+00  0.00000000000E+00  0.39478725999E+02  0.39478725999E+02  0.00000000000E+00 0. -1.
         -2   -1    0    0    0  501 -0.00000000000E+00 -0.00000000000E+00 -0.43739627444E+03  0.43739627444E+03  0.00000000000E+00 0.  1.
        -24    2    1    2    0    0 -0.79445755774E+02  0.86843453376E-01 -0.26217240485E+03  0.28588924459E+03  0.81771967399E+02 0.  0.
         23    2    1    2    0    0  0.62740629461E+02 -0.13453384187E+02 -0.12161586574E+03  0.16534668120E+03  0.91824430595E+02 0.  0.
         11    1    3    3    0    0 -0.16289780811E+02 -0.35675938089E+02 -0.66676870821E+02  0.77355895831E+02  0.00000000000E+00 0. -1.
        -12    1    3    3    0    0 -0.63155974963E+02  0.35762781542E+02 -0.19549553403E+03  0.20853334876E+03  0.00000000000E+00 0.  1.
        -11    1    4    4    0    0  0.56820010972E+02  0.28669775565E+02 -0.45789075590E+02  0.78403501970E+02  0.00000000000E+00 0.  1.
         11    1    4    4    0    0  0.59206184892E+01 -0.42123159752E+02 -0.75826790150E+02  0.86943179233E+02  0.00000000000E+00 0. -1.
         21    1    1    2  502  501  0.16705126313E+02  0.13366540733E+02 -0.14129277848E+02  0.25639074648E+02  0.00000000000E+00 0. -1.
<scales pt_clust_5="13000.00000" pt_clust_6="13000.00000" pt_clust_7="13000.00000" pt_clust_8="13000.00000" pt_clust_9="21.39452"></scales>
<clustering>
<clus scale="   21.395">  1  9  2 -1</clus>
<clus scale="   81.772">  5  6 -1 -1</clus>
<clus scale="   91.824">  7  8 -1 -1</clus>
<clus scale="  110.102">  2  5  1 -1</clus>
<clus scale="   21.395">  1  5  2 -1</clus>
</clustering>
</event>
<event>
 9    1  0.2374319E-005  0.9770657E+02  0.7546771E-02  0.1294825E+00
          1   -1    0    0  502    0  0.00000000000E+00  0.00000000000E+00  0.21924940590E+03  0.21924940590E+03  0.00000000000E+00 0. -1.
         -2   -1    0    0    0  501 -0.00000000000E+00 -0.00000000000E+00 -0.12885371979E+03  0.12885371979E+03  0.00000000000E+00 0.  1.
        -24    2    1    2    0    0  0.27992159065E+02  0.23557434460E+02 -0.86638307018E+02  0.11947028203E+03  0.73677936713E+02 0.  0.
         23    2    1    2    0    0 -0.23326176418E+01 -0.34911971779E+02  0.75996679271E+02  0.12377161929E+03  0.91212014574E+02 0.  0.
         11    1    3    3    0    0  0.10257847100E+02 -0.22530422627E+02 -0.69348209645E+01  0.25708658321E+02  0.00000000000E+00 0. -1.
        -12    1    3    3    0    0  0.17734311965E+02  0.46087857087E+02 -0.79703486053E+02  0.93761623710E+02  0.00000000000E+00 0.  1.
        -11    1    4    4    0    0 -0.42647000121E+02 -0.26249997247E+02  0.19305714897E+02  0.53670658674E+02  0.00000000000E+00 0. -1.
         11    1    4    4    0    0  0.40314382479E+02 -0.86619745313E+01  0.56690964374E+02  0.70100960615E+02  0.00000000000E+00 0.  1.
         21    1    1    2  502  501 -0.25659541424E+02  0.11354537319E+02  0.10103731385E+03  0.10486122436E+03  0.00000000000E+00 0. -1.
<scales pt_clust_5="13000.00000" pt_clust_6="13000.00000" pt_clust_7="13000.00000" pt_clust_8="13000.00000" pt_clust_9="28.05954"></scales>
<clustering>
<clus scale="   28.060">  1  9  2 -1</clus>
<clus scale="   73.678">  5  6 -1 -1</clus>
<clus scale="   81.581">  2  5  1 -1</clus>
<clus scale="   91.212">  7  8 -1 -1</clus>
<clus scale="   28.060">  1  5  2 -1</clus>
</clustering>
</event>
<event>
 9    1  0.2374319E-005  0.1191765E+03  0.7546771E-02  0.1246859E+00
         -2   -1    0    0    0  501 -0.00000000000E+00  0.00000000000E+00  0.50787704199E+02  0.50787704199E+02  0.00000000000E+00 0.  1.
          1   -1    0    0  502    0  0.00000000000E+00 -0.00000000000E+00 -0.69605853870E+03  0.69605853870E+03  0.00000000000E+00 0. -1.
        -24    2    1    2    0    0  0.15076169991E+02 -0.75710212495E+02 -0.37247003858E+02  0.11709952272E+03  0.79784909267E+02 0.  0.
         23    2    1    2    0    0 -0.17692793384E+02  0.10099879736E+03 -0.45280018237E+03  0.47245482520E+03  0.87588610552E+02 0.  0.
         13    1    3    3    0    0 -0.30619861222E+02 -0.36888814030E+02 -0.30358193441E+02  0.56744871229E+02  0.00000000000E+00 0. -1.
        -14    1    3    3    0    0  0.45696031213E+02 -0.38821398465E+02 -0.68888104167E+01  0.60354651489E+02  0.00000000000E+00 0.  1.
        -13    1    4    4    0    0  0.26805252667E+02  0.34449340967E+02 -0.79774562709E+02  0.90935468982E+02  0.00000000000E+00 0.  1.
         13    1    4    4    0    0 -0.44498046050E+02  0.66549456391E+02 -0.37302561966E+03  0.38151935622E+03  0.00000000000E+00 0. -1.
         21    1    1    2  502  501  0.26166233925E+01 -0.25288584863E+02 -0.15522364827E+03  0.15729189497E+03  0.00000000000E+00 0. -1.
<scales pt_clust_5="13000.00000" pt_clust_6="13000.00000" pt_clust_7="13000.00000" pt_clust_8="13000.00000" pt_clust_9="25.42360"></scales>
<clustering>
<clus scale="   25.424">  2  9  1 -1</clus>
<clus scale="   79.785">  5  6 -1 -1</clus>
<clus scale="   87.589">  7  8 -1 -1</clus>
<clus scale="  113.565">  1  5  2 -1</clus>
<clus scale="   25.424">  2  5  1 -1</clus>
</clustering>
</event>
<event>
 9    1  0.2374319E-005  0.9191583E+02  0.7546771E-02  0.1304412E+00
          1   -1    0    0  502    0  0.00000000000E+00  0.00000000000E+00  0.16941212606E+03  0.16941212606E+03  0.00000000000E+00 0. -1.
         -2   -1    0    0    0  501 -0.00000000000E+00 -0.00000000000E+00 -0.10557641327E+03  0.10557641327E+03  0.00000000000E+00 0.  1.
         23    2    1    2    0    0  0.41372394503E+01  0.43373101592E+01 -0.26411853830E+02  0.94971609972E+02  0.91027971900E+02 0.  0.
        -24    2    1    2    0    0  0.37915405896E+02  0.19639219495E+02  0.18572177139E+02  0.93526118219E+02  0.81110616313E+02 0.  0.
         13    1    4    4    0    0  0.21952244124E+02  0.49448585794E+02  0.24162250415E+02  0.59252662423E+02  0.00000000000E+00 0. -1.
        -14    1    4    4    0    0  0.15963161772E+02 -0.29809366299E+02 -0.55900732760E+01  0.34273455795E+02  0.00000000000E+00 0.  1.
        -11    1    3    3    0    0 -0.29563102566E+02 -0.30356314997E+02 -0.74632026460E+01  0.43025367950E+02  0.00000000000E+00 0.  1.
         11    1    3    3    0    0  0.33700342016E+02  0.34693625156E+02 -0.18948651184E+02  0.51946242022E+02  0.00000000000E+00 0. -1.
         21    1    1    2  502  501 -0.42052645346E+02 -0.23976529654E+02  0.71675389477E+02  0.86490811140E+02  0.00000000000E+00 0.  1.
<scales pt_clust_5="13000.00000" pt_clust_6="13000.00000" pt_clust_7="13000.00000" pt_clust_8="13000.00000" pt_clust_9="48.40763"></scales>
<clustering>
<clus scale="   48.408">  1  9  2 -1</clus>
<clus scale="   81.111">  5  6 -1 -1</clus>
<clus scale="   82.106">  1  5  2 -1</clus>
<clus scale="   91.028">  7  8 -1 -1</clus>
<clus scale="   48.408">  1  5  2 -1</clus>
</clustering>
</event>
<event>
 9    1  0.2374319E-005  0.1068505E+03  0.7546771E-02  0.1270716E+00
         -2   -1    0    0    0  501 -0.00000000000E+00  0.00000000000E+00  0.24414226899E+03  0.24414226899E+03  0.00000000000E+00 0.  1.
          1   -1    0    0  502    0  0.00000000000E+00 -0.00000000000E+00 -0.13615185508E+03  0.13615185508E+03  0.00000000000E+00 0. -1.
         23    2    1    2    0    0 -0.43917325401E+02  0.40934593765E+02  0.20139066637E+03  0.22879042466E+03  0.90457091926E+02 0.  0.
        -24    2    1    2    0    0  0.37867018341E+02 -0.12277274563E+02 -0.65935690595E+02  0.11135210769E+03  0.80418493173E+02 0.  0.
         13    1    4    4    0    0 -0.36405817081E+01 -0.38831534730E+02 -0.39174759406E+02  0.55279324337E+02  0.00000000000E+00 0. -1.
        -14    1    4    4    0    0  0.41507600049E+02  0.26554260167E+02 -0.26760931189E+02  0.56072783353E+02  0.00000000000E+00 0.  1.
        -13    1    3    3    0    0  0.55134807171E+00 -0.24880114798E+02  0.24679083166E+02  0.35048270185E+02  0.00000000000E+00 0. -1.
         13    1    3    3    0    0 -0.44468673472E+02  0.65814708563E+02  0.17671158320E+03  0.19374215448E+03  0.00000000000E+00 0.  1.
         21    1    1    2  502  501  0.60503070595E+01 -0.28657319202E+02 -0.27464561867E+02  0.40151591723E+02  0.00000000000E+00 0. -1.
<scales pt_clust_5="13000.00000" pt_clust_6="13000.00000" pt_clust_7="13000.00000" pt_clust_8="13000.00000" pt_clust_9="29.28905"></scales>
<clustering>
<clus scale="   29.289">  2  9  1 -1</clus>
<clus scale="   80.418">  5  6 -1 -1</clus>
<clus scale="   90.457">  7  8 -1 -1</clus>
<clus scale="   98.497">  2  5  1 -1</clus>
<clus scale="   29.289">  2  5  1 -1</clus>
</clustering>
</event>
<event>
 9    1  0.2374319E-005  0.9304946E+02  0.7546771E-02  0.1301850E+00
         -2   -1    0    0    0  501 -0.00000000000E+00  0.00000000000E+00  0.14540357776E+03  0.14540357776E+03  0.00000000000E+00 0.  1.
          1   -1    0    0  502    0  0.00000000000E+00 -0.00000000000E+00 -0.18661492531E+03  0.18661492531E+03  0.00000000000E+00 0. -1.
        -24    2    1    2    0    0 -0.16000817169E+02 -0.65146736594E+01  0.10484909480E+03  0.13417573755E+03  0.81922699807E+02 0.  0.
         23    2    1    2    0    0 -0.14456400503E+02 -0.14361136495E+02 -0.87951186029E+02  0.12899418364E+03  0.92135001666E+02 0.  0.
         13    1    3    3    0    0  0.13652794786E+02 -0.36698986597E+02  0.35047236767E+02  0.52550197219E+02  0.00000000000E+00 0. -1.
        -14    1    3    3    0    0 -0.29653611955E+02  0.30184312938E+02  0.69801858030E+02  0.81625540329E+02  0.00000000000E+00 0.  1.
        -11    1    4    4    0    0 -0.14417821902E+01  0.39205104416E+02 -0.35897955770E+02  0.53176895139E+02  0.00000000000E+00 0.  1.
         11    1    4    4    0    0 -0.13014618313E+02 -0.53566240911E+02 -0.52053230259E+02  0.75817288500E+02  0.00000000000E+00 0. -1.
         21    1    1    2  502  501  0.30457217672E+02  0.20875810154E+02 -0.58109256314E+02  0.68848581883E+02  0.00000000000E+00 0.  1.
<scales pt_clust_5="13000.00000" pt_clust_6="13000.00000" pt_clust_7="13000.00000" pt_clust_8="13000.00000" pt_clust_9="36.92481"></scales>
<clustering>
<clus scale="   36.925">  2  9  1 -1</clus>
<clus scale="   81.923">  5  6 -1 -1</clus>
<clus scale="   82.950">  1  5  2 -1</clus>
<clus scale="   92.135">  7  8 -1 -1</clus>
<clus scale="   36.925">  2  5  1 -1</clus>
</clustering>
</event>
<event>
 9    1  0.2374319E-005  0.1136713E+03  0.7546771E-02  0.1257471E+00
          1   -1    0    0  502    0  0.00000000000E+00  0.00000000000E+00  0.16000075159E+03  0.16000075159E+03  0.00000000000E+00 0. -1.
         -2   -1    0    0    0  501 -0.00000000000E+00 -0.00000000000E+00 -0.10129136661E+03  0.10129136661E+03  0.00000000000E+00 0.  1.
        -24    2    1    2    0    0 -0.22499365140E+02 -0.77740653071E+02  0.11948656964E+02  0.11575255630E+03  0.81890495883E+02 0.  0.
         23    2    1    2    0    0  0.30101761926E+02  0.49962912940E+02  0.41287560461E+02  0.11622480713E+03  0.91657702363E+02 0.  0.
         13    1    3    3    0    0 -0.29403476529E+02 -0.70122514003E+02  0.39971135198E+02  0.85903568326E+02  0.00000000000E+00 0. -1.
        -14    1    3    3    0    0  0.69041113892E+01 -0.76181390687E+01 -0.28022478234E+02  0.29848987978E+02  0.00000000000E+00 0.  1.
        -13    1    4    4    0    0  0.15695553572E+02  0.14395244410E+02 -0.29097248474E+02  0.36058609683E+02  0.00000000000E+00 0.  1.
         13    1    4    4    0    0  0.14406208355E+02  0.35567668530E+02  0.70384808935E+02  0.80166197444E+02  0.00000000000E+00 0. -1.
         21    1    1    2  502  501 -0.76023967866E+01  0.27777740131E+02  0.54731675550E+01  0.29314754762E+02  0.00000000000E+00 0. -1.
<scales pt_clust_5="13000.00000" pt_clust_6="13000.00000" pt_clust_7="13000.00000" pt_clust_8="13000.00000" pt_clust_9="28.79929"></scales>
<clustering>
<clus scale="   28.799">  2  9  1 -1</clus>
<clus scale="   81.890">  5  6 -1 -1</clus>
<clus scale="   91.658">  7  8 -1 -1</clus>
<clus scale="  105.953">  2  5  1 -1</clus>
<clus scale="  113.671">  1  5  2 -1</clus>
</clustering>
</event>
<event>
 9    1  0.2374319E-005  0.1476843E+03  0.7546771E-02  0.1205769E+00
          1   -1    0    0  502    0  0.00000000000E+00  0.00000000000E+00  0.74783470809E+03  0.74783470809E+03  0.00000000000E+00 0. -1.
         -2   -1    0    0    0  501 -0.00000000000E+00 -0.00000000000E+00 -0.70806361004E+02  0.70806361004E+02  0.00000000000E+00 0.  1.
         23    2    1    2    0    0  0.69167166845E+02  0.65542666831E+02  0.83735892688E+02  0.15705490541E+03  0.92599165465E+02 0.  0.
        -24    2    1    2    0    0  0.30346615347E+02 -0.13438376854E+03  0.42825365675E+03  0.45694038469E+03  0.80083745716E+02 0.  0.
         11    1    4    4    0    0  0.56916007283E+02 -0.99430532336E+02  0.33004003629E+03  0.34935982625E+03  0.00000000000E+00 0. -1.
        -12    1    4    4    0    0 -0.26569391935E+02 -0.34953236207E+02  0.98213620464E+02  0.10758055844E+03  0.00000000000E+00 0.  1.
        -13    1    3    3    0    0  0.73603655004E+02  0.10153290366E+02  0.31202612656E+02  0.80586539643E+02  0.00000000000E+00 0. -1.
         13    1    3    3    0    0 -0.44364881582E+01  0.55389376464E+02  0.52533280032E+02  0.76468365768E+02  0.00000000000E+00 0.  1.
         21    1    1    2  502  501 -0.99513782193E+02  0.68841101712E+02  0.16503879764E+03  0.20464577899E+03  0.00000000000E+00 0.  1.
<scales pt_clust_5="13000.00000" pt_clust_6="13000.00000" pt_clust_7="13000.00000" pt_clust_8="13000.00000" pt_clust_9="121.00450"></scales>
<clustering>
<clus scale="   80.084">  5  6 -1 -1</clus>
<clus scale="   92.599">  7  8 -1 -1</clus>
<clus scale="  121.005">  2  9  1 -1</clus>
<clus scale="  140.177">  1  5  2 -1</clus>
<clus scale="  140.177">  1  5  2 -1</clus>
</clustering>
</event>
<event>
 9    1  0.2374319E-005  0.1199496E+03  0.7546771E-02  0.1246563E+00
         -2   -1    0    0    0  501 -0.00000000000E+00  0.00000000000E+00  0.26427818820E+03  0.26427818820E+03  0.00000000000E+00 0.  1.
          1   -1    0    0  502    0  0.00000000000E+00 -0.00000000000E+00 -0.13140103616E+03  0.13140103616E+03  0.00000000000E+00 0. -1.
         23    2    1    2    0    0  0.11103053814E+02 -0.23823107748E+00  0.13481733235E+03  0.16309739830E+03  0.91113740307E+02 0.  0.
        -24    2    1    2    0    0 -0.94432842686E+02 -0.27310900008E+02 -0.45097901109E+02  0.13477897742E+03  0.80424530052E+02 0.  0.
         13    1    4    4    0    0 -0.58213751510E+02  0.71685855142E+01 -0.58673226703E+02  0.82962503668E+02  0.00000000000E+00 0. -1.
        -14    1    4    4    0    0 -0.36219091176E+02 -0.34479485522E+02  0.13575325594E+02  0.51816473756E+02  0.00000000000E+00 0.  1.
        -13    1    3    3    0    0  0.51048307323E+02 -0.35661545824E+01  0.66804634444E+02  0.84151686390E+02  0.00000000000E+00 0.  1.
         13    1    3    3    0    0 -0.39945253509E+02  0.33279235049E+01  0.68012697908E+02  0.78945711913E+02  0.00000000000E+00 0. -1.
         21    1    1    2  502  501  0.83329788872E+02  0.27549131086E+02  0.43157720789E+02  0.97802848633E+02  0.00000000000E+00 0.  1.
<scales pt_clust_5="13000.00000" pt_clust_6="13000.00000" pt_clust_7="13000.00000" pt_clust_8="13000.00000" pt_clust_9="87.76564"></scales>
<clustering>
<clus scale="   80.425">  5  6 -1 -1</clus>
<clus scale="   87.766">  1  9  2 -1</clus>
<clus scale="   91.114">  7  8 -1 -1</clus>
<clus scale="  112.046">  2  5  1 -1</clus>
<clus scale="  112.046">  2  5  1 -1</clus>
</clustering>
</event>
<event>
 9    1  0.2374319E-005  0.2449479E+03  0.7546771E-02  0.1149906E+00
          1   -1    0    0  502    0  0.00000000000E+00  0.00000000000E+00  0.87602857997E+03  0.87602857997E+03  0.00000000000E+00 0. -1.
         -2   -1    0    0    0  501 -0.00000000000E+00 -0.00000000000E+00 -0.12735201869E+03  0.12735201869E+03  0.00000000000E+00 0.  1.
        -24    2    1    2    0    0  0.70944710742E+02  0.20371752872E+02  0.41809306373E+01  0.10851737671E+03  0.79437903854E+02 0.  0.
         23    2    1    2    0    0 -0.24574961290E+03  0.54939810036E+02  0.59635300809E+03  0.65366864917E+03  0.90744353462E+02 0.  0.
         13    1    3    3    0    0  0.20609261943E+02 -0.29807005508E+02 -0.59542848370E+01  0.36724007993E+02  0.00000000000E+00 0. -1.
        -14    1    3    3    0    0  0.50335448799E+02  0.50178758380E+02  0.10135215474E+02  0.71793368712E+02  0.00000000000E+00 0.  1.
        -11    1    4    4    0    0 -0.35517687266E+02  0.44156831390E+02  0.14329906891E+03  0.15409722586E+03  0.00000000000E+00 0.  1.
         11    1    4    4    0    0 -0.21023192563E+03  0.10782978646E+02  0.45305393918E+03  0.49957142331E+03  0.00000000000E+00 0. -1.
         21    1    1    2  502  501  0.17480490215E+03 -0.75311562908E+02  0.14814262255E+03  0.24119457278E+03  0.00000000000E+00 0.  1.
<scales pt_clust_5="13000.00000" pt_clust_6="13000.00000" pt_clust_7="13000.00000" pt_clust_8="13000.00000" pt_clust_9="227.51906"></scales>
<clustering>
<clus scale="   79.438">  5  6 -1 -1</clus>
<clus scale="   90.744">  7  8 -1 -1</clus>
<clus scale="  108.437">  2  5  1 -1</clus>
<clus scale="  227.519">  2  9  1 -1</clus>
<clus scale="  244.948">  1  5  2 -1</clus>
</clustering>
</event>
<event>
 9    1  0.2374319E-005  0.9406743E+02  0.7546771E-02  0.1295801E+00
         -4   -1    0    0    0  501 -0.00000000000E+00  0.00000000000E+00  0.85395018383E+02  0.85395018383E+02  0.00000000000E+00 0.  1.
          3   -1    0    0  502    0  0.00000000000E+00 -0.00000000000E+00 -0.29320309552E+03  0.29320309552E+03  0.00000000000E+00 0. -1.
         23    2    1    2    0    0 -0.24022105066E+02  0.18762805123E+02  0.32046515141E+02  0.97400276175E+02  0.86779780354E+02 0.  0.
        -24    2    1    2    0    0  0.46762715523E+02 -0.39871289519E+02 -0.12227008552E+03  0.15958854652E+03  0.82110042491E+02 0.  0.
         11    1    4    4    0    0  0.60871665699E+02 -0.17126923553E+02 -0.44451340088E+02  0.77295619740E+02  0.00000000000E+00 0. -1.
        -12    1    4    4    0    0 -0.14108950176E+02 -0.22744365966E+02 -0.77818745431E+02  0.82292926785E+02  0.00000000000E+00 0.  1.
        -11    1    3    3    0    0  0.26750143661E+02  0.25091815280E+02  0.27871423797E+02  0.46065015406E+02  0.00000000000E+00 0. -1.
         11    1    3    3    0    0 -0.50772248728E+02 -0.63290101566E+01  0.41750913445E+01  0.51335260768E+02  0.00000000000E+00 0.  1.
         21    1    1    2  502  501 -0.22740610457E+02  0.21108484396E+02 -0.11758450675E+03  0.12160929120E+03  0.00000000000E+00 0. -1.
<scales pt_clust_5="13000.00000" pt_clust_6="13000.00000" pt_clust_7="13000.00000" pt_clust_8="13000.00000" pt_clust_9="31.02746"></scales>
<clustering>
<clus scale="   31.027">  2  9  1 -1</clus>
<clus scale="   82.110">  5  6 -1 -1</clus>
<clus scale="   86.780">  7  8 -1 -1</clus>
<clus scale="   89.778">  2  5  1 -1</clus>
<clus scale="   31.027">  2  5  1 -1</clus>
</clustering>
</event>
<event>
 9    1  0.2374319E-005  0.1636181E+03  0.7546771E-02  0.1186621E+00
         -2   -1    0    0    0  501 -0.00000000000E+00  0.00000000000E+00  0.13183994624E+03  0.13183994624E+03  0.00000000000E+00 0.  1.
          1   -1    0    0  502    0  0.00000000000E+00 -0.00000000000E+00 -0.93034900408E+03  0.93034900408E+03  0.00000000000E+00 0. -1.
         23    2    1    2    0    0  0.11722361478E+03 -0.63931235154E+02  0.62823899571E+02  0.17377366837E+03  0.91770729381E+02 0.  0.
        -24    2    1    2    0    0 -0.13321667562E+03  0.94599664553E+02 -0.76008318686E+03  0.78142067184E+03  0.78714904760E+02 0.  0.
         11    1    4    4    0    0 -0.60721482679E+02  0.90169332889E+02 -0.44970470591E+03  0.46265746462E+03  0.00000000000E+00 0. -1.
        -12    1    4    4    0    0 -0.72495192937E+02  0.44303316648E+01 -0.31037848095E+03  0.31876320722E+03  0.00000000000E+00 0.  1.
        -13    1    3    3    0    0  0.51167620882E+02 -0.87137067120E+00  0.64623970496E+02  0.82432652973E+02  0.00000000000E+00 0.  1.
         13    1    3    3    0    0  0.66055993895E+02 -0.63059864483E+02 -0.18000709242E+01  0.91341015395E+02  0.00000000000E+00 0. -1.
         21    1    1    2  502  501  0.15993060840E+02 -0.30668429399E+02 -0.10124977055E+03  0.10699461011E+03  0.00000000000E+00 0. -1.
<scales pt_clust_5="13000.00000" pt_clust_6="13000.00000" pt_clust_7="13000.00000" pt_clust_8="13000.00000" pt_clust_9="34.58801"></scales>
<clustering>
<clus scale="   34.588">  2  9  1 -1</clus>
<clus scale="   78.715">  5  6 -1 -1</clus>
<clus scale="   91.771">  7  8 -1 -1</clus>
<clus scale="  156.669">  2  5  1 -1</clus>
<clus scale="   34.588">  2  5  1 -1</clus>
</clustering>
</event>
<event>
 9    1  0.2374319E-005  0.1551705E+03  0.7546771E-02  0.1196300E+00
         -4   -1    0    0    0  501 -0.00000000000E+00  0.00000000000E+00  0.57115192158E+02  0.57115192158E+02  0.00000000000E+00 0.  1.
          3   -1    0    0  502    0  0.00000000000E+00 -0.00000000000E+00 -0.53407362123E+03  0.53407362123E+03  0.00000000000E+00 0. -1.
        -24    2    1    2    0    0  0.10879523845E+03 -0.40022776554E+02 -0.17777149296E+03  0.22648061223E+03  0.79072988163E+02 0.  0.
         23    2    1    2    0    0 -0.12108196563E+03  0.62580748924E+02 -0.18300446889E+03  0.24572000228E+03  0.91161896361E+02 0.  0.
         11    1    3    3    0    0  0.80328469463E+02 -0.62506378402E+02 -0.14763550182E+03  0.17932080678E+03  0.00000000000E+00 0. -1.
        -12    1    3    3    0    0  0.28466768982E+02  0.22483601848E+02 -0.30135991146E+02  0.47159805456E+02  0.00000000000E+00 0.  1.
        -11    1    4    4    0    0 -0.10673452598E+03  0.81640124120E+02 -0.17482216929E+03  0.22049979542E+03  0.00000000000E+00 0.  1.
         11    1    4    4    0    0 -0.14347439652E+02 -0.19059375196E+02 -0.81822995997E+01  0.25220206862E+02  0.00000000000E+00 0. -1.
         21    1    1    2  502  501  0.12286727188E+02 -0.22557972370E+02 -0.11618246722E+03  0.11898819887E+03  0.00000000000E+00 0. -1.
<scales pt_clust_5="13000.00000" pt_clust_6="13000.00000" pt_clust_7="13000.00000" pt_clust_8="13000.00000" pt_clust_9="25.68707"></scales>
<clustering>
<clus scale="   25.687">  2  9  1 -1</clus>
<clus scale="   79.073">  5  6 -1 -1</clus>
<clus scale="   91.162">  7  8 -1 -1</clus>
<clus scale="  148.391">  1  5  2 -1</clus>
<clus scale="   25.687">  2  5  1 -1</clus>
</clustering>
</event>
<event>
 9    1  0.2374319E-005  0.1046880E+03  0.7546771E-02  0.1270751E+00
         -2   -1    0    0    0  501 -0.00000000000E+00  0.00000000000E+00  0.51418898076E+03  0.51418898076E+03  0.00000000000E+00 0.  1.
          1   -1    0    0  502    0  0.00000000000E+00 -0.00000000000E+00 -0.80099398678E+02  0.80099398678E+02  0.00000000000E+00 0. -1.
        -24    2    1    2    0    0 -0.46827885456E+02  0.17330679246E+02  0.42999563305E+03  0.44267173646E+03  0.92567913021E+02 0.  0.
         23    2    1    2    0    0  0.46759910575E+02  0.20654405709E+02 -0.18557106353E+02  0.10739061433E+03  0.92602830075E+02 0.  0.
         11    1    3    3    0    0 -0.26630975796E+02 -0.17029319320E+02  0.41653898960E+02  0.52290093582E+02  0.00000000000E+00 0. -1.
        -12    1    3    3    0    0 -0.20196909661E+02  0.34359998565E+02  0.38834173409E+03  0.39038164288E+03  0.00000000000E+00 0.  1.
        -11    1    4    4    0    0 -0.17453638846E+01 -0.31447859677E+02 -0.17847224532E+02  0.36201347998E+02  0.00000000000E+00 0. -1.
         11    1    4    4    0    0  0.48505274460E+02  0.52102265386E+02 -0.70988182115E+00  0.71189266332E+02  0.00000000000E+00 0.  1.
         21    1    1    2  502  501  0.67974881356E-01 -0.37985084954E+02  0.22651055383E+02  0.44226028643E+02  0.00000000000E+00 0. -1.
<scales pt_clust_5="13000.00000" pt_clust_6="13000.00000" pt_clust_7="13000.00000" pt_clust_8="13000.00000" pt_clust_9="37.98515"></scales>
<clustering>
<clus scale="   37.985">  2  9  1 -1</clus>
<clus scale="   92.568">  5  6 -1 -1</clus>
<clus scale="   92.603">  7  8 -1 -1</clus>
<clus scale="  104.657">  1  5  2 -1</clus>
<clus scale="   37.985">  2  5  1 -1</clus>
</clustering>
</event>
<event>
 9    1  0.2374319E-005  0.1146803E+03  0.7546771E-02  0.1256764E+00
         -2   -1    0    0    0  501 -0.00000000000E+00  0.00000000000E+00  0.21381611572E+04  0.21381611572E+04  0.00000000000E+00 0.  1.
          1   -1    0    0  502    0  0.00000000000E+00 -0.00000000000E+00 -0.12611495232E+03  0.12611495232E+03  0.00000000000E+00 0. -1.
        -24    2    1    2    0    0  0.12136125104E+02  0.63051847837E+02  0.16669137456E+04  0.16700490420E+04  0.79621266951E+02 0.  0.
         23    2    1    2    0    0 -0.31289875105E+02 -0.83994748138E+02  0.45908246238E+03  0.47679592005E+03  0.92430882866E+02 0.  0.
         13    1    3    3    0    0  0.19718043373E+02  0.99374042910E+01  0.10911924029E+03  0.11133086652E+03  0.00000000000E+00 0. -1.
        -14    1    3    3    0    0 -0.75819182691E+01  0.53114443546E+02  0.15577945053E+04  0.15587181755E+04  0.00000000000E+00 0.  1.
        -11    1    4    4    0    0 -0.51001640507E+02 -0.30134991115E+02  0.33371489763E+03  0.33893202552E+03  0.00000000000E+00 0.  1.
         11    1    4    4    0    0  0.19711765402E+02 -0.53859757023E+02  0.12536756476E+03  0.13786389453E+03  0.00000000000E+00 0. -1.
         21    1    1    2  502  501  0.19153750001E+02  0.20942900302E+02 -0.11395000308E+03  0.11743114755E+03  0.00000000000E+00 0. -1.
<scales pt_clust_5="13000.00000" pt_clust_6="13000.00000" pt_clust_7="13000.00000" pt_clust_8="13000.00000" pt_clust_9="28.38082"></scales>
<clustering>
<clus scale="   28.381">  2  9  1 -1</clus>
<clus scale="   79.621">  5  6 -1 -1</clus>
<clus scale="   92.431">  7  8 -1 -1</clus>
<clus scale="  104.631">  1  5  2 -1</clus>
<clus scale="   28.381">  2  5  1 -1</clus>
</clustering>
</event>
<event>
 9    1  0.2374319E-005  0.9446684E+02  0.7546771E-02  0.1292670E+00
         -2   -1    0    0    0  501 -0.00000000000E+00  0.00000000000E+00  0.81394024422E+03  0.81394024422E+03  0.00000000000E+00 0.  1.
          1   -1    0    0  502    0  0.00000000000E+00 -0.00000000000E+00 -0.26675822639E+02  0.26675822639E+02  0.00000000000E+00 0. -1.
        -24    2    1    2    0    0  0.33854961120E+02 -0.17037886907E+02  0.66024064384E+03  0.66693953795E+03  0.86337659882E+02 0.  0.
         23    2    1    2    0    0 -0.45060058761E+02 -0.90563352534E+00  0.10938397995E+03  0.14613226263E+03  0.85782014700E+02 0.  0.
         13    1    3    3    0    0  0.34693363898E+02  0.30917595448E+01  0.92483279298E+02  0.98824821909E+02  0.00000000000E+00 0. -1.
        -14    1    3    3    0    0 -0.83840277774E+00 -0.20129646451E+02  0.56775736455E+03  0.56811471604E+03  0.00000000000E+00 0.  1.
        -13    1    4    4    0    0 -0.66369587261E+02 -0.10438359971E+02  0.10104624964E+03  0.12134342190E+03  0.00000000000E+00 0.  1.
         13    1    4    4    0    0  0.21309528500E+02  0.95327264454E+01  0.83377303101E+01  0.24788840737E+02  0.00000000000E+00 0. -1.
         21    1    1    2  502  501  0.11205097641E+02  0.17943520432E+02  0.17639797792E+02  0.27544266278E+02  0.00000000000E+00 0. -1.
<scales pt_clust_5="13000.00000" pt_clust_6="13000.00000" pt_clust_7="13000.00000" pt_clust_8="13000.00000" pt_clust_9="21.15477"></scales>
<clustering>
<clus scale="   21.155">  2  9  1 -1</clus>
<clus scale="   85.782">  7  8 -1 -1</clus>
<clus scale="   86.338">  5  6 -1 -1</clus>
<clus scale="   93.959">  2  7  1 -1</clus>
<clus scale="   21.155">  2  5  1 -1</clus>
</clustering>
</event>
<event>
 9    1  0.2374319E-005  0.1318610E+03  0.7546771E-02  0.1226084E+00
          1   -1    0    0  502    0  0.00000000000E+00  0.00000000000E+00  0.25206783552E+03  0.25206783552E+03  0.00000000000E+00 0. -1.
         -2   -1    0    0    0  501 -0.00000000000E+00 -0.00000000000E+00 -0.12680756202E+03  0.12680756202E+03  0.00000000000E+00 0.  1.
        -24    2    1    2    0    0 -0.81008954182E+02  0.65983011207E+02 -0.23437238177E+02  0.13500815946E+03  0.82229499333E+02 0.  0.
         23    2    1    2    0    0  0.88335275059E+02 -0.27376762155E+02  0.48911290184E+02  0.13662262310E+03  0.87868190546E+02 0.  0.
         11    1    3    3    0    0 -0.37107164948E+02  0.37680663742E+02  0.29569394275E+02  0.60589794424E+02  0.00000000000E+00 0. -1.
        -12    1    3    3    0    0 -0.43901789234E+02  0.28302347465E+02 -0.53006632452E+02  0.74418365031E+02  0.00000000000E+00 0.  1.
        -13    1    4    4    0    0  0.44613681981E+02 -0.54391824031E+02  0.77435158948E+01  0.70772969273E+02  0.00000000000E+00 0. -1.
         13    1    4    4    0    0  0.43721593078E+02  0.27015061875E+02  0.41167774289E+02  0.65849653829E+02  0.00000000000E+00 0.  1.
         21    1    1    2  502  501 -0.73263208766E+01 -0.38606249052E+02  0.99786221495E+02  0.10724461499E+03  0.00000000000E+00 0. -1.
<scales pt_clust_5="13000.00000" pt_clust_6="13000.00000" pt_clust_7="13000.00000" pt_clust_8="13000.00000" pt_clust_9="39.29526"></scales>
<clustering>
<clus scale="   39.295">  1  9  2 -1</clus>
<clus scale="   82.229">  5  6 -1 -1</clus>
<clus scale="   87.868">  7  8 -1 -1</clus>
<clus scale="  128.173">  2  5  1 -1</clus>
<clus scale="   39.295">  1  5  2 -1</clus>
</clustering>
</event>
<event>
 9    1  0.2374319E-005  0.1161616E+03  0.7546771E-02  0.1257637E+00
         -4   -1    0    0    0  501 -0.00000000000E+00  0.00000000000E+00  0.95932658493E+02  0.95932658493E+02  0.00000000000E+00 0.  1.
          3   -1    0    0  502    0  0.00000000000E+00 -0.00000000000E+00 -0.29334168679E+03  0.29334168679E+03  0.00000000000E+00 0. -1.
        -24    2    1    2    0    0  0.19122963773E+02 -0.56302111900E+02  0.45723529909E+02  0.11011860153E+03  0.80621645157E+02 0.  0.
         23    2    1    2    0    0 -0.28802990176E+02  0.34709505928E+02 -0.21904937432E+03  0.24539269754E+03  0.10099794834E+03 0.  0.
         13    1    3    3    0    0  0.19108587256E+02 -0.28745899077E+02 -0.19264622122E+02  0.39529615305E+02  0.00000000000E+00 0. -1.
        -14    1    3    3    0    0  0.14376516933E-01 -0.27556212823E+02  0.64988152031E+02  0.70588986225E+02  0.00000000000E+00 0.  1.
        -11    1    4    4    0    0 -0.36164299582E+02  0.65258141932E+02 -0.18268279338E+03  0.19733090141E+03  0.00000000000E+00 0. -1.
         11    1    4    4    0    0  0.73613094066E+01 -0.30548636003E+02 -0.36366580935E+02  0.48061796125E+02  0.00000000000E+00 0.  1.
         21    1    1    2  502  501  0.96800264030E+01  0.21592605972E+02 -0.24083183887E+02  0.33763046218E+02  0.00000000000E+00 0. -1.
<scales pt_clust_5="13000.00000" pt_clust_6="13000.00000" pt_clust_7="13000.00000" pt_clust_8="13000.00000" pt_clust_9="23.66313"></scales>
<clustering>
<clus scale="   23.663">  2  9  1 -1</clus>
<clus scale="   80.622">  5  6 -1 -1</clus>
<clus scale="   98.958">  1  5  2 -1</clus>
<clus scale="  100.998">  7  8 -1 -1</clus>
<clus scale="   23.663">  2  5  1 -1</clus>
</clustering>
</event>
<event>
 9    1  0.2374319E-005  0.8415732E+02  0.7546771E-02  0.1318724E+00
         -4   -1    0    0    0  501 -0.00000000000E+00  0.00000000000E+00  0.13982723936E+03  0.13982723936E+03  0.00000000000E+00 0.  1.
          3   -1    0    0  502    0  0.00000000000E+00 -0.00000000000E+00 -0.12878621398E+03  0.12878621398E+03  0.00000000000E+00 0. -1.
         23    2    1    2    0    0 -0.13663890901E+02 -0.25535146191E+02  0.96011439738E+02  0.12816957932E+03  0.79815405132E+02 0.  0.
        -24    2    1    2    0    0 -0.95169483489E+01  0.18453177553E+02 -0.83411993666E+02  0.11615531163E+03  0.78124283451E+02 0.  0.
         11    1    4    4    0    0  0.16332620882E+02  0.33226258205E+02 -0.77374419145E+02  0.85776100851E+02  0.00000000000E+00 0. -1.
        -12    1    4    4    0    0 -0.25849569231E+02 -0.14773080652E+02 -0.60375745209E+01  0.30379210778E+02  0.00000000000E+00 0.  1.
        -13    1    3    3    0    0  0.27084833936E+02  0.71872191225E+01  0.15055747031E+02  0.31810687932E+02  0.00000000000E+00 0. -1.
         13    1    3    3    0    0 -0.40748724836E+02 -0.32722365313E+02  0.80955692707E+02  0.96358891386E+02  0.00000000000E+00 0.  1.
         21    1    1    2  502  501  0.23180839250E+02  0.70819686381E+01 -0.15584206972E+01  0.24288562394E+02  0.00000000000E+00 0. -1.
<scales pt_clust_5="13000.00000" pt_clust_6="13000.00000" pt_clust_7="13000.00000" pt_clust_8="13000.00000" pt_clust_9="24.23851"></scales>
<clustering>
<clus scale="   24.239">  2  9  1 -1</clus>
<clus scale="   78.124">  5  6 -1 -1</clus>
<clus scale="   79.815">  7  8 -1 -1</clus>
<clus scale="   82.555">  2  5  1 -1</clus>
<clus scale="   24.239">  2  5  1 -1</clus>
</clustering>
</event>
<event>
 9    1  0.2374319E-005  0.2301195E+03  0.7546771E-02  0.1127088E+00
          1   -1    0    0  502    0  0.00000000000E+00  0.00000000000E+00  0.40174249865E+03  0.40174249865E+03  0.00000000000E+00 0. -1.
         -2   -1    0    0    0  501 -0.00000000000E+00 -0.00000000000E+00 -0.23234817571E+03  0.23234817571E+03  0.00000000000E+00 0.  1.
         23    2    1    2    0    0  0.21208003854E+03  0.46865407717E+02 -0.10696639727E+03  0.25882316750E+03  0.91505806909E+02 0.  0.
        -24    2    1    2    0    0 -0.19054495533E+03 -0.29799830823E+02  0.18557289168E+03  0.28041275721E+03  0.83657673633E+02 0.  0.
         11    1    4    4    0    0 -0.17735414711E+03 -0.33139946837E+02  0.19358028208E+03  0.26462440398E+03  0.00000000000E+00 0. -1.
        -12    1    4    4    0    0 -0.13190808224E+02  0.33401160139E+01 -0.80073903973E+01  0.15788353225E+02  0.00000000000E+00 0.  1.
        -13    1    3    3    0    0  0.19643337077E+03  0.24935496867E+02 -0.11709615331E+03  0.23004207718E+03  0.00000000000E+00 0.  1.
         13    1    3    3    0    0  0.15646667777E+02  0.21929910851E+02  0.10129756033E+02  0.28781090315E+02  0.00000000000E+00 0. -1.
         21    1    1    2  502  501 -0.21535083211E+02 -0.17065576895E+02  0.90787828529E+02  0.94854749658E+02  0.00000000000E+00 0.  1.
<scales pt_clust_5="13000.00000" pt_clust_6="13000.00000" pt_clust_7="13000.00000" pt_clust_8="13000.00000" pt_clust_9="27.47715"></scales>
<clustering>
<clus scale="   27.477">  1  9  2 -1</clus>
<clus scale="   83.658">  5  6 -1 -1</clus>
<clus scale="   91.506">  7  8 -1 -1</clus>
<clus scale="  227.113">  1  5  2 -1</clus>
<clus scale="   27.477">  1  5  2 -1</clus>
</clustering>
</event>
<event>
 9    1  0.2374319E-005  0.9148608E+02  0.7546771E-02  0.1305240E+00
         -2   -1    0    0    0  501 -0.00000000000E+00  0.00000000000E+00  0.27665819342E+03  0.27665819342E+03  0.00000000000E+00 0.  1.
          1   -1    0    0  502    0  0.00000000000E+00 -0.00000000000E+00 -0.20503107467E+03  0.20503107467E+03  0.00000000000E+00 0. -1.
        -24    2    1    2    0    0 -0.23957125856E+01  0.19732805330E+02  0.25031224304E+03  0.26344972739E+03  0.79714595920E+02 0.  0.
         23    2    1    2    0    0 -0.27034012193E+02 -0.88414423694E+01 -0.13052892022E+03  0.16076127979E+03  0.89428078066E+02 0.  0.
         11    1    3    3    0    0  0.31663973112E+02 -0.10572313852E+02  0.14318728638E+03  0.14702714034E+03  0.00000000000E+00 0. -1.
        -12    1    3    3    0    0 -0.34059685697E+02  0.30305119182E+02  0.10712495665E+03  0.11642258705E+03  0.00000000000E+00 0.  1.
        -11    1    4    4    0    0 -0.58436253071E+02 -0.15033641745E+02 -0.98284211180E+02  0.11532819354E+03  0.00000000000E+00 0.  1.
         11    1    4    4    0    0  0.31402240877E+02  0.61921993761E+01 -0.32244709041E+02  0.45433086252E+02  0.00000000000E+00 0. -1.
         21    1    1    2  502  501  0.29429724779E+02 -0.10891362961E+02 -0.48156204068E+02  0.57478260916E+02  0.00000000000E+00 0. -1.
<scales pt_clust_5="13000.00000" pt_clust_6="13000.00000" pt_clust_7="13000.00000" pt_clust_8="13000.00000" pt_clust_9="31.38042"></scales>
<clustering>
<clus scale="   31.380">  2  9  1 -1</clus>
<clus scale="   79.715">  5  6 -1 -1</clus>
<clus scale="   82.017">  1  5  2 -1</clus>
<clus scale="   89.428">  7  8 -1 -1</clus>
<clus scale="   31.380">  2  5  1 -1</clus>
</clustering>
</event>
<event>
 9    1  0.2374319E-005  0.1065709E+03  0.7546771E-02  0.1271555E+00
         -2   -1    0    0    0  501 -0.00000000000E+00  0.00000000000E+00  0.35399370266E+03  0.35399370266E+03  0.00000000000E+00 0.  1.
          1   -1    0    0  502    0  0.00000000000E+00 -0.00000000000E+00 -0.88542687193E+02  0.88542687193E+02  0.00000000000E+00 0. -1.
        -24    2    1    2    0    0 -0.63148443826E+02  0.24616530996E+02  0.23935490295E+03  0.26183720724E+03  0.81696107457E+02 0.  0.
         23    2    1    2    0    0  0.87548290990E+01  0.34145658812E+02  0.11782113442E+02  0.99356998947E+02  0.92143485903E+02 0.  0.
         11    1    3    3    0    0 -0.10570600249E+02  0.26889798548E+02  0.17398257206E+02  0.33726817362E+02  0.00000000000E+00 0. -1.
        -12    1    3    3    0    0 -0.52577843577E+02 -0.22732675526E+01  0.22195664574E+03  0.22811038988E+03  0.00000000000E+00 0.  1.
        -13    1    4    4    0    0 -0.31538469997E+02 -0.26643376974E+01 -0.18783455758E+02  0.36804782235E+02  0.00000000000E+00 0.  1.
         13    1    4    4    0    0  0.40293299096E+02  0.36809996509E+02  0.30565569200E+02  0.62552216712E+02  0.00000000000E+00 0. -1.
         21    1    1    2  502  501  0.54393614727E+02 -0.58762189808E+02  0.14313999076E+02  0.81342183666E+02  0.00000000000E+00 0.  1.
<scales pt_clust_5="13000.00000" pt_clust_6="13000.00000" pt_clust_7="13000.00000" pt_clust_8="13000.00000" pt_clust_9="80.07284"></scales>
<clustering>
<clus scale="   80.073">  2  9  1 -1</clus>
<clus scale="   81.696">  5  6 -1 -1</clus>
<clus scale="   92.143">  7  8 -1 -1</clus>
<clus scale="   97.679">  1  5  2 -1</clus>
<clus scale="   80.073">  2  5  1 -1</clus>
</clustering>
</event>
<event>
 9    1  0.2374319E-005  0.9536625E+02  0.7546771E-02  0.1296275E+00
          1   -1    0    0  502    0  0.00000000000E+00  0.00000000000E+00  0.37376677988E+03  0.37376677988E+03  0.00000000000E+00 0. -1.
         -2   -1    0    0    0  501 -0.00000000000E+00 -0.00000000000E+00 -0.57237506353E+02  0.57237506353E+02  0.00000000000E+00 0.  1.
        -24    2    1    2    0    0 -0.39488352675E+01 -0.23555145977E+02  0.89502263463E-01  0.84161425041E+02  0.80701296472E+02 0.  0.
         23    2    1    2    0    0 -0.14733135677E+02  0.49952879772E+02  0.19865639481E+03  0.22470040274E+03  0.91178683410E+02 0.  0.
         11    1    3    3    0    0  0.29993484370E+02  0.21437710268E+01 -0.20973940146E+02  0.36662119744E+02  0.00000000000E+00 0. -1.
        -12    1    3    3    0    0 -0.33942319637E+02 -0.25698917004E+02  0.21063442410E+02  0.47499305297E+02  0.00000000000E+00 0.  1.
        -13    1    4    4    0    0  0.23409776702E+02  0.45140093482E+01  0.81900529073E+01  0.25208548000E+02  0.00000000000E+00 0.  1.
         13    1    4    4    0    0 -0.38142912379E+02  0.45438870424E+02  0.19046634190E+03  0.19949185474E+03  0.00000000000E+00 0. -1.
         21    1    1    2  502  501  0.18681970944E+02 -0.26397733794E+02  0.11778337645E+03  0.12214245845E+03  0.00000000000E+00 0. -1.
<scales pt_clust_5="13000.00000" pt_clust_6="13000.00000" pt_clust_7="13000.00000" pt_clust_8="13000.00000" pt_clust_9="32.33970"></scales>
<clustering>
<clus scale="   32.340">  1  9  2 -1</clus>
<clus scale="   80.701">  5  6 -1 -1</clus>
<clus scale="   85.404">  2  5  1 -1</clus>
<clus scale="   91.179">  7  8 -1 -1</clus>
<clus scale="   32.340">  1  5  2 -1</clus>
</clustering>
</event>
<event>
 9    1  0.2374319E-005  0.1167094E+03  0.7546771E-02  0.1252373E+00
         -4   -1    0    0    0  501 -0.00000000000E+00  0.00000000000E+00  0.13419616270E+03  0.13419616270E+03  0.00000000000E+00 0.  1.
          3   -1    0    0  502    0  0.00000000000E+00 -0.00000000000E+00 -0.12995579993E+03  0.12995579993E+03  0.00000000000E+00 0. -1.
         23    2    1    2    0    0  0.61994400279E+02  0.50489277082E+02  0.34638428628E+02  0.12661902606E+03  0.91869931188E+02 0.  0.
        -24    2    1    2    0    0 -0.37728037592E+02 -0.51364600909E+02 -0.61029179605E+01  0.10318360235E+03  0.80918991217E+02 0.  0.
         13    1    4    4    0    0 -0.27430166168E+02 -0.46244599151E+02 -0.40242000131E+02  0.67159478416E+02  0.00000000000E+00 0. -1.
        -14    1    4    4    0    0 -0.10297871424E+02 -0.51200017580E+01  0.34139082170E+02  0.36024123935E+02  0.00000000000E+00 0.  1.
        -13    1    3    3    0    0 -0.88968132293E+01  0.44242404271E+02 -0.45839402286E+01  0.45360292430E+02  0.00000000000E+00 0. -1.
         13    1    3    3    0    0  0.70891213509E+02  0.62468728115E+01  0.39222368857E+02  0.81258733631E+02  0.00000000000E+00 0.  1.
         21    1    1    2  502  501 -0.24266362687E+02  0.87532382659E+00 -0.24295147891E+02  0.34349334214E+02  0.00000000000E+00 0. -1.
<scales pt_clust_5="13000.00000" pt_clust_6="13000.00000" pt_clust_7="13000.00000" pt_clust_8="13000.00000" pt_clust_9="24.28214"></scales>
<clustering>
<clus scale="   24.282">  2  9  1 -1</clus>
<clus scale="   80.919">  5  6 -1 -1</clus>
<clus scale="   91.870">  7  8 -1 -1</clus>
<clus scale="  108.300">  2  5  1 -1</clus>
<clus scale="   24.282">  2  5  1 -1</clus>
</clustering>
</event>
<event>
 9    1  0.2374319E-005  0.1114842E+03  0.7546771E-02  0.1262111E+00
          1   -1    0    0  502    0  0.00000000000E+00  0.00000000000E+00  0.33070310836E+03  0.33070310836E+03  0.00000000000E+00 0. -1.
         -2   -1    0    0    0  501 -0.00000000000E+00 -0.00000000000E+00 -0.19690252934E+03  0.19690252934E+03  0.00000000000E+00 0.  1.
        -24    2    1    2    0    0  0.57115332291E+02  0.29683064432E+02 -0.16867741776E+03  0.19774940828E+03  0.80681545059E+02 0.  0.
         23    2    1    2    0    0 -0.37618864604E+02 -0.16683007856E+02  0.27942300683E+03  0.29698304453E+03  0.91805284531E+02 0.  0.
         11    1    3    3    0    0  0.62727431963E+01  0.32905452647E+02 -0.16639069255E+02  0.37402870836E+02  0.00000000000E+00 0. -1.
        -12    1    3    3    0    0  0.50842589095E+02 -0.32223882143E+01 -0.15203834851E+03  0.16034653744E+03  0.00000000000E+00 0.  1.
        -13    1    4    4    0    0  0.24408411751E+02  0.13700565449E+02  0.12035251723E+03  0.12356457608E+03  0.00000000000E+00 0.  1.
         13    1    4    4    0    0 -0.62027276355E+02 -0.30383573306E+02  0.15907048960E+03  0.17341846845E+03  0.00000000000E+00 0. -1.
         21    1    1    2  502  501 -0.19496467687E+02 -0.13000056576E+02  0.23054989961E+02  0.32873184898E+02  0.00000000000E+00 0.  1.
<scales pt_clust_5="13000.00000" pt_clust_6="13000.00000" pt_clust_7="13000.00000" pt_clust_8="13000.00000" pt_clust_9="23.43318"></scales>
<clustering>
<clus scale="   23.433">  1  9  2 -1</clus>
<clus scale="   80.682">  5  6 -1 -1</clus>
<clus scale="   91.805">  7  8 -1 -1</clus>
<clus scale="  102.518">  2  5  1 -1</clus>
<clus scale="   23.433">  1  5  2 -1</clus>
</clustering>
</event>
<event>
 9    1  0.2374319E-005  0.1451901E+03  0.7546771E-02  0.1209093E+00
         -2   -1    0    0    0  501 -0.00000000000E+00  0.00000000000E+00  0.54014659316E+02  0.54014659316E+02  0.00000000000E+00 0.  1.
          1   -1    0    0  502    0  0.00000000000E+00 -0.00000000000E+00 -0.60607745477E+03  0.60607745477E+03  0.00000000000E+00 0. -1.
        -24    2    1    2    0    0  0.43119337320E+02 -0.10283462030E+03 -0.82666109199E+02  0.15859959812E+03  0.76719688018E+02 0.  0.
         23    2    1    2    0    0 -0.29796767890E+02  0.12039808187E+03 -0.42784666549E+03  0.45445667576E+03  0.89969747578E+02 0.  0.
         11    1    3    3    0    0 -0.16253639106E+02 -0.59716152631E+02 -0.40629441649E+02  0.74033446482E+02  0.00000000000E+00 0. -1.
        -12    1    3    3    0    0  0.59372976426E+02 -0.43118467673E+02 -0.42036667549E+02  0.84566151637E+02  0.00000000000E+00 0.  1.
        -13    1    4    4    0    0  0.29254241800E+02  0.22699743265E+02 -0.75744109523E+02  0.84310492438E+02  0.00000000000E+00 0.  1.
         13    1    4    4    0    0 -0.59051009689E+02  0.97698338602E+02 -0.35210255596E+03  0.37014618332E+03  0.00000000000E+00 0. -1.
         21    1    1    2  502  501 -0.13322569430E+02 -0.17563461563E+02 -0.41550020771E+02  0.47035840211E+02  0.00000000000E+00 0. -1.
<scales pt_clust_5="13000.00000" pt_clust_6="13000.00000" pt_clust_7="13000.00000" pt_clust_8="13000.00000" pt_clust_9="22.04464"></scales>
<clustering>
<clus scale="   22.045">  2  9  1 -1</clus>
<clus scale="   76.720">  5  6 -1 -1</clus>
<clus scale="   89.970">  7  8 -1 -1</clus>
<clus scale="  137.374">  1  5  2 -1</clus>
<clus scale="   22.045">  2  5  1 -1</clus>
</clustering>
</event>
<event>
 9    1  0.2374319E-005  0.1850679E+03  0.7546771E-02  0.1163973E+00
          1   -1    0    0  502    0  0.00000000000E+00  0.00000000000E+00  0.37419880241E+03  0.37419880241E+03  0.00000000000E+00 0. -1.
         -2   -1    0    0    0  501 -0.00000000000E+00 -0.00000000000E+00 -0.15029505982E+03  0.15029505982E+03  0.00000000000E+00 0.  1.
         23    2    1    2    0    0  0.85722479964E+02 -0.15393975730E+03  0.31678061569E+01  0.19783497637E+03  0.89904674136E+02 0.  0.
        -24    2    1    2    0    0 -0.56898851974E+02  0.13120991963E+03  0.82989799400E+02  0.18410557892E+03  0.80956994872E+02 0.  0.
         11    1    4    4    0    0 -0.12783472336E+02  0.49027625945E+02  0.74972195617E+02  0.90487321689E+02  0.00000000000E+00 0. -1.
        -12    1    4    4    0    0 -0.44115379638E+02  0.82182293689E+02  0.80176037833E+01  0.93618257231E+02  0.00000000000E+00 0.  1.
        -13    1    3    3    0    0  0.68976215650E+02 -0.71426865594E+02 -0.35146742536E+02  0.10533189908E+03  0.00000000000E+00 0.  1.
         13    1    3    3    0    0  0.16746264315E+02 -0.82512891702E+02  0.38314548693E+02  0.92503077284E+02  0.00000000000E+00 0. -1.
         21    1    1    2  502  501 -0.28823627990E+02  0.22729837663E+02  0.13774613703E+03  0.14255330693E+03  0.00000000000E+00 0. -1.
<scales pt_clust_5="13000.00000" pt_clust_6="13000.00000" pt_clust_7="13000.00000" pt_clust_8="13000.00000" pt_clust_9="36.70759"></scales>
<clustering>
<clus scale="   36.708">  1  9  2 -1</clus>
<clus scale="   80.957">  5  6 -1 -1</clus>
<clus scale="   89.905">  7  8 -1 -1</clus>
<clus scale="  180.890">  1  5  2 -1</clus>
<clus scale="   36.708">  1  5  2 -1</clus>
</clustering>
</event>
<event>
 9    1  0.3209435E-005  0.1027890E+03  0.7546771E-02  0.1281994E+00
         -2   -1    0    0    0  501 -0.00000000000E+00  0.00000000000E+00  0.53963959870E+03  0.53963959870E+03  0.00000000000E+00 0.  1.
          1   -1    0    0  502    0  0.00000000000E+00 -0.00000000000E+00 -0.15779566585E+03  0.15779566585E+03  0.00000000000E+00 0. -1.
        -24    2    1    2    0    0  0.25632988076E+02  0.26972895513E+02  0.49486355434E+03  0.50278709273E+03  0.80748597721E+02 0.  0.
         23    2    1    2    0    0 -0.30293607744E+02 -0.52769400114E+02 -0.12240906768E+03  0.16680319516E+03  0.95587728333E+02 0.  0.
         11    1    3    3    0    0 -0.27947053347E+02  0.12765758987E+02  0.12116923970E+03  0.12500394811E+03  0.00000000000E+00 0. -1.
        -12    1    3    3    0    0  0.53580041423E+02  0.14207136526E+02  0.37369431464E+03  0.37778314462E+03  0.00000000000E+00 0.  1.
        -11    1    4    4    0    0 -0.60876376608E+02 -0.37948752191E+02 -0.10852640164E+03  0.13009235517E+03  0.00000000000E+00 0. -1.
         11    1    4    4    0    0  0.30582768865E+02 -0.14820647923E+02 -0.13882666038E+02  0.36710839988E+02  0.00000000000E+00 0.  1.
         21    1    1    2  502  501  0.46606196677E+01  0.25796504601E+02  0.93894461871E+01  0.27844976657E+02  0.00000000000E+00 0. -1.
<scales pt_clust_5="13000.00000" pt_clust_6="13000.00000" pt_clust_7="13000.00000" pt_clust_8="13000.00000" pt_clust_9="26.21414"></scales>
<clustering>
<clus scale="   26.214">  2  9  1 -1</clus>
<clus scale="   80.749">  5  6 -1 -1</clus>
<clus scale="   89.157">  1  5  2 -1</clus>
<clus scale="   95.588">  7  8 -1 -1</clus>
<clus scale="   26.214">  2  5  1 -1</clus>
</clustering>
</event>
<event>
 9    1  0.2374319E-005  0.9207618E+02  0.7546771E-02  0.1302940E+00
          1   -1    0    0  502    0  0.00000000000E+00  0.00000000000E+00  0.78838131677E+02  0.78838131677E+02  0.00000000000E+00 0. -1.
         -2   -1    0    0    0  501 -0.00000000000E+00 -0.00000000000E+00 -0.63087567101E+03  0.63087567101E+03  0.00000000000E+00 0.  1.
        -24    2    1    2    0    0 -0.86034308021E+01 -0.11524581033E+02 -0.56306046934E+03  0.56931570339E+03  0.82924320991E+02 0.  0.
         23    2    1    2    0    0 -0.24591428732E+02 -0.56863929890E+01  0.28942611656E+02  0.98934484922E+02  0.91177212641E+02 0.  0.
         11    1    3    3    0    0  0.24895742172E+02  0.14703391142E+02 -0.94415193150E+02  0.98743184003E+02  0.00000000000E+00 0. -1.
        -12    1    3    3    0    0 -0.33499172974E+02 -0.26227972175E+02 -0.46864527619E+03  0.47057251939E+03  0.00000000000E+00 0.  1.
        -13    1    4    4    0    0  0.26446164270E+02 -0.25454557749E+02 -0.65526058099E+00  0.36711898360E+02  0.00000000000E+00 0.  1.
         13    1    4    4    0    0 -0.51037593002E+02  0.19768164760E+02  0.29597872237E+02  0.62222586561E+02  0.00000000000E+00 0. -1.
         21    1    1    2  502  501  0.33194859534E+02  0.17210974022E+02 -0.17919681652E+02  0.41463614372E+02  0.00000000000E+00 0.  1.
<scales pt_clust_5="13000.00000" pt_clust_6="13000.00000" pt_clust_7="13000.00000" pt_clust_8="13000.00000" pt_clust_9="37.39139"></scales>
<clustering>
<clus scale="   37.391">  1  9  2 -1</clus>
<clus scale="   82.924">  5  6 -1 -1</clus>
<clus scale="   83.912">  2  5  1 -1</clus>
<clus scale="   91.177">  7  8 -1 -1</clus>
<clus scale="   37.391">  1  5  2 -1</clus>
</clustering>
</event>
<event>
 9    1  0.2374319E-005  0.1673058E+03  0.7546771E-02  0.1183145E+00
          1   -1    0    0  502    0  0.00000000000E+00  0.00000000000E+00  0.70587476089E+03  0.70587476089E+03  0.00000000000E+00 0. -1.
         -2   -1    0    0    0  501 -0.00000000000E+00 -0.00000000000E+00 -0.77908306217E+02  0.77908306217E+02  0.00000000000E+00 0.  1.
        -24    2    1    2    0    0  0.14681942960E+03  0.73564516993E+02  0.84720003336E+02  0.19936071886E+03  0.74830035366E+02 0.  0.
         23    2    1    2    0    0 -0.61864287921E+02 -0.39899065877E+02  0.37247675809E+03  0.39073954873E+03  0.92300238597E+02 0.  0.
         13    1    3    3    0    0  0.54325003770E+02  0.48880429347E+02  0.72347173099E+02  0.10283295125E+03  0.00000000000E+00 0. -1.
        -14    1    3    3    0    0  0.92494425828E+02  0.24684087646E+02  0.12372830237E+02  0.96527767613E+02  0.00000000000E+00 0.  1.
        -11    1    4    4    0    0  0.19802419896E+01 -0.45447114226E+02  0.23083700594E+03  0.23527661350E+03  0.00000000000E+00 0.  1.
         11    1    4    4    0    0 -0.63844529911E+02  0.55480483481E+01  0.14163975216E+03  0.15546293523E+03  0.00000000000E+00 0. -1.
         21    1    1    2  502  501 -0.84955141677E+02 -0.33665451116E+02  0.17076969325E+03  0.19368279951E+03  0.00000000000E+00 0. -1.
<scales pt_clust_5="13000.00000" pt_clust_6="13000.00000" pt_clust_7="13000.00000" pt_clust_8="13000.00000" pt_clust_9="91.38238"></scales>
<clustering>
<clus scale="   74.830">  5  6 -1 -1</clus>
<clus scale="   91.382">  1  9  2 -1</clus>
<clus scale="   92.300">  7  8 -1 -1</clus>
<clus scale="  158.340">  2  5  1 -1</clus>
<clus scale="   91.382">  1  5  2 -1</clus>
</clustering>
</event>
<event>
 9    1  0.2374319E-005  0.1055243E+03  0.7546771E-02  0.1278819E+00
         -2   -1    0    0    0  501 -0.00000000000E+00  0.00000000000E+00  0.46988663363E+02  0.46988663363E+02  0.00000000000E+00 0.  1.
          1   -1    0    0  502    0  0.00000000000E+00 -0.00000000000E+00 -0.44767962416E+03  0.44767962416E+03  0.00000000000E+00 0. -1.
        -24    2    1    2    0    0 -0.54979975122E+02 -0.69319329820E+01 -0.28829234163E+02  0.95044317754E+02  0.71634127589E+02 0.  0.
         23    2    1    2    0    0  0.19675146346E+02  0.25697413307E+02 -0.31605055924E+03  0.33096932250E+03  0.92764583763E+02 0.  0.
         13    1    3    3    0    0 -0.16291063287E+02 -0.21898849963E+02  0.17837193520E+02  0.32605579973E+02  0.00000000000E+00 0. -1.
        -14    1    3    3    0    0 -0.38688911835E+02  0.14966916981E+02 -0.46666427683E+02  0.62438737780E+02  0.00000000000E+00 0.  1.
        -11    1    4    4    0    0  0.43534211718E+02  0.48277331526E+02 -0.22348625444E+03  0.23274886520E+03  0.00000000000E+00 0. -1.
         11    1    4    4    0    0 -0.23859065373E+02 -0.22579918219E+02 -0.92564304806E+02  0.98220457296E+02  0.00000000000E+00 0.  1.
         21    1    1    2  502  501  0.35304828776E+02 -0.18765480325E+02 -0.55811167390E+02  0.68654647273E+02  0.00000000000E+00 0. -1.
<scales pt_clust_5="13000.00000" pt_clust_6="13000.00000" pt_clust_7="13000.00000" pt_clust_8="13000.00000" pt_clust_9="39.98217"></scales>
<clustering>
<clus scale="   39.982">  2  9  1 -1</clus>
<clus scale="   71.634">  5  6 -1 -1</clus>
<clus scale="   87.530">  1  5  2 -1</clus>
<clus scale="   92.765">  7  8 -1 -1</clus>
<clus scale="   39.982">  2  5  1 -1</clus>
</clustering>
</event>
<event>
 9    1  0.2374319E-005  0.1909244E+03  0.7546771E-02  0.1158884E+00
          1   -1    0    0  502    0  0.00000000000E+00  0.00000000000E+00  0.19500122906E+03  0.19500122906E+03  0.00000000000E+00 0. -1.
         -2   -1    0    0    0  501 -0.00000000000E+00 -0.00000000000E+00 -0.80062658472E+03  0.80062658472E+03  0.00000000000E+00 0.  1.
         23    2    1    2    0    0 -0.20342769115E+03 -0.90916010939E+02 -0.49097358479E+03  0.54702930563E+03  0.92398342405E+02 0.  0.
        -24    2    1    2    0    0  0.53512522897E+02  0.15921809266E+03  0.71988108377E+02  0.19965237630E+03  0.80403933219E+02 0.  0.
         11    1    4    4    0    0  0.42241485075E+02  0.16141652360E+03  0.80598782430E+02  0.18529921986E+03  0.00000000000E+00 0. -1.
        -12    1    4    4    0    0  0.11271037823E+02 -0.21984309353E+01 -0.86106740525E+01  0.14353156441E+02  0.00000000000E+00 0.  1.
        -11    1    3    3    0    0 -0.17267810518E+02 -0.34343928645E+02 -0.14594382377E+03  0.15092144450E+03  0.00000000000E+00 0.  1.
         11    1    3    3    0    0 -0.18615988063E+03 -0.56572082295E+02 -0.34502976103E+03  0.39610786113E+03  0.00000000000E+00 0. -1.
         21    1    1    2  502  501  0.14991516825E+03 -0.68302081721E+02 -0.18663987925E+03  0.24894613185E+03  0.00000000000E+00 0.  1.
<scales pt_clust_5="13000.00000" pt_clust_6="13000.00000" pt_clust_7="13000.00000" pt_clust_8="13000.00000" pt_clust_9="164.74141"></scales>
<clustering>
<clus scale="   80.404">  5  6 -1 -1</clus>
<clus scale="   92.398">  7  8 -1 -1</clus>
<clus scale="  164.741">  2  9  1 -1</clus>
<clus scale="  185.417">  1  5  2 -1</clus>
<clus scale="  185.417">  1  5  2 -1</clus>
</clustering>
</event>
<event>
 9    1  0.2374319E-005  0.1077394E+03  0.7546771E-02  0.1270981E+00
          1   -1    0    0  502    0  0.00000000000E+00  0.00000000000E+00  0.69104073561E+02  0.69104073561E+02  0.00000000000E+00 0. -1.
         -2   -1    0    0    0  501 -0.00000000000E+00 -0.00000000000E+00 -0.25254349091E+03  0.25254349091E+03  0.00000000000E+00 0.  1.
         23    2    1    2    0    0 -0.55122758467E+02 -0.48906792523E+01 -0.16277774104E+03  0.19616086521E+03  0.94446041827E+02 0.  0.
        -24    2    1    2    0    0  0.38782704579E+02  0.29150325814E+02 -0.10007840347E+02  0.94357419910E+02  0.80307696730E+02 0.  0.
         11    1    4    4    0    0  0.52390528130E+02  0.27920707814E+02  0.18967217765E+02  0.62322457528E+02  0.00000000000E+00 0. -1.
        -12    1    4    4    0    0 -0.13607823551E+02  0.12296180002E+01 -0.28975058111E+02  0.32034962381E+02  0.00000000000E+00 0.  1.
        -11    1    3    3    0    0 -0.66729513054E+02  0.11567678453E+02 -0.57106951102E+02  0.88588052023E+02  0.00000000000E+00 0. -1.
         11    1    3    3    0    0  0.11606754586E+02 -0.16458357706E+02 -0.10567078994E+03  0.10757281319E+03  0.00000000000E+00 0.  1.
         21    1    1    2  502  501  0.16340053888E+02 -0.24259646562E+02 -0.10653835964E+02  0.31129279354E+02  0.00000000000E+00 0.  1.
<scales pt_clust_5="13000.00000" pt_clust_6="13000.00000" pt_clust_7="13000.00000" pt_clust_8="13000.00000" pt_clust_9="29.24941"></scales>
<clustering>
<clus scale="   29.249">  1  9  2 -1</clus>
<clus scale="   80.308">  5  6 -1 -1</clus>
<clus scale="   94.446">  7  8 -1 -1</clus>
<clus scale="   95.588">  1  5  2 -1</clus>
<clus scale="   29.249">  1  5  2 -1</clus>
</clustering>
</event>
<event>
 9    1  0.2374319E-005  0.9887280E+02  0.7546771E-02  0.1286869E+00
         -2   -1    0    0    0  501 -0.00000000000E+00  0.00000000000E+00  0.61854886149E+02  0.61854886149E+02  0.00000000000E+00 0.  1.
          1   -1    0    0  502    0  0.00000000000E+00 -0.00000000000E+00 -0.52608972348E+03  0.52608972348E+03  0.00000000000E+00 0. -1.
        -24    2    1    2    0    0  0.77787088543E+01 -0.34200410515E+02 -0.10880956653E+02  0.87759771165E+02  0.79706999859E+02 0.  0.
         23    2    1    2    0    0  0.10163385794E+02  0.10517304174E+03 -0.27989248621E+03  0.31190874197E+03  0.88219024918E+02 0.  0.
         13    1    3    3    0    0  0.31946834939E+02  0.84610236748E+01 -0.18908794537E+02  0.38075342350E+02  0.00000000000E+00 0. -1.
        -14    1    3    3    0    0 -0.24168126085E+02 -0.42661434190E+02  0.80278378834E+01  0.49684428815E+02  0.00000000000E+00 0.  1.
        -13    1    4    4    0    0 -0.26884172945E+02  0.79183497329E+02 -0.12385878413E+03  0.14944491765E+03  0.00000000000E+00 0. -1.
         13    1    4    4    0    0  0.37047558739E+02  0.25989544408E+02 -0.15603370208E+03  0.16246382432E+03  0.00000000000E+00 0.  1.
         21    1    1    2  502  501 -0.17942094648E+02 -0.70972631222E+02 -0.17346139447E+03  0.18827609650E+03  0.00000000000E+00 0. -1.
<scales pt_clust_5="13000.00000" pt_clust_6="13000.00000" pt_clust_7="13000.00000" pt_clust_8="13000.00000" pt_clust_9="73.20542"></scales>
<clustering>
<clus scale="   73.205">  2  9  1 -1</clus>
<clus scale="   79.707">  5  6 -1 -1</clus>
<clus scale="   88.219">  7  8 -1 -1</clus>
<clus scale="   91.359">  1  5  2 -1</clus>
<clus scale="   73.205">  2  5  1 -1</clus>
</clustering>
</event>
<event>
 9    1  0.2374319E-005  0.3205495E+03  0.7546771E-02  0.1075732E+00
         -2   -1    0    0    0  501 -0.00000000000E+00  0.00000000000E+00  0.10056357996E+03  0.10056357996E+03  0.00000000000E+00 0.  1.
          1   -1    0    0  502    0  0.00000000000E+00 -0.00000000000E+00 -0.14728067061E+04  0.14728067061E+04  0.00000000000E+00 0. -1.
         23    2    1    2    0    0 -0.26445189574E+03  0.15266784831E+03 -0.26812648403E+03  0.41678637596E+03  0.92610985754E+02 0.  0.
        -24    2    1    2    0    0  0.25928082503E+03 -0.17370901899E+03 -0.10295160664E+04  0.10789004708E+04  0.81984910277E+02 0.  0.
         11    1    4    4    0    0  0.16815288211E+03 -0.78681303831E+02 -0.69607138063E+03  0.72040371061E+03  0.00000000000E+00 0. -1.
        -12    1    4    4    0    0  0.91127942920E+02 -0.95027715158E+02 -0.33344468573E+03  0.35849676019E+03  0.00000000000E+00 0.  1.
        -11    1    3    3    0    0 -0.87009421217E+02  0.43402116233E+02 -0.14549408178E+03  0.17499403106E+03  0.00000000000E+00 0. -1.
         11    1    3    3    0    0 -0.17744247452E+03  0.10926573208E+03 -0.12263240224E+03  0.24179234490E+03  0.00000000000E+00 0.  1.
         21    1    1    2  502  501  0.51710707079E+01  0.21041170678E+02 -0.74600575726E+02  0.77683439255E+02  0.00000000000E+00 0. -1.
<scales pt_clust_5="13000.00000" pt_clust_6="13000.00000" pt_clust_7="13000.00000" pt_clust_8="13000.00000" pt_clust_9="21.66728"></scales>
<clustering>
<clus scale="   21.667">  2  9  1 -1</clus>
<clus scale="   81.985">  5  6 -1 -1</clus>
<clus scale="   92.611">  7  8 -1 -1</clus>
<clus scale="  317.642">  2  5  1 -1</clus>
<clus scale="   21.667">  2  5  1 -1</clus>
</clustering>
</event>
<event>
 9    1  0.2374319E-005  0.2385311E+03  0.7546771E-02  0.1121275E+00
          1   -1    0    0  502    0  0.00000000000E+00  0.00000000000E+00  0.94846893330E+03  0.94846893330E+03  0.00000000000E+00 0. -1.
         -2   -1    0    0    0  501 -0.00000000000E+00 -0.00000000000E+00 -0.86753861983E+02  0.86753861983E+02  0.00000000000E+00 0.  1.
        -24    2    1    2    0    0  0.40957580123E+01 -0.21522654950E+03  0.17407046817E+03  0.28814609155E+03  0.79927463001E+02 0.  0.
         23    2    1    2    0    0 -0.47531588176E+02  0.22017040700E+03  0.62908945830E+03  0.67400264502E+03  0.88270940599E+02 0.  0.
         11    1    3    3    0    0 -0.25388120194E+01 -0.14722383287E+03  0.16172333756E+03  0.21871383231E+03  0.00000000000E+00 0. -1.
        -12    1    3    3    0    0  0.66345700318E+01 -0.68002716632E+02  0.12347130609E+02  0.69432259239E+02  0.00000000000E+00 0.  1.
        -13    1    4    4    0    0 -0.71992161067E+02  0.18921189957E+03  0.52318117437E+03  0.56098356073E+03  0.00000000000E+00 0.  1.
         13    1    4    4    0    0  0.24460572891E+02  0.30958507434E+02  0.10590828393E+03  0.11301908429E+03  0.00000000000E+00 0. -1.
         21    1    1    2  502  501  0.43435830164E+02 -0.49438575018E+01  0.58555144847E+02  0.73074058715E+02  0.00000000000E+00 0.  1.
<scales pt_clust_5="13000.00000" pt_clust_6="13000.00000" pt_clust_7="13000.00000" pt_clust_8="13000.00000" pt_clust_9="43.71628"></scales>
<clustering>
<clus scale="   43.716">  2  9  1 -1</clus>
<clus scale="   79.927">  5  6 -1 -1</clus>
<clus scale="   88.271">  7  8 -1 -1</clus>
<clus scale="  235.571">  2  5  1 -1</clus>
<clus scale="  238.531">  1  5  2 -1</clus>
</clustering>
</event>
<event>
 9    1  0.2374319E-005  0.9082597E+02  0.7546771E-02  0.1308526E+00
         -2   -1    0    0    0  501 -0.00000000000E+00  0.00000000000E+00  0.78776017777E+02  0.78776017777E+02  0.00000000000E+00 0.  1.
          1   -1    0    0  502    0  0.00000000000E+00 -0.00000000000E+00 -0.17182965634E+03  0.17182965634E+03  0.00000000000E+00 0. -1.
        -24    2    1    2    0    0  0.21976083611E+02 -0.10796937933E+02  0.12969102086E+02  0.83617834303E+02  0.78893741735E+02 0.  0.
         23    2    1    2    0    0  0.58716416943E+01 -0.70630705180E+01 -0.95940438820E+02  0.13240274886E+03  0.90783021333E+02 0.  0.
         13    1    3    3    0    0  0.39628222943E+01  0.33286613276E+02 -0.23201064331E+01  0.33601867177E+02  0.00000000000E+00 0. -1.
        -14    1    3    3    0    0  0.18013261317E+02 -0.44083551209E+02  0.15289208519E+02  0.50015967127E+02  0.00000000000E+00 0.  1.
        -13    1    4    4    0    0 -0.21717047548E+02 -0.35476878661E+02 -0.18711187065E+02  0.45610827608E+02  0.00000000000E+00 0.  1.
         13    1    4    4    0    0  0.27588689242E+02  0.28413808143E+02 -0.77229251755E+02  0.86791921248E+02  0.00000000000E+00 0. -1.
         21    1    1    2  502  501 -0.27847725305E+02  0.17860008451E+02 -0.10082301831E+02  0.34585090961E+02  0.00000000000E+00 0. -1.
<scales pt_clust_5="13000.00000" pt_clust_6="13000.00000" pt_clust_7="13000.00000" pt_clust_8="13000.00000" pt_clust_9="33.08286"></scales>
<clustering>
<clus scale="   33.083">  1  9  2 -1</clus>
<clus scale="   78.894">  5  6 -1 -1</clus>
<clus scale="   78.943">  1  5  2 -1</clus>
<clus scale="   90.783">  7  8 -1 -1</clus>
<clus scale="   90.826">  2  5  1 -1</clus>
</clustering>
</event>
<event>
 9    1  0.2374319E-005  0.9275806E+02  0.7546771E-02  0.1302937E+00
         -2   -1    0    0    0  501 -0.00000000000E+00  0.00000000000E+00  0.24420110497E+03  0.24420110497E+03  0.00000000000E+00 0.  1.
          1   -1    0    0  502    0  0.00000000000E+00 -0.00000000000E+00 -0.11314790368E+03  0.11314790368E+03  0.00000000000E+00 0. -1.
         23    2    1    2    0    0 -0.17321889110E+01  0.17618239689E+02  0.19535213585E+03  0.21611125664E+03  0.90709511178E+02 0.  0.
        -24    2    1    2    0    0 -0.16854303722E+02 -0.27787856216E+02 -0.14788314002E+02  0.87384429398E+02  0.79756578181E+02 0.  0.
         13    1    4    4    0    0 -0.45689046409E+02 -0.22207159403E+02 -0.24568193057E+02  0.56429097110E+02  0.00000000000E+00 0. -1.
        -14    1    4    4    0    0  0.28834742687E+02 -0.55806968134E+01  0.97798790546E+01  0.30955332289E+02  0.00000000000E+00 0.  1.
        -11    1    3    3    0    0  0.87024882716E+01  0.38030267196E+02  0.18804645500E+03  0.19205078433E+03  0.00000000000E+00 0.  1.
         11    1    3    3    0    0 -0.10434677183E+02 -0.20412027507E+02  0.73056808447E+01  0.24060472303E+02  0.00000000000E+00 0. -1.
         21    1    1    2  502  501  0.18586492633E+02  0.10169616527E+02 -0.49510620552E+02  0.53853322610E+02  0.00000000000E+00 0. -1.
<scales pt_clust_5="13000.00000" pt_clust_6="13000.00000" pt_clust_7="13000.00000" pt_clust_8="13000.00000" pt_clust_9="21.18676"></scales>
<clustering>
<clus scale="   21.187">  2  9  1 -1</clus>
<clus scale="   79.757">  5  6 -1 -1</clus>
<clus scale="   82.079">  2  5  1 -1</clus>
<clus scale="   90.710">  7  8 -1 -1</clus>
<clus scale="   21.187">  2  5  1 -1</clus>
</clustering>
</event>
<event>
 9    1  0.2374319E-005  0.1066909E+03  0.7546771E-02  0.1272734E+00
         -2   -1    0    0    0  501 -0.00000000000E+00  0.00000000000E+00  0.26072092650E+03  0.26072092650E+03  0.00000000000E+00 0.  1.
          1   -1    0    0  502    0  0.00000000000E+00 -0.00000000000E+00 -0.13093914659E+03  0.13093914659E+03  0.00000000000E+00 0. -1.
        -24    2    1    2    0    0 -0.43094912960E+02  0.28607675200E+02  0.18276081234E+03  0.20485327577E+03  0.76731867326E+02 0.  0.
         23    2    1    2    0    0  0.60054731478E+02 -0.73258455362E+02 -0.34250843387E+02  0.13550306764E+03  0.90634369931E+02 0.  0.
         13    1    3    3    0    0 -0.74109679983E+00 -0.24449397940E+02  0.42807353203E+02  0.49303060477E+02  0.00000000000E+00 0. -1.
        -14    1    3    3    0    0 -0.42353816161E+02  0.53057073140E+02  0.13995345914E+03  0.15555021529E+03  0.00000000000E+00 0.  1.
        -11    1    4    4    0    0  0.36778662818E+01  0.20553193832E+02 -0.20200179067E+00  0.20880643711E+02  0.00000000000E+00 0.  1.
         11    1    4    4    0    0  0.56376865196E+02 -0.93811649194E+02 -0.34048841597E+02  0.11462242393E+03  0.00000000000E+00 0. -1.
         21    1    1    2  502  501 -0.16959818517E+02  0.44650780162E+02 -0.18728189045E+02  0.51303729671E+02  0.00000000000E+00 0.  1.
<scales pt_clust_5="13000.00000" pt_clust_6="13000.00000" pt_clust_7="13000.00000" pt_clust_8="13000.00000" pt_clust_9="47.76325"></scales>
<clustering>
<clus scale="   47.763">  2  9  1 -1</clus>
<clus scale="   76.732">  5  6 -1 -1</clus>
<clus scale="   90.634">  7  8 -1 -1</clus>
<clus scale="   95.164">  1  5  2 -1</clus>
<clus scale="   47.763">  2  5  1 -1</clus>
</clustering>
</event>
<event>
 9    1  0.2374319E-005  0.1456557E+03  0.7546771E-02  0.1207890E+00
          1   -1    0    0  502    0  0.00000000000E+00  0.00000000000E+00  0.70956801081E+03  0.70956801081E+03  0.00000000000E+00 0. -1.
         -2   -1    0    0    0  501 -0.00000000000E+00 -0.00000000000E+00 -0.77886959687E+02  0.77886959687E+02  0.00000000000E+00 0.  1.
         23    2    1    2    0    0 -0.76360816348E+02 -0.89690341986E+02  0.11780034836E+02  0.14830199742E+03  0.89327383814E+02 0.  0.
        -24    2    1    2    0    0  0.49661458711E+02  0.83555090634E+02  0.54956672080E+03  0.56367178251E+03  0.79085928815E+02 0.  0.
         11    1    4    4    0    0  0.49245317686E+02  0.82687416948E+01  0.20896620099E+03  0.21484959055E+03  0.00000000000E+00 0. -1.
        -12    1    4    4    0    0  0.41614102417E+00  0.75286348939E+02  0.34060051981E+03  0.34882219196E+03  0.00000000000E+00 0.  1.
        -11    1    3    3    0    0 -0.28444218089E+02  0.15254198198E+02  0.56991041099E+01  0.32775660070E+02  0.00000000000E+00 0. -1.
         11    1    3    3    0    0 -0.47916598259E+02 -0.10494454018E+03  0.60809307258E+01  0.11552633735E+03  0.00000000000E+00 0.  1.
         21    1    1    2  502  501  0.26699357638E+02  0.61352513520E+01  0.70334295485E+02  0.75481190563E+02  0.00000000000E+00 0. -1.
<scales pt_clust_5="13000.00000" pt_clust_6="13000.00000" pt_clust_7="13000.00000" pt_clust_8="13000.00000" pt_clust_9="27.39520"></scales>
<clustering>
<clus scale="   27.395">  1  9  2 -1</clus>
<clus scale="   79.086">  5  6 -1 -1</clus>
<clus scale="   89.327">  7  8 -1 -1</clus>
<clus scale="  139.609">  1  5  2 -1</clus>
<clus scale="   27.395">  1  5  2 -1</clus>
</clustering>
</event>
<event>
 9    1  0.2374319E-005  0.3496231E+03  0.7546771E-02  0.1063145E+00
          1   -1    0    0  502    0  0.00000000000E+00  0.00000000000E+00  0.15947228421E+03  0.15947228421E+03  0.00000000000E+00 0. -1.
         -2   -1    0    0    0  501 -0.00000000000E+00 -0.00000000000E+00 -0.10194470683E+04  0.10194470683E+04  0.00000000000E+00 0.  1.
        -24    2    1    2    0    0  0.24830179559E+03  0.21882266417E+03 -0.55790182921E+03  0.65343579649E+03  0.78655890166E+02 0.  0.
         23    2    1    2    0    0 -0.28166675865E+03 -0.20430366916E+03 -0.32270135398E+03  0.48365589973E+03  0.93331202293E+02 0.  0.
         11    1    3    3    0    0  0.15987522348E+03  0.10504824921E+03 -0.26302535542E+03  0.32523462198E+03  0.00000000000E+00 0. -1.
        -12    1    3    3    0    0  0.88426572113E+02  0.11377441496E+03 -0.29487647379E+03  0.32820117451E+03  0.00000000000E+00 0.  1.
        -11    1    4    4    0    0 -0.27962500605E+03 -0.17284873893E+03 -0.29389529224E+03  0.44095495616E+03  0.00000000000E+00 0.  1.
         11    1    4    4    0    0 -0.20417526061E+01 -0.31454930225E+02 -0.28806061739E+02  0.42700943573E+02  0.00000000000E+00 0. -1.
         21    1    1    2  502  501  0.33364963062E+02 -0.14518995014E+02  0.20628399137E+02  0.41827656249E+02  0.00000000000E+00 0.  1.
<scales pt_clust_5="13000.00000" pt_clust_6="13000.00000" pt_clust_7="13000.00000" pt_clust_8="13000.00000" pt_clust_9="36.38711"></scales>
<clustering>
<clus scale="   36.387">  1  9  2 -1</clus>
<clus scale="   78.656">  5  6 -1 -1</clus>
<clus scale="   93.331">  7  8 -1 -1</clus>
<clus scale="  345.995">  2  5  1 -1</clus>
<clus scale="   36.387">  1  5  2 -1</clus>
</clustering>
</event>
<event>
 9    1  0.2374319E-005  0.1313252E+03  0.7546771E-02  0.1243794E+00
         -2   -1    0    0    0  501 -0.00000000000E+00  0.00000000000E+00  0.10992060946E+03  0.10992060946E+03  0.00000000000E+00 0.  1.
          1   -1    0    0  502    0  0.00000000000E+00 -0.00000000000E+00 -0.26833362432E+03  0.26833362432E+03  0.00000000000E+00 0. -1.
         23    2    1    2    0    0 -0.44942005713E+02 -0.65895663868E+02 -0.82179508765E+01  0.12256721894E+03  0.92699331427E+02 0.  0.
        -24    2    1    2    0    0 -0.30832850537E+02 -0.22787781227E+02 -0.65199162305E+02  0.11135792709E+03  0.81729489867E+02 0.  0.
         13    1    4    4    0    0 -0.47508350149E+02 -0.47287755184E+01 -0.71507406071E+02  0.85980891917E+02  0.00000000000E+00 0. -1.
        -14    1    4    4    0    0  0.16675499613E+02 -0.18059005708E+02  0.63082437664E+01  0.25377035168E+02  0.00000000000E+00 0.  1.
        -13    1    3    3    0    0 -0.69031862261E+02 -0.39188858120E+02 -0.24517448901E+02  0.83079900750E+02  0.00000000000E+00 0.  1.
         13    1    3    3    0    0  0.24089856548E+02 -0.26706805748E+02  0.16299498025E+02  0.39487318187E+02  0.00000000000E+00 0. -1.
         21    1    1    2  502  501  0.75774856250E+02  0.88683445095E+02 -0.84995901678E+02  0.14432908777E+03  0.00000000000E+00 0. -1.
<scales pt_clust_5="13000.00000" pt_clust_6="13000.00000" pt_clust_7="13000.00000" pt_clust_8="13000.00000" pt_clust_9="93.02225"></scales>
<clustering>
<clus scale="   81.729">  5  6 -1 -1</clus>
<clus scale="   90.275">  2  5  1 -1</clus>
<clus scale="   92.699">  7  8 -1 -1</clus>
<clus scale="   93.022">  2  9  1 -1</clus>
<clus scale="   90.275">  2  5  1 -1</clus>
</clustering>
</event>
<event>
 9    1  0.2374319E-005  0.1670678E+03  0.7546771E-02  0.1182664E+00
          1   -1    0    0  502    0  0.00000000000E+00  0.00000000000E+00  0.31386909935E+03  0.31386909935E+03  0.00000000000E+00 0. -1.
         -2   -1    0    0    0  501 -0.00000000000E+00 -0.00000000000E+00 -0.26582073511E+03  0.26582073511E+03  0.00000000000E+00 0.  1.
        -24    2    1    2    0    0  0.11978513156E+03  0.33485488488E+01 -0.58535072862E+02  0.15559312501E+03  0.80144714573E+02 0.  0.
         23    2    1    2    0    0 -0.15972548158E+03 -0.33417768984E+02 -0.99389391434E+02  0.21214342296E+03  0.92182449662E+02 0.  0.
         13    1    3    3    0    0  0.30786856415E+02 -0.21502295791E+02  0.11915008510E+02  0.39397292800E+02  0.00000000000E+00 0. -1.
        -14    1    3    3    0    0  0.88998275145E+02  0.24850844640E+02 -0.70450081372E+02  0.11619583221E+03  0.00000000000E+00 0.  1.
        -13    1    4    4    0    0 -0.80096171906E+02 -0.63342605017E+02 -0.59534266759E+02  0.11820326257E+03  0.00000000000E+00 0. -1.
         13    1    4    4    0    0 -0.79629309670E+02  0.29924836033E+02 -0.39855124675E+02  0.93940160384E+02  0.00000000000E+00 0.  1.
         21    1    1    2  502  501  0.39940350016E+02  0.30069220135E+02  0.20597282853E+03  0.21195328649E+03  0.00000000000E+00 0. -1.
<scales pt_clust_5="13000.00000" pt_clust_6="13000.00000" pt_clust_7="13000.00000" pt_clust_8="13000.00000" pt_clust_9="49.99390"></scales>
<clustering>
<clus scale="   49.994">  1  9  2 -1</clus>
<clus scale="   80.145">  5  6 -1 -1</clus>
<clus scale="   92.182">  7  8 -1 -1</clus>
<clus scale="  160.740">  2  5  1 -1</clus>
<clus scale="   49.994">  1  5  2 -1</clus>
</clustering>
</event>
<event>
 9    1  0.2374319E-005  0.9989633E+02  0.7546771E-02  0.1285537E+00
          1   -1    0    0  502    0  0.00000000000E+00  0.00000000000E+00  0.61990172514E+03  0.61990172514E+03  0.00000000000E+00 0. -1.
         -2   -1    0    0    0  501 -0.00000000000E+00 -0.00000000000E+00 -0.51062466314E+02  0.51062466314E+02  0.00000000000E+00 0.  1.
         23    2    1    2    0    0  0.38095530074E+02 -0.46340879886E+02  0.39275881143E+02  0.11558219146E+03  0.90652642447E+02 0.  0.
        -24    2    1    2    0    0 -0.53858721066E+01 -0.27966544007E+02  0.24543798746E+03  0.25988453412E+03  0.80554516844E+02 0.  0.
         13    1    4    4    0    0  0.11129387239E+01 -0.43415687883E+02  0.62087019061E+02  0.75769113251E+02  0.00000000000E+00 0. -1.
        -14    1    4    4    0    0 -0.64988108304E+01  0.15449143876E+02  0.18335096840E+03  0.18411542087E+03  0.00000000000E+00 0.  1.
        -11    1    3    3    0    0 -0.27326209025E+02 -0.16179748828E+02  0.28635755055E+02  0.42761108959E+02  0.00000000000E+00 0.  1.
         11    1    3    3    0    0  0.65421739098E+02 -0.30161131057E+02  0.10640126088E+02  0.72821082500E+02  0.00000000000E+00 0. -1.
         21    1    1    2  502  501 -0.32709657967E+02  0.74307423893E+02  0.28412539022E+03  0.29549746587E+03  0.00000000000E+00 0.  1.
<scales pt_clust_5="13000.00000" pt_clust_6="13000.00000" pt_clust_7="13000.00000" pt_clust_8="13000.00000" pt_clust_9="81.18815"></scales>
<clustering>
<clus scale="   80.555">  5  6 -1 -1</clus>
<clus scale="   81.188">  1  9  2 -1</clus>
<clus scale="   90.653">  7  8 -1 -1</clus>
<clus scale="   90.832">  1  5  2 -1</clus>
<clus scale="   81.188">  1  5  2 -1</clus>
</clustering>
</event>
<event>
 9    1  0.2374319E-005  0.9387601E+02  0.7546771E-02  0.1300596E+00
          1   -1    0    0  502    0  0.00000000000E+00  0.00000000000E+00  0.38522890035E+03  0.38522890035E+03  0.00000000000E+00 0. -1.
         -2   -1    0    0    0  501 -0.00000000000E+00 -0.00000000000E+00 -0.53246868807E+02  0.53246868807E+02  0.00000000000E+00 0.  1.
        -24    2    1    2    0    0  0.51690665818E+00  0.58951438606E+02  0.49857879318E+02  0.11116513547E+03  0.79977121150E+02 0.  0.
         23    2    1    2    0    0 -0.48955892179E+01 -0.10412360864E+02  0.25579371558E+03  0.27191652910E+03  0.91519341229E+02 0.  0.
         11    1    3    3    0    0  0.23898128632E+02  0.51083906260E+02  0.61877958857E+02  0.83723161809E+02  0.00000000000E+00 0. -1.
        -12    1    3    3    0    0 -0.23381221974E+02  0.78675323455E+01 -0.12020079539E+02  0.27441973660E+02  0.00000000000E+00 0.  1.
        -13    1    4    4    0    0 -0.10745025177E+02 -0.46213944553E+02  0.85314547059E+02  0.97620470072E+02  0.00000000000E+00 0. -1.
         13    1    4    4    0    0  0.58494359591E+01  0.35801583689E+02  0.17047916852E+03  0.17429605903E+03  0.00000000000E+00 0.  1.
         21    1    1    2  502  501  0.43786825597E+01 -0.48539077742E+02  0.26330436654E+02  0.55394104591E+02  0.00000000000E+00 0. -1.
<scales pt_clust_5="13000.00000" pt_clust_6="13000.00000" pt_clust_7="13000.00000" pt_clust_8="13000.00000" pt_clust_9="48.73618"></scales>
<clustering>
<clus scale="   48.736">  2  9  1 -1</clus>
<clus scale="   79.977">  5  6 -1 -1</clus>
<clus scale="   82.664">  2  5  1 -1</clus>
<clus scale="   91.519">  7  8 -1 -1</clus>
<clus scale="   93.876">  1  5  2 -1</clus>
</clustering>
</event>
<event>
 9    1  0.2374319E-005  0.1120854E+03  0.7546771E-02  0.1261891E+00
         -2   -1    0    0    0  501 -0.00000000000E+00  0.00000000000E+00  0.27342176610E+03  0.27342176610E+03  0.00000000000E+00 0.  1.
          1   -1    0    0  502    0  0.00000000000E+00 -0.00000000000E+00 -0.60357524788E+02  0.60357524788E+02  0.00000000000E+00 0. -1.
        -24    2    1    2    0    0 -0.40619014682E+02  0.60935996314E+02  0.15023601414E+03  0.18390112948E+03  0.76718090952E+02 0.  0.
         23    2    1    2    0    0  0.47744629373E+02 -0.42156059413E+02  0.35968052587E+02  0.11633819430E+03  0.90466522356E+02 0.  0.
         13    1    3    3    0    0 -0.31840848414E+02  0.24566010762E+02  0.13940621863E+02  0.42563710487E+02  0.00000000000E+00 0. -1.
        -14    1    3    3    0    0 -0.87781662675E+01  0.36369985553E+02  0.13629539228E+03  0.14133741899E+03  0.00000000000E+00 0.  1.
        -13    1    4    4    0    0  0.14899151551E+02  0.24414503692E+02 -0.84595933589E+01  0.29826455157E+02  0.00000000000E+00 0. -1.
         13    1    4    4    0    0  0.32845477822E+02 -0.66570563104E+02  0.44427645946E+02  0.86511739143E+02  0.00000000000E+00 0.  1.
         21    1    1    2  502  501 -0.71256146913E+01 -0.18779936902E+02  0.26860174592E+02  0.33539967112E+02  0.00000000000E+00 0.  1.
<scales pt_clust_5="13000.00000" pt_clust_6="13000.00000" pt_clust_7="13000.00000" pt_clust_8="13000.00000" pt_clust_9="20.08632"></scales>
<clustering>
<clus scale="   20.086">  1  9  2 -1</clus>
<clus scale="   76.718">  5  6 -1 -1</clus>
<clus scale="   90.467">  7  8 -1 -1</clus>
<clus scale="  101.314">  1  5  2 -1</clus>
<clus scale="  112.085">  2  5  1 -1</clus>
</clustering>
</event>
<event>
 9    1  0.2374319E-005  0.1055248E+03  0.7546771E-02  0.1275180E+00
          1   -1    0    0  502    0  0.00000000000E+00  0.00000000000E+00  0.28051401175E+03  0.28051401175E+03  0.00000000000E+00 0. -1.
         -2   -1    0    0    0  501 -0.00000000000E+00 -0.00000000000E+00 -0.92017843197E+02  0.92017843197E+02  0.00000000000E+00 0.  1.
        -24    2    1    2    0    0  0.39011542220E+02  0.31698314654E+02 -0.31279538514E+02  0.99644328473E+02  0.80149230120E+02 0.  0.
         23    2    1    2    0    0  0.84876194975E+00 -0.60124494625E+02  0.16934109856E+03  0.20259854233E+03  0.93563275078E+02 0.  0.
         11    1    3    3    0    0  0.11690017772E+02  0.52161098279E+02 -0.16298036528E+00  0.53455245316E+02  0.00000000000E+00 0. -1.
        -12    1    3    3    0    0  0.27321524448E+02 -0.20462783625E+02 -0.31116558149E+02  0.46189083157E+02  0.00000000000E+00 0.  1.
        -11    1    4    4    0    0  0.33657948559E+02 -0.46445027707E+02  0.43934070272E+02  0.72250955914E+02  0.00000000000E+00 0.  1.
         11    1    4    4    0    0 -0.32809186609E+02 -0.13679466918E+02  0.12540702829E+03  0.13034758642E+03  0.00000000000E+00 0. -1.
         21    1    1    2  502  501 -0.39860304170E+02  0.28426179971E+02  0.50434608501E+02  0.70288984136E+02  0.00000000000E+00 0. -1.
<scales pt_clust_5="13000.00000" pt_clust_6="13000.00000" pt_clust_7="13000.00000" pt_clust_8="13000.00000" pt_clust_9="48.95806"></scales>
<clustering>
<clus scale="   48.958">  1  9  2 -1</clus>
<clus scale="   80.149">  5  6 -1 -1</clus>
<clus scale="   93.563">  7  8 -1 -1</clus>
<clus scale="   93.837">  2  5  1 -1</clus>
<clus scale="   48.958">  1  5  2 -1</clus>
</clustering>
</event>
<event>
 9    1  0.2374319E-005  0.1123509E+03  0.7546771E-02  0.1258787E+00
         -2   -1    0    0    0  501 -0.00000000000E+00  0.00000000000E+00  0.13894133856E+03  0.13894133856E+03  0.00000000000E+00 0.  1.
          1   -1    0    0  502    0  0.00000000000E+00 -0.00000000000E+00 -0.62461607217E+03  0.62461607217E+03  0.00000000000E+00 0. -1.
        -24    2    1    2    0    0 -0.68570052824E+02 -0.18636096227E+02  0.10457368956E+03  0.15182932183E+03  0.84067414573E+02 0.  0.
         23    2    1    2    0    0  0.11785768260E+02  0.28584522431E+01 -0.24717611506E+03  0.26363040489E+03  0.90872897183E+02 0.  0.
         11    1    3    3    0    0 -0.26555903182E+02  0.25827329423E+02  0.86191371719E+01  0.38033622816E+02  0.00000000000E+00 0. -1.
        -12    1    3    3    0    0 -0.42014149642E+02 -0.44463425649E+02  0.95954552389E+02  0.11379569902E+03  0.00000000000E+00 0.  1.
        -13    1    4    4    0    0 -0.68125551446E+01 -0.40349138082E+02 -0.78597159456E+02  0.88611383727E+02  0.00000000000E+00 0.  1.
         13    1    4    4    0    0  0.18598323405E+02  0.43207590325E+02 -0.16857895561E+03  0.17501902116E+03  0.00000000000E+00 0. -1.
         21    1    1    2  502  501  0.56784284564E+02  0.15777643984E+02 -0.34307230811E+03  0.34809768401E+03  0.00000000000E+00 0. -1.
<scales pt_clust_5="13000.00000" pt_clust_6="13000.00000" pt_clust_7="13000.00000" pt_clust_8="13000.00000" pt_clust_9="58.93546"></scales>
<clustering>
<clus scale="   58.935">  2  9  1 -1</clus>
<clus scale="   84.067">  5  6 -1 -1</clus>
<clus scale="   90.873">  7  8 -1 -1</clus>
<clus scale="  106.921">  1  5  2 -1</clus>
<clus scale="   58.935">  2  5  1 -1</clus>
</clustering>
</event>
<event>
 9    1  0.2374319E-005  0.1117364E+03  0.7546771E-02  0.1262896E+00
         -4   -1    0    0    0  501 -0.00000000000E+00  0.00000000000E+00  0.89403190221E+02  0.89403190221E+02  0.00000000000E+00 0.  1.
          3   -1    0    0  502    0  0.00000000000E+00 -0.00000000000E+00 -0.53899528248E+03  0.53899528248E+03  0.00000000000E+00 0. -1.
        -24    2    1    2    0    0  0.12774248901E+03 -0.27069479927E+02 -0.10264751232E+03  0.18455214809E+03  0.80449259396E+02 0.  0.
         23    2    1    2    0    0 -0.46649042271E+02 -0.50764753986E+01 -0.34043574152E+03  0.35637133090E+03  0.94351087125E+02 0.  0.
         13    1    3    3    0    0  0.24586343816E+02  0.25300081738E+02 -0.38699171936E+02  0.52366099213E+02  0.00000000000E+00 0. -1.
        -14    1    3    3    0    0  0.10315614519E+03 -0.52369561665E+02 -0.63948340386E+02  0.13218604888E+03  0.00000000000E+00 0.  1.
        -11    1    4    4    0    0  0.89396510437E+01 -0.39158716135E+02 -0.12819024748E+03  0.13433563176E+03  0.00000000000E+00 0.  1.
         11    1    4    4    0    0 -0.55588693315E+02  0.34082240736E+02 -0.21224549404E+03  0.22203569915E+03  0.00000000000E+00 0. -1.
         21    1    1    2  502  501 -0.81093446735E+02  0.32145955326E+02 -0.65088384252E+01  0.87474993711E+02  0.00000000000E+00 0.  1.
<scales pt_clust_5="13000.00000" pt_clust_6="13000.00000" pt_clust_7="13000.00000" pt_clust_8="13000.00000" pt_clust_9="87.23250"></scales>
<clustering>
<clus scale="   80.449">  5  6 -1 -1</clus>
<clus scale="   87.233">  1  9  2 -1</clus>
<clus scale="   94.351">  7  8 -1 -1</clus>
<clus scale="  100.274">  1  5  2 -1</clus>
<clus scale="  111.736">  2  5  1 -1</clus>
</clustering>
</event>
<event>
 9    1  0.2374319E-005  0.1083619E+03  0.7546771E-02  0.1268262E+00
         -2   -1    0    0    0  501 -0.00000000000E+00  0.00000000000E+00  0.96415625609E+02  0.96415625609E+02  0.00000000000E+00 0.  1.
          1   -1    0    0  502    0  0.00000000000E+00 -0.00000000000E+00 -0.48940712348E+03  0.48940712348E+03  0.00000000000E+00 0. -1.
         23    2    1    2    0    0  0.52869087148E+02  0.29402737066E+02  0.34067932579E+02  0.11427601238E+03  0.90767404127E+02 0.  0.
        -24    2    1    2    0    0 -0.16117685199E+02 -0.71660012079E+02 -0.12931712343E+03  0.16858333261E+03  0.79388188752E+02 0.  0.
         11    1    4    4    0    0 -0.41883066958E+02 -0.63702510315E+02 -0.70324188852E+02  0.10371929741E+03  0.00000000000E+00 0. -1.
        -12    1    4    4    0    0  0.25765381759E+02 -0.79575017648E+01 -0.58992934579E+02  0.64864035195E+02  0.00000000000E+00 0.  1.
        -11    1    3    3    0    0  0.50896179862E+02  0.21866310331E+01 -0.19187394146E+02  0.54436739193E+02  0.00000000000E+00 0. -1.
         11    1    3    3    0    0  0.19729072863E+01  0.27216106033E+02  0.53255326725E+02  0.59839273186E+02  0.00000000000E+00 0.  1.
         21    1    1    2  502  501 -0.36751401950E+02  0.42257275013E+02 -0.29774230702E+03  0.30296340410E+03  0.00000000000E+00 0. -1.
<scales pt_clust_5="13000.00000" pt_clust_6="13000.00000" pt_clust_7="13000.00000" pt_clust_8="13000.00000" pt_clust_9="56.00306"></scales>
<clustering>
<clus scale="   56.003">  2  9  1 -1</clus>
<clus scale="   79.388">  5  6 -1 -1</clus>
<clus scale="   90.767">  7  8 -1 -1</clus>
<clus scale="   99.026">  2  5  1 -1</clus>
<clus scale="   56.003">  2  5  1 -1</clus>
</clustering>
</event>
<event>
 9    1  0.2374319E-005  0.1403759E+03  0.7546771E-02  0.1214723E+00
         -2   -1    0    0    0  501 -0.00000000000E+00  0.00000000000E+00  0.11384018161E+03  0.11384018161E+03  0.00000000000E+00 0.  1.
          1   -1    0    0  502    0  0.00000000000E+00 -0.00000000000E+00 -0.99714410933E+03  0.99714410933E+03  0.00000000000E+00 0. -1.
         23    2    1    2    0    0  0.88316275175E+02  0.57777926918E+02  0.51797529855E+02  0.14864402965E+03  0.90961586135E+02 0.  0.
        -24    2    1    2    0    0 -0.78513109356E+02 -0.11507230424E+03 -0.78262912016E+03  0.79916378809E+03  0.82149113926E+02 0.  0.
         13    1    4    4    0    0 -0.75631199839E+02 -0.11626946994E+03 -0.78368843285E+03  0.79586822265E+03  0.00000000000E+00 0. -1.
        -14    1    4    4    0    0 -0.28819095168E+01  0.11971656999E+01  0.10593126934E+01  0.32955654384E+01  0.00000000000E+00 0.  1.
        -13    1    3    3    0    0  0.68104732052E+02  0.12010177397E+02  0.67065624403E+02  0.96334297452E+02  0.00000000000E+00 0.  1.
         13    1    3    3    0    0  0.20211543123E+02  0.45767749521E+02 -0.15268094548E+02  0.52309732199E+02  0.00000000000E+00 0. -1.
         21    1    1    2  502  501 -0.98031658196E+01  0.57294377320E+02 -0.15247233741E+03  0.16317647321E+03  0.00000000000E+00 0.  1.
<scales pt_clust_5="13000.00000" pt_clust_6="13000.00000" pt_clust_7="13000.00000" pt_clust_8="13000.00000" pt_clust_9="58.12700"></scales>
<clustering>
<clus scale="   58.127">  2  9  1 -1</clus>
<clus scale="   82.149">  5  6 -1 -1</clus>
<clus scale="   90.962">  7  8 -1 -1</clus>
<clus scale="  134.833">  2  5  1 -1</clus>
<clus scale="   58.127">  2  5  1 -1</clus>
</clustering>
</event>
<event>
 9    1  0.2374319E-005  0.2381101E+03  0.7546771E-02  0.1154064E+00
          3   -1    0    0  502    0  0.00000000000E+00  0.00000000000E+00  0.51758567945E+03  0.51758567945E+03  0.00000000000E+00 0. -1.
         -4   -1    0    0    0  501 -0.00000000000E+00 -0.00000000000E+00 -0.17517933801E+03  0.17517933801E+03  0.00000000000E+00 0.  1.
        -24    2    1    2    0    0 -0.23043256889E+03 -0.13032813219E+02  0.35165952982E+02  0.24771941375E+03  0.82820532926E+02 0.  0.
         23    2    1    2    0    0  0.24073987590E+02 -0.42184313072E+02  0.12214820231E+03  0.16239402936E+03  0.95354938504E+02 0.  0.
         11    1    3    3    0    0 -0.85966324575E+02 -0.41672337897E+02 -0.29841003465E+01  0.95580843068E+02  0.00000000000E+00 0. -1.
        -12    1    3    3    0    0 -0.14446624431E+03  0.28639524678E+02  0.38150053329E+02  0.15213857068E+03  0.00000000000E+00 0.  1.
        -13    1    4    4    0    0  0.23287897797E+02 -0.72168813448E+02  0.76059536895E+02  0.10740445508E+03  0.00000000000E+00 0. -1.
         13    1    4    4    0    0  0.78608979269E+00  0.29984500377E+02  0.46088665417E+02  0.54989574284E+02  0.00000000000E+00 0.  1.
         21    1    1    2  502  501  0.20635858130E+03  0.55217126291E+02  0.18509218614E+03  0.28265157435E+03  0.00000000000E+00 0. -1.
<scales pt_clust_5="13000.00000" pt_clust_6="13000.00000" pt_clust_7="13000.00000" pt_clust_8="13000.00000" pt_clust_9="223.24247"></scales>
<clustering>
<clus scale="   82.821">  5  6 -1 -1</clus>
<clus scale="   95.355">  7  8 -1 -1</clus>
<clus scale="  107.012">  1  7  2 -1</clus>
<clus scale="  223.242">  1  9  2 -1</clus>
<clus scale="  107.012">  1  5  2 -1</clus>
</clustering>
</event>
<event>
 9    1  0.2374319E-005  0.9323934E+02  0.7546771E-02  0.1302063E+00
          1   -1    0    0  502    0  0.00000000000E+00  0.00000000000E+00  0.32198026777E+03  0.32198026777E+03  0.00000000000E+00 0. -1.
         -2   -1    0    0    0  501 -0.00000000000E+00 -0.00000000000E+00 -0.71092582072E+02  0.71092582072E+02  0.00000000000E+00 0.  1.
         23    2    1    2    0    0  0.34640763170E+01  0.15720905386E+02 -0.20238431166E+02  0.95410187290E+02  0.91838788384E+02 0.  0.
        -24    2    1    2    0    0  0.30202729718E+02 -0.17920696510E+02  0.21377947220E+03  0.23112747965E+03  0.80528832535E+02 0.  0.
         13    1    4    4    0    0  0.34626693717E+02  0.93939581870E+01  0.19355882317E+03  0.19685596866E+03  0.00000000000E+00 0. -1.
        -14    1    4    4    0    0 -0.44239639993E+01 -0.27314654697E+02  0.20220649030E+02  0.34271510994E+02  0.00000000000E+00 0.  1.
        -13    1    3    3    0    0  0.25137310245E+02 -0.25280664695E+02  0.13433811033E+02  0.38098079383E+02  0.00000000000E+00 0. -1.
         13    1    3    3    0    0 -0.21673233928E+02  0.41001570082E+02 -0.33672242199E+02  0.57312107907E+02  0.00000000000E+00 0.  1.
         21    1    1    2  502  501 -0.33666806035E+02  0.21997911234E+01  0.57346644663E+02  0.66535182901E+02  0.00000000000E+00 0.  1.
<scales pt_clust_5="13000.00000" pt_clust_6="13000.00000" pt_clust_7="13000.00000" pt_clust_8="13000.00000" pt_clust_9="33.73860"></scales>
<clustering>
<clus scale="   33.739">  1  9  2 -1</clus>
<clus scale="   80.529">  5  6 -1 -1</clus>
<clus scale="   82.122">  1  5  2 -1</clus>
<clus scale="   91.839">  7  8 -1 -1</clus>
<clus scale="   33.739">  1  5  2 -1</clus>
</clustering>
</event>
<event>
 9    1  0.2374319E-005  0.1762134E+03  0.7546771E-02  0.1173107E+00
          1   -1    0    0  502    0  0.00000000000E+00  0.00000000000E+00  0.55694151246E+02  0.55694151246E+02  0.00000000000E+00 0. -1.
         -2   -1    0    0    0  501 -0.00000000000E+00 -0.00000000000E+00 -0.12376110562E+04  0.12376110562E+04  0.00000000000E+00 0.  1.
         23    2    1    2    0    0 -0.11935330065E+02 -0.15523619205E+03 -0.98995539863E+03  0.10063791118E+04  0.92447271081E+02 0.  0.
        -24    2    1    2    0    0  0.53156090349E+02  0.11816504493E+03 -0.10926857740E+03  0.18736937052E+03  0.79869338413E+02 0.  0.
         11    1    4    4    0    0  0.36754891770E+02  0.12362015071E+03 -0.11078527068E+03  0.17001835175E+03  0.00000000000E+00 0. -1.
        -12    1    4    4    0    0  0.16401198579E+02 -0.54551057820E+01  0.15166932862E+01  0.17351018772E+02  0.00000000000E+00 0.  1.
        -13    1    3    3    0    0  0.40084650564E+02 -0.57005731846E+02 -0.40644554741E+03  0.41237654600E+03  0.00000000000E+00 0. -1.
         13    1    3    3    0    0 -0.52019980629E+02 -0.98230460204E+02 -0.58350985121E+03  0.59400256579E+03  0.00000000000E+00 0.  1.
         21    1    1    2  502  501 -0.41220760284E+02  0.37071147124E+02 -0.82692928945E+02  0.99556725162E+02  0.00000000000E+00 0.  1.
<scales pt_clust_5="13000.00000" pt_clust_6="13000.00000" pt_clust_7="13000.00000" pt_clust_8="13000.00000" pt_clust_9="55.43844"></scales>
<clustering>
<clus scale="   55.438">  1  9  2 -1</clus>
<clus scale="   79.869">  5  6 -1 -1</clus>
<clus scale="   92.447">  7  8 -1 -1</clus>
<clus scale="  169.952">  1  5  2 -1</clus>
<clus scale="   55.438">  1  5  2 -1</clus>
</clustering>
</event>
<event>
 9    1  0.2374319E-005  0.1173821E+03  0.7546771E-02  0.1252888E+00
         -2   -1    0    0    0  501 -0.00000000000E+00  0.00000000000E+00  0.59672360056E+02  0.59672360056E+02  0.00000000000E+00 0.  1.
          1   -1    0    0  502    0  0.00000000000E+00 -0.00000000000E+00 -0.38193343299E+03  0.38193343299E+03  0.00000000000E+00 0. -1.
        -24    2    1    2    0    0 -0.49865708271E+02  0.81592110084E+02 -0.80315080081E+02  0.14851667351E+03  0.80391721801E+02 0.  0.
         23    2    1    2    0    0  0.14670669736E+02 -0.28119950808E+02 -0.13480890204E+03  0.16828399631E+03  0.95603886742E+02 0.  0.
         11    1    3    3    0    0 -0.33760108524E+02  0.55125418454E+02 -0.94458290186E+02  0.11445927342E+03  0.00000000000E+00 0. -1.
        -12    1    3    3    0    0 -0.16105599747E+02  0.26466691630E+02  0.14143210105E+02  0.34057400093E+02  0.00000000000E+00 0.  1.
        -13    1    4    4    0    0  0.43039953518E+02  0.20054690749E+01 -0.11419513848E+03  0.12205322265E+03  0.00000000000E+00 0.  1.
         13    1    4    4    0    0 -0.28369283782E+02 -0.30125419883E+02 -0.20613763558E+02  0.46230773663E+02  0.00000000000E+00 0. -1.
         21    1    1    2  502  501  0.35195038536E+02 -0.53472159275E+02 -0.10713709081E+03  0.12480512322E+03  0.00000000000E+00 0. -1.
<scales pt_clust_5="13000.00000" pt_clust_6="13000.00000" pt_clust_7="13000.00000" pt_clust_8="13000.00000" pt_clust_9="64.01533"></scales>
<clustering>
<clus scale="   64.015">  2  9  1 -1</clus>
<clus scale="   80.392">  5  6 -1 -1</clus>
<clus scale="   95.604">  7  8 -1 -1</clus>
<clus scale="  105.363">  1  5  2 -1</clus>
<clus scale="   64.015">  2  5  1 -1</clus>
</clustering>
</event>
<event>
 9    1  0.2374319E-005  0.1808549E+03  0.7546771E-02  0.1168716E+00
         -2   -1    0    0    0  501 -0.00000000000E+00  0.00000000000E+00  0.11540687180E+03  0.11540687180E+03  0.00000000000E+00 0.  1.
          1   -1    0    0  502    0  0.00000000000E+00 -0.00000000000E+00 -0.10158292070E+04  0.10158292070E+04  0.00000000000E+00 0. -1.
         23    2    1    2    0    0 -0.95938732295E+02 -0.31855402607E+02  0.32369891840E+02  0.14680481714E+03  0.10141418741E+03 0.  0.
        -24    2    1    2    0    0  0.15249064201E+03 -0.34873006909E+02 -0.83118427883E+03  0.85036048085E+03  0.88182308343E+02 0.  0.
         11    1    4    4    0    0  0.12029772644E+03 -0.52803176197E+02 -0.49408314274E+03  0.51125127906E+03  0.00000000000E+00 0. -1.
        -12    1    4    4    0    0  0.32192915571E+02  0.17930169288E+02 -0.33710113609E+03  0.33910920179E+03  0.00000000000E+00 0.  1.
        -13    1    3    3    0    0  0.66715150774E+01  0.24024538487E+02 -0.20039042051E+01  0.25014059946E+02  0.00000000000E+00 0. -1.
         13    1    3    3    0    0 -0.10261024737E+03 -0.55879941094E+02  0.34373796045E+02  0.12179075719E+03  0.00000000000E+00 0.  1.
         21    1    1    2  502  501 -0.56551909712E+02  0.66728409516E+02 -0.10160794820E+03  0.13407078081E+03  0.00000000000E+00 0.  1.
<scales pt_clust_5="13000.00000" pt_clust_6="13000.00000" pt_clust_7="13000.00000" pt_clust_8="13000.00000" pt_clust_9="87.46885"></scales>
<clustering>
<clus scale="   87.469">  1  9  2 -1</clus>
<clus scale="   88.182">  5  6 -1 -1</clus>
<clus scale="  101.414">  7  8 -1 -1</clus>
<clus scale="  173.781">  2  5  1 -1</clus>
<clus scale="  173.781">  2  5  1 -1</clus>
</clustering>
</event>
<event>
 9    1  0.2374319E-005  0.1017523E+03  0.7546771E-02  0.1283530E+00
         -2   -1    0    0    0  501 -0.00000000000E+00  0.00000000000E+00  0.69330090885E+02  0.69330090885E+02  0.00000000000E+00 0.  1.
          1   -1    0    0  502    0  0.00000000000E+00 -0.00000000000E+00 -0.41741880901E+03  0.41741880901E+03  0.00000000000E+00 0. -1.
        -24    2    1    2    0    0  0.10682695942E+02  0.47519866099E+02  0.17790996262E+02  0.92882028615E+02  0.77060327179E+02 0.  0.
         23    2    1    2    0    0  0.21774794762E+02 -0.29833170580E+02 -0.18817333695E+03  0.21235691430E+03  0.91225514841E+02 0.  0.
         11    1    3    3    0    0  0.19362522839E+02 -0.17170111490E+02  0.43293107178E+01  0.26238577526E+02  0.00000000000E+00 0. -1.
        -12    1    3    3    0    0 -0.86798268971E+01  0.64689977588E+02  0.13461685544E+02  0.66643451089E+02  0.00000000000E+00 0.  1.
        -13    1    4    4    0    0  0.22141248548E+02 -0.55336178952E+02 -0.17229499135E+03  0.18231262061E+03  0.00000000000E+00 0. -1.
         13    1    4    4    0    0 -0.36645378609E+00  0.25503008372E+02 -0.15878345596E+02  0.30044293689E+02  0.00000000000E+00 0.  1.
         21    1    1    2  502  501 -0.32457490704E+02 -0.17686695518E+02 -0.17770637744E+03  0.18150995698E+03  0.00000000000E+00 0. -1.
<scales pt_clust_5="13000.00000" pt_clust_6="13000.00000" pt_clust_7="13000.00000" pt_clust_8="13000.00000" pt_clust_9="36.96360"></scales>
<clustering>
<clus scale="   36.964">  2  9  1 -1</clus>
<clus scale="   77.060">  5  6 -1 -1</clus>
<clus scale="   89.273">  1  5  2 -1</clus>
<clus scale="   91.226">  7  8 -1 -1</clus>
<clus scale="   36.964">  2  5  1 -1</clus>
</clustering>
</event>
<event>
 9    1  0.2374319E-005  0.1149846E+03  0.7546771E-02  0.1255082E+00
          3   -1    0    0  502    0  0.00000000000E+00  0.00000000000E+00  0.11043907456E+03  0.11043907456E+03  0.00000000000E+00 0. -1.
         -4   -1    0    0    0  501 -0.00000000000E+00 -0.00000000000E+00 -0.41634977952E+03  0.41634977952E+03  0.00000000000E+00 0.  1.
        -24    2    1    2    0    0  0.28143987291E+02 -0.61669845693E+02 -0.36683955195E+03  0.38251961730E+03  0.84585736715E+02 0.  0.
         23    2    1    2    0    0 -0.92098656841E+01  0.49246488613E+02  0.41458147911E+02  0.11440372348E+03  0.94124362682E+02 0.  0.
         11    1    3    3    0    0  0.71723434736E+01 -0.45380805444E+02 -0.65469709842E+02  0.79982141259E+02  0.00000000000E+00 0. -1.
        -12    1    3    3    0    0  0.20971643817E+02 -0.16289040249E+02 -0.30136984211E+03  0.30253747604E+03  0.00000000000E+00 0.  1.
        -11    1    4    4    0    0 -0.30960548959E+02  0.11499554192E+02  0.58858930472E+02  0.67491992375E+02  0.00000000000E+00 0. -1.
         11    1    4    4    0    0  0.21750683275E+02  0.37746934421E+02 -0.17400782561E+02  0.46911731101E+02  0.00000000000E+00 0.  1.
         21    1    1    2  502  501 -0.18934121607E+02  0.12423357080E+02  0.19470699076E+02  0.29865513300E+02  0.00000000000E+00 0.  1.
<scales pt_clust_5="13000.00000" pt_clust_6="13000.00000" pt_clust_7="13000.00000" pt_clust_8="13000.00000" pt_clust_9="22.64599"></scales>
<clustering>
<clus scale="   22.646">  1  9  2 -1</clus>
<clus scale="   84.586">  5  6 -1 -1</clus>
<clus scale="   94.124">  7  8 -1 -1</clus>
<clus scale="  107.316">  2  5  1 -1</clus>
<clus scale="   22.646">  1  5  2 -1</clus>
</clustering>
</event>
<event>
 9    1  0.2374319E-005  0.9832598E+02  0.7546771E-02  0.1295345E+00
          3   -1    0    0  502    0  0.00000000000E+00  0.00000000000E+00  0.31616935863E+02  0.31616935863E+02  0.00000000000E+00 0. -1.
         -4   -1    0    0    0  501 -0.00000000000E+00 -0.00000000000E+00 -0.50190579363E+03  0.50190579363E+03  0.00000000000E+00 0.  1.
        -24    2    1    2    0    0 -0.29689719663E+02 -0.22219530664E+02 -0.33765190831E+03  0.34638676429E+03  0.67821768581E+02 0.  0.
         23    2    1    2    0    0  0.46406101358E+02  0.38809089530E+02 -0.11514316439E+03  0.15779855911E+03  0.89346322127E+02 0.  0.
         11    1    3    3    0    0 -0.58942310701E+01 -0.39146589385E+02 -0.11073601124E+03  0.11759958166E+03  0.00000000000E+00 0. -1.
        -12    1    3    3    0    0 -0.23795488593E+02  0.16927058722E+02 -0.22691589707E+03  0.22878718264E+03  0.00000000000E+00 0.  1.
        -13    1    4    4    0    0  0.16018907966E+02  0.46098123401E+02 -0.11671789667E+03  0.12650972214E+03  0.00000000000E+00 0.  1.
         13    1    4    4    0    0  0.30387193392E+02 -0.72890338704E+01  0.15747322779E+01  0.31288836967E+02  0.00000000000E+00 0. -1.
         21    1    1    2  502  501 -0.16716381695E+02 -0.16589558867E+02 -0.17493785060E+02  0.29337406090E+02  0.00000000000E+00 0.  1.
<scales pt_clust_5="13000.00000" pt_clust_6="13000.00000" pt_clust_7="13000.00000" pt_clust_8="13000.00000" pt_clust_9="23.55103"></scales>
<clustering>
<clus scale="   23.551">  1  9  2 -1</clus>
<clus scale="   67.822">  5  6 -1 -1</clus>
<clus scale="   79.278">  2  5  1 -1</clus>
<clus scale="   89.346">  7  8 -1 -1</clus>
<clus scale="   23.551">  1  5  2 -1</clus>
</clustering>
</event>
<event>
 9    1  0.2374319E-005  0.1018403E+03  0.7546771E-02  0.1283028E+00
          3   -1    0    0  502    0  0.00000000000E+00  0.00000000000E+00  0.73385251918E+02  0.73385251918E+02  0.00000000000E+00 0. -1.
         -4   -1    0    0    0  501 -0.00000000000E+00 -0.00000000000E+00 -0.43878034910E+03  0.43878034910E+03  0.00000000000E+00 0.  1.
        -24    2    1    2    0    0 -0.68201224742E+01  0.51607009275E+02 -0.22267846553E+03  0.24182748539E+03  0.78645001105E+02 0.  0.
         23    2    1    2    0    0  0.51884431439E+02  0.13700653902E+02  0.55299215631E+00  0.10656367343E+03  0.92064154546E+02 0.  0.
         11    1    3    3    0    0 -0.13406988107E+02  0.67448200141E+02 -0.20857325917E+03  0.21961742070E+03  0.00000000000E+00 0. -1.
        -12    1    3    3    0    0  0.65868656330E+01 -0.15841190866E+02 -0.14105206361E+02  0.22210064688E+02  0.00000000000E+00 0.  1.
        -11    1    4    4    0    0  0.28354237083E+02 -0.37447128287E+02  0.13341692480E+02  0.48828792078E+02  0.00000000000E+00 0. -1.
         11    1    4    4    0    0  0.23530194356E+02  0.51147782189E+02 -0.12788700323E+02  0.57734881356E+02  0.00000000000E+00 0.  1.
         21    1    1    2  502  501 -0.45064308965E+02 -0.65307663177E+02 -0.14326962381E+03  0.16377444220E+03  0.00000000000E+00 0.  1.
<scales pt_clust_5="13000.00000" pt_clust_6="13000.00000" pt_clust_7="13000.00000" pt_clust_8="13000.00000" pt_clust_9="79.34660"></scales>
<clustering>
<clus scale="   78.645">  5  6 -1 -1</clus>
<clus scale="   79.347">  2  9  1 -1</clus>
<clus scale="   89.893">  2  5  1 -1</clus>
<clus scale="   92.064">  7  8 -1 -1</clus>
<clus scale="  101.840">  1  5  2 -1</clus>
</clustering>
</event>
<event>
 9    1  0.2374319E-005  0.1037017E+03  0.7546771E-02  0.1283102E+00
          1   -1    0    0  502    0  0.00000000000E+00  0.00000000000E+00  0.63999233763E+02  0.63999233763E+02  0.00000000000E+00 0. -1.
         -2   -1    0    0    0  501 -0.00000000000E+00 -0.00000000000E+00 -0.27653751053E+03  0.27653751053E+03  0.00000000000E+00 0.  1.
         23    2    1    2    0    0  0.18801015532E+02  0.22960670442E+02 -0.16859673714E+03  0.19858703314E+03  0.10065425666E+03 0.  0.
        -24    2    1    2    0    0  0.19294502107E+02 -0.21750527364E+02 -0.35164971250E+01  0.86389680812E+02  0.81273906923E+02 0.  0.
         11    1    4    4    0    0  0.38266968081E+02  0.16175176187E+02  0.83032243018E+01  0.42366740547E+02  0.00000000000E+00 0. -1.
        -12    1    4    4    0    0 -0.18972465973E+02 -0.37925703551E+02 -0.11819721427E+02  0.44022940265E+02  0.00000000000E+00 0.  1.
        -11    1    3    3    0    0 -0.11986584691E+02  0.44251706618E+02 -0.14988186851E+03  0.15673693330E+03  0.00000000000E+00 0.  1.
         11    1    3    3    0    0  0.30787600223E+02 -0.21291036176E+02 -0.18714868632E+02  0.41850099843E+02  0.00000000000E+00 0. -1.
         21    1    1    2  502  501 -0.38095517639E+02 -0.12101430780E+01 -0.40425042503E+02  0.55560030344E+02  0.00000000000E+00 0.  1.
<scales pt_clust_5="13000.00000" pt_clust_6="13000.00000" pt_clust_7="13000.00000" pt_clust_8="13000.00000" pt_clust_9="38.11473"></scales>
<clustering>
<clus scale="   38.115">  2  9  1 -1</clus>
<clus scale="   81.274">  5  6 -1 -1</clus>
<clus scale="   85.019">  1  5  2 -1</clus>
<clus scale="  100.654">  7  8 -1 -1</clus>
<clus scale="   85.019">  1  5  2 -1</clus>
</clustering>
</event>
<event>
 9    1  0.2374319E-005  0.1863286E+03  0.7546771E-02  0.1179192E+00
         -2   -1    0    0    0  501 -0.00000000000E+00  0.00000000000E+00  0.98335627544E+02  0.98335627544E+02  0.00000000000E+00 0.  1.
          1   -1    0    0  502    0  0.00000000000E+00 -0.00000000000E+00 -0.87150129508E+03  0.87150129508E+03  0.00000000000E+00 0. -1.
         23    2    1    2    0    0  0.58671769373E+02 -0.10509016191E+03 -0.51248210248E+03  0.53433534310E+03  0.91597133534E+02 0.  0.
        -24    2    1    2    0    0  0.93699244387E+02  0.20971529819E+02 -0.22547101973E+03  0.25792682499E+03  0.80434525241E+02 0.  0.
         11    1    4    4    0    0  0.94244340568E+02 -0.90366593862E+01 -0.18116271041E+03  0.20441033385E+03  0.00000000000E+00 0. -1.
        -12    1    4    4    0    0 -0.54509618138E+00  0.30008189205E+02 -0.44308309318E+02  0.53516491139E+02  0.00000000000E+00 0.  1.
        -11    1    3    3    0    0 -0.41113510983E+01 -0.78977757674E+02 -0.21238983235E+03  0.22663589809E+03  0.00000000000E+00 0.  1.
         11    1    3    3    0    0  0.62783120471E+02 -0.26112404239E+02 -0.30009227012E+03  0.30769944501E+03  0.00000000000E+00 0. -1.
         21    1    1    2  502  501 -0.15237101376E+03  0.84118632094E+02 -0.35212545328E+02  0.17757475453E+03  0.00000000000E+00 0.  1.
<scales pt_clust_5="13000.00000" pt_clust_6="13000.00000" pt_clust_7="13000.00000" pt_clust_8="13000.00000" pt_clust_9="162.25998"></scales>
<clustering>
<clus scale="   80.435">  5  6 -1 -1</clus>
<clus scale="   91.597">  7  8 -1 -1</clus>
<clus scale="  125.256">  2  5  1 -1</clus>
<clus scale="  162.260">  1  9  2 -1</clus>
<clus scale="  125.256">  2  5  1 -1</clus>
</clustering>
</event>
<event>
 9    1  0.2374319E-005  0.1214557E+03  0.7546771E-02  0.1244210E+00
         -4   -1    0    0    0  501 -0.00000000000E+00  0.00000000000E+00  0.14523034496E+03  0.14523034496E+03  0.00000000000E+00 0.  1.
          3   -1    0    0  502    0  0.00000000000E+00 -0.00000000000E+00 -0.25199179437E+03  0.25199179437E+03  0.00000000000E+00 0. -1.
         23    2    1    2    0    0 -0.63594610127E+02  0.49216605991E+02  0.90392956534E+02  0.15161089596E+03  0.91369734825E+02 0.  0.
        -24    2    1    2    0    0  0.77476924575E+02 -0.25456133451E+02 -0.17995135209E+03  0.21315783413E+03  0.80019276156E+02 0.  0.
         13    1    4    4    0    0  0.68371578043E+02 -0.36290048687E+02 -0.18298564190E+03  0.19868413490E+03  0.00000000000E+00 0. -1.
        -14    1    4    4    0    0  0.91053465320E+01  0.10833915236E+02  0.30342898046E+01  0.14473699231E+02  0.00000000000E+00 0.  1.
        -13    1    3    3    0    0 -0.86758745317E+02  0.34835165121E+02  0.61619704851E+02  0.11197123132E+03  0.00000000000E+00 0.  1.
         13    1    3    3    0    0  0.23164135190E+02  0.14381440871E+02  0.28773251682E+02  0.39639664642E+02  0.00000000000E+00 0. -1.
         21    1    1    2  502  501 -0.13882314448E+02 -0.23760472540E+02 -0.17203053845E+02  0.32453409241E+02  0.00000000000E+00 0.  1.
<scales pt_clust_5="13000.00000" pt_clust_6="13000.00000" pt_clust_7="13000.00000" pt_clust_8="13000.00000" pt_clust_9="27.51870"></scales>
<clustering>
<clus scale="   27.519">  2  9  1 -1</clus>
<clus scale="   80.019">  5  6 -1 -1</clus>
<clus scale="   91.370">  7  8 -1 -1</clus>
<clus scale="  113.164">  2  5  1 -1</clus>
<clus scale="   27.519">  2  5  1 -1</clus>
</clustering>
</event>
<event>
 9    1  0.2374319E-005  0.1015078E+03  0.7546771E-02  0.1281479E+00
         -2   -1    0    0    0  501 -0.00000000000E+00  0.00000000000E+00  0.57520358474E+02  0.57520358474E+02  0.00000000000E+00 0.  1.
          1   -1    0    0  502    0  0.00000000000E+00 -0.00000000000E+00 -0.87763273994E+03  0.87763273994E+03  0.00000000000E+00 0. -1.
         23    2    1    2    0    0 -0.10942610846E+02 -0.51275001579E+02 -0.41796987179E+01  0.10414689977E+03  0.89890157030E+02 0.  0.
        -24    2    1    2    0    0 -0.20894444699E+02 -0.61363190439E+01 -0.58427262209E+03  0.59022405324E+03  0.80719910000E+02 0.  0.
         11    1    4    4    0    0  0.16520767139E+02  0.27351193436E+02 -0.17621878547E+03  0.17909238924E+03  0.00000000000E+00 0. -1.
        -12    1    4    4    0    0 -0.37415211838E+02 -0.33487512480E+02 -0.40805383662E+03  0.41113166400E+03  0.00000000000E+00 0.  1.
        -13    1    3    3    0    0 -0.37042243541E+02 -0.64775593966E+02 -0.14149132971E+01  0.74632481936E+02  0.00000000000E+00 0.  1.
         13    1    3    3    0    0  0.26099632695E+02  0.13500592387E+02 -0.27647854208E+01  0.29514417833E+02  0.00000000000E+00 0. -1.
         21    1    1    2  502  501  0.31837055546E+02  0.57411320623E+02 -0.23166006066E+03  0.24078214541E+03  0.00000000000E+00 0. -1.
<scales pt_clust_5="13000.00000" pt_clust_6="13000.00000" pt_clust_7="13000.00000" pt_clust_8="13000.00000" pt_clust_9="65.64798"></scales>
<clustering>
<clus scale="   65.648">  2  9  1 -1</clus>
<clus scale="   80.720">  5  6 -1 -1</clus>
<clus scale="   89.890">  7  8 -1 -1</clus>
<clus scale="   93.484">  2  5  1 -1</clus>
<clus scale="   65.648">  2  5  1 -1</clus>
</clustering>
</event>
<event>
 9    1  0.2374319E-005  0.1185957E+03  0.7546771E-02  0.1246856E+00
          1   -1    0    0  502    0  0.00000000000E+00  0.00000000000E+00  0.83114411790E+03  0.83114411790E+03  0.00000000000E+00 0. -1.
         -2   -1    0    0    0  501 -0.00000000000E+00 -0.00000000000E+00 -0.43451376241E+02  0.43451376241E+02  0.00000000000E+00 0.  1.
        -24    2    1    2    0    0 -0.18815179024E+02  0.91162523518E+02  0.85379451733E+02  0.15043631114E+03  0.81711787868E+02 0.  0.
         23    2    1    2    0    0 -0.33665687746E+02 -0.39941838698E+02  0.46237349655E+03  0.47326298060E+03  0.86370535991E+02 0.  0.
         11    1    3    3    0    0 -0.30871957895E+02  0.19745707762E+02  0.65950466203E+02  0.75448225636E+02  0.00000000000E+00 0. -1.
        -12    1    3    3    0    0  0.12056778871E+02  0.71416815756E+02  0.19428985530E+02  0.74988085508E+02  0.00000000000E+00 0.  1.
        -13    1    4    4    0    0  0.28430264834E+02 -0.46827345488E+01  0.15985044012E+03  0.16242651006E+03  0.00000000000E+00 0.  1.
         13    1    4    4    0    0 -0.62095952581E+02 -0.35259104149E+02  0.30252305643E+03  0.31083647055E+03  0.00000000000E+00 0. -1.
         21    1    1    2  502  501  0.52480866771E+02 -0.51220684820E+02  0.23993979338E+03  0.25089620240E+03  0.00000000000E+00 0. -1.
<scales pt_clust_5="13000.00000" pt_clust_6="13000.00000" pt_clust_7="13000.00000" pt_clust_8="13000.00000" pt_clust_9="73.33348"></scales>
<clustering>
<clus scale="   73.333">  1  9  2 -1</clus>
<clus scale="   81.712">  5  6 -1 -1</clus>
<clus scale="   86.371">  7  8 -1 -1</clus>
<clus scale="  115.247">  2  5  1 -1</clus>
<clus scale="   73.333">  1  5  2 -1</clus>
</clustering>
</event>
<event>
 9    1  0.2374319E-005  0.1096073E+03  0.7546771E-02  0.1266844E+00
          1   -1    0    0  502    0  0.00000000000E+00  0.00000000000E+00  0.29627407415E+03  0.29627407415E+03  0.00000000000E+00 0. -1.
         -2   -1    0    0    0  501 -0.00000000000E+00 -0.00000000000E+00 -0.15249173385E+03  0.15249173385E+03  0.00000000000E+00 0.  1.
         23    2    1    2    0    0  0.14987516208E+02  0.61927695387E+02 -0.11389751629E+03  0.16019330020E+03  0.92895554872E+02 0.  0.
        -24    2    1    2    0    0 -0.10361133732E+02 -0.23643033967E+02  0.12399689052E+03  0.14943856466E+03  0.79311472080E+02 0.  0.
         11    1    4    4    0    0 -0.26171191060E+02 -0.47810330205E+02  0.79387507940E+02  0.96297120065E+02  0.00000000000E+00 0. -1.
        -12    1    4    4    0    0  0.15810057329E+02  0.24167296238E+02  0.44609382577E+02  0.53141444599E+02  0.00000000000E+00 0.  1.
        -13    1    3    3    0    0  0.41203872237E+02  0.39101405526E+02 -0.20255007615E+02  0.60307083622E+02  0.00000000000E+00 0. -1.
         13    1    3    3    0    0 -0.26216356030E+02  0.22826289861E+02 -0.93642508671E+02  0.99886216579E+02  0.00000000000E+00 0.  1.
         21    1    1    2  502  501 -0.46263824763E+01 -0.38284661420E+02  0.13368296607E+03  0.13913394314E+03  0.00000000000E+00 0.  1.
<scales pt_clust_5="13000.00000" pt_clust_6="13000.00000" pt_clust_7="13000.00000" pt_clust_8="13000.00000" pt_clust_9="38.56318"></scales>
<clustering>
<clus scale="   38.563">  1  9  2 -1</clus>
<clus scale="   79.311">  5  6 -1 -1</clus>
<clus scale="   92.896">  7  8 -1 -1</clus>
<clus scale="   98.359">  1  5  2 -1</clus>
<clus scale="   38.563">  1  5  2 -1</clus>
</clustering>
</event>
<event>
 9    1  0.2374319E-005  0.9467878E+02  0.7546771E-02  0.1299886E+00
         -2   -1    0    0    0  501 -0.00000000000E+00  0.00000000000E+00  0.40876360080E+02  0.40876360080E+02  0.00000000000E+00 0.  1.
          1   -1    0    0  502    0  0.00000000000E+00 -0.00000000000E+00 -0.35559506471E+03  0.35559506471E+03  0.00000000000E+00 0. -1.
         23    2    1    2    0    0 -0.34697437066E+02  0.12569801466E+02 -0.53618744554E+02  0.11166599902E+03  0.90732648602E+02 0.  0.
        -24    2    1    2    0    0  0.98349038701E+01  0.10870352366E+02 -0.16198282230E+03  0.17996367183E+03  0.77029855005E+02 0.  0.
         11    1    4    4    0    0 -0.26109717420E+02 -0.14167604838E+02 -0.98141068592E+02  0.10253832315E+03  0.00000000000E+00 0. -1.
        -12    1    4    4    0    0  0.35944621290E+02  0.25037957204E+02 -0.63841753713E+02  0.77425348677E+02  0.00000000000E+00 0.  1.
        -11    1    3    3    0    0 -0.52949698641E+02  0.37931557903E+02 -0.26595597077E+02  0.70354811171E+02  0.00000000000E+00 0.  1.
         11    1    3    3    0    0  0.18252261574E+02 -0.25361756437E+02 -0.27023147478E+02  0.41311187852E+02  0.00000000000E+00 0. -1.
         21    1    1    2  502  501  0.24862533196E+02 -0.23440153832E+02 -0.99117137775E+02  0.10484175394E+03  0.00000000000E+00 0. -1.
<scales pt_clust_5="13000.00000" pt_clust_6="13000.00000" pt_clust_7="13000.00000" pt_clust_8="13000.00000" pt_clust_9="34.16996"></scales>
<clustering>
<clus scale="   34.170">  2  9  1 -1</clus>
<clus scale="   77.030">  5  6 -1 -1</clus>
<clus scale="   81.641">  2  5  1 -1</clus>
<clus scale="   90.733">  7  8 -1 -1</clus>
<clus scale="   34.170">  2  5  1 -1</clus>
</clustering>
</event>
<event>
 9    1  0.2374319E-005  0.9348312E+02  0.7546771E-02  0.1302198E+00
          1   -1    0    0  502    0  0.00000000000E+00  0.00000000000E+00  0.36334690761E+03  0.36334690761E+03  0.00000000000E+00 0. -1.
         -2   -1    0    0    0  501 -0.00000000000E+00 -0.00000000000E+00 -0.60639642119E+02  0.60639642119E+02  0.00000000000E+00 0.  1.
         23    2    1    2    0    0  0.46648097406E+00  0.87171154533E+01  0.17089277043E+02  0.94339410976E+02  0.92367068629E+02 0.  0.
        -24    2    1    2    0    0 -0.45592664512E+02  0.22045720249E+02  0.10703435805E+03  0.14289907974E+03  0.79994301969E+02 0.  0.
         13    1    4    4    0    0 -0.66688540038E+02  0.27645788261E+02  0.88914479540E+02  0.11453137410E+03  0.00000000000E+00 0. -1.
        -14    1    4    4    0    0  0.21095875525E+02 -0.56000680121E+01  0.18119878511E+02  0.28367705638E+02  0.00000000000E+00 0.  1.
        -11    1    3    3    0    0  0.17485359632E+02  0.42166915336E+02  0.30030108559E+02  0.54640589038E+02  0.00000000000E+00 0. -1.
         11    1    3    3    0    0 -0.17018878658E+02 -0.33449799882E+02 -0.12940831516E+02  0.39698821938E+02  0.00000000000E+00 0.  1.
         21    1    1    2  502  501  0.45126183538E+02 -0.30762835702E+02  0.17858363040E+03  0.18674805902E+03  0.00000000000E+00 0. -1.
<scales pt_clust_5="13000.00000" pt_clust_6="13000.00000" pt_clust_7="13000.00000" pt_clust_8="13000.00000" pt_clust_9="54.61433"></scales>
<clustering>
<clus scale="   54.614">  1  9  2 -1</clus>
<clus scale="   79.994">  5  6 -1 -1</clus>
<clus scale="   81.280">  1  5  2 -1</clus>
<clus scale="   92.367">  7  8 -1 -1</clus>
<clus scale="   54.614">  1  5  2 -1</clus>
</clustering>
</event>
<event>
 9    1  0.2374319E-005  0.1336404E+03  0.7546771E-02  0.1224955E+00
          1   -1    0    0  502    0  0.00000000000E+00  0.00000000000E+00  0.71811040140E+02  0.71811040140E+02  0.00000000000E+00 0. -1.
         -2   -1    0    0    0  501 -0.00000000000E+00 -0.00000000000E+00 -0.53529324942E+03  0.53529324942E+03  0.00000000000E+00 0.  1.
        -24    2    1    2    0    0 -0.79751606002E+02  0.57733049828E+02 -0.41886795812E+03  0.43762837184E+03  0.79842355911E+02 0.  0.
         23    2    1    2    0    0  0.62061061000E+02 -0.72497002715E+02 -0.56333398334E+02  0.14362503576E+03  0.91363605636E+02 0.  0.
         13    1    3    3    0    0 -0.38597455918E+02  0.58868013716E+02 -0.15083982219E+03  0.16645677698E+03  0.00000000000E+00 0. -1.
        -14    1    3    3    0    0 -0.41154150084E+02 -0.11349638883E+01 -0.26802813593E+03  0.27117159487E+03  0.00000000000E+00 0.  1.
        -11    1    4    4    0    0  0.83404449533E+02 -0.71693226949E+02 -0.41190426934E+02  0.11744305966E+03  0.00000000000E+00 0. -1.
         11    1    4    4    0    0 -0.21343388534E+02 -0.80377576647E+00 -0.15142971399E+02  0.26181976098E+02  0.00000000000E+00 0.  1.
         21    1    1    2  502  501  0.17690545002E+02  0.14763952887E+02  0.11719147176E+02  0.25850881955E+02  0.00000000000E+00 0. -1.
<scales pt_clust_5="13000.00000" pt_clust_6="13000.00000" pt_clust_7="13000.00000" pt_clust_8="13000.00000" pt_clust_9="23.04191"></scales>
<clustering>
<clus scale="   23.042">  1  9  2 -1</clus>
<clus scale="   79.842">  5  6 -1 -1</clus>
<clus scale="   91.364">  7  8 -1 -1</clus>
<clus scale="  126.045">  2  5  1 -1</clus>
<clus scale="   23.042">  1  5  2 -1</clus>
</clustering>
</event>
<event>
 9    1  0.2374319E-005  0.1212444E+03  0.7546771E-02  0.1243570E+00
         -2   -1    0    0    0  501 -0.00000000000E+00  0.00000000000E+00  0.21902014874E+03  0.21902014874E+03  0.00000000000E+00 0.  1.
          1   -1    0    0  502    0  0.00000000000E+00 -0.00000000000E+00 -0.10121362588E+03  0.10121362588E+03  0.00000000000E+00 0. -1.
        -24    2    1    2    0    0 -0.80540843023E+02  0.12526196878E+02  0.12229479914E+03  0.16747973134E+03  0.80310083504E+02 0.  0.
         23    2    1    2    0    0  0.79819370847E+02 -0.39271738566E+02 -0.73402416485E+01  0.12584719975E+03  0.88714356923E+02 0.  0.
         13    1    3    3    0    0 -0.17996807143E+02 -0.29724415983E+02  0.19171835427E+02  0.39686083789E+02  0.00000000000E+00 0. -1.
        -14    1    3    3    0    0 -0.62544035880E+02  0.42250612861E+02  0.10312296371E+03  0.12779364755E+03  0.00000000000E+00 0.  1.
        -13    1    4    4    0    0  0.17535089199E+02 -0.57768914094E+02 -0.77948942775E+01  0.60872712816E+02  0.00000000000E+00 0. -1.
         13    1    4    4    0    0  0.62284281649E+02  0.18497175528E+02  0.45465262891E+00  0.64974486931E+02  0.00000000000E+00 0.  1.
         21    1    1    2  502  501  0.72147217584E+00  0.26745541688E+02  0.28519653758E+01  0.26906843531E+02  0.00000000000E+00 0.  1.
<scales pt_clust_5="13000.00000" pt_clust_6="13000.00000" pt_clust_7="13000.00000" pt_clust_8="13000.00000" pt_clust_9="26.75527"></scales>
<clustering>
<clus scale="   26.755">  2  9  1 -1</clus>
<clus scale="   80.310">  5  6 -1 -1</clus>
<clus scale="   88.714">  7  8 -1 -1</clus>
<clus scale="  115.237">  1  5  2 -1</clus>
<clus scale="   26.755">  2  5  1 -1</clus>
</clustering>
</event>
<event>
 9    1  0.2374319E-005  0.1086651E+03  0.7546771E-02  0.1264444E+00
          1   -1    0    0  502    0  0.00000000000E+00  0.00000000000E+00  0.14586020297E+03  0.14586020297E+03  0.00000000000E+00 0. -1.
         -2   -1    0    0    0  501 -0.00000000000E+00 -0.00000000000E+00 -0.29951770730E+03  0.29951770730E+03  0.00000000000E+00 0.  1.
        -24    2    1    2    0    0 -0.44811080630E+02  0.47412916165E+01 -0.21135571122E+03  0.23287670140E+03  0.86774469740E+02 0.  0.
         23    2    1    2    0    0  0.31650955287E+02  0.57367400681E+02  0.88067319813E+02  0.14212392860E+03  0.90280433264E+02 0.  0.
         11    1    3    3    0    0  0.20716083182E+02 -0.17533416602E+02 -0.42978381130E+02  0.50830286687E+02  0.00000000000E+00 0. -1.
        -12    1    3    3    0    0 -0.65527163812E+02  0.22274708219E+02 -0.16837733009E+03  0.18204641472E+03  0.00000000000E+00 0.  1.
        -11    1    4    4    0    0  0.30496536899E+01  0.25504964031E+02  0.95299868039E+02  0.98700903877E+02  0.00000000000E+00 0. -1.
         11    1    4    4    0    0  0.28601301597E+02  0.31862436650E+02 -0.72325482260E+01  0.43423024724E+02  0.00000000000E+00 0.  1.
         21    1    1    2  502  501  0.13160125343E+02 -0.62108692298E+02 -0.30369112921E+02  0.70377280265E+02  0.00000000000E+00 0.  1.
<scales pt_clust_5="13000.00000" pt_clust_6="13000.00000" pt_clust_7="13000.00000" pt_clust_8="13000.00000" pt_clust_9="63.48763"></scales>
<clustering>
<clus scale="   63.488">  2  9  1 -1</clus>
<clus scale="   86.774">  5  6 -1 -1</clus>
<clus scale="   90.280">  7  8 -1 -1</clus>
<clus scale="  105.770">  2  5  1 -1</clus>
<clus scale="  108.665">  1  5  2 -1</clus>
</clustering>
</event>
<event>
 9    1  0.2374319E-005  0.1130542E+03  0.7546771E-02  0.1258277E+00
         -4   -1    0    0    0  501 -0.00000000000E+00  0.00000000000E+00  0.15596770850E+03  0.15596770850E+03  0.00000000000E+00 0.  1.
          3   -1    0    0  502    0  0.00000000000E+00 -0.00000000000E+00 -0.30603475623E+03  0.30603475623E+03  0.00000000000E+00 0. -1.
         23    2    1    2    0    0 -0.74317146792E+02  0.16398744646E+02  0.93162505569E+02  0.15009346810E+03  0.89759899679E+02 0.  0.
        -24    2    1    2    0    0  0.21516435530E+02  0.42412200086E+02 -0.20224008152E+03  0.22287653554E+03  0.80691683644E+02 0.  0.
         13    1    4    4    0    0  0.46165232557E+02  0.46878621958E+02 -0.16821849706E+03  0.18062750800E+03  0.00000000000E+00 0. -1.
        -14    1    4    4    0    0 -0.24648797027E+02 -0.44664218720E+01 -0.34021584461E+02  0.42249027545E+02  0.00000000000E+00 0.  1.
        -11    1    3    3    0    0  0.14456583260E+02  0.23794684168E+02  0.15237276136E+02  0.31738846517E+02  0.00000000000E+00 0. -1.
         11    1    3    3    0    0 -0.88773730051E+02 -0.73959395219E+01  0.77925229433E+02  0.11835462159E+03  0.00000000000E+00 0.  1.
         21    1    1    2  502  501  0.52800711261E+02 -0.58810944733E+02 -0.40989471777E+02  0.89032461084E+02  0.00000000000E+00 0. -1.
<scales pt_clust_5="13000.00000" pt_clust_6="13000.00000" pt_clust_7="13000.00000" pt_clust_8="13000.00000" pt_clust_9="79.03570"></scales>
<clustering>
<clus scale="   79.036">  2  9  1 -1</clus>
<clus scale="   80.692">  5  6 -1 -1</clus>
<clus scale="   89.760">  7  8 -1 -1</clus>
<clus scale="  105.998">  2  5  1 -1</clus>
<clus scale="   79.036">  2  5  1 -1</clus>
</clustering>
</event>
<event>
 9    1  0.2374319E-005  0.1075285E+03  0.7546771E-02  0.1276955E+00
          3   -1    0    0  502    0  0.00000000000E+00  0.00000000000E+00  0.23746117381E+03  0.23746117381E+03  0.00000000000E+00 0. -1.
         -4   -1    0    0    0  501 -0.00000000000E+00 -0.00000000000E+00 -0.15567326012E+03  0.15567326012E+03  0.00000000000E+00 0.  1.
        -24    2    1    2    0    0 -0.28031125788E+02  0.12666271265E+01 -0.11867003029E+03  0.14674647213E+03  0.81637017566E+02 0.  0.
         23    2    1    2    0    0  0.22114276963E+01  0.22933506393E+02  0.16279403733E+03  0.19470747095E+03  0.10429891909E+03 0.  0.
         11    1    3    3    0    0 -0.37825422408E+02 -0.17578275283E+02 -0.11837254807E+03  0.12550624876E+03  0.00000000000E+00 0. -1.
        -12    1    3    3    0    0  0.97942966202E+01  0.18844902410E+02 -0.29748222139E+00  0.21240223370E+02  0.00000000000E+00 0.  1.
        -11    1    4    4    0    0  0.27906064820E+02  0.30024586563E+02  0.13654955584E+02  0.43205116179E+02  0.00000000000E+00 0.  1.
         11    1    4    4    0    0 -0.25694637124E+02 -0.70910801705E+01  0.14913908175E+03  0.15150235477E+03  0.00000000000E+00 0. -1.
         21    1    1    2  502  501  0.25819698092E+02 -0.24200133519E+02  0.37663906645E+02  0.51680490861E+02  0.00000000000E+00 0.  1.
<scales pt_clust_5="13000.00000" pt_clust_6="13000.00000" pt_clust_7="13000.00000" pt_clust_8="13000.00000" pt_clust_9="35.38790"></scales>
<clustering>
<clus scale="   35.388">  1  9  2 -1</clus>
<clus scale="   81.637">  5  6 -1 -1</clus>
<clus scale="   85.725">  2  5  1 -1</clus>
<clus scale="  104.299">  7  8 -1 -1</clus>
<clus scale="   35.388">  1  5  2 -1</clus>
</clustering>
</event>
<event>
 9    1  0.2374319E-005  0.1343366E+03  0.7546771E-02  0.1224288E+00
         -2   -1    0    0    0  501 -0.00000000000E+00  0.00000000000E+00  0.15734505149E+03  0.15734505149E+03  0.00000000000E+00 0.  1.
          1   -1    0    0  502    0  0.00000000000E+00 -0.00000000000E+00 -0.21122297436E+03  0.21122297436E+03  0.00000000000E+00 0. -1.
         23    2    1    2    0    0 -0.31639938939E+02 -0.97850299927E+02  0.95011529264E+02  0.16708782133E+03  0.91188718666E+02 0.  0.
        -24    2    1    2    0    0  0.26201323255E+02  0.76360646687E+02 -0.13358699781E+03  0.17454419062E+03  0.78119976896E+02 0.  0.
         13    1    4    4    0    0  0.37741352154E+02  0.31139930054E+01 -0.39055251247E+02  0.54400544711E+02  0.00000000000E+00 0. -1.
        -14    1    4    4    0    0 -0.11540028899E+02  0.73246653681E+02 -0.94531746566E+02  0.12014364590E+03  0.00000000000E+00 0.  1.
        -11    1    3    3    0    0  0.31604998287E+02 -0.44594294618E+02  0.41038379537E+02  0.68349657089E+02  0.00000000000E+00 0.  1.
         11    1    3    3    0    0 -0.63244937226E+02 -0.53256005309E+02  0.53973149727E+02  0.98738164241E+02  0.00000000000E+00 0. -1.
         21    1    1    2  502  501  0.54386156845E+01  0.21489653240E+02 -0.15302454323E+02  0.26936013908E+02  0.00000000000E+00 0. -1.
<scales pt_clust_5="13000.00000" pt_clust_6="13000.00000" pt_clust_7="13000.00000" pt_clust_8="13000.00000" pt_clust_9="22.16718"></scales>
<clustering>
<clus scale="   22.167">  2  9  1 -1</clus>
<clus scale="   78.120">  5  6 -1 -1</clus>
<clus scale="   91.189">  7  8 -1 -1</clus>
<clus scale="  125.832">  2  5  1 -1</clus>
<clus scale="   22.167">  2  5  1 -1</clus>
</clustering>
</event>
<event>
 9    1  0.2374319E-005  0.1136261E+03  0.7546771E-02  0.1257559E+00
          1   -1    0    0  502    0  0.00000000000E+00  0.00000000000E+00  0.47632992199E+03  0.47632992199E+03  0.00000000000E+00 0. -1.
         -2   -1    0    0    0  501 -0.00000000000E+00 -0.00000000000E+00 -0.42712355453E+02  0.42712355453E+02  0.00000000000E+00 0.  1.
        -24    2    1    2    0    0 -0.54603864478E+02 -0.70055669691E+02  0.15108331709E+03  0.19313899495E+03  0.81161097798E+02 0.  0.
         23    2    1    2    0    0  0.53461809326E+02  0.25898880279E+02  0.24466715868E+03  0.26772216095E+03  0.91017689869E+02 0.  0.
         13    1    3    3    0    0 -0.85627564349E+01 -0.41299412747E+02  0.12687509980E+03  0.13370210634E+03  0.00000000000E+00 0. -1.
        -14    1    3    3    0    0 -0.46041108043E+02 -0.28756256944E+02  0.24208217293E+02  0.59436888611E+02  0.00000000000E+00 0.  1.
        -13    1    4    4    0    0  0.57597909613E+02  0.18262564693E+01  0.23413558402E+03  0.24112305180E+03  0.00000000000E+00 0.  1.
         13    1    4    4    0    0 -0.41361002871E+01  0.24072623810E+02  0.10531574662E+02  0.26599109149E+02  0.00000000000E+00 0. -1.
         21    1    1    2  502  501  0.11420551517E+01  0.44156789412E+02  0.37867090762E+02  0.58181121543E+02  0.00000000000E+00 0. -1.
<scales pt_clust_5="13000.00000" pt_clust_6="13000.00000" pt_clust_7="13000.00000" pt_clust_8="13000.00000" pt_clust_9="44.17156"></scales>
<clustering>
<clus scale="   44.172">  2  9  1 -1</clus>
<clus scale="   81.161">  5  6 -1 -1</clus>
<clus scale="   91.018">  7  8 -1 -1</clus>
<clus scale="  105.895">  2  5  1 -1</clus>
<clus scale="  113.626">  1  5  2 -1</clus>
</clustering>
</event>
<event>
 9    1  0.2374319E-005  0.1136321E+03  0.7546771E-02  0.1258488E+00
          1   -1    0    0  502    0  0.00000000000E+00  0.00000000000E+00  0.13256839767E+03  0.13256839767E+03  0.00000000000E+00 0. -1.
         -2   -1    0    0    0  501 -0.00000000000E+00 -0.00000000000E+00 -0.20363467387E+03  0.20363467387E+03  0.00000000000E+00 0.  1.
         23    2    1    2    0    0 -0.11529404603E+02 -0.64338086296E+02 -0.13507353479E+03  0.17657228013E+03  0.93062311329E+02 0.  0.
        -24    2    1    2    0    0 -0.22230110628E+02  0.67661587888E+02  0.30760524151E+02  0.11213241373E+03  0.80964190035E+02 0.  0.
         13    1    4    4    0    0  0.14560633093E+02  0.63533387376E+02  0.36443961551E+02  0.74677076007E+02  0.00000000000E+00 0. -1.
        -14    1    4    4    0    0 -0.36790743721E+02  0.41282005127E+01 -0.56834373997E+01  0.37455337719E+02  0.00000000000E+00 0.  1.
        -11    1    3    3    0    0 -0.23005567861E+02  0.44497065707E+01 -0.91243013173E+02  0.94203733971E+02  0.00000000000E+00 0.  1.
         11    1    3    3    0    0  0.11476163258E+02 -0.68787792867E+02 -0.43830521616E+02  0.82368546156E+02  0.00000000000E+00 0. -1.
         21    1    1    2  502  501  0.33759515231E+02 -0.33235015918E+01  0.33246734445E+02  0.47498377686E+02  0.00000000000E+00 0. -1.
<scales pt_clust_5="13000.00000" pt_clust_6="13000.00000" pt_clust_7="13000.00000" pt_clust_8="13000.00000" pt_clust_9="33.92271"></scales>
<clustering>
<clus scale="   33.923">  1  9  2 -1</clus>
<clus scale="   80.964">  5  6 -1 -1</clus>
<clus scale="   93.062">  7  8 -1 -1</clus>
<clus scale="  103.956">  1  5  2 -1</clus>
<clus scale="   33.923">  1  5  2 -1</clus>
</clustering>
</event>
<event>
 9    1  0.2374319E-005  0.1091220E+03  0.7546771E-02  0.1266178E+00
          1   -1    0    0  502    0  0.00000000000E+00  0.00000000000E+00  0.15281750874E+03  0.15281750874E+03  0.00000000000E+00 0. -1.
         -2   -1    0    0    0  501 -0.00000000000E+00 -0.00000000000E+00 -0.20747877879E+03  0.20747877879E+03  0.00000000000E+00 0.  1.
         23    2    1    2    0    0  0.45581166222E+02  0.31579618706E+02 -0.12922842936E+03  0.16705357622E+03  0.90177576710E+02 0.  0.
        -24    2    1    2    0    0 -0.86467296823E+02 -0.17025068840E+02  0.15749220940E+02  0.12014647016E+03  0.80129207801E+02 0.  0.
         11    1    4    4    0    0 -0.19054374588E+02 -0.42827768843E+02  0.44635385503E+01  0.47087261030E+02  0.00000000000E+00 0. -1.
        -12    1    4    4    0    0 -0.67412922235E+02  0.25802700002E+02  0.11285682390E+02  0.73059209130E+02  0.00000000000E+00 0.  1.
        -11    1    3    3    0    0  0.17732995544E+02 -0.19888022835E+02 -0.16527270503E+01  0.26696892890E+02  0.00000000000E+00 0. -1.
         11    1    3    3    0    0  0.27848170678E+02  0.51467641541E+02 -0.12757570231E+03  0.14035668333E+03  0.00000000000E+00 0.  1.
         21    1    1    2  502  501  0.40886130601E+02 -0.14554549866E+02  0.58817938364E+02  0.73096241153E+02  0.00000000000E+00 0. -1.
<scales pt_clust_5="13000.00000" pt_clust_6="13000.00000" pt_clust_7="13000.00000" pt_clust_8="13000.00000" pt_clust_9="43.39943"></scales>
<clustering>
<clus scale="   43.399">  1  9  2 -1</clus>
<clus scale="   80.129">  5  6 -1 -1</clus>
<clus scale="   90.178">  7  8 -1 -1</clus>
<clus scale="  100.977">  1  5  2 -1</clus>
<clus scale="   43.399">  1  5  2 -1</clus>
</clustering>
</event>
<event>
 9    1  0.2374319E-005  0.1861468E+03  0.7546771E-02  0.1187858E+00
         -2   -1    0    0    0  501 -0.00000000000E+00  0.00000000000E+00  0.44283193523E+03  0.44283193523E+03  0.00000000000E+00 0.  1.
          1   -1    0    0  502    0  0.00000000000E+00 -0.00000000000E+00 -0.48993605478E+03  0.48993605478E+03  0.00000000000E+00 0. -1.
         23    2    1    2    0    0 -0.58562122837E+02 -0.15469737530E+03  0.37736179655E+03  0.42078537006E+03  0.85426003083E+02 0.  0.
        -24    2    1    2    0    0  0.44565314914E+02 -0.16017843855E+02 -0.94281569824E+02  0.14001313301E+03  0.92043600497E+02 0.  0.
         13    1    4    4    0    0  0.36580871123E+02  0.35706717492E+02 -0.48882005950E+02  0.70728921326E+02  0.00000000000E+00 0. -1.
        -14    1    4    4    0    0  0.79844437913E+01 -0.51724561347E+02 -0.45399563874E+02  0.69284211688E+02  0.00000000000E+00 0.  1.
        -11    1    3    3    0    0 -0.14624390430E+02 -0.12565619128E+03  0.31314859626E+03  0.33773568740E+03  0.00000000000E+00 0.  1.
         11    1    3    3    0    0 -0.43937732407E+02 -0.29041184025E+02  0.64213200290E+02  0.83049682661E+02  0.00000000000E+00 0. -1.
         21    1    1    2  502  501  0.13996807923E+02  0.17071521916E+03 -0.33018434628E+03  0.37196948694E+03  0.00000000000E+00 0. -1.
<scales pt_clust_5="13000.00000" pt_clust_6="13000.00000" pt_clust_7="13000.00000" pt_clust_8="13000.00000" pt_clust_9="165.38755"></scales>
<clustering>
<clus scale="   85.426">  7  8 -1 -1</clus>
<clus scale="   92.044">  5  6 -1 -1</clus>
<clus scale="  103.512">  2  5  1 -1</clus>
<clus scale="  165.388">  2  9  1 -1</clus>
<clus scale="  103.512">  2  5  1 -1</clus>
</clustering>
</event>
<event>
 9    1  0.2374319E-005  0.9918818E+02  0.7546771E-02  0.1289295E+00
         -2   -1    0    0    0  501 -0.00000000000E+00  0.00000000000E+00  0.95956099128E+03  0.95956099128E+03  0.00000000000E+00 0.  1.
          1   -1    0    0  502    0  0.00000000000E+00 -0.00000000000E+00 -0.73523123273E+02  0.73523123273E+02  0.00000000000E+00 0. -1.
        -24    2    1    2    0    0  0.58933961885E+02  0.20291184194E+02  0.73487704519E+03  0.74173005615E+03  0.78957334189E+02 0.  0.
         23    2    1    2    0    0 -0.41397568335E+01 -0.35290727978E+02 -0.28189450385E+02  0.10322136131E+03  0.92722334145E+02 0.  0.
         13    1    3    3    0    0 -0.14092673802E+02  0.22230255707E+02  0.14780062586E+03  0.15012598951E+03  0.00000000000E+00 0. -1.
        -14    1    3    3    0    0  0.73026635687E+02 -0.19390715131E+01  0.58707641934E+03  0.59160406664E+03  0.00000000000E+00 0.  1.
        -11    1    4    4    0    0  0.33104165167E+02 -0.41694316878E+02 -0.36473205564E+02  0.64533685277E+02  0.00000000000E+00 0. -1.
         11    1    4    4    0    0 -0.37243922001E+02  0.64035888995E+01  0.82837551790E+01  0.38687676031E+02  0.00000000000E+00 0.  1.
         21    1    1    2  502  501 -0.54794205051E+02  0.14999543784E+02  0.17935027320E+03  0.18813269710E+03  0.00000000000E+00 0. -1.
<scales pt_clust_5="13000.00000" pt_clust_6="13000.00000" pt_clust_7="13000.00000" pt_clust_8="13000.00000" pt_clust_9="56.81013"></scales>
<clustering>
<clus scale="   56.810">  1  9  2 -1</clus>
<clus scale="   78.957">  5  6 -1 -1</clus>
<clus scale="   86.459">  1  5  2 -1</clus>
<clus scale="   92.722">  7  8 -1 -1</clus>
<clus scale="   99.188">  2  5  1 -1</clus>
</clustering>
</event>
<event>
 9    1  0.2374319E-005  0.1407129E+03  0.7546771E-02  0.1237627E+00
          3   -1    0    0  502    0  0.00000000000E+00  0.00000000000E+00  0.34370155219E+03  0.34370155219E+03  0.00000000000E+00 0. -1.
         -4   -1    0    0    0  501 -0.00000000000E+00 -0.00000000000E+00 -0.16947755948E+03  0.16947755948E+03  0.00000000000E+00 0.  1.
        -24    2    1    2    0    0  0.14807246417E+02 -0.25269282641E+01 -0.99723224409E+02  0.12985070638E+03  0.81797582774E+02 0.  0.
         23    2    1    2    0    0 -0.10666391926E+03 -0.42379924759E+02  0.23088682008E+03  0.27238485393E+03  0.87815347563E+02 0.  0.
         11    1    3    3    0    0 -0.26536856930E+01  0.35590702277E+02 -0.69625033647E+02  0.78239283270E+02  0.00000000000E+00 0. -1.
        -12    1    3    3    0    0  0.17460932110E+02 -0.38117630541E+02 -0.30098190762E+02  0.51611423109E+02  0.00000000000E+00 0.  1.
        -13    1    4    4    0    0 -0.10704837728E+03 -0.51614892109E+01  0.17618248842E+03  0.20621897409E+03  0.00000000000E+00 0. -1.
         13    1    4    4    0    0  0.38445801158E+00 -0.37218435548E+02  0.54704331655E+02  0.66165879835E+02  0.00000000000E+00 0.  1.
         21    1    1    2  502  501  0.91856672847E+02  0.44906853023E+02  0.43060397038E+02  0.11094355136E+03  0.00000000000E+00 0.  1.
<scales pt_clust_5="13000.00000" pt_clust_6="13000.00000" pt_clust_7="13000.00000" pt_clust_8="13000.00000" pt_clust_9="109.94804"></scales>
<clustering>
<clus scale="   81.798">  5  6 -1 -1</clus>
<clus scale="   83.165">  2  5  1 -1</clus>
<clus scale="   87.815">  7  8 -1 -1</clus>
<clus scale="  109.948">  2  9  1 -1</clus>
<clus scale="  140.713">  1  5  2 -1</clus>
</clustering>
</event>
<event>
 9    1  0.2374319E-005  0.1020609E+03  0.7546771E-02  0.1281985E+00
          1   -1    0    0  502    0  0.00000000000E+00  0.00000000000E+00  0.12223901756E+03  0.12223901756E+03  0.00000000000E+00 0. -1.
         -2   -1    0    0    0  501 -0.00000000000E+00 -0.00000000000E+00 -0.13118044490E+03  0.13118044490E+03  0.00000000000E+00 0.  1.
         23    2    1    2    0    0  0.10669645598E+02 -0.51734134315E+02 -0.32111891070E+02  0.11251504118E+03  0.94011695836E+02 0.  0.
        -24    2    1    2    0    0  0.11424407257E+02  0.34804186426E+02  0.49552679329E+02  0.10255352028E+03  0.81975045105E+02 0.  0.
         11    1    4    4    0    0  0.23821893529E+02  0.35311735144E+02  0.68048840139E+02  0.80281043182E+02  0.00000000000E+00 0. -1.
        -12    1    4    4    0    0 -0.12397486271E+02 -0.50754871812E+00 -0.18496160810E+02  0.22272477102E+02  0.00000000000E+00 0.  1.
        -11    1    3    3    0    0 -0.41647389364E+02 -0.28837529013E+02 -0.13065041022E+02  0.52314466616E+02  0.00000000000E+00 0.  1.
         11    1    3    3    0    0  0.52317034962E+02 -0.22896605302E+02 -0.19046850048E+02  0.60200574568E+02  0.00000000000E+00 0. -1.
         21    1    1    2  502  501 -0.22094052855E+02  0.16929947889E+02 -0.26382215593E+02  0.38350900989E+02  0.00000000000E+00 0.  1.
<scales pt_clust_5="13000.00000" pt_clust_6="13000.00000" pt_clust_7="13000.00000" pt_clust_8="13000.00000" pt_clust_9="27.83470"></scales>
<clustering>
<clus scale="   27.835">  2  9  1 -1</clus>
<clus scale="   81.975">  5  6 -1 -1</clus>
<clus scale="   91.094">  1  5  2 -1</clus>
<clus scale="   94.012">  7  8 -1 -1</clus>
<clus scale="   91.094">  1  5  2 -1</clus>
</clustering>
</event>
<event>
 9    1  0.2374319E-005  0.9975007E+02  0.7546771E-02  0.1285451E+00
         -2   -1    0    0    0  501 -0.00000000000E+00  0.00000000000E+00  0.15840636473E+03  0.15840636473E+03  0.00000000000E+00 0.  1.
          1   -1    0    0  502    0  0.00000000000E+00 -0.00000000000E+00 -0.42858032643E+03  0.42858032643E+03  0.00000000000E+00 0. -1.
         23    2    1    2    0    0 -0.13807724986E+02 -0.35938483999E+02  0.12793637733E+03  0.16176500794E+03  0.91202923466E+02 0.  0.
        -24    2    1    2    0    0  0.14986369291E+02  0.63905260134E+02 -0.20739968543E+03  0.23246773861E+03  0.81964299789E+02 0.  0.
         11    1    4    4    0    0 -0.88763703851E+01  0.76179274821E+02 -0.16935247135E+03  0.18590947102E+03  0.00000000000E+00 0. -1.
        -12    1    4    4    0    0  0.23862739676E+02 -0.12274014687E+02 -0.38047214082E+02  0.46558267588E+02  0.00000000000E+00 0.  1.
        -13    1    3    3    0    0 -0.17991571429E+02  0.21391397158E+02  0.84991628856E+01  0.29215137936E+02  0.00000000000E+00 0. -1.
         13    1    3    3    0    0  0.41838464430E+01 -0.57329881157E+02  0.11943721444E+03  0.13254987000E+03  0.00000000000E+00 0.  1.
         21    1    1    2  502  501 -0.11786443052E+01 -0.27966776135E+02 -0.19071065359E+03  0.19275394461E+03  0.00000000000E+00 0. -1.
<scales pt_clust_5="13000.00000" pt_clust_6="13000.00000" pt_clust_7="13000.00000" pt_clust_8="13000.00000" pt_clust_9="27.99160"></scales>
<clustering>
<clus scale="   27.992">  2  9  1 -1</clus>
<clus scale="   81.964">  5  6 -1 -1</clus>
<clus scale="   91.203">  7  8 -1 -1</clus>
<clus scale="   91.380">  2  5  1 -1</clus>
<clus scale="   27.992">  2  5  1 -1</clus>
</clustering>
</event>
<event>
 9    1  0.2374319E-005  0.1038286E+03  0.7546771E-02  0.1276754E+00
         -4   -1    0    0    0  501 -0.00000000000E+00  0.00000000000E+00  0.10655890697E+03  0.10655890697E+03  0.00000000000E+00 0.  1.
          3   -1    0    0  502    0  0.00000000000E+00 -0.00000000000E+00 -0.19722242966E+03  0.19722242966E+03  0.00000000000E+00 0. -1.
         23    2    1    2    0    0 -0.21679157253E+02 -0.41487021058E+02  0.37044875670E+02  0.10890431413E+03  0.91086047493E+02 0.  0.
        -24    2    1    2    0    0  0.60777126307E+02  0.30660264271E+02 -0.85923275421E+02  0.13663729081E+03  0.81566102607E+02 0.  0.
         13    1    4    4    0    0  0.67006342655E+02  0.39765225813E+02 -0.94632173592E+02  0.12258210073E+03  0.00000000000E+00 0. -1.
        -14    1    4    4    0    0 -0.62292163480E+01 -0.91049615423E+01  0.87088981712E+01  0.14055190086E+02  0.00000000000E+00 0.  1.
        -11    1    3    3    0    0 -0.19335742699E+02 -0.67899507749E+02  0.10484091069E+02  0.71373176080E+02  0.00000000000E+00 0.  1.
         11    1    3    3    0    0 -0.23434145539E+01  0.26412486690E+02  0.26560784600E+02  0.37531138052E+02  0.00000000000E+00 0. -1.
         21    1    1    2  502  501 -0.39097969054E+02  0.10826756788E+02 -0.41785122940E+02  0.58239731677E+02  0.00000000000E+00 0. -1.
<scales pt_clust_5="13000.00000" pt_clust_6="13000.00000" pt_clust_7="13000.00000" pt_clust_8="13000.00000" pt_clust_9="40.56932"></scales>
<clustering>
<clus scale="   40.569">  2  9  1 -1</clus>
<clus scale="   81.566">  5  6 -1 -1</clus>
<clus scale="   91.086">  7  8 -1 -1</clus>
<clus scale="   95.586">  2  5  1 -1</clus>
<clus scale="   40.569">  2  5  1 -1</clus>
</clustering>
</event>
<event>
 9    1  0.2374319E-005  0.1126223E+03  0.7546771E-02  0.1260404E+00
          1   -1    0    0  502    0  0.00000000000E+00  0.00000000000E+00  0.50013601670E+03  0.50013601670E+03  0.00000000000E+00 0. -1.
         -2   -1    0    0    0  501 -0.00000000000E+00 -0.00000000000E+00 -0.11682566734E+03  0.11682566734E+03  0.00000000000E+00 0.  1.
         23    2    1    2    0    0  0.31558678194E+02 -0.48980197642E+02 -0.68298711656E+02  0.12980450812E+03  0.93752260690E+02 0.  0.
        -24    2    1    2    0    0 -0.39776642225E+02  0.91365727147E+02  0.25327763739E+03  0.28418076929E+03  0.81726805102E+02 0.  0.
         11    1    4    4    0    0 -0.27241678669E+02  0.90698083688E+02  0.25451963637E+03  0.27156674454E+03  0.00000000000E+00 0. -1.
        -12    1    4    4    0    0 -0.12534963557E+02  0.66764345857E+00 -0.12419989787E+01  0.12614024759E+02  0.00000000000E+00 0.  1.
        -11    1    3    3    0    0  0.54151122787E+02 -0.95527301153E-01 -0.20836816099E+02  0.58021772893E+02  0.00000000000E+00 0. -1.
         11    1    3    3    0    0 -0.22592444592E+02 -0.48884670341E+02 -0.47461895557E+02  0.71782735229E+02  0.00000000000E+00 0.  1.
         21    1    1    2  502  501  0.82179640310E+01 -0.42385529505E+02  0.19833142364E+03  0.20297640662E+03  0.00000000000E+00 0.  1.
<scales pt_clust_5="13000.00000" pt_clust_6="13000.00000" pt_clust_7="13000.00000" pt_clust_8="13000.00000" pt_clust_9="43.17485"></scales>
<clustering>
<clus scale="   43.175">  1  9  2 -1</clus>
<clus scale="   81.727">  5  6 -1 -1</clus>
<clus scale="   93.752">  7  8 -1 -1</clus>
<clus scale="  102.828">  1  5  2 -1</clus>
<clus scale="   43.175">  1  5  2 -1</clus>
</clustering>
</event>
<event>
 9    1  0.2374319E-005  0.1780060E+03  0.7546771E-02  0.1171510E+00
          1   -1    0    0  502    0  0.00000000000E+00  0.00000000000E+00  0.27723556882E+03  0.27723556882E+03  0.00000000000E+00 0. -1.
         -2   -1    0    0    0  501 -0.00000000000E+00 -0.00000000000E+00 -0.18214689282E+03  0.18214689282E+03  0.00000000000E+00 0.  1.
        -24    2    1    2    0    0  0.11402868036E+03  0.12364211920E+03 -0.18473221763E+02  0.18455166538E+03  0.73675936965E+02 0.  0.
         23    2    1    2    0    0 -0.73250291668E+02 -0.12014315837E+03  0.13736231437E+02  0.16694065135E+03  0.88772255158E+02 0.  0.
         11    1    3    3    0    0  0.29489912012E+02  0.86182608361E+02 -0.66185814456E+01  0.91328541622E+02  0.00000000000E+00 0. -1.
        -12    1    3    3    0    0  0.84538768349E+02  0.37459510834E+02 -0.11854640318E+02  0.93223123756E+02  0.00000000000E+00 0.  1.
        -11    1    4    4    0    0 -0.64433428894E+02 -0.59103878440E+02 -0.28760518839E+02  0.92044025605E+02  0.00000000000E+00 0.  1.
         11    1    4    4    0    0 -0.88168627738E+01 -0.61039279932E+02  0.42496750277E+02  0.74896625744E+02  0.00000000000E+00 0. -1.
         21    1    1    2  502  501 -0.40778388692E+02 -0.34989608242E+01  0.99825666333E+02  0.10789014492E+03  0.00000000000E+00 0. -1.
<scales pt_clust_5="13000.00000" pt_clust_6="13000.00000" pt_clust_7="13000.00000" pt_clust_8="13000.00000" pt_clust_9="40.92823"></scales>
<clustering>
<clus scale="   40.928">  1  9  2 -1</clus>
<clus scale="   73.676">  5  6 -1 -1</clus>
<clus scale="   88.772">  7  8 -1 -1</clus>
<clus scale="  170.979">  2  5  1 -1</clus>
<clus scale="   40.928">  1  5  2 -1</clus>
</clustering>
</event>
<event>
 9    1  0.2374319E-005  0.1220822E+03  0.7546771E-02  0.1242836E+00
          1   -1    0    0  502    0  0.00000000000E+00  0.00000000000E+00  0.22038978996E+03  0.22038978996E+03  0.00000000000E+00 0. -1.
         -2   -1    0    0    0  501 -0.00000000000E+00 -0.00000000000E+00 -0.11671721037E+03  0.11671721037E+03  0.00000000000E+00 0.  1.
        -24    2    1    2    0    0  0.27974921358E+02  0.78526601116E+02 -0.15439369111E+02  0.11699526313E+03  0.80625642124E+02 0.  0.
         23    2    1    2    0    0 -0.82975543566E+00 -0.81132171922E+02  0.28107359214E+02  0.12510918808E+03  0.90989930685E+02 0.  0.
         11    1    3    3    0    0 -0.22035268161E+01  0.38054836543E+02  0.30437283700E+02  0.48779651022E+02  0.00000000000E+00 0. -1.
        -12    1    3    3    0    0  0.30178448174E+02  0.40471764572E+02 -0.45876652811E+02  0.68215612106E+02  0.00000000000E+00 0.  1.
        -13    1    4    4    0    0 -0.21560747875E+02  0.50455998569E+01 -0.14799800718E+02  0.26633776077E+02  0.00000000000E+00 0.  1.
         13    1    4    4    0    0  0.20730992439E+02 -0.86177771778E+02  0.42907159932E+02  0.98475412005E+02  0.00000000000E+00 0. -1.
         21    1    1    2  502  501 -0.27145165922E+02  0.26055708059E+01  0.91004589485E+02  0.95002549121E+02  0.00000000000E+00 0.  1.
<scales pt_clust_5="13000.00000" pt_clust_6="13000.00000" pt_clust_7="13000.00000" pt_clust_8="13000.00000" pt_clust_9="27.26993"></scales>
<clustering>
<clus scale="   27.270">  1  9  2 -1</clus>
<clus scale="   80.626">  5  6 -1 -1</clus>
<clus scale="   90.990">  7  8 -1 -1</clus>
<clus scale="  114.566">  2  5  1 -1</clus>
<clus scale="   27.270">  1  5  2 -1</clus>
</clustering>
</event>
<event>
 9    1  0.2374319E-005  0.1225452E+03  0.7546771E-02  0.1241873E+00
         -4   -1    0    0    0  501 -0.00000000000E+00  0.00000000000E+00  0.61647651853E+02  0.61647651853E+02  0.00000000000E+00 0.  1.
          3   -1    0    0  502    0  0.00000000000E+00 -0.00000000000E+00 -0.44790952987E+03  0.44790952987E+03  0.00000000000E+00 0. -1.
         23    2    1    2    0    0 -0.72174949787E+02 -0.34779124089E+01 -0.52887560584E+02  0.12734853578E+03  0.90549634177E+02 0.  0.
        -24    2    1    2    0    0  0.10393315393E+03  0.20505164342E+02 -0.17581559988E+03  0.22058172889E+03  0.80762687599E+02 0.  0.
         13    1    4    4    0    0  0.41058162352E+02 -0.30800581784E+02 -0.57075399702E+02  0.76759688542E+02  0.00000000000E+00 0. -1.
        -14    1    4    4    0    0  0.62874991579E+02  0.51305746125E+02 -0.11874020018E+03  0.14382204035E+03  0.00000000000E+00 0.  1.
        -13    1    3    3    0    0 -0.49498538970E+02  0.81140688620E+01 -0.77249237589E+02  0.92105310279E+02  0.00000000000E+00 0. -1.
         13    1    3    3    0    0 -0.22676410818E+02 -0.11591981271E+02  0.24361677004E+02  0.35243225502E+02  0.00000000000E+00 0.  1.
         21    1    1    2  502  501 -0.31758204143E+02 -0.17027251933E+02 -0.15755871755E+03  0.16162691705E+03  0.00000000000E+00 0. -1.
<scales pt_clust_5="13000.00000" pt_clust_6="13000.00000" pt_clust_7="13000.00000" pt_clust_8="13000.00000" pt_clust_9="36.03486"></scales>
<clustering>
<clus scale="   36.035">  2  9  1 -1</clus>
<clus scale="   80.763">  5  6 -1 -1</clus>
<clus scale="   90.550">  7  8 -1 -1</clus>
<clus scale="  115.502">  2  5  1 -1</clus>
<clus scale="   36.035">  2  5  1 -1</clus>
</clustering>
</event>
<event>
 9    1  0.2374319E-005  0.9508627E+02  0.7546771E-02  0.1291589E+00
         -2   -1    0    0    0  501 -0.00000000000E+00  0.00000000000E+00  0.22147343518E+03  0.22147343518E+03  0.00000000000E+00 0.  1.
          1   -1    0    0  502    0  0.00000000000E+00 -0.00000000000E+00 -0.27072095537E+03  0.27072095537E+03  0.00000000000E+00 0. -1.
        -24    2    1    2    0    0  0.91008343860E+00  0.33883965946E+02  0.16045963560E+03  0.18727164496E+03  0.90412515451E+02 0.  0.
         23    2    1    2    0    0  0.11058478020E+02  0.25781433395E+01 -0.50655064726E+00  0.92231361014E+02  0.91528304921E+02 0.  0.
         11    1    3    3    0    0 -0.39894954254E+02  0.12213755223E+01  0.98071747787E+02  0.10588279769E+03  0.00000000000E+00 0. -1.
        -12    1    3    3    0    0  0.40805037693E+02  0.32662590424E+02  0.62387887811E+02  0.81388847270E+02  0.00000000000E+00 0.  1.
        -13    1    4    4    0    0 -0.20946978802E+02  0.45114327034E+01 -0.37553084070E+02  0.43236131524E+02  0.00000000000E+00 0. -1.
         13    1    4    4    0    0  0.32005456822E+02 -0.19332893639E+01  0.37046533422E+02  0.48995229490E+02  0.00000000000E+00 0.  1.
         21    1    1    2  502  501 -0.11968561459E+02 -0.36462109286E+02 -0.20920060514E+03  0.21269138457E+03  0.00000000000E+00 0. -1.
<scales pt_clust_5="13000.00000" pt_clust_6="13000.00000" pt_clust_7="13000.00000" pt_clust_8="13000.00000" pt_clust_9="38.37619"></scales>
<clustering>
<clus scale="   38.376">  2  9  1 -1</clus>
<clus scale="   90.413">  5  6 -1 -1</clus>
<clus scale="   91.528">  7  8 -1 -1</clus>
<clus scale="   94.013">  1  5  2 -1</clus>
<clus scale="   38.376">  2  5  1 -1</clus>
</clustering>
</event>
<event>
 9    1  0.2374319E-005  0.1574400E+03  0.7546771E-02  0.1210155E+00
         -2   -1    0    0    0  501 -0.00000000000E+00  0.00000000000E+00  0.15331563847E+03  0.15331563847E+03  0.00000000000E+00 0.  1.
          1   -1    0    0  502    0  0.00000000000E+00 -0.00000000000E+00 -0.46587153533E+03  0.46587153533E+03  0.00000000000E+00 0. -1.
        -24    2    1    2    0    0  0.13224956466E+03 -0.51340921075E+01  0.51545513170E+02  0.16291186733E+03  0.79793673521E+02 0.  0.
         23    2    1    2    0    0  0.91096394201E+01 -0.51294375124E+02 -0.23180540683E+03  0.25461016581E+03  0.91534099913E+02 0.  0.
         13    1    3    3    0    0  0.11106396187E+03  0.26509119142E+02  0.26149439632E+02  0.11713978922E+03  0.00000000000E+00 0. -1.
        -14    1    3    3    0    0  0.21185602790E+02 -0.31643211250E+02  0.25396073538E+02  0.45772078114E+02  0.00000000000E+00 0.  1.
        -11    1    4    4    0    0 -0.11897562293E+02  0.24195712244E+02 -0.59563614643E+02  0.65382020991E+02  0.00000000000E+00 0. -1.
         11    1    4    4    0    0  0.21007201714E+02 -0.75490087368E+02 -0.17224179218E+03  0.18922814481E+03  0.00000000000E+00 0.  1.
         21    1    1    2  502  501 -0.14135920408E+03  0.56428467231E+02 -0.13229600321E+03  0.20166514066E+03  0.00000000000E+00 0. -1.
<scales pt_clust_5="13000.00000" pt_clust_6="13000.00000" pt_clust_7="13000.00000" pt_clust_8="13000.00000" pt_clust_9="135.72147"></scales>
<clustering>
<clus scale="   79.794">  5  6 -1 -1</clus>
<clus scale="   91.534">  7  8 -1 -1</clus>
<clus scale="  105.321">  2  7  1 -1</clus>
<clus scale="  135.721">  2  9  1 -1</clus>
<clus scale="  105.321">  2  5  1 -1</clus>
</clustering>
</event>
<event>
 9    1  0.2374319E-005  0.1227309E+03  0.7546771E-02  0.1241811E+00
          1   -1    0    0  502    0  0.00000000000E+00  0.00000000000E+00  0.36216447697E+03  0.36216447697E+03  0.00000000000E+00 0. -1.
         -2   -1    0    0    0  501 -0.00000000000E+00 -0.00000000000E+00 -0.16183675763E+03  0.16183675763E+03  0.00000000000E+00 0.  1.
         23    2    1    2    0    0  0.47162013353E+02  0.69931898086E+02 -0.11606086874E+03  0.17035368648E+03  0.91845127095E+02 0.  0.
        -24    2    1    2    0    0 -0.63492280193E+02 -0.21813779967E+02  0.23647497820E+03  0.25894688313E+03  0.81400014286E+02 0.  0.
         11    1    4    4    0    0 -0.65185784677E+02  0.92722819845E+01  0.20217027084E+03  0.21262168316E+03  0.00000000000E+00 0. -1.
        -12    1    4    4    0    0  0.16935044836E+01 -0.31086061952E+02  0.34304707357E+02  0.46325199966E+02  0.00000000000E+00 0.  1.
        -13    1    3    3    0    0 -0.79085232951E+01  0.29458973153E+02 -0.93552151065E+02  0.98399089472E+02  0.00000000000E+00 0.  1.
         13    1    3    3    0    0  0.55070536648E+02  0.40472924933E+02 -0.22508717677E+02  0.71954597010E+02  0.00000000000E+00 0. -1.
         21    1    1    2  502  501  0.16330266840E+02 -0.48118118119E+02  0.79913609876E+02  0.94700664992E+02  0.00000000000E+00 0. -1.
<scales pt_clust_5="13000.00000" pt_clust_6="13000.00000" pt_clust_7="13000.00000" pt_clust_8="13000.00000" pt_clust_9="50.81369"></scales>
<clustering>
<clus scale="   50.814">  1  9  2 -1</clus>
<clus scale="   81.400">  5  6 -1 -1</clus>
<clus scale="   91.845">  7  8 -1 -1</clus>
<clus scale="  115.123">  1  5  2 -1</clus>
<clus scale="   50.814">  1  5  2 -1</clus>
</clustering>
</event>
<event>
 9    1  0.2374319E-005  0.9734924E+02  0.7546771E-02  0.1290425E+00
         -2   -1    0    0    0  501 -0.00000000000E+00  0.00000000000E+00  0.62900776965E+02  0.62900776965E+02  0.00000000000E+00 0.  1.
          1   -1    0    0  502    0  0.00000000000E+00 -0.00000000000E+00 -0.42688130509E+03  0.42688130509E+03  0.00000000000E+00 0. -1.
         23    2    1    2    0    0 -0.26850806842E+01 -0.36091489528E+02 -0.41658131775E+01  0.99234476798E+02  0.92305590900E+02 0.  0.
        -24    2    1    2    0    0 -0.21399406193E+02  0.16460950151E+02 -0.12125500028E+03  0.14997296393E+03  0.84025099542E+02 0.  0.
         11    1    4    4    0    0 -0.26056051288E+02  0.95906838412E+01 -0.13284622701E+03  0.13571668672E+03  0.00000000000E+00 0. -1.
        -12    1    4    4    0    0  0.46566450950E+01  0.68702663098E+01  0.11591226731E+02  0.14256277208E+02  0.00000000000E+00 0.  1.
        -13    1    3    3    0    0  0.31330362319E+02  0.17165383200E+02 -0.47494946411E+01  0.36038863505E+02  0.00000000000E+00 0. -1.
         13    1    3    3    0    0 -0.34015443003E+02 -0.53256872728E+02  0.58368146362E+00  0.63195613293E+02  0.00000000000E+00 0.  1.
         21    1    1    2  502  501  0.24084486877E+02  0.19630539377E+02 -0.23855971467E+03  0.24057464132E+03  0.00000000000E+00 0. -1.
<scales pt_clust_5="13000.00000" pt_clust_6="13000.00000" pt_clust_7="13000.00000" pt_clust_8="13000.00000" pt_clust_9="31.07122"></scales>
<clustering>
<clus scale="   31.071">  2  9  1 -1</clus>
<clus scale="   84.025">  5  6 -1 -1</clus>
<clus scale="   89.536">  2  5  1 -1</clus>
<clus scale="   92.306">  7  8 -1 -1</clus>
<clus scale="   31.071">  2  5  1 -1</clus>
</clustering>
</event>
<event>
 9    1  0.2374319E-005  0.1163880E+03  0.7546771E-02  0.1253299E+00
          1   -1    0    0  502    0  0.00000000000E+00  0.00000000000E+00  0.16853876271E+03  0.16853876271E+03  0.00000000000E+00 0. -1.
         -2   -1    0    0    0  501 -0.00000000000E+00 -0.00000000000E+00 -0.18930361810E+03  0.18930361810E+03  0.00000000000E+00 0.  1.
        -24    2    1    2    0    0  0.69392311664E+02  0.26879210587E+02 -0.12254655217E+03  0.16466488004E+03  0.80988149687E+02 0.  0.
         23    2    1    2    0    0 -0.32088384362E+02 -0.56433004310E+02  0.53051110232E+02  0.12506230583E+03  0.92799847287E+02 0.  0.
         13    1    3    3    0    0 -0.25951431817E+01  0.35869291599E+02 -0.28488103407E+02  0.45879329591E+02  0.00000000000E+00 0. -1.
        -14    1    3    3    0    0  0.71987454846E+02 -0.89900810116E+01 -0.94058448764E+02  0.11878555045E+03  0.00000000000E+00 0.  1.
        -11    1    4    4    0    0  0.29913252257E+02 -0.36742741005E+02  0.14997633024E+02  0.49696686746E+02  0.00000000000E+00 0.  1.
         11    1    4    4    0    0 -0.62001636619E+02 -0.19690263305E+02  0.38053477208E+02  0.75365619085E+02  0.00000000000E+00 0. -1.
         21    1    1    2  502  501 -0.37303927302E+02  0.29553793723E+02  0.48730586547E+02  0.68115194933E+02  0.00000000000E+00 0. -1.
<scales pt_clust_5="13000.00000" pt_clust_6="13000.00000" pt_clust_7="13000.00000" pt_clust_8="13000.00000" pt_clust_9="47.59212"></scales>
<clustering>
<clus scale="   47.592">  1  9  2 -1</clus>
<clus scale="   80.988">  5  6 -1 -1</clus>
<clus scale="   92.800">  7  8 -1 -1</clus>
<clus scale="  107.207">  2  5  1 -1</clus>
<clus scale="   47.592">  1  5  2 -1</clus>
</clustering>
</event>
<event>
 9    1  0.2374319E-005  0.9475998E+02  0.7546771E-02  0.1297485E+00
         -2   -1    0    0    0  501 -0.00000000000E+00  0.00000000000E+00  0.32127064929E+03  0.32127064929E+03  0.00000000000E+00 0.  1.
          1   -1    0    0  502    0  0.00000000000E+00 -0.00000000000E+00 -0.44622982369E+02  0.44622982369E+02  0.00000000000E+00 0. -1.
        -24    2    1    2    0    0  0.18255627840E+01  0.22110221299E+02  0.18850291023E+03  0.20652487121E+03  0.81406269403E+02 0.  0.
         23    2    1    2    0    0 -0.22796438385E+02 -0.26664232602E+02  0.95396495997E+02  0.13671695334E+03  0.91435086152E+02 0.  0.
         13    1    3    3    0    0 -0.15786725198E+02 -0.20189161800E+02  0.12848480931E+03  0.13101591190E+03  0.00000000000E+00 0. -1.
        -14    1    3    3    0    0  0.17612287982E+02  0.42299383100E+02  0.60018100916E+02  0.75508959311E+02  0.00000000000E+00 0.  1.
        -11    1    4    4    0    0  0.24062541285E+02 -0.14615026828E+02 -0.17302357433E+01  0.28206357759E+02  0.00000000000E+00 0. -1.
         11    1    4    4    0    0 -0.46858979670E+02 -0.12049205774E+02  0.97126731740E+02  0.10851059558E+03  0.00000000000E+00 0.  1.
         21    1    1    2  502  501  0.20970875601E+02  0.45540113027E+01 -0.72517393014E+01  0.22651807109E+02  0.00000000000E+00 0. -1.
<scales pt_clust_5="13000.00000" pt_clust_6="13000.00000" pt_clust_7="13000.00000" pt_clust_8="13000.00000" pt_clust_9="21.45965"></scales>
<clustering>
<clus scale="   21.460">  2  9  1 -1</clus>
<clus scale="   81.406">  5  6 -1 -1</clus>
<clus scale="   85.124">  1  5  2 -1</clus>
<clus scale="   91.435">  7  8 -1 -1</clus>
<clus scale="   21.460">  2  5  1 -1</clus>
</clustering>
</event>
<event>
 9    1  0.2374319E-005  0.9400229E+02  0.7546771E-02  0.1299144E+00
         -2   -1    0    0    0  501 -0.00000000000E+00  0.00000000000E+00  0.46172037303E+03  0.46172037303E+03  0.00000000000E+00 0.  1.
          1   -1    0    0  502    0  0.00000000000E+00 -0.00000000000E+00 -0.21623605977E+03  0.21623605977E+03  0.00000000000E+00 0. -1.
        -24    2    1    2    0    0 -0.22307989066E+02  0.12209494429E+02  0.42312632189E+03  0.43150007916E+03  0.80682810471E+02 0.  0.
         23    2    1    2    0    0  0.55432736199E+01 -0.36928794349E+02 -0.40282463842E+02  0.10588699703E+03  0.90525772639E+02 0.  0.
         11    1    3    3    0    0 -0.27576763705E+02  0.63149338367E+01  0.44119135228E+02  0.52410441508E+02  0.00000000000E+00 0. -1.
        -12    1    3    3    0    0  0.52687746395E+01  0.58945605927E+01  0.37900718666E+03  0.37908963765E+03  0.00000000000E+00 0.  1.
        -11    1    4    4    0    0 -0.16835614098E+02  0.25240406365E+02 -0.42790569343E+01  0.30640273233E+02  0.00000000000E+00 0.  1.
         11    1    4    4    0    0  0.22378887718E+02 -0.62169200714E+02 -0.36003406908E+02  0.75246723795E+02  0.00000000000E+00 0. -1.
         21    1    1    2  502  501  0.16764715446E+02  0.24719299920E+02 -0.13735954479E+03  0.14056935661E+03  0.00000000000E+00 0. -1.
<scales pt_clust_5="13000.00000" pt_clust_6="13000.00000" pt_clust_7="13000.00000" pt_clust_8="13000.00000" pt_clust_9="29.86803"></scales>
<clustering>
<clus scale="   29.868">  2  9  1 -1</clus>
<clus scale="   80.683">  5  6 -1 -1</clus>
<clus scale="   84.565">  1  5  2 -1</clus>
<clus scale="   90.526">  7  8 -1 -1</clus>
<clus scale="   29.868">  2  5  1 -1</clus>
</clustering>
</event>
<event>
 9    1  0.2374319E-005  0.1631212E+03  0.7546771E-02  0.1185325E+00
         -4   -1    0    0    0  501 -0.00000000000E+00  0.00000000000E+00  0.18415966031E+03  0.18415966031E+03  0.00000000000E+00 0.  1.
          3   -1    0    0  502    0  0.00000000000E+00 -0.00000000000E+00 -0.65746422153E+03  0.65746422153E+03  0.00000000000E+00 0. -1.
        -24    2    1    2    0    0  0.10503074905E+03 -0.87791414935E+02  0.13004239978E+03  0.20868400248E+03  0.88877423274E+02 0.  0.
         23    2    1    2    0    0 -0.86058208582E+02  0.10777732122E+03 -0.51266463625E+03  0.53816288974E+03  0.88160651028E+02 0.  0.
         11    1    3    3    0    0  0.26654095440E+02 -0.44438859425E+02  0.12822547340E+01  0.51835289214E+02  0.00000000000E+00 0. -1.
        -12    1    3    3    0    0  0.78376653608E+02 -0.43352555511E+02  0.12876014505E+03  0.15684871327E+03  0.00000000000E+00 0.  1.
        -13    1    4    4    0    0 -0.97875115566E+02  0.80672930006E+02 -0.33803202344E+03  0.36104474619E+03  0.00000000000E+00 0. -1.
         13    1    4    4    0    0  0.11816906984E+02  0.27104391216E+02 -0.17463261282E+03  0.17711814354E+03  0.00000000000E+00 0.  1.
         21    1    1    2  502  501 -0.18972540466E+02 -0.19985906286E+02 -0.90682324742E+02  0.94776989626E+02  0.00000000000E+00 0. -1.
<scales pt_clust_5="13000.00000" pt_clust_6="13000.00000" pt_clust_7="13000.00000" pt_clust_8="13000.00000" pt_clust_9="27.55710"></scales>
<clustering>
<clus scale="   27.557">  2  9  1 -1</clus>
<clus scale="   88.161">  7  8 -1 -1</clus>
<clus scale="   88.877">  5  6 -1 -1</clus>
<clus scale="  162.732">  2  7  1 -1</clus>
<clus scale="   27.557">  2  5  1 -1</clus>
</clustering>
</event>
<event>
 9    1  0.2374319E-005  0.1397648E+03  0.7546771E-02  0.1226012E+00
          1   -1    0    0  502    0  0.00000000000E+00  0.00000000000E+00  0.48017334822E+03  0.48017334822E+03  0.00000000000E+00 0. -1.
         -2   -1    0    0    0  501 -0.00000000000E+00 -0.00000000000E+00 -0.10275448611E+03  0.10275448611E+03  0.00000000000E+00 0.  1.
         23    2    1    2    0    0 -0.55651085106E+02 -0.12799912833E+02  0.52860629127E+02  0.12005717093E+03  0.91425363760E+02 0.  0.
        -24    2    1    2    0    0 -0.32472763714E+02 -0.66541400067E+02 -0.50322631383E+01  0.11259826683E+03  0.84680621833E+02 0.  0.
         11    1    4    4    0    0 -0.11764716381E+02 -0.82077746107E+02  0.85625176318E+01  0.83357553142E+02  0.00000000000E+00 0. -1.
        -12    1    4    4    0    0 -0.20708047332E+02  0.15536346040E+02 -0.13594780770E+02  0.29240713685E+02  0.00000000000E+00 0.  1.
        -13    1    3    3    0    0 -0.67812156812E+02 -0.34312332173E+02  0.19355951849E+02  0.78424980858E+02  0.00000000000E+00 0.  1.
         13    1    3    3    0    0  0.12161071706E+02  0.21512419340E+02  0.33504677279E+02  0.41632190075E+02  0.00000000000E+00 0. -1.
         21    1    1    2  502  501  0.88123848820E+02  0.79341312900E+02  0.32959049612E+03  0.35027239657E+03  0.00000000000E+00 0. -1.
<scales pt_clust_5="13000.00000" pt_clust_6="13000.00000" pt_clust_7="13000.00000" pt_clust_8="13000.00000" pt_clust_9="111.19084"></scales>
<clustering>
<clus scale="   84.681">  5  6 -1 -1</clus>
<clus scale="   91.425">  7  8 -1 -1</clus>
<clus scale="  107.794">  2  7  1 -1</clus>
<clus scale="  111.191">  1  9  2 -1</clus>
<clus scale="  111.191">  1  5  2 -1</clus>
</clustering>
</event>
<event>
 9    1  0.2374319E-005  0.9689408E+02  0.7546771E-02  0.1293818E+00
         -2   -1    0    0    0  501 -0.00000000000E+00  0.00000000000E+00  0.65291155497E+02  0.65291155497E+02  0.00000000000E+00 0.  1.
          1   -1    0    0  502    0  0.00000000000E+00 -0.00000000000E+00 -0.29165919240E+03  0.29165919240E+03  0.00000000000E+00 0. -1.
        -24    2    1    2    0    0  0.10140059896E+02 -0.16542698368E+02 -0.16842368212E+02  0.83399434235E+02  0.79343043676E+02 0.  0.
         23    2    1    2    0    0 -0.60912508445E+02  0.21972181398E+02 -0.91178538251E+02  0.14465807406E+03  0.91756864115E+02 0.  0.
         13    1    3    3    0    0  0.68860971280E+01 -0.34701265736E+02 -0.40255359319E+02  0.53591884938E+02  0.00000000000E+00 0. -1.
        -14    1    3    3    0    0  0.32539627676E+01  0.18158567368E+02  0.23412991106E+02  0.29807549297E+02  0.00000000000E+00 0.  1.
        -13    1    4    4    0    0  0.17479967962E+02  0.27021933786E+02 -0.16060458370E+02  0.35967659203E+02  0.00000000000E+00 0. -1.
         13    1    4    4    0    0 -0.78392476407E+02 -0.50497523879E+01 -0.75118079881E+02  0.10869041486E+03  0.00000000000E+00 0.  1.
         21    1    1    2  502  501  0.50772448549E+02 -0.54294830300E+01 -0.11834713044E+03  0.12889283960E+03  0.00000000000E+00 0. -1.
<scales pt_clust_5="13000.00000" pt_clust_6="13000.00000" pt_clust_7="13000.00000" pt_clust_8="13000.00000" pt_clust_9="51.06193"></scales>
<clustering>
<clus scale="   51.062">  2  9  1 -1</clus>
<clus scale="   79.343">  5  6 -1 -1</clus>
<clus scale="   85.232">  1  5  2 -1</clus>
<clus scale="   91.757">  7  8 -1 -1</clus>
<clus scale="   51.062">  2  5  1 -1</clus>
</clustering>
</event>
<event>
 9    1  0.2374319E-005  0.1762499E+03  0.7546771E-02  0.1172863E+00
          1   -1    0    0  502    0  0.00000000000E+00  0.00000000000E+00  0.11017751215E+04  0.11017751215E+04  0.00000000000E+00 0. -1.
         -2   -1    0    0    0  501 -0.00000000000E+00 -0.00000000000E+00 -0.59197165497E+02  0.59197165497E+02  0.00000000000E+00 0.  1.
        -24    2    1    2    0    0 -0.42283621443E+02 -0.66584389499E+02  0.66267225346E+02  0.13140836040E+03  0.81580797125E+02 0.  0.
         23    2    1    2    0    0  0.80502969096E+02  0.15608424821E+03  0.83310102442E+03  0.85641669675E+03  0.92461997589E+02 0.  0.
         13    1    3    3    0    0 -0.24426050496E+02 -0.20313963258E+02  0.74630783996E+02  0.81111299866E+02  0.00000000000E+00 0. -1.
        -14    1    3    3    0    0 -0.17857570947E+02 -0.46270426240E+02 -0.83635586503E+01  0.50297060529E+02  0.00000000000E+00 0.  1.
        -11    1    4    4    0    0 -0.37714133698E+01  0.91948538889E+02  0.41914992056E+03  0.42913332808E+03  0.00000000000E+00 0.  1.
         11    1    4    4    0    0  0.84274382466E+02  0.64135709320E+02  0.41395110386E+03  0.42728336867E+03  0.00000000000E+00 0. -1.
         21    1    1    2  502  501 -0.38219347653E+02 -0.89499858710E+02  0.14320970619E+03  0.17314722981E+03  0.00000000000E+00 0.  1.
<scales pt_clust_5="13000.00000" pt_clust_6="13000.00000" pt_clust_7="13000.00000" pt_clust_8="13000.00000" pt_clust_9="97.31877"></scales>
<clustering>
<clus scale="   81.581">  5  6 -1 -1</clus>
<clus scale="   92.462">  7  8 -1 -1</clus>
<clus scale="   97.319">  2  9  1 -1</clus>
<clus scale="  170.793">  2  5  1 -1</clus>
<clus scale="  176.250">  1  5  2 -1</clus>
</clustering>
</event>
<event>
 9    1  0.2374319E-005  0.1140379E+03  0.7546771E-02  0.1262674E+00
         -2   -1    0    0    0  501 -0.00000000000E+00  0.00000000000E+00  0.22893692933E+03  0.22893692933E+03  0.00000000000E+00 0.  1.
          1   -1    0    0  502    0  0.00000000000E+00 -0.00000000000E+00 -0.12574515288E+03  0.12574515288E+03  0.00000000000E+00 0. -1.
        -24    2    1    2    0    0 -0.45153494414E+02  0.16208135294E+02  0.14784448839E+03  0.17475459065E+03  0.79872601659E+02 0.  0.
         23    2    1    2    0    0  0.49743747663E+02 -0.61176199487E+02 -0.36347509193E+02  0.13396910152E+03  0.10202750082E+03 0.  0.
         13    1    3    3    0    0 -0.29159273208E+02  0.19829099335E+02  0.11010853621E+02  0.36941782468E+02  0.00000000000E+00 0. -1.
        -14    1    3    3    0    0 -0.15994221206E+02 -0.36209640410E+01  0.13683363477E+03  0.13781280818E+03  0.00000000000E+00 0.  1.
        -11    1    4    4    0    0 -0.78862711212E+01 -0.53210374835E+02  0.15564104355E+02  0.55998023239E+02  0.00000000000E+00 0. -1.
         11    1    4    4    0    0  0.57630018785E+02 -0.79658246525E+01 -0.51911613548E+02  0.77971078283E+02  0.00000000000E+00 0.  1.
         21    1    1    2  502  501 -0.45902532494E+01  0.44968064193E+02 -0.83052027479E+01  0.45958390038E+02  0.00000000000E+00 0.  1.
<scales pt_clust_5="13000.00000" pt_clust_6="13000.00000" pt_clust_7="13000.00000" pt_clust_8="13000.00000" pt_clust_9="45.20174"></scales>
<clustering>
<clus scale="   45.202">  2  9  1 -1</clus>
<clus scale="   79.873">  5  6 -1 -1</clus>
<clus scale="   94.735">  1  5  2 -1</clus>
<clus scale="  102.028">  7  8 -1 -1</clus>
<clus scale="   45.202">  2  5  1 -1</clus>
</clustering>
</event>
<event>
 9    1  0.2374319E-005  0.1981792E+03  0.7546771E-02  0.1152053E+00
         -2   -1    0    0    0  501 -0.00000000000E+00  0.00000000000E+00  0.48268420498E+03  0.48268420498E+03  0.00000000000E+00 0.  1.
          1   -1    0    0  502    0  0.00000000000E+00 -0.00000000000E+00 -0.13428771661E+03  0.13428771661E+03  0.00000000000E+00 0. -1.
         23    2    1    2    0    0 -0.35251142792E+02  0.16342329962E+03  0.32318823312E+03  0.37094097955E+03  0.72088545252E+02 0.  0.
        -24    2    1    2    0    0  0.63242235166E+02 -0.17378692566E+03 -0.70123052682E+01  0.20210975676E+03  0.81226261219E+02 0.  0.
         11    1    4    4    0    0  0.65353671881E+02 -0.18110055467E+03 -0.12167746630E+02  0.19291595939E+03  0.00000000000E+00 0. -1.
        -12    1    4    4    0    0 -0.21114367151E+01  0.73136290110E+01  0.51554413622E+01  0.91937973629E+01  0.00000000000E+00 0.  1.
        -13    1    3    3    0    0 -0.30200928048E+02  0.12570189144E+03  0.29924855314E+03  0.32597968974E+03  0.00000000000E+00 0.  1.
         13    1    3    3    0    0 -0.50502147445E+01  0.37721408181E+02  0.23939679983E+02  0.44961289815E+02  0.00000000000E+00 0. -1.
         21    1    1    2  502  501 -0.27991092374E+02  0.10363626042E+02  0.32220560520E+02  0.43921185290E+02  0.00000000000E+00 0.  1.
<scales pt_clust_5="13000.00000" pt_clust_6="13000.00000" pt_clust_7="13000.00000" pt_clust_8="13000.00000" pt_clust_9="29.84805"></scales>
<clustering>
<clus scale="   29.848">  1  9  2 -1</clus>
<clus scale="   72.089">  7  8 -1 -1</clus>
<clus scale="   81.226">  5  6 -1 -1</clus>
<clus scale="  194.613">  1  7  2 -1</clus>
<clus scale="  198.179">  2  5  1 -1</clus>
</clustering>
</event>
<event>
 9    1  0.2374319E-005  0.1072529E+03  0.7546771E-02  0.1267292E+00
          1   -1    0    0  502    0  0.00000000000E+00  0.00000000000E+00  0.50678658384E+03  0.50678658384E+03  0.00000000000E+00 0. -1.
         -2   -1    0    0    0  501 -0.00000000000E+00 -0.00000000000E+00 -0.72365006757E+02  0.72365006757E+02  0.00000000000E+00 0.  1.
        -24    2    1    2    0    0 -0.61760356270E+02 -0.87991552234E+01 -0.16941778234E+01  0.10691034954E+03  0.86805448341E+02 0.  0.
         23    2    1    2    0    0  0.49082798096E+02  0.29638603636E+02  0.43478800704E+03  0.44781244645E+03  0.90596954886E+02 0.  0.
         11    1    3    3    0    0 -0.23508078406E+02 -0.95570417200E+01  0.41851826533E+02  0.48944276284E+02  0.00000000000E+00 0. -1.
        -12    1    3    3    0    0 -0.38252277864E+02  0.75788649659E+00 -0.43546004356E+02  0.57966073260E+02  0.00000000000E+00 0.  1.
        -13    1    4    4    0    0  0.13138388323E+02 -0.24131168867E+02  0.45227671807E+02  0.52919494099E+02  0.00000000000E+00 0.  1.
         13    1    4    4    0    0  0.35944409773E+02  0.53769772504E+02  0.38956033524E+03  0.39489295235E+03  0.00000000000E+00 0. -1.
         21    1    1    2  502  501  0.12677558174E+02 -0.20839448413E+02  0.13277478660E+01  0.24428794604E+02  0.00000000000E+00 0.  1.
<scales pt_clust_5="13000.00000" pt_clust_6="13000.00000" pt_clust_7="13000.00000" pt_clust_8="13000.00000" pt_clust_9="24.39269"></scales>
<clustering>
<clus scale="   24.393">  2  9  1 -1</clus>
<clus scale="   86.805">  5  6 -1 -1</clus>
<clus scale="   90.597">  7  8 -1 -1</clus>
<clus scale="  104.070">  2  5  1 -1</clus>
<clus scale="  107.253">  1  5  2 -1</clus>
</clustering>
</event>
<event>
 9    1  0.2374319E-005  0.1741004E+03  0.7546771E-02  0.1176114E+00
         -2   -1    0    0    0  501 -0.00000000000E+00  0.00000000000E+00  0.52417235892E+03  0.52417235892E+03  0.00000000000E+00 0.  1.
          1   -1    0    0  502    0  0.00000000000E+00 -0.00000000000E+00 -0.12407057972E+03  0.12407057972E+03  0.00000000000E+00 0. -1.
         23    2    1    2    0    0 -0.10593997111E+03 -0.11040367906E+03  0.39977928414E+03  0.43905809589E+03  0.97653907800E+02 0.  0.
        -24    2    1    2    0    0  0.46360516146E+02  0.99839587899E+02 -0.33528921209E+02  0.13985065308E+03  0.79478146929E+02 0.  0.
         11    1    4    4    0    0 -0.34857347965E+01  0.82570758456E+02 -0.15380429176E+02  0.84063298179E+02  0.00000000000E+00 0. -1.
        -12    1    4    4    0    0  0.49846250943E+02  0.17268829443E+02 -0.18148492034E+02  0.55787354898E+02  0.00000000000E+00 0.  1.
        -11    1    3    3    0    0 -0.82572439461E+02 -0.12763500475E+03  0.34655078006E+03  0.37842614254E+03  0.00000000000E+00 0.  1.
         11    1    3    3    0    0 -0.23367531644E+02  0.17231325692E+02  0.53228504080E+02  0.60631953348E+02  0.00000000000E+00 0. -1.
         21    1    1    2  502  501  0.59579454959E+02  0.10564091157E+02  0.33851416261E+02  0.69334189677E+02  0.00000000000E+00 0. -1.
<scales pt_clust_5="13000.00000" pt_clust_6="13000.00000" pt_clust_7="13000.00000" pt_clust_8="13000.00000" pt_clust_9="60.50877"></scales>
<clustering>
<clus scale="   60.509">  2  9  1 -1</clus>
<clus scale="   79.478">  5  6 -1 -1</clus>
<clus scale="   97.654">  7  8 -1 -1</clus>
<clus scale="  164.595">  2  5  1 -1</clus>
<clus scale="   60.509">  2  5  1 -1</clus>
</clustering>
</event>
<event>
 9    1  0.2374319E-005  0.9958268E+02  0.7546771E-02  0.1286376E+00
          3   -1    0    0  502    0  0.00000000000E+00  0.00000000000E+00  0.92662181011E+02  0.92662181011E+02  0.00000000000E+00 0. -1.
         -4   -1    0    0    0  501 -0.00000000000E+00 -0.00000000000E+00 -0.31444180402E+03  0.31444180402E+03  0.00000000000E+00 0.  1.
        -24    2    1    2    0    0 -0.10957330371E+02  0.29455933440E+02 -0.20235348196E+03  0.22019267813E+03  0.80933112715E+02 0.  0.
         23    2    1    2    0    0  0.41489448787E+02 -0.71760048237E+02 -0.41791452869E+02  0.13014815374E+03  0.91220269157E+02 0.  0.
         11    1    3    3    0    0  0.15650621369E+02 -0.19771990009E+02 -0.31157717511E+02  0.40083374342E+02  0.00000000000E+00 0. -1.
        -12    1    3    3    0    0 -0.26607951740E+02  0.49227923449E+02 -0.17119576445E+03  0.18010930378E+03  0.00000000000E+00 0.  1.
        -13    1    4    4    0    0  0.27565967159E+01 -0.73064696042E+02 -0.52415488485E+02  0.89963504080E+02  0.00000000000E+00 0.  1.
         13    1    4    4    0    0  0.38732852071E+02  0.13046478047E+01  0.10624035616E+02  0.40184649659E+02  0.00000000000E+00 0. -1.
         21    1    1    2  502  501 -0.30532118416E+02  0.42304114797E+02  0.22365311828E+02  0.56763153162E+02  0.00000000000E+00 0. -1.
<scales pt_clust_5="13000.00000" pt_clust_6="13000.00000" pt_clust_7="13000.00000" pt_clust_8="13000.00000" pt_clust_9="52.17134"></scales>
<clustering>
<clus scale="   52.171">  1  9  2 -1</clus>
<clus scale="   80.933">  5  6 -1 -1</clus>
<clus scale="   90.254">  2  5  1 -1</clus>
<clus scale="   91.220">  7  8 -1 -1</clus>
<clus scale="   52.171">  1  5  2 -1</clus>
</clustering>
</event>
<event>
 9    1  0.2374319E-005  0.1099017E+03  0.7546771E-02  0.1261892E+00
         -4   -1    0    0    0  501 -0.00000000000E+00  0.00000000000E+00  0.22597787600E+03  0.22597787600E+03  0.00000000000E+00 0.  1.
          3   -1    0    0  502    0  0.00000000000E+00 -0.00000000000E+00 -0.15600788639E+03  0.15600788639E+03  0.00000000000E+00 0. -1.
         23    2    1    2    0    0  0.37055356972E+02 -0.52967382614E+02  0.16292313417E+03  0.19695978605E+03  0.89836332151E+02 0.  0.
        -24    2    1    2    0    0 -0.50093612176E+02  0.35247238642E+02 -0.19114873799E+02  0.10797995223E+03  0.86847877758E+02 0.  0.
         13    1    4    4    0    0 -0.73179910473E+02  0.25760340073E+02 -0.17996491594E+01  0.77602404309E+02  0.00000000000E+00 0. -1.
        -14    1    4    4    0    0  0.23086298297E+02  0.94868985692E+01 -0.17315224639E+02  0.30377547923E+02  0.00000000000E+00 0.  1.
        -11    1    3    3    0    0 -0.24955978664E+02  0.47228344144E+01  0.46548891916E+02  0.53027402110E+02  0.00000000000E+00 0. -1.
         11    1    3    3    0    0  0.62011335636E+02 -0.57690217028E+02  0.11637424225E+03  0.14393238394E+03  0.00000000000E+00 0.  1.
         21    1    1    2  502  501  0.13038255204E+02  0.17720143972E+02 -0.73838270758E+02  0.77046024100E+02  0.00000000000E+00 0. -1.
<scales pt_clust_5="13000.00000" pt_clust_6="13000.00000" pt_clust_7="13000.00000" pt_clust_8="13000.00000" pt_clust_9="21.99999"></scales>
<clustering>
<clus scale="   22.000">  2  9  1 -1</clus>
<clus scale="   86.848">  5  6 -1 -1</clus>
<clus scale="   89.836">  7  8 -1 -1</clus>
<clus scale="  107.473">  2  5  1 -1</clus>
<clus scale="   22.000">  2  5  1 -1</clus>
</clustering>
</event>
<event>
 9    1  0.2610289E-005  0.1035265E+03  0.7546771E-02  0.1281376E+00
          1   -1    0    0  502    0  0.00000000000E+00  0.00000000000E+00  0.23767093245E+03  0.23767093245E+03  0.00000000000E+00 0. -1.
         -2   -1    0    0    0  501 -0.00000000000E+00 -0.00000000000E+00 -0.34968009935E+03  0.34968009935E+03  0.00000000000E+00 0.  1.
         23    2    1    2    0    0  0.29649741513E+02  0.19710267325E+02 -0.31712063343E+03  0.33345265869E+03  0.96734573079E+02 0.  0.
        -24    2    1    2    0    0 -0.53464463527E+02 -0.43453118206E+02  0.18908656788E+03  0.21664704657E+03  0.80222130946E+02 0.  0.
         13    1    4    4    0    0 -0.73955761997E+02 -0.40667236602E+02  0.14146151431E+03  0.16472595089E+03  0.00000000000E+00 0. -1.
        -14    1    4    4    0    0  0.20491298471E+02 -0.27858816035E+01  0.47625053562E+02  0.51921095675E+02  0.00000000000E+00 0.  1.
        -13    1    3    3    0    0 -0.12269987566E+02 -0.28478025440E+02 -0.50267187728E+02  0.59062176475E+02  0.00000000000E+00 0. -1.
         13    1    3    3    0    0  0.41919729080E+02  0.48188292765E+02 -0.26685344570E+03  0.27439048222E+03  0.00000000000E+00 0.  1.
         21    1    1    2  502  501  0.23814722014E+02  0.23742850880E+02  0.16024898655E+02  0.37251326546E+02  0.00000000000E+00 0. -1.
<scales pt_clust_5="13000.00000" pt_clust_6="13000.00000" pt_clust_7="13000.00000" pt_clust_8="13000.00000" pt_clust_9="33.62832"></scales>
<clustering>
<clus scale="   33.628">  1  9  2 -1</clus>
<clus scale="   80.222">  5  6 -1 -1</clus>
<clus scale="   88.294">  1  5  2 -1</clus>
<clus scale="   96.735">  7  8 -1 -1</clus>
<clus scale="   33.628">  1  5  2 -1</clus>
</clustering>
</event>
<event>
 9    1  0.2374319E-005  0.1002722E+03  0.7546771E-02  0.1286104E+00
          3   -1    0    0  502    0  0.00000000000E+00  0.00000000000E+00  0.20412448042E+03  0.20412448042E+03  0.00000000000E+00 0. -1.
         -4   -1    0    0    0  501 -0.00000000000E+00 -0.00000000000E+00 -0.77212613309E+02  0.77212613309E+02  0.00000000000E+00 0.  1.
        -24    2    1    2    0    0  0.26981236857E+02 -0.26657646058E+02 -0.15533456479E+02  0.89922787980E+02  0.80038754939E+02 0.  0.
         23    2    1    2    0    0 -0.44160004600E+02  0.12076034144E+02  0.12878114848E+03  0.16506201651E+03  0.92547006874E+02 0.  0.
         13    1    3    3    0    0 -0.11532972529E+02 -0.44609331783E+02 -0.77432940557E+01  0.46722163267E+02  0.00000000000E+00 0. -1.
        -14    1    3    3    0    0  0.38514209386E+02  0.17951685725E+02 -0.77901624230E+01  0.43200624713E+02  0.00000000000E+00 0.  1.
        -11    1    4    4    0    0 -0.14545435278E+02 -0.34954600977E+02  0.88988006159E+02  0.96707078630E+02  0.00000000000E+00 0. -1.
         11    1    4    4    0    0 -0.29614569322E+02  0.47030635121E+02  0.39793142324E+02  0.68354937876E+02  0.00000000000E+00 0.  1.
         21    1    1    2  502  501  0.17178767743E+02  0.14581611914E+02  0.13664175111E+02  0.26352289249E+02  0.00000000000E+00 0.  1.
<scales pt_clust_5="13000.00000" pt_clust_6="13000.00000" pt_clust_7="13000.00000" pt_clust_8="13000.00000" pt_clust_9="22.53294"></scales>
<clustering>
<clus scale="   22.533">  1  9  2 -1</clus>
<clus scale="   80.039">  5  6 -1 -1</clus>
<clus scale="   88.858">  2  5  1 -1</clus>
<clus scale="   92.547">  7  8 -1 -1</clus>
<clus scale="   22.533">  1  5  2 -1</clus>
</clustering>
</event>
<event>
 9    1  0.2374319E-005  0.1189099E+03  0.7546771E-02  0.1247485E+00
          1   -1    0    0  502    0  0.00000000000E+00  0.00000000000E+00  0.41338422607E+03  0.41338422607E+03  0.00000000000E+00 0. -1.
         -2   -1    0    0    0  501 -0.00000000000E+00 -0.00000000000E+00 -0.13432367221E+03  0.13432367221E+03  0.00000000000E+00 0.  1.
        -24    2    1    2    0    0 -0.49326893334E+02  0.61729001977E+02 -0.92468725168E+02  0.14684742672E+03  0.82280553659E+02 0.  0.
         23    2    1    2    0    0  0.21592371859E+02 -0.62500768010E+02  0.22041943087E+03  0.24722458540E+03  0.90347626394E+02 0.  0.
         11    1    3    3    0    0 -0.37010539982E+02  0.25520169594E+02  0.19274471350E+01  0.44997490800E+02  0.00000000000E+00 0. -1.
        -12    1    3    3    0    0 -0.12316353352E+02  0.36208832383E+02 -0.94396172303E+02  0.10184993592E+03  0.00000000000E+00 0.  1.
        -11    1    4    4    0    0  0.35302792491E+02  0.10576798211E+02  0.87051800776E+02  0.94531327276E+02  0.00000000000E+00 0.  1.
         11    1    4    4    0    0 -0.13710420632E+02 -0.73077566221E+02  0.13336763010E+03  0.15269325812E+03  0.00000000000E+00 0. -1.
         21    1    1    2  502  501  0.27734521474E+02  0.77176603281E+00  0.15110984815E+03  0.15363588615E+03  0.00000000000E+00 0. -1.
<scales pt_clust_5="13000.00000" pt_clust_6="13000.00000" pt_clust_7="13000.00000" pt_clust_8="13000.00000" pt_clust_9="27.74526"></scales>
<clustering>
<clus scale="   27.745">  1  9  2 -1</clus>
<clus scale="   82.281">  5  6 -1 -1</clus>
<clus scale="   90.348">  7  8 -1 -1</clus>
<clus scale="  112.902">  2  5  1 -1</clus>
<clus scale="   27.745">  1  5  2 -1</clus>
</clustering>
</event>
<event>
 9    1  0.2374319E-005  0.9451915E+02  0.7546771E-02  0.1298945E+00
          1   -1    0    0  502    0  0.00000000000E+00  0.00000000000E+00  0.97384225520E+02  0.97384225520E+02  0.00000000000E+00 0. -1.
         -2   -1    0    0    0  501 -0.00000000000E+00 -0.00000000000E+00 -0.14579263928E+03  0.14579263928E+03  0.00000000000E+00 0.  1.
        -24    2    1    2    0    0 -0.13811242778E+02 -0.25015120778E+02 -0.60254677230E+02  0.10359127738E+03  0.79271810421E+02 0.  0.
         23    2    1    2    0    0 -0.18593502938E+02  0.28087644524E+02 -0.14204144482E+02  0.97894680716E+02  0.90812866190E+02 0.  0.
         11    1    3    3    0    0  0.26710060705E+02 -0.52331403223E+01 -0.50631685441E+02  0.57483742667E+02  0.00000000000E+00 0. -1.
        -12    1    3    3    0    0 -0.40521303483E+02 -0.19781980456E+02 -0.96229917899E+01  0.46107534717E+02  0.00000000000E+00 0.  1.
        -13    1    4    4    0    0 -0.25036953249E+02  0.58965248503E+02 -0.16854910505E+02  0.66240754579E+02  0.00000000000E+00 0.  1.
         13    1    4    4    0    0  0.64434503103E+01 -0.30877603980E+02  0.26507660223E+01  0.31653926138E+02  0.00000000000E+00 0. -1.
         21    1    1    2  502  501  0.32404745716E+02 -0.30725237458E+01  0.26050407951E+02  0.41690906700E+02  0.00000000000E+00 0. -1.
<scales pt_clust_5="13000.00000" pt_clust_6="13000.00000" pt_clust_7="13000.00000" pt_clust_8="13000.00000" pt_clust_9="32.55008"></scales>
<clustering>
<clus scale="   32.550">  1  9  2 -1</clus>
<clus scale="   79.272">  5  6 -1 -1</clus>
<clus scale="   83.492">  2  5  1 -1</clus>
<clus scale="   90.813">  7  8 -1 -1</clus>
<clus scale="   32.550">  1  5  2 -1</clus>
</clustering>
</event>
<event>
 9    1  0.2374319E-005  0.1045794E+03  0.7546771E-02  0.1271429E+00
         -2   -1    0    0    0  501 -0.00000000000E+00  0.00000000000E+00  0.40633016946E+03  0.40633016946E+03  0.00000000000E+00 0.  1.
          1   -1    0    0  502    0  0.00000000000E+00 -0.00000000000E+00 -0.69782628530E+02  0.69782628530E+02  0.00000000000E+00 0. -1.
        -24    2    1    2    0    0  0.49476154882E+02  0.39346161888E+02  0.19713151484E+03  0.22482346672E+03  0.87685498731E+02 0.  0.
         23    2    1    2    0    0  0.27953205789E+02 -0.76796495224E+02  0.10474521619E+03  0.15855369400E+03  0.86536871753E+02 0.  0.
         13    1    3    3    0    0 -0.22996875142E+02  0.18109503849E+02  0.32753866043E+02  0.43927510022E+02  0.00000000000E+00 0. -1.
        -14    1    3    3    0    0  0.72473030025E+02  0.21236658039E+02  0.16437764880E+03  0.18089595670E+03  0.00000000000E+00 0.  1.
        -13    1    4    4    0    0  0.23394253597E+02 -0.54838510603E+02  0.11821128698E+03  0.13239509702E+03  0.00000000000E+00 0.  1.
         13    1    4    4    0    0  0.45589521922E+01 -0.21957984621E+02 -0.13466070781E+02  0.26158596980E+02  0.00000000000E+00 0. -1.
         21    1    1    2  502  501 -0.77429360671E+02  0.37450333336E+02  0.34670809894E+02  0.92735637269E+02  0.00000000000E+00 0. -1.
<scales pt_clust_5="13000.00000" pt_clust_6="13000.00000" pt_clust_7="13000.00000" pt_clust_8="13000.00000" pt_clust_9="86.01066"></scales>
<clustering>
<clus scale="   86.011">  2  9  1 -1</clus>
<clus scale="   86.537">  7  8 -1 -1</clus>
<clus scale="   87.685">  5  6 -1 -1</clus>
<clus scale="  103.618">  2  7  1 -1</clus>
<clus scale="   86.011">  2  5  1 -1</clus>
</clustering>
</event>
<event>
 9    1  0.2374319E-005  0.1166828E+03  0.7546771E-02  0.1254336E+00
          1   -1    0    0  502    0  0.00000000000E+00  0.00000000000E+00  0.46750922972E+03  0.46750922972E+03  0.00000000000E+00 0. -1.
         -2   -1    0    0    0  501 -0.00000000000E+00 -0.00000000000E+00 -0.47793822193E+02  0.47793822193E+02  0.00000000000E+00 0.  1.
         23    2    1    2    0    0  0.27404413790E+02 -0.61857191032E+02  0.10109261156E+03  0.15481693585E+03  0.95766661920E+02 0.  0.
        -24    2    1    2    0    0  0.27226724072E+02  0.74051707379E+02  0.22060926702E+03  0.24761486503E+03  0.80123172809E+02 0.  0.
         13    1    4    4    0    0  0.23200104978E+02  0.55545254282E+02  0.22061035535E+03  0.22867542289E+03  0.00000000000E+00 0. -1.
        -14    1    4    4    0    0  0.40266190940E+01  0.18506453097E+02 -0.10883336005E-02  0.18939442144E+02  0.00000000000E+00 0.  1.
        -11    1    3    3    0    0  0.91015933652E+01 -0.82341319586E+02  0.49874819465E+02  0.96697619048E+02  0.00000000000E+00 0.  1.
         11    1    3    3    0    0  0.18302820425E+02  0.20484128554E+02  0.51217792094E+02  0.58119316798E+02  0.00000000000E+00 0. -1.
         21    1    1    2  502  501 -0.54631137862E+02 -0.12194516347E+02  0.98013528948E+02  0.11287125103E+03  0.00000000000E+00 0.  1.
<scales pt_clust_5="13000.00000" pt_clust_6="13000.00000" pt_clust_7="13000.00000" pt_clust_8="13000.00000" pt_clust_9="55.97560"></scales>
<clustering>
<clus scale="   55.976">  1  9  2 -1</clus>
<clus scale="   80.123">  5  6 -1 -1</clus>
<clus scale="   95.767">  7  8 -1 -1</clus>
<clus scale="  104.227">  1  5  2 -1</clus>
<clus scale="   55.976">  1  5  2 -1</clus>
</clustering>
</event>
<event>
 9    1  0.2374319E-005  0.1346339E+03  0.7546771E-02  0.1224114E+00
          1   -1    0    0  502    0  0.00000000000E+00  0.00000000000E+00  0.44799056200E+03  0.44799056200E+03  0.00000000000E+00 0. -1.
         -2   -1    0    0    0  501 -0.00000000000E+00 -0.00000000000E+00 -0.97698714774E+02  0.97698714774E+02  0.00000000000E+00 0.  1.
         23    2    1    2    0    0 -0.70513817096E+02  0.57882412823E+02 -0.14835070439E+02  0.13162752457E+03  0.93718481602E+02 0.  0.
        -24    2    1    2    0    0  0.11324386478E+03 -0.60528909585E+02  0.30226052691E+03  0.33800227543E+03  0.79976185596E+02 0.  0.
         13    1    4    4    0    0  0.97588073295E+02 -0.54395799108E+02  0.16231031105E+03  0.19704560914E+03  0.00000000000E+00 0. -1.
        -14    1    4    4    0    0  0.15655791488E+02 -0.61331104772E+01  0.13995021587E+03  0.14095666629E+03  0.00000000000E+00 0.  1.
        -13    1    3    3    0    0 -0.59578162005E+02  0.13369715359E+02  0.29539997628E+02  0.67830068086E+02  0.00000000000E+00 0. -1.
         13    1    3    3    0    0 -0.10935655091E+02  0.44512697464E+02 -0.44375068067E+02  0.63797456483E+02  0.00000000000E+00 0.  1.
         21    1    1    2  502  501 -0.42730047687E+02  0.26464967616E+01  0.62866390749E+02  0.76059476768E+02  0.00000000000E+00 0. -1.
<scales pt_clust_5="13000.00000" pt_clust_6="13000.00000" pt_clust_7="13000.00000" pt_clust_8="13000.00000" pt_clust_9="42.81192"></scales>
<clustering>
<clus scale="   42.812">  1  9  2 -1</clus>
<clus scale="   79.976">  5  6 -1 -1</clus>
<clus scale="   93.718">  7  8 -1 -1</clus>
<clus scale="  125.456">  1  5  2 -1</clus>
<clus scale="   42.812">  1  5  2 -1</clus>
</clustering>
</event>
<event>
 9    1  0.2374319E-005  0.1708303E+03  0.7546771E-02  0.1178156E+00
          1   -1    0    0  502    0  0.00000000000E+00  0.00000000000E+00  0.42879824901E+03  0.42879824901E+03  0.00000000000E+00 0. -1.
         -2   -1    0    0    0  501 -0.00000000000E+00 -0.00000000000E+00 -0.40167104746E+03  0.40167104746E+03  0.00000000000E+00 0.  1.
         23    2    1    2    0    0 -0.13194321604E+03  0.65444659286E+02 -0.36453062829E+03  0.40299424443E+03  0.88485967180E+02 0.  0.
        -24    2    1    2    0    0  0.11370131608E+03 -0.53275661597E+02  0.32689251443E+03  0.35909817365E+03  0.79539279164E+02 0.  0.
         11    1    4    4    0    0  0.10597034516E+03 -0.68597554489E+02  0.31125911282E+03  0.33588327414E+03  0.00000000000E+00 0. -1.
        -12    1    4    4    0    0  0.77309709159E+01  0.15321892892E+02  0.15633401611E+02  0.23214899505E+02  0.00000000000E+00 0.  1.
        -13    1    3    3    0    0 -0.45547634137E+01  0.42017978915E+02 -0.92975097334E+02  0.10213043203E+03  0.00000000000E+00 0. -1.
         13    1    3    3    0    0 -0.12738845263E+03  0.23426680372E+02 -0.27155553096E+03  0.30086381240E+03  0.00000000000E+00 0.  1.
         21    1    1    2  502  501  0.18241899961E+02 -0.12168997689E+02  0.64765315414E+02  0.68376878400E+02  0.00000000000E+00 0. -1.
<scales pt_clust_5="13000.00000" pt_clust_6="13000.00000" pt_clust_7="13000.00000" pt_clust_8="13000.00000" pt_clust_9="21.92832"></scales>
<clustering>
<clus scale="   21.928">  1  9  2 -1</clus>
<clus scale="   79.539">  5  6 -1 -1</clus>
<clus scale="   88.486">  7  8 -1 -1</clus>
<clus scale="  166.372">  1  5  2 -1</clus>
<clus scale="   21.928">  1  5  2 -1</clus>
</clustering>
</event>
<event>
 9    1  0.2374319E-005  0.1220424E+03  0.7546771E-02  0.1240205E+00
          1   -1    0    0  502    0  0.00000000000E+00  0.00000000000E+00  0.15818698714E+03  0.15818698714E+03  0.00000000000E+00 0. -1.
         -2   -1    0    0    0  501 -0.00000000000E+00 -0.00000000000E+00 -0.17833952844E+03  0.17833952844E+03  0.00000000000E+00 0.  1.
        -24    2    1    2    0    0 -0.70314588892E+02  0.60530113763E+02 -0.10325949445E+03  0.16322346890E+03  0.85856517071E+02 0.  0.
         23    2    1    2    0    0  0.51886982837E+02 -0.42442732348E+02  0.29828241194E+02  0.11409704041E+03  0.87377148848E+02 0.  0.
         11    1    3    3    0    0 -0.62906972185E+02  0.31962051693E+02 -0.17743088974E+02  0.72757660107E+02  0.00000000000E+00 0. -1.
        -12    1    3    3    0    0 -0.74076167066E+01  0.28568062070E+02 -0.85516405474E+02  0.90465808795E+02  0.00000000000E+00 0.  1.
        -13    1    4    4    0    0  0.14941660490E+02 -0.36981971187E+02 -0.25502076556E+02  0.47342109372E+02  0.00000000000E+00 0.  1.
         13    1    4    4    0    0  0.36945322347E+02 -0.54607611602E+01  0.55330317750E+02  0.66754931040E+02  0.00000000000E+00 0. -1.
         21    1    1    2  502  501  0.18427606055E+02 -0.18087381415E+02  0.53278711953E+02  0.59206006273E+02  0.00000000000E+00 0. -1.
<scales pt_clust_5="13000.00000" pt_clust_6="13000.00000" pt_clust_7="13000.00000" pt_clust_8="13000.00000" pt_clust_9="25.82112"></scales>
<clustering>
<clus scale="   25.821">  1  9  2 -1</clus>
<clus scale="   85.857">  5  6 -1 -1</clus>
<clus scale="   87.377">  7  8 -1 -1</clus>
<clus scale="  120.958">  2  5  1 -1</clus>
<clus scale="   25.821">  1  5  2 -1</clus>
</clustering>
</event>
<event>
 9    1  0.2374319E-005  0.9346575E+02  0.7546771E-02  0.1300023E+00
         -2   -1    0    0    0  501 -0.00000000000E+00  0.00000000000E+00  0.75431834228E+02  0.75431834228E+02  0.00000000000E+00 0.  1.
          1   -1    0    0  502    0  0.00000000000E+00 -0.00000000000E+00 -0.62329504067E+03  0.62329504067E+03  0.00000000000E+00 0. -1.
         23    2    1    2    0    0 -0.16707831324E+02  0.15752140444E+02  0.36843829079E+02  0.10055578587E+03  0.90701250123E+02 0.  0.
        -24    2    1    2    0    0  0.32288929368E+02  0.12346558530E+02 -0.49537118140E+03  0.50323320233E+03  0.81584533435E+02 0.  0.
         11    1    4    4    0    0  0.29570765610E+02 -0.31867157917E+02 -0.21093523389E+03  0.21536856509E+03  0.00000000000E+00 0. -1.
        -12    1    4    4    0    0  0.27181637581E+01  0.44213716446E+02 -0.28443594751E+03  0.28786463724E+03  0.00000000000E+00 0.  1.
        -13    1    3    3    0    0 -0.30054133649E+02 -0.17450496672E+01 -0.22290933828E+02  0.37459069378E+02  0.00000000000E+00 0. -1.
         13    1    3    3    0    0  0.13346302326E+02  0.17497190111E+02  0.59134762907E+02  0.63096716488E+02  0.00000000000E+00 0.  1.
         21    1    1    2  502  501 -0.15581098045E+02 -0.28098698974E+02 -0.89335854120E+02  0.94937886703E+02  0.00000000000E+00 0.  1.
<scales pt_clust_5="13000.00000" pt_clust_6="13000.00000" pt_clust_7="13000.00000" pt_clust_8="13000.00000" pt_clust_9="32.12954"></scales>
<clustering>
<clus scale="   32.130">  2  9  1 -1</clus>
<clus scale="   81.585">  5  6 -1 -1</clus>
<clus scale="   84.647">  2  5  1 -1</clus>
<clus scale="   90.701">  7  8 -1 -1</clus>
<clus scale="   32.130">  2  5  1 -1</clus>
</clustering>
</event>
<event>
 9    1  0.2374319E-005  0.1225019E+03  0.7546771E-02  0.1239047E+00
         -2   -1    0    0    0  501 -0.00000000000E+00  0.00000000000E+00  0.74796791339E+02  0.74796791339E+02  0.00000000000E+00 0.  1.
          1   -1    0    0  502    0  0.00000000000E+00 -0.00000000000E+00 -0.31064511195E+03  0.31064511195E+03  0.00000000000E+00 0. -1.
         23    2    1    2    0    0 -0.84323819841E+02 -0.36640077080E+02 -0.36373838668E+02  0.13267239968E+03  0.88464160300E+02 0.  0.
        -24    2    1    2    0    0  0.50370276490E+02  0.53010380711E+02 -0.16920105638E+03  0.20442376705E+03  0.88390122978E+02 0.  0.
         13    1    4    4    0    0  0.47052357210E+02  0.29660359332E+02 -0.17191011629E+03  0.18068411473E+03  0.00000000000E+00 0. -1.
        -14    1    4    4    0    0  0.33179192797E+01  0.23350021379E+02  0.27090599089E+01  0.23739652321E+02  0.00000000000E+00 0.  1.
        -11    1    3    3    0    0 -0.31829111338E+02 -0.35789890869E+02  0.23239273979E+02  0.53236007289E+02  0.00000000000E+00 0.  1.
         11    1    3    3    0    0 -0.52494708504E+02 -0.85018621068E+00 -0.59613112647E+02  0.79436392396E+02  0.00000000000E+00 0. -1.
         21    1    1    2  502  501  0.33953543351E+02 -0.16370303631E+02 -0.30273425562E+02  0.48345736548E+02  0.00000000000E+00 0.  1.
<scales pt_clust_5="13000.00000" pt_clust_6="13000.00000" pt_clust_7="13000.00000" pt_clust_8="13000.00000" pt_clust_9="37.69390"></scales>
<clustering>
<clus scale="   37.694">  2  9  1 -1</clus>
<clus scale="   88.390">  5  6 -1 -1</clus>
<clus scale="   88.464">  7  8 -1 -1</clus>
<clus scale="  122.448">  2  5  1 -1</clus>
<clus scale="   37.694">  2  5  1 -1</clus>
</clustering>
</event>
<event>
 9    1  0.2374319E-005  0.9712532E+02  0.7546771E-02  0.1292111E+00
          1   -1    0    0  502    0  0.00000000000E+00  0.00000000000E+00  0.24791764754E+03  0.24791764754E+03  0.00000000000E+00 0. -1.
         -2   -1    0    0    0  501 -0.00000000000E+00 -0.00000000000E+00 -0.68163280326E+02  0.68163280326E+02  0.00000000000E+00 0.  1.
        -24    2    1    2    0    0  0.15669221580E+02  0.11323921044E+01 -0.39467622993E+01  0.86188595723E+02  0.84652762999E+02 0.  0.
         23    2    1    2    0    0 -0.38120657729E+02 -0.23099836994E+02  0.12266772723E+03  0.16125042210E+03  0.94697097675E+02 0.  0.
         13    1    3    3    0    0  0.43312029035E+02 -0.20034694969E+02  0.98694654024E+01  0.48731172867E+02  0.00000000000E+00 0. -1.
        -14    1    3    3    0    0 -0.27642807455E+02  0.21167087073E+02 -0.13816227702E+02  0.37457422857E+02  0.00000000000E+00 0.  1.
        -13    1    4    4    0    0 -0.58313029374E+02 -0.21364726413E+02  0.35034352883E+02  0.71304044846E+02  0.00000000000E+00 0.  1.
         13    1    4    4    0    0  0.20192371645E+02 -0.17351105815E+01  0.87633374346E+02  0.89946377251E+02  0.00000000000E+00 0. -1.
         21    1    1    2  502  501  0.22451436150E+02  0.21967444890E+02  0.61033402283E+02  0.68641910043E+02  0.00000000000E+00 0.  1.
<scales pt_clust_5="13000.00000" pt_clust_6="13000.00000" pt_clust_7="13000.00000" pt_clust_8="13000.00000" pt_clust_9="31.41076"></scales>
<clustering>
<clus scale="   31.411">  1  9  2 -1</clus>
<clus scale="   84.653">  5  6 -1 -1</clus>
<clus scale="   87.361">  2  5  1 -1</clus>
<clus scale="   94.697">  7  8 -1 -1</clus>
<clus scale="   31.411">  1  5  2 -1</clus>
</clustering>
</event>
<event>
 9    1  0.2374319E-005  0.9256793E+02  0.7546771E-02  0.1302664E+00
          1   -1    0    0  502    0  0.00000000000E+00  0.00000000000E+00  0.17750812946E+03  0.17750812946E+03  0.00000000000E+00 0. -1.
         -2   -1    0    0    0  501 -0.00000000000E+00 -0.00000000000E+00 -0.70972063525E+02  0.70972063525E+02  0.00000000000E+00 0.  1.
        -24    2    1    2    0    0 -0.14512630456E+02  0.78316417729E+01  0.18599482785E+01  0.83253397788E+02  0.81582582577E+02 0.  0.
         23    2    1    2    0    0  0.13456922063E+02  0.12684050298E+02  0.10986302969E+03  0.14403924703E+03  0.91298661044E+02 0.  0.
         11    1    3    3    0    0 -0.11122614892E+02 -0.28201613558E+02  0.25842989299E+02  0.39835959449E+02  0.00000000000E+00 0. -1.
        -12    1    3    3    0    0 -0.33900155643E+01  0.36033255331E+02 -0.23983041020E+02  0.43417438339E+02  0.00000000000E+00 0.  1.
        -13    1    4    4    0    0  0.12017437071E+02 -0.37723666221E+02  0.67150874154E+02  0.77953407152E+02  0.00000000000E+00 0. -1.
         13    1    4    4    0    0  0.14394849920E+01  0.50407716518E+02  0.42712155532E+02  0.66085839874E+02  0.00000000000E+00 0.  1.
         21    1    1    2  502  501  0.10557083936E+01 -0.20515692070E+02 -0.51869120254E+01  0.21187548176E+02  0.00000000000E+00 0. -1.
<scales pt_clust_5="13000.00000" pt_clust_6="13000.00000" pt_clust_7="13000.00000" pt_clust_8="13000.00000" pt_clust_9="20.54284"></scales>
<clustering>
<clus scale="   20.543">  2  9  1 -1</clus>
<clus scale="   81.583">  5  6 -1 -1</clus>
<clus scale="   83.001">  2  5  1 -1</clus>
<clus scale="   91.299">  7  8 -1 -1</clus>
<clus scale="   92.568">  1  5  2 -1</clus>
</clustering>
</event>
<event>
 9    1  0.2374319E-005  0.1014916E+03  0.7546771E-02  0.1282333E+00
          1   -1    0    0  502    0  0.00000000000E+00  0.00000000000E+00  0.98253966394E+03  0.98253966394E+03  0.00000000000E+00 0. -1.
         -2   -1    0    0    0  501 -0.00000000000E+00 -0.00000000000E+00 -0.19450607839E+02  0.19450607839E+02  0.00000000000E+00 0.  1.
         23    2    1    2    0    0 -0.37403803652E+02  0.18001952920E+02  0.16694564637E+03  0.19434259687E+03  0.90416156060E+02 0.  0.
        -24    2    1    2    0    0  0.44535983562E+02 -0.48673708362E+02  0.64727737389E+03  0.65548749222E+03  0.79644648191E+02 0.  0.
         13    1    4    4    0    0  0.34079766273E+02  0.12588766751E+02  0.14977469126E+03  0.15411802509E+03  0.00000000000E+00 0. -1.
        -14    1    4    4    0    0  0.10456217288E+02 -0.61262475112E+02  0.49750268263E+03  0.50136946712E+03  0.00000000000E+00 0.  1.
        -11    1    3    3    0    0  0.23818986833E+02 -0.16533126937E+02  0.54546668340E+02  0.61774003004E+02  0.00000000000E+00 0. -1.
         11    1    3    3    0    0 -0.61222790485E+02  0.34535079857E+02  0.11239897803E+03  0.13256859386E+03  0.00000000000E+00 0.  1.
         21    1    1    2  502  501 -0.71321799096E+01  0.30671755442E+02  0.14886603584E+03  0.15216018269E+03  0.00000000000E+00 0.  1.
<scales pt_clust_5="13000.00000" pt_clust_6="13000.00000" pt_clust_7="13000.00000" pt_clust_8="13000.00000" pt_clust_9="31.49007"></scales>
<clustering>
<clus scale="   31.490">  1  9  2 -1</clus>
<clus scale="   79.645">  5  6 -1 -1</clus>
<clus scale="   90.416">  7  8 -1 -1</clus>
<clus scale="   92.026">  1  5  2 -1</clus>
<clus scale="   31.490">  1  5  2 -1</clus>
</clustering>
</event>
<event>
 9    1  0.2374319E-005  0.9035484E+02  0.7546771E-02  0.1305320E+00
          1   -1    0    0  502    0  0.00000000000E+00  0.00000000000E+00  0.30037162920E+02  0.30037162920E+02  0.00000000000E+00 0. -1.
         -2   -1    0    0    0  501 -0.00000000000E+00 -0.00000000000E+00 -0.43027793699E+03  0.43027793699E+03  0.00000000000E+00 0.  1.
        -24    2    1    2    0    0 -0.20088352676E+02  0.17892780485E+01 -0.19569515537E+03  0.21270796462E+03  0.80878556794E+02 0.  0.
         23    2    1    2    0    0  0.14655865574E+02  0.32863059057E+02 -0.98555390539E+02  0.13596384239E+03  0.86476738999E+02 0.  0.
         11    1    3    3    0    0 -0.57582881171E+01 -0.38001747565E+02 -0.11992357297E+03  0.12593233919E+03  0.00000000000E+00 0. -1.
        -12    1    3    3    0    0 -0.14330064559E+02  0.39791025613E+02 -0.75771582398E+02  0.86775625430E+02  0.00000000000E+00 0.  1.
        -11    1    4    4    0    0  0.49034092848E+02  0.31389010105E+02 -0.71409433920E+02  0.92135332362E+02  0.00000000000E+00 0. -1.
         11    1    4    4    0    0 -0.34378227274E+02  0.14740489519E+01 -0.27145956619E+02  0.43828510031E+02  0.00000000000E+00 0.  1.
         21    1    1    2  502  501  0.54324871018E+01 -0.34652337105E+02 -0.10599022816E+03  0.11164329289E+03  0.00000000000E+00 0. -1.
<scales pt_clust_5="13000.00000" pt_clust_6="13000.00000" pt_clust_7="13000.00000" pt_clust_8="13000.00000" pt_clust_9="35.07558"></scales>
<clustering>
<clus scale="   35.076">  2  9  1 -1</clus>
<clus scale="   80.879">  5  6 -1 -1</clus>
<clus scale="   85.012">  2  5  1 -1</clus>
<clus scale="   86.477">  7  8 -1 -1</clus>
<clus scale="   90.355">  1  5  2 -1</clus>
</clustering>
</event>
<event>
 9    1  0.2374319E-005  0.1461020E+03  0.7546771E-02  0.1207576E+00
         -2   -1    0    0    0  501 -0.00000000000E+00  0.00000000000E+00  0.76906079211E+03  0.76906079211E+03  0.00000000000E+00 0.  1.
          1   -1    0    0  502    0  0.00000000000E+00 -0.00000000000E+00 -0.67479694738E+02  0.67479694738E+02  0.00000000000E+00 0. -1.
        -24    2    1    2    0    0 -0.74584880490E+02  0.54093809294E+02  0.37741260864E+03  0.39689240349E+03  0.81205037959E+02 0.  0.
         23    2    1    2    0    0 -0.10764607851E+02 -0.13706731718E+03  0.12468728571E+03  0.20735109989E+03  0.92435021420E+02 0.  0.
         11    1    3    3    0    0 -0.22314939571E+02  0.65579361302E+02  0.21689181506E+03  0.22768545978E+03  0.00000000000E+00 0. -1.
        -12    1    3    3    0    0 -0.52269940919E+02 -0.11485552008E+02  0.16052079358E+03  0.16920694371E+03  0.00000000000E+00 0.  1.
        -11    1    4    4    0    0 -0.24492738003E+02 -0.48360755700E+02  0.61471322889E+00  0.54212865439E+02  0.00000000000E+00 0.  1.
         11    1    4    4    0    0  0.13728130152E+02 -0.88706561477E+02  0.12407257248E+03  0.15313823445E+03  0.00000000000E+00 0. -1.
         21    1    1    2  502  501  0.85349488340E+02  0.82973507884E+02  0.19948120302E+03  0.23229698347E+03  0.00000000000E+00 0. -1.
<scales pt_clust_5="13000.00000" pt_clust_6="13000.00000" pt_clust_7="13000.00000" pt_clust_8="13000.00000" pt_clust_9="119.03419"></scales>
<clustering>
<clus scale="   81.205">  5  6 -1 -1</clus>
<clus scale="   92.435">  7  8 -1 -1</clus>
<clus scale="  119.034">  1  9  2 -1</clus>
<clus scale="  139.269">  1  5  2 -1</clus>
<clus scale="  146.102">  2  5  1 -1</clus>
</clustering>
</event>
<event>
 9    1  0.2374319E-005  0.1061684E+03  0.7546771E-02  0.1272982E+00
          1   -1    0    0  502    0  0.00000000000E+00  0.00000000000E+00  0.32316611619E+03  0.32316611619E+03  0.00000000000E+00 0. -1.
         -2   -1    0    0    0  501 -0.00000000000E+00 -0.00000000000E+00 -0.57108722958E+02  0.57108722958E+02  0.00000000000E+00 0.  1.
         23    2    1    2    0    0 -0.49956440158E+01  0.53480004086E+02  0.24705959871E+02  0.10939436312E+03  0.92041702145E+02 0.  0.
        -24    2    1    2    0    0 -0.16586921796E+02 -0.51403253523E+02  0.16255255878E+03  0.18915298569E+03  0.80237754111E+02 0.  0.
         13    1    4    4    0    0  0.13664029349E+02 -0.42607660983E+02  0.14769015310E+03  0.15431947315E+03  0.00000000000E+00 0. -1.
        -14    1    4    4    0    0 -0.30250951145E+02 -0.87955925402E+01  0.14862405678E+02  0.34833512540E+02  0.00000000000E+00 0.  1.
        -13    1    3    3    0    0  0.46654754817E+01  0.79041640891E+02  0.19994582359E+02  0.81664747473E+02  0.00000000000E+00 0.  1.
         13    1    3    3    0    0 -0.96611194975E+01 -0.25561636804E+02  0.47113775124E+01  0.27729615650E+02  0.00000000000E+00 0. -1.
         21    1    1    2  502  501  0.21582565812E+02 -0.20767505632E+01  0.78798874589E+02  0.81727490335E+02  0.00000000000E+00 0.  1.
<scales pt_clust_5="13000.00000" pt_clust_6="13000.00000" pt_clust_7="13000.00000" pt_clust_8="13000.00000" pt_clust_9="21.68225"></scales>
<clustering>
<clus scale="   21.682">  1  9  2 -1</clus>
<clus scale="   80.238">  5  6 -1 -1</clus>
<clus scale="   92.042">  7  8 -1 -1</clus>
<clus scale="   96.115">  1  5  2 -1</clus>
<clus scale="   21.682">  1  5  2 -1</clus>
</clustering>
</event>
<event>
 9    1  0.2374319E-005  0.1136912E+03  0.7546771E-02  0.1256749E+00
         -2   -1    0    0    0  501 -0.00000000000E+00  0.00000000000E+00  0.98839949422E+02  0.98839949422E+02  0.00000000000E+00 0.  1.
          1   -1    0    0  502    0  0.00000000000E+00 -0.00000000000E+00 -0.46232938160E+03  0.46232938160E+03  0.00000000000E+00 0. -1.
        -24    2    1    2    0    0 -0.55829860628E+02  0.32371025648E+02  0.34043991399E+02  0.11178113036E+03  0.84682767519E+02 0.  0.
         23    2    1    2    0    0  0.90388462871E+02  0.17937125659E+02 -0.17323326000E+03  0.21693224686E+03  0.92509581455E+02 0.  0.
         11    1    3    3    0    0 -0.34559589870E+00  0.45232412712E+02 -0.37161595473E+00  0.45235259418E+02  0.00000000000E+00 0. -1.
        -12    1    3    3    0    0 -0.55484264729E+02 -0.12861387063E+02  0.34415607354E+02  0.66545870941E+02  0.00000000000E+00 0.  1.
        -13    1    4    4    0    0  0.29864135571E+02  0.50892769216E+02 -0.10186563797E+03  0.11772233752E+03  0.00000000000E+00 0. -1.
         13    1    4    4    0    0  0.60524327300E+02 -0.32955643558E+02 -0.71367622028E+02  0.99209909341E+02  0.00000000000E+00 0.  1.
         21    1    1    2  502  501 -0.34558602243E+02 -0.50308151307E+02 -0.22430016357E+03  0.23245595380E+03  0.00000000000E+00 0.  1.
<scales pt_clust_5="13000.00000" pt_clust_6="13000.00000" pt_clust_7="13000.00000" pt_clust_8="13000.00000" pt_clust_9="61.03447"></scales>
<clustering>
<clus scale="   61.034">  2  9  1 -1</clus>
<clus scale="   84.683">  5  6 -1 -1</clus>
<clus scale="   92.510">  7  8 -1 -1</clus>
<clus scale="  107.419">  1  5  2 -1</clus>
<clus scale="   61.034">  2  5  1 -1</clus>
</clustering>
</event>
<event>
 9    1  0.2374319E-005  0.1412329E+03  0.7546771E-02  0.1214048E+00
          1   -1    0    0  502    0  0.00000000000E+00  0.00000000000E+00  0.49081747384E+03  0.49081747384E+03  0.00000000000E+00 0. -1.
         -2   -1    0    0    0  501 -0.00000000000E+00 -0.00000000000E+00 -0.58737003132E+02  0.58737003132E+02  0.00000000000E+00 0.  1.
        -24    2    1    2    0    0 -0.74595866480E+02 -0.83188223802E+02  0.10518182698E+03  0.17291975537E+03  0.79706970813E+02 0.  0.
         23    2    1    2    0    0  0.84427827579E+02  0.61189607662E+02  0.17616042859E+03  0.22398277738E+03  0.90904135257E+02 0.  0.
         13    1    3    3    0    0 -0.61478031704E+02 -0.95937670142E+01  0.53247890246E+02  0.81895827509E+02  0.00000000000E+00 0. -1.
        -14    1    3    3    0    0 -0.13117834775E+02 -0.73594456788E+02  0.51933936734E+02  0.91023927864E+02  0.00000000000E+00 0.  1.
        -11    1    4    4    0    0  0.52545431640E+02  0.68792299363E+02  0.65449780903E+02  0.10852224038E+03  0.00000000000E+00 0.  1.
         11    1    4    4    0    0  0.31882395938E+02 -0.76026917017E+01  0.11071064769E+03  0.11546053700E+03  0.00000000000E+00 0. -1.
         21    1    1    2  502  501 -0.98319610991E+01  0.21998616141E+02  0.15073821514E+03  0.15265194422E+03  0.00000000000E+00 0.  1.
<scales pt_clust_5="13000.00000" pt_clust_6="13000.00000" pt_clust_7="13000.00000" pt_clust_8="13000.00000" pt_clust_9="24.09578"></scales>
<clustering>
<clus scale="   24.096">  1  9  2 -1</clus>
<clus scale="   79.707">  5  6 -1 -1</clus>
<clus scale="   90.904">  7  8 -1 -1</clus>
<clus scale="  134.300">  2  5  1 -1</clus>
<clus scale="   24.096">  1  5  2 -1</clus>
</clustering>
</event>
<event>
 9    1  0.2374319E-005  0.1062042E+03  0.7546771E-02  0.1272255E+00
         -2   -1    0    0    0  501 -0.00000000000E+00  0.00000000000E+00  0.13558687186E+03  0.13558687186E+03  0.00000000000E+00 0.  1.
          1   -1    0    0  502    0  0.00000000000E+00 -0.00000000000E+00 -0.16701157392E+03  0.16701157392E+03  0.00000000000E+00 0. -1.
         23    2    1    2    0    0 -0.37268590074E+02  0.37787045926E+02  0.67807428346E+02  0.12633976319E+03  0.92450417942E+02 0.  0.
        -24    2    1    2    0    0  0.73896555305E+01 -0.58394176254E+02 -0.44129292906E+02  0.11027590263E+03  0.82151648677E+02 0.  0.
         11    1    4    4    0    0 -0.27364323526E+02 -0.58595259725E+02 -0.37930436607E+02  0.74972852990E+02  0.00000000000E+00 0. -1.
        -12    1    4    4    0    0  0.34753979057E+02  0.20108347066E+00 -0.61988562993E+01  0.35303049645E+02  0.00000000000E+00 0.  1.
        -13    1    3    3    0    0  0.42730721100E+01  0.33394522898E+02  0.76581398632E+02  0.83655029265E+02  0.00000000000E+00 0.  1.
         13    1    3    3    0    0 -0.41541662184E+02  0.43925230281E+01 -0.87739702863E+01  0.42684733923E+02  0.00000000000E+00 0. -1.
         21    1    1    2  502  501  0.29878934543E+02  0.20607130328E+02 -0.55102837505E+02  0.65982779957E+02  0.00000000000E+00 0.  1.
<scales pt_clust_5="13000.00000" pt_clust_6="13000.00000" pt_clust_7="13000.00000" pt_clust_8="13000.00000" pt_clust_9="36.29607"></scales>
<clustering>
<clus scale="   36.296">  2  9  1 -1</clus>
<clus scale="   82.152">  5  6 -1 -1</clus>
<clus scale="   92.450">  7  8 -1 -1</clus>
<clus scale="   97.371">  2  5  1 -1</clus>
<clus scale="   36.296">  2  5  1 -1</clus>
</clustering>
</event>
<event>
 9    1  0.2374319E-005  0.1140300E+03  0.7546771E-02  0.1254997E+00
         -2   -1    0    0    0  501 -0.00000000000E+00  0.00000000000E+00  0.58522761701E+03  0.58522761701E+03  0.00000000000E+00 0.  1.
          1   -1    0    0  502    0  0.00000000000E+00 -0.00000000000E+00 -0.10886638369E+03  0.10886638369E+03  0.00000000000E+00 0. -1.
         23    2    1    2    0    0 -0.28873198587E+02  0.67356841224E+02  0.53568567809E+03  0.54768735277E+03  0.87359515932E+02 0.  0.
        -24    2    1    2    0    0  0.48263892202E+02 -0.58902215362E+02 -0.54621992731E+02  0.12473655903E+03  0.82321156479E+02 0.  0.
         13    1    4    4    0    0 -0.40605501043E+01 -0.47247276395E+02 -0.52981953873E+02  0.71104715948E+02  0.00000000000E+00 0. -1.
        -14    1    4    4    0    0  0.52324442306E+02 -0.11654938966E+02 -0.16400388580E+01  0.53631843082E+02  0.00000000000E+00 0.  1.
        -13    1    3    3    0    0 -0.35187549673E+02 -0.97515163130E+01  0.18499987112E+03  0.18856884164E+03  0.00000000000E+00 0.  1.
         13    1    3    3    0    0  0.63143510860E+01  0.77108357537E+02  0.35068580697E+03  0.35911851114E+03  0.00000000000E+00 0. -1.
         21    1    1    2  502  501 -0.19390693614E+02 -0.84546258620E+01 -0.47024520412E+01  0.21670088890E+02  0.00000000000E+00 0. -1.
<scales pt_clust_5="13000.00000" pt_clust_6="13000.00000" pt_clust_7="13000.00000" pt_clust_8="13000.00000" pt_clust_9="21.15372"></scales>
<clustering>
<clus scale="   21.154">  2  9  1 -1</clus>
<clus scale="   82.321">  5  6 -1 -1</clus>
<clus scale="   87.360">  7  8 -1 -1</clus>
<clus scale="  110.218">  2  5  1 -1</clus>
<clus scale="   21.154">  2  5  1 -1</clus>
</clustering>
</event>
<event>
 9    1  0.2374319E-005  0.1256945E+03  0.7546771E-02  0.1237602E+00
          1   -1    0    0  502    0  0.00000000000E+00  0.00000000000E+00  0.11952686009E+03  0.11952686009E+03  0.00000000000E+00 0. -1.
         -2   -1    0    0    0  501 -0.00000000000E+00 -0.00000000000E+00 -0.24536103421E+03  0.24536103421E+03  0.00000000000E+00 0.  1.
         23    2    1    2    0    0  0.72143771138E+02  0.36415471641E+02 -0.16709956771E+03  0.20777708061E+03  0.93371512836E+02 0.  0.
        -24    2    1    2    0    0 -0.93003180124E+02 -0.29584070892E+02  0.23639800645E+02  0.12896042281E+03  0.80914409800E+02 0.  0.
         11    1    4    4    0    0 -0.54779536701E+02 -0.41859747117E+02 -0.17861830480E+02  0.71218544340E+02  0.00000000000E+00 0. -1.
        -12    1    4    4    0    0 -0.38223643423E+02  0.12275676225E+02  0.41501631125E+02  0.57741878470E+02  0.00000000000E+00 0.  1.
        -11    1    3    3    0    0  0.16811531454E+02 -0.31516992798E+02 -0.43818874810E+02  0.56533549460E+02  0.00000000000E+00 0. -1.
         11    1    3    3    0    0  0.55332239685E+02  0.67932464439E+02 -0.12328069290E+03  0.15124353115E+03  0.00000000000E+00 0.  1.
         21    1    1    2  502  501  0.20859408985E+02 -0.68314007494E+01  0.17625592952E+02  0.28150390874E+02  0.00000000000E+00 0.  1.
<scales pt_clust_5="13000.00000" pt_clust_6="13000.00000" pt_clust_7="13000.00000" pt_clust_8="13000.00000" pt_clust_9="21.94956"></scales>
<clustering>
<clus scale="   21.950">  1  9  2 -1</clus>
<clus scale="   80.914">  5  6 -1 -1</clus>
<clus scale="   93.372">  7  8 -1 -1</clus>
<clus scale="  116.739">  1  5  2 -1</clus>
<clus scale="   21.950">  1  5  2 -1</clus>
</clustering>
</event>
<event>
 9    1  0.2374319E-005  0.1434330E+03  0.7546771E-02  0.1208922E+00
          1   -1    0    0  502    0  0.00000000000E+00  0.00000000000E+00  0.15185405840E+03  0.15185405840E+03  0.00000000000E+00 0. -1.
         -2   -1    0    0    0  501 -0.00000000000E+00 -0.00000000000E+00 -0.42395921055E+03  0.42395921055E+03  0.00000000000E+00 0.  1.
         23    2    1    2    0    0  0.66622239832E+02 -0.69358294665E+02 -0.33997585920E+03  0.36477476700E+03  0.90708047722E+02 0.  0.
        -24    2    1    2    0    0 -0.56398479285E+02  0.97294476650E+02  0.92930514862E+02  0.17214185028E+03  0.91376870009E+02 0.  0.
         13    1    4    4    0    0 -0.37913354837E+02  0.13902055914E+02  0.74528499257E+02  0.84765481389E+02  0.00000000000E+00 0. -1.
        -14    1    4    4    0    0 -0.18485124447E+02  0.83392420736E+02  0.18402015605E+02  0.87376368890E+02  0.00000000000E+00 0.  1.
        -13    1    3    3    0    0  0.65343764827E+02 -0.54324820458E+01 -0.20866488842E+03  0.21872438164E+03  0.00000000000E+00 0. -1.
         13    1    3    3    0    0  0.12784750050E+01 -0.63925812619E+02 -0.13131097077E+03  0.14605038536E+03  0.00000000000E+00 0.  1.
         21    1    1    2  502  501 -0.10223760547E+02 -0.27936181985E+02 -0.25059807821E+02  0.38896651677E+02  0.00000000000E+00 0. -1.
<scales pt_clust_5="13000.00000" pt_clust_6="13000.00000" pt_clust_7="13000.00000" pt_clust_8="13000.00000" pt_clust_9="29.74820"></scales>
<clustering>
<clus scale="   29.748">  2  9  1 -1</clus>
<clus scale="   90.708">  7  8 -1 -1</clus>
<clus scale="   91.377">  5  6 -1 -1</clus>
<clus scale="  143.008">  2  7  1 -1</clus>
<clus scale="  143.433">  1  5  2 -1</clus>
</clustering>
</event>
<event>
 9    1  0.2374319E-005  0.1078550E+03  0.7546771E-02  0.1268760E+00
         -2   -1    0    0    0  501 -0.00000000000E+00  0.00000000000E+00  0.86667426831E+02  0.86667426831E+02  0.00000000000E+00 0.  1.
          1   -1    0    0  502    0  0.00000000000E+00 -0.00000000000E+00 -0.56105745043E+03  0.56105745043E+03  0.00000000000E+00 0. -1.
        -24    2    1    2    0    0  0.57960980742E+02  0.12852812454E+01  0.46824268903E+02  0.11065965866E+03  0.81804160406E+02 0.  0.
         23    2    1    2    0    0 -0.37186759164E+02  0.16480006505E+02 -0.44204803868E+03  0.45331278894E+03  0.91823583240E+02 0.  0.
         13    1    3    3    0    0 -0.10421239861E+02  0.18123528260E+02 -0.69726461487E+01  0.22038201177E+02  0.00000000000E+00 0. -1.
        -14    1    3    3    0    0  0.68382220603E+02 -0.16838247014E+02  0.53796915052E+02  0.88621457482E+02  0.00000000000E+00 0.  1.
        -13    1    4    4    0    0  0.18330288055E+02  0.31332090642E+02 -0.98184955127E+02  0.10468039347E+03  0.00000000000E+00 0.  1.
         13    1    4    4    0    0 -0.55517047219E+02 -0.14852084136E+02 -0.34386308356E+03  0.34863239547E+03  0.00000000000E+00 0. -1.
         21    1    1    2  502  501 -0.20774221578E+02 -0.17765287751E+02 -0.79166253823E+02  0.83752429669E+02  0.00000000000E+00 0.  1.
<scales pt_clust_5="13000.00000" pt_clust_6="13000.00000" pt_clust_7="13000.00000" pt_clust_8="13000.00000" pt_clust_9="27.33448"></scales>
<clustering>
<clus scale="   27.334">  2  9  1 -1</clus>
<clus scale="   81.804">  5  6 -1 -1</clus>
<clus scale="   91.824">  7  8 -1 -1</clus>
<clus scale="   99.464">  1  5  2 -1</clus>
<clus scale="   27.334">  2  5  1 -1</clus>
</clustering>
</event>
<event>
 9    1  0.2374319E-005  0.1664267E+03  0.7546771E-02  0.1196109E+00
          1   -1    0    0  502    0  0.00000000000E+00  0.00000000000E+00  0.10369533095E+04  0.10369533095E+04  0.00000000000E+00 0. -1.
         -2   -1    0    0    0  501 -0.00000000000E+00 -0.00000000000E+00 -0.50876115137E+02  0.50876115137E+02  0.00000000000E+00 0.  1.
         23    2    1    2    0    0 -0.14570032471E+03 -0.42840116067E+02  0.22198293163E+03  0.28395849503E+03  0.91061214588E+02 0.  0.
        -24    2    1    2    0    0  0.53921727559E+02 -0.42882983032E+02  0.30893457158E+03  0.33170347512E+03  0.99197393898E+02 0.  0.
         13    1    4    4    0    0  0.24078037175E+02 -0.44675864327E+02  0.29387923130E+03  0.29822925295E+03  0.00000000000E+00 0. -1.
        -14    1    4    4    0    0  0.29843690384E+02  0.17928812956E+01  0.15055340279E+02  0.33474222171E+02  0.00000000000E+00 0.  1.
        -13    1    3    3    0    0 -0.60124619947E+02 -0.65122031813E+02  0.10933041805E+03  0.14074441112E+03  0.00000000000E+00 0. -1.
         13    1    3    3    0    0 -0.85575704764E+02  0.22281915746E+02  0.11265251357E+03  0.14321408391E+03  0.00000000000E+00 0.  1.
         21    1    1    2  502  501  0.91778597153E+02  0.85723099099E+02  0.45515969116E+03  0.47216745448E+03  0.00000000000E+00 0.  1.
<scales pt_clust_5="13000.00000" pt_clust_6="13000.00000" pt_clust_7="13000.00000" pt_clust_8="13000.00000" pt_clust_9="139.30436"></scales>
<clustering>
<clus scale="   91.061">  7  8 -1 -1</clus>
<clus scale="   99.197">  5  6 -1 -1</clus>
<clus scale="  120.775">  1  5  2 -1</clus>
<clus scale="  139.304">  1  9  2 -1</clus>
<clus scale="  120.775">  1  5  2 -1</clus>
</clustering>
</event>
<event>
 9    1  0.2374319E-005  0.2184095E+03  0.7546771E-02  0.1136169E+00
          1   -1    0    0  502    0  0.00000000000E+00  0.00000000000E+00  0.31244534349E+03  0.31244534349E+03  0.00000000000E+00 0. -1.
         -2   -1    0    0    0  501 -0.00000000000E+00 -0.00000000000E+00 -0.18296797438E+03  0.18296797438E+03  0.00000000000E+00 0.  1.
        -24    2    1    2    0    0 -0.16834395233E+03 -0.82211462191E+02  0.33884523472E+02  0.20493541269E+03  0.75841622110E+02 0.  0.
         23    2    1    2    0    0  0.20192554854E+03  0.58029194832E+02  0.98191300605E+02  0.24901397354E+03  0.90692408167E+02 0.  0.
         13    1    3    3    0    0 -0.94674009015E+02 -0.61085713961E+02 -0.15546414902E+02  0.11373795958E+03  0.00000000000E+00 0. -1.
        -14    1    3    3    0    0 -0.73669943310E+02 -0.21125748229E+02  0.49430938374E+02  0.91197453112E+02  0.00000000000E+00 0.  1.
        -11    1    4    4    0    0  0.97575546834E+02 -0.54401246591E+01  0.97362512929E+01  0.98210879670E+02  0.00000000000E+00 0. -1.
         11    1    4    4    0    0  0.10435000170E+03  0.63469319492E+02  0.88455049312E+02  0.15080309387E+03  0.00000000000E+00 0.  1.
         21    1    1    2  502  501 -0.33581596211E+02  0.24182267358E+02 -0.25984549665E+01  0.41463931638E+02  0.00000000000E+00 0. -1.
<scales pt_clust_5="13000.00000" pt_clust_6="13000.00000" pt_clust_7="13000.00000" pt_clust_8="13000.00000" pt_clust_9="41.38243"></scales>
<clustering>
<clus scale="   41.382">  2  9  1 -1</clus>
<clus scale="   75.842">  5  6 -1 -1</clus>
<clus scale="   90.692">  7  8 -1 -1</clus>
<clus scale="  212.672">  2  5  1 -1</clus>
<clus scale="  218.409">  1  5  2 -1</clus>
</clustering>
</event>
<event>
 9    1  0.2374319E-005  0.9623832E+02  0.7546771E-02  0.1293480E+00
          1   -1    0    0  502    0  0.00000000000E+00  0.00000000000E+00  0.17221343146E+03  0.17221343146E+03  0.00000000000E+00 0. -1.
         -2   -1    0    0    0  501 -0.00000000000E+00 -0.00000000000E+00 -0.14670028624E+03  0.14670028624E+03  0.00000000000E+00 0.  1.
         23    2    1    2    0    0  0.25053703714E+02 -0.23594365406E+02 -0.10608349500E+03  0.14323354277E+03  0.89876346803E+02 0.  0.
        -24    2    1    2    0    0 -0.76627261390E+01  0.40458788577E+02  0.11514422576E+03  0.14639644546E+03  0.80486617338E+02 0.  0.
         13    1    4    4    0    0 -0.35387608350E+02 -0.31006798493E+01  0.66823492910E+02  0.75678770107E+02  0.00000000000E+00 0. -1.
        -14    1    4    4    0    0  0.27724882211E+02  0.43559468426E+02  0.48320732853E+02  0.70717675348E+02  0.00000000000E+00 0.  1.
        -13    1    3    3    0    0  0.49374327644E+02 -0.34724686009E+02 -0.98341170123E+02  0.11538896737E+03  0.00000000000E+00 0.  1.
         13    1    3    3    0    0 -0.24320623930E+02  0.11130320603E+02 -0.77423248795E+01  0.27844575407E+02  0.00000000000E+00 0. -1.
         21    1    1    2  502  501 -0.17390977575E+02 -0.16864423171E+02  0.16452414464E+02  0.29283729469E+02  0.00000000000E+00 0.  1.
<scales pt_clust_5="13000.00000" pt_clust_6="13000.00000" pt_clust_7="13000.00000" pt_clust_8="13000.00000" pt_clust_9="24.22509"></scales>
<clustering>
<clus scale="   24.225">  1  9  2 -1</clus>
<clus scale="   80.487">  5  6 -1 -1</clus>
<clus scale="   87.534">  1  5  2 -1</clus>
<clus scale="   89.876">  7  8 -1 -1</clus>
<clus scale="   24.225">  1  5  2 -1</clus>
</clustering>
</event>
<event>
 9    1  0.2374319E-005  0.1230859E+03  0.7546771E-02  0.1241136E+00
         -2   -1    0    0    0  501 -0.00000000000E+00  0.00000000000E+00  0.22467454111E+03  0.22467454111E+03  0.00000000000E+00 0.  1.
          1   -1    0    0  502    0  0.00000000000E+00 -0.00000000000E+00 -0.94901236911E+02  0.94901236911E+02  0.00000000000E+00 0. -1.
        -24    2    1    2    0    0  0.65797892346E+02 -0.58869649096E+02  0.14080610741E+03  0.18457475412E+03  0.80289985393E+02 0.  0.
         23    2    1    2    0    0 -0.56250891112E+02  0.41079849064E+02 -0.77855899957E+01  0.11455190138E+03  0.90607979499E+02 0.  0.
         11    1    3    3    0    0  0.25996852898E+02 -0.44899527599E+02  0.18308857041E+02  0.55018344081E+02  0.00000000000E+00 0. -1.
        -12    1    3    3    0    0  0.39801039448E+02 -0.13970121497E+02  0.12249725037E+03  0.12955641004E+03  0.00000000000E+00 0.  1.
        -11    1    4    4    0    0 -0.73233586663E+02  0.28490761991E+02  0.18590563826E+02  0.80749556022E+02  0.00000000000E+00 0. -1.
         11    1    4    4    0    0  0.16982695551E+02  0.12589087074E+02 -0.26376153821E+02  0.33802345361E+02  0.00000000000E+00 0.  1.
         21    1    1    2  502  501 -0.95470012341E+01  0.17789800032E+02 -0.32472132187E+01  0.20449122510E+02  0.00000000000E+00 0. -1.
<scales pt_clust_5="13000.00000" pt_clust_6="13000.00000" pt_clust_7="13000.00000" pt_clust_8="13000.00000" pt_clust_9="20.18966"></scales>
<clustering>
<clus scale="   20.190">  2  9  1 -1</clus>
<clus scale="   80.290">  5  6 -1 -1</clus>
<clus scale="   90.608">  7  8 -1 -1</clus>
<clus scale="  115.701">  1  5  2 -1</clus>
<clus scale="   20.190">  2  5  1 -1</clus>
</clustering>
</event>
<event>
 9    1  0.2374319E-005  0.1446055E+03  0.7546771E-02  0.1209821E+00
          1   -1    0    0  502    0  0.00000000000E+00  0.00000000000E+00  0.69394494261E+03  0.69394494261E+03  0.00000000000E+00 0. -1.
         -2   -1    0    0    0  501 -0.00000000000E+00 -0.00000000000E+00 -0.76829494070E+02  0.76829494070E+02  0.00000000000E+00 0.  1.
         23    2    1    2    0    0  0.26590304651E+02  0.11164996321E+03  0.12717448022E+02  0.14807610019E+03  0.92693254223E+02 0.  0.
        -24    2    1    2    0    0 -0.33040101358E+02 -0.83299340189E+02  0.46401792924E+03  0.47933892062E+03  0.80141960278E+02 0.  0.
         13    1    4    4    0    0  0.25311913676E+02 -0.13813895053E+02  0.91884349276E+02  0.96302909158E+02  0.00000000000E+00 0. -1.
        -14    1    4    4    0    0 -0.58352015034E+02 -0.69485445137E+02  0.37213357996E+03  0.38303601146E+03  0.00000000000E+00 0.  1.
        -13    1    3    3    0    0 -0.11412597574E+02  0.38004019557E+02  0.44223612130E+02  0.59416165778E+02  0.00000000000E+00 0. -1.
         13    1    3    3    0    0  0.38002902224E+02  0.73645943652E+02 -0.31506164109E+02  0.88659934417E+02  0.00000000000E+00 0.  1.
         21    1    1    2  502  501  0.64497967072E+01 -0.28350623021E+02  0.14038007128E+03  0.14335941586E+03  0.00000000000E+00 0. -1.
<scales pt_clust_5="13000.00000" pt_clust_6="13000.00000" pt_clust_7="13000.00000" pt_clust_8="13000.00000" pt_clust_9="29.07504"></scales>
<clustering>
<clus scale="   29.075">  1  9  2 -1</clus>
<clus scale="   80.142">  5  6 -1 -1</clus>
<clus scale="   92.693">  7  8 -1 -1</clus>
<clus scale="  136.899">  1  5  2 -1</clus>
<clus scale="   29.075">  1  5  2 -1</clus>
</clustering>
</event>
<event>
 9    1  0.2374319E-005  0.2015964E+03  0.7546771E-02  0.1151769E+00
         -2   -1    0    0    0  501 -0.00000000000E+00  0.00000000000E+00  0.15196137969E+04  0.15196137969E+04  0.00000000000E+00 0.  1.
          1   -1    0    0  502    0  0.00000000000E+00 -0.00000000000E+00 -0.18623610454E+03  0.18623610454E+03  0.00000000000E+00 0. -1.
        -24    2    1    2    0    0  0.11238839107E+03  0.12809437699E+03  0.14408346982E+04  0.14531832999E+04  0.81839818899E+02 0.  0.
         23    2    1    2    0    0 -0.91286224327E+02 -0.60883743034E+02 -0.63354364385E+02  0.16955454622E+03  0.11267192968E+03 0.  0.
         13    1    3    3    0    0  0.74221292952E+02  0.61732411887E+02  0.49968161102E+03  0.50892180480E+03  0.00000000000E+00 0. -1.
        -14    1    3    3    0    0  0.38167098113E+02  0.66361965106E+02  0.94115308713E+03  0.94426149514E+03  0.00000000000E+00 0.  1.
        -11    1    4    4    0    0  0.25934390816E+02 -0.78719866681E+01 -0.20401507339E+02  0.33923182380E+02  0.00000000000E+00 0.  1.
         11    1    4    4    0    0 -0.11722061514E+03 -0.53011756366E+02 -0.42952857045E+02  0.13563136383E+03  0.00000000000E+00 0. -1.
         21    1    1    2  502  501 -0.21102166739E+02 -0.67210633959E+02 -0.44102641399E+02  0.83112055303E+02  0.00000000000E+00 0. -1.
<scales pt_clust_5="13000.00000" pt_clust_6="13000.00000" pt_clust_7="13000.00000" pt_clust_8="13000.00000" pt_clust_9="70.44552"></scales>
<clustering>
<clus scale="   70.446">  2  9  1 -1</clus>
<clus scale="   81.840">  5  6 -1 -1</clus>
<clus scale="  112.672">  7  8 -1 -1</clus>
<clus scale="  186.129">  1  5  2 -1</clus>
<clus scale="   70.446">  2  5  1 -1</clus>
</clustering>
</event>
<event>
 9    1  0.2374319E-005  0.1431601E+03  0.7546771E-02  0.1213729E+00
         -2   -1    0    0    0  501 -0.00000000000E+00  0.00000000000E+00  0.19471118181E+03  0.19471118181E+03  0.00000000000E+00 0.  1.
          1   -1    0    0  502    0  0.00000000000E+00 -0.00000000000E+00 -0.31169646678E+03  0.31169646678E+03  0.00000000000E+00 0. -1.
         23    2    1    2    0    0 -0.10083099545E+03 -0.30970192837E+02  0.13572136240E+03  0.19894441246E+03  0.10016261053E+03 0.  0.
        -24    2    1    2    0    0  0.88568454116E+02  0.12728753450E+02 -0.10907796304E+03  0.16216244813E+03  0.79951643717E+02 0.  0.
         11    1    4    4    0    0  0.75662835240E+02 -0.19666940772E+02 -0.98435665001E+02  0.12570295677E+03  0.00000000000E+00 0. -1.
        -12    1    4    4    0    0  0.12905618876E+02  0.32395694222E+02 -0.10642298037E+02  0.36459491360E+02  0.00000000000E+00 0.  1.
        -11    1    3    3    0    0 -0.11696025356E+03 -0.12417313107E+02  0.94196256939E+02  0.15068784092E+03  0.00000000000E+00 0.  1.
         11    1    3    3    0    0  0.16129258113E+02 -0.18552879731E+02  0.41525105462E+02  0.48256571544E+02  0.00000000000E+00 0. -1.
         21    1    1    2  502  501  0.12262541334E+02  0.18241439388E+02 -0.14362868433E+03  0.14530078800E+03  0.00000000000E+00 0. -1.
<scales pt_clust_5="13000.00000" pt_clust_6="13000.00000" pt_clust_7="13000.00000" pt_clust_8="13000.00000" pt_clust_9="21.97999"></scales>
<clustering>
<clus scale="   21.980">  2  9  1 -1</clus>
<clus scale="   79.952">  5  6 -1 -1</clus>
<clus scale="  100.163">  7  8 -1 -1</clus>
<clus scale="  129.825">  2  5  1 -1</clus>
<clus scale="   21.980">  2  5  1 -1</clus>
</clustering>
</event>
<event>
 9    1  0.2374319E-005  0.1554829E+03  0.7546771E-02  0.1195942E+00
         -2   -1    0    0    0  501 -0.00000000000E+00  0.00000000000E+00  0.18491727820E+02  0.18491727820E+02  0.00000000000E+00 0.  1.
          1   -1    0    0  502    0  0.00000000000E+00 -0.00000000000E+00 -0.28203072366E+04  0.28203072366E+04  0.00000000000E+00 0. -1.
         23    2    1    2    0    0 -0.12501784239E+03 -0.10392772768E+03 -0.72302638765E+03  0.74711486087E+03  0.94778819348E+02 0.  0.
        -24    2    1    2    0    0  0.11246505057E+03  0.29073268891E+02 -0.16549972457E+04  0.16611491848E+04  0.83108894398E+02 0.  0.
         13    1    4    4    0    0  0.10502895813E+02 -0.18296050188E+02 -0.10610479054E+03  0.10818171217E+03  0.00000000000E+00 0. -1.
        -14    1    4    4    0    0  0.10196215476E+03  0.47369319080E+02 -0.15488924552E+04  0.15529674726E+04  0.00000000000E+00 0.  1.
        -11    1    3    3    0    0 -0.90365259738E+02 -0.11357975911E+03 -0.64597888538E+03  0.66208380300E+03  0.00000000000E+00 0. -1.
         11    1    3    3    0    0 -0.34652582651E+02  0.96520314311E+01 -0.77047502270E+02  0.85031057863E+02  0.00000000000E+00 0.  1.
         21    1    1    2  502  501  0.12552791814E+02  0.74854458786E+02 -0.42379187539E+03  0.43053491871E+03  0.00000000000E+00 0.  1.
<scales pt_clust_5="13000.00000" pt_clust_6="13000.00000" pt_clust_7="13000.00000" pt_clust_8="13000.00000" pt_clust_9="75.89969"></scales>
<clustering>
<clus scale="   75.900">  1  9  2 -1</clus>
<clus scale="   83.109">  5  6 -1 -1</clus>
<clus scale="   94.779">  7  8 -1 -1</clus>
<clus scale="  148.657">  2  5  1 -1</clus>
<clus scale="  148.657">  2  5  1 -1</clus>
</clustering>
</event>
<event>
 9    1  0.2374319E-005  0.3709494E+03  0.7546771E-02  0.1054593E+00
         -2   -1    0    0    0  501 -0.00000000000E+00  0.00000000000E+00  0.66677489381E+03  0.66677489381E+03  0.00000000000E+00 0.  1.
          1   -1    0    0  502    0  0.00000000000E+00 -0.00000000000E+00 -0.34286572897E+03  0.34286572897E+03  0.00000000000E+00 0. -1.
        -24    2    1    2    0    0 -0.18881679197E+03 -0.31544056792E+03  0.44862427313E+03  0.58532028125E+03  0.78622899849E+02 0.  0.
         23    2    1    2    0    0  0.13066974420E+03  0.30807299909E+03 -0.11215025060E+03  0.36437673567E+03  0.90604480962E+02 0.  0.
         11    1    3    3    0    0 -0.13405781182E+03 -0.21755373281E+03  0.25163957540E+03  0.35864132428E+03  0.00000000000E+00 0. -1.
        -12    1    3    3    0    0 -0.54758980146E+02 -0.97886835105E+02  0.19698469773E+03  0.22667895697E+03  0.00000000000E+00 0.  1.
        -11    1    4    4    0    0  0.45783422351E+02  0.34156090066E+02 -0.36539487762E+02  0.67807775488E+02  0.00000000000E+00 0.  1.
         11    1    4    4    0    0  0.84886321849E+02  0.27391690902E+03 -0.75610762839E+02  0.29656896018E+03  0.00000000000E+00 0. -1.
         21    1    1    2  502  501  0.58147047767E+02  0.73675688279E+01 -0.12564857685E+02  0.59943605856E+02  0.00000000000E+00 0. -1.
<scales pt_clust_5="13000.00000" pt_clust_6="13000.00000" pt_clust_7="13000.00000" pt_clust_8="13000.00000" pt_clust_9="58.61195"></scales>
<clustering>
<clus scale="   58.612">  2  9  1 -1</clus>
<clus scale="   78.623">  5  6 -1 -1</clus>
<clus scale="   90.604">  7  8 -1 -1</clus>
<clus scale="  368.206">  1  5  2 -1</clus>
<clus scale="   58.612">  2  5  1 -1</clus>
</clustering>
</event>
<event>
 9    1  0.2374319E-005  0.1298286E+03  0.7546771E-02  0.1241388E+00
          1   -1    0    0  502    0  0.00000000000E+00  0.00000000000E+00  0.38222219169E+03  0.38222219169E+03  0.00000000000E+00 0. -1.
         -2   -1    0    0    0  501 -0.00000000000E+00 -0.00000000000E+00 -0.12550935056E+03  0.12550935056E+03  0.00000000000E+00 0.  1.
         23    2    1    2    0    0 -0.19291763200E+02  0.32205993480E+02 -0.21328601416E+02  0.10038394496E+03  0.90623556676E+02 0.  0.
        -24    2    1    2    0    0 -0.84618665455E+02 -0.59408487666E+02  0.26994130264E+03  0.29963053671E+03  0.78869922709E+02 0.  0.
         13    1    4    4    0    0 -0.85026205483E+02 -0.73313074607E+02  0.25772826503E+03  0.28111940723E+03  0.00000000000E+00 0. -1.
        -14    1    4    4    0    0  0.40754002795E+00  0.13904586941E+02  0.12213037607E+02  0.18511129476E+02  0.00000000000E+00 0.  1.
        -11    1    3    3    0    0  0.26882475562E+02 -0.86635451108E+01 -0.26204653343E+02  0.38528020492E+02  0.00000000000E+00 0.  1.
         11    1    3    3    0    0 -0.46174238761E+02  0.40869538591E+02  0.48760519261E+01  0.61855924472E+02  0.00000000000E+00 0. -1.
         21    1    1    2  502  501  0.10391042865E+03  0.27202494186E+02  0.81001399045E+01  0.10771706058E+03  0.00000000000E+00 0.  1.
<scales pt_clust_5="13000.00000" pt_clust_6="13000.00000" pt_clust_7="13000.00000" pt_clust_8="13000.00000" pt_clust_9="103.12619"></scales>
<clustering>
<clus scale="   78.870">  5  6 -1 -1</clus>
<clus scale="   90.624">  7  8 -1 -1</clus>
<clus scale="   98.092">  2  7  1 -1</clus>
<clus scale="  103.126">  2  9  1 -1</clus>
<clus scale="  129.829">  1  5  2 -1</clus>
</clustering>
</event>
<event>
 9    1  0.2374319E-005  0.9896117E+02  0.7546771E-02  0.1286866E+00
         -2   -1    0    0    0  501 -0.00000000000E+00  0.00000000000E+00  0.20977589033E+02  0.20977589033E+02  0.00000000000E+00 0.  1.
          1   -1    0    0  502    0  0.00000000000E+00 -0.00000000000E+00 -0.66371431078E+03  0.66371431078E+03  0.00000000000E+00 0. -1.
         23    2    1    2    0    0  0.30068281629E+02  0.32655066255E+02 -0.15480270405E+03  0.18441235787E+03  0.89853133732E+02 0.  0.
        -24    2    1    2    0    0 -0.35446941766E+02 -0.12587979692E+02 -0.40833560244E+03  0.41801456969E+03  0.81137373279E+02 0.  0.
         11    1    4    4    0    0 -0.44180644940E+02 -0.34985089924E+02 -0.18511172899E+03  0.19349996929E+03  0.00000000000E+00 0. -1.
        -12    1    4    4    0    0  0.87337031736E+01  0.22397110232E+02 -0.22322387344E+03  0.22451460040E+03  0.00000000000E+00 0.  1.
        -11    1    3    3    0    0 -0.30368208939E+02  0.24872002231E+02 -0.58430129820E+02  0.70391225873E+02  0.00000000000E+00 0. -1.
         11    1    3    3    0    0  0.60436490569E+02  0.77830640233E+01 -0.96372574226E+02  0.11402113199E+03  0.00000000000E+00 0.  1.
         21    1    1    2  502  501  0.53786601370E+01 -0.20067086563E+02 -0.79598415266E+02  0.82264972259E+02  0.00000000000E+00 0.  1.
<scales pt_clust_5="13000.00000" pt_clust_6="13000.00000" pt_clust_7="13000.00000" pt_clust_8="13000.00000" pt_clust_9="20.77542"></scales>
<clustering>
<clus scale="   20.775">  2  9  1 -1</clus>
<clus scale="   81.137">  5  6 -1 -1</clus>
<clus scale="   89.853">  7  8 -1 -1</clus>
<clus scale="   91.121">  2  5  1 -1</clus>
<clus scale="   20.775">  2  5  1 -1</clus>
</clustering>
</event>
<event>
 9    1  0.2374319E-005  0.9201835E+02  0.7546771E-02  0.1305434E+00
         -2   -1    0    0    0  501 -0.00000000000E+00  0.00000000000E+00  0.13283553917E+03  0.13283553917E+03  0.00000000000E+00 0.  1.
          1   -1    0    0  502    0  0.00000000000E+00 -0.00000000000E+00 -0.26531755957E+03  0.26531755957E+03  0.00000000000E+00 0. -1.
         23    2    1    2    0    0 -0.13638431003E+02  0.86155129277E+01  0.95055798059E+02  0.13245145603E+03  0.90816020598E+02 0.  0.
        -24    2    1    2    0    0  0.17565822262E+02  0.20008436758E+02 -0.80476556531E+02  0.11582913136E+03  0.78936784000E+02 0.  0.
         13    1    4    4    0    0  0.10670652990E+02 -0.29217101295E+02 -0.45236035726E+02  0.54898094425E+02  0.00000000000E+00 0. -1.
        -14    1    4    4    0    0  0.68951692719E+01  0.49225538053E+02 -0.35240520805E+02  0.60931036939E+02  0.00000000000E+00 0.  1.
        -11    1    3    3    0    0 -0.32718121165E+02 -0.10036113856E+02  0.99662747747E+02  0.10537486571E+03  0.00000000000E+00 0.  1.
         11    1    3    3    0    0  0.19079690162E+02  0.18651626784E+02 -0.46069496878E+01  0.27076590328E+02  0.00000000000E+00 0. -1.
         21    1    1    2  502  501 -0.39273912587E+01 -0.28623949685E+02 -0.14706126192E+03  0.14987251134E+03  0.00000000000E+00 0. -1.
<scales pt_clust_5="13000.00000" pt_clust_6="13000.00000" pt_clust_7="13000.00000" pt_clust_8="13000.00000" pt_clust_9="28.89213"></scales>
<clustering>
<clus scale="   28.892">  2  9  1 -1</clus>
<clus scale="   78.937">  5  6 -1 -1</clus>
<clus scale="   80.317">  2  5  1 -1</clus>
<clus scale="   90.816">  7  8 -1 -1</clus>
<clus scale="   28.892">  2  5  1 -1</clus>
</clustering>
</event>
<event>
 9    1  0.2374319E-005  0.9438276E+02  0.7546771E-02  0.1316894E+00
          1   -1    0    0  502    0  0.00000000000E+00  0.00000000000E+00  0.29072145326E+03  0.29072145326E+03  0.00000000000E+00 0. -1.
         -2   -1    0    0    0  501 -0.00000000000E+00 -0.00000000000E+00 -0.11150995769E+03  0.11150995769E+03  0.00000000000E+00 0.  1.
        -24    2    1    2    0    0 -0.17792647270E+02  0.85575300350E+01 -0.79236972631E+02  0.99861772083E+02  0.57481006208E+02 0.  0.
         23    2    1    2    0    0 -0.13872899777E+02 -0.37033123602E+02  0.11525723462E+03  0.15297989467E+03  0.92491666905E+02 0.  0.
         13    1    3    3    0    0  0.58429765373E+01  0.27954322685E+02 -0.26813935617E+02  0.39173609418E+02  0.00000000000E+00 0. -1.
        -14    1    3    3    0    0 -0.23635623808E+02 -0.19396792650E+02 -0.52423037014E+02  0.60688162665E+02  0.00000000000E+00 0.  1.
        -13    1    4    4    0    0 -0.41846051738E+02 -0.14542498608E+02  0.15454925040E+02  0.46919409841E+02  0.00000000000E+00 0.  1.
         13    1    4    4    0    0  0.27973151960E+02 -0.22490624994E+02  0.99802309582E+02  0.10606048482E+03  0.00000000000E+00 0. -1.
         21    1    1    2  502  501  0.31665547048E+02  0.28475593567E+02  0.14319123358E+03  0.14938974421E+03  0.00000000000E+00 0. -1.
<scales pt_clust_5="13000.00000" pt_clust_6="13000.00000" pt_clust_7="13000.00000" pt_clust_8="13000.00000" pt_clust_9="42.58599"></scales>
<clustering>
<clus scale="   42.586">  1  9  2 -1</clus>
<clus scale="   57.481">  5  6 -1 -1</clus>
<clus scale="   60.477">  2  5  1 -1</clus>
<clus scale="   92.492">  7  8 -1 -1</clus>
<clus scale="   42.586">  1  5  2 -1</clus>
</clustering>
</event>
<event>
 9    1  0.2374319E-005  0.2913801E+03  0.7546771E-02  0.1090275E+00
          1   -1    0    0  502    0  0.00000000000E+00  0.00000000000E+00  0.47030011535E+03  0.47030011535E+03  0.00000000000E+00 0. -1.
         -2   -1    0    0    0  501 -0.00000000000E+00 -0.00000000000E+00 -0.23691244063E+03  0.23691244063E+03  0.00000000000E+00 0.  1.
         23    2    1    2    0    0 -0.20104955396E+03  0.14761944770E+03  0.53783530612E+02  0.27265101689E+03  0.96091021212E+02 0.  0.
        -24    2    1    2    0    0  0.23479644596E+03 -0.20967955884E+03  0.14117233007E+03  0.35414192429E+03  0.79949905125E+02 0.  0.
         13    1    4    4    0    0  0.43485510289E+02 -0.78874434434E+02  0.61558604776E+02  0.10909458206E+03  0.00000000000E+00 0. -1.
        -14    1    4    4    0    0  0.19131093567E+03 -0.13080512441E+03  0.79613725290E+02  0.24504734223E+03  0.00000000000E+00 0.  1.
        -11    1    3    3    0    0 -0.16481422711E+03  0.72196407714E+02  0.15398924293E+02  0.18059118920E+03  0.00000000000E+00 0.  1.
         11    1    3    3    0    0 -0.36235326849E+02  0.75423039984E+02  0.38384606320E+02  0.92059827691E+02  0.00000000000E+00 0. -1.
         21    1    1    2  502  501 -0.33746892000E+02  0.62060111145E+02  0.38431814044E+02  0.80419614807E+02  0.00000000000E+00 0.  1.
<scales pt_clust_5="13000.00000" pt_clust_6="13000.00000" pt_clust_7="13000.00000" pt_clust_8="13000.00000" pt_clust_9="70.64213"></scales>
<clustering>
<clus scale="   70.642">  1  9  2 -1</clus>
<clus scale="   79.950">  5  6 -1 -1</clus>
<clus scale="   96.091">  7  8 -1 -1</clus>
<clus scale="  286.463">  1  5  2 -1</clus>
<clus scale="   70.642">  1  5  2 -1</clus>
</clustering>
</event>
<event>
 9    1  0.2374319E-005  0.1059712E+03  0.7546771E-02  0.1272433E+00
         -4   -1    0    0    0  501 -0.00000000000E+00  0.00000000000E+00  0.11098508638E+03  0.11098508638E+03  0.00000000000E+00 0.  1.
          3   -1    0    0  502    0  0.00000000000E+00 -0.00000000000E+00 -0.15705879005E+03  0.15705879005E+03  0.00000000000E+00 0. -1.
         23    2    1    2    0    0  0.37772546042E+02  0.63171043852E+01 -0.76972984837E+01  0.99865270925E+02  0.91908394017E+02 0.  0.
        -24    2    1    2    0    0 -0.57613090751E+02  0.40521280571E+02 -0.44293102685E+02  0.11696836405E+03  0.82209955840E+02 0.  0.
         13    1    4    4    0    0 -0.29769140240E+02 -0.21417530444E+02 -0.30439916002E+02  0.47660264447E+02  0.00000000000E+00 0. -1.
        -14    1    4    4    0    0 -0.27843950511E+02  0.61938811015E+02 -0.13853186682E+02  0.69308099608E+02  0.00000000000E+00 0.  1.
        -13    1    3    3    0    0 -0.12920671368E+02 -0.32465380373E+02  0.33011661691E+01  0.35097612019E+02  0.00000000000E+00 0.  1.
         13    1    3    3    0    0  0.50693217411E+02  0.38782484758E+02 -0.10998464653E+02  0.64767658906E+02  0.00000000000E+00 0. -1.
         21    1    1    2  502  501  0.19840544708E+02 -0.46838384956E+02  0.59166974982E+01  0.51210241446E+02  0.00000000000E+00 0.  1.
<scales pt_clust_5="13000.00000" pt_clust_6="13000.00000" pt_clust_7="13000.00000" pt_clust_8="13000.00000" pt_clust_9="50.86729"></scales>
<clustering>
<clus scale="   50.867">  1  9  2 -1</clus>
<clus scale="   82.210">  5  6 -1 -1</clus>
<clus scale="   91.908">  7  8 -1 -1</clus>
<clus scale="   97.679">  2  5  1 -1</clus>
<clus scale="   97.679">  2  5  1 -1</clus>
</clustering>
</event>
<event>
 9    1  0.2374319E-005  0.9909087E+02  0.7546771E-02  0.1289886E+00
          1   -1    0    0  502    0  0.00000000000E+00  0.00000000000E+00  0.12215709308E+03  0.12215709308E+03  0.00000000000E+00 0. -1.
         -2   -1    0    0    0  501 -0.00000000000E+00 -0.00000000000E+00 -0.25278555861E+03  0.25278555861E+03  0.00000000000E+00 0.  1.
         23    2    1    2    0    0 -0.88874735205E+01  0.31710064878E+02 -0.17835773767E+03  0.20323492384E+03  0.91697526018E+02 0.  0.
        -24    2    1    2    0    0 -0.13977972410E+02 -0.55565697434E+02 -0.18380362903E+02  0.97799652051E+02  0.77097365434E+02 0.  0.
         11    1    4    4    0    0 -0.23325625774E+02 -0.35778574139E+01  0.21256406449E+02  0.31760363608E+02  0.00000000000E+00 0. -1.
        -12    1    4    4    0    0  0.93476533643E+01 -0.51987840020E+02 -0.39636769352E+02  0.66039288443E+02  0.00000000000E+00 0.  1.
        -11    1    3    3    0    0  0.38688405384E+02  0.15102024734E+02 -0.11507357683E+03  0.12233884071E+03  0.00000000000E+00 0.  1.
         11    1    3    3    0    0 -0.47575878905E+02  0.16608040144E+02 -0.63284160846E+02  0.80896083125E+02  0.00000000000E+00 0. -1.
         21    1    1    2  502  501  0.22865445930E+02  0.23855632556E+02  0.66109635046E+02  0.73908075798E+02  0.00000000000E+00 0. -1.
<scales pt_clust_5="13000.00000" pt_clust_6="13000.00000" pt_clust_7="13000.00000" pt_clust_8="13000.00000" pt_clust_9="33.04421"></scales>
<clustering>
<clus scale="   33.044">  1  9  2 -1</clus>
<clus scale="   77.097">  5  6 -1 -1</clus>
<clus scale="   85.759">  1  5  2 -1</clus>
<clus scale="   91.698">  7  8 -1 -1</clus>
<clus scale="   33.044">  1  5  2 -1</clus>
</clustering>
</event>
<event>
 9    1  0.2374319E-005  0.9030068E+02  0.7546771E-02  0.1306888E+00
          3   -1    0    0  502    0  0.00000000000E+00  0.00000000000E+00  0.15796326630E+03  0.15796326630E+03  0.00000000000E+00 0. -1.
         -4   -1    0    0    0  501 -0.00000000000E+00 -0.00000000000E+00 -0.22106183073E+03  0.22106183073E+03  0.00000000000E+00 0.  1.
         23    2    1    2    0    0 -0.26856738956E+02 -0.15520010695E+02 -0.17297350735E+03  0.19569753642E+03  0.86113508562E+02 0.  0.
        -24    2    1    2    0    0 -0.28110356348E+02  0.28986633250E+02  0.81878398014E+02  0.12018852342E+03  0.78171555308E+02 0.  0.
         11    1    4    4    0    0 -0.19035392267E+02  0.51089395914E+02  0.28088112174E+02  0.61330372403E+02  0.00000000000E+00 0. -1.
        -12    1    4    4    0    0 -0.90749640810E+01 -0.22102762663E+02  0.53790285840E+02  0.58858151017E+02  0.00000000000E+00 0.  1.
        -11    1    3    3    0    0  0.13075289437E+02 -0.41226073932E+02 -0.69706812727E+02  0.82034091123E+02  0.00000000000E+00 0. -1.
         11    1    3    3    0    0 -0.39932028394E+02  0.25706063237E+02 -0.10326669463E+03  0.11366344530E+03  0.00000000000E+00 0.  1.
         21    1    1    2  502  501  0.54967095304E+02 -0.13466622556E+02  0.27996544910E+02  0.63139037181E+02  0.00000000000E+00 0. -1.
<scales pt_clust_5="13000.00000" pt_clust_6="13000.00000" pt_clust_7="13000.00000" pt_clust_8="13000.00000" pt_clust_9="56.59268"></scales>
<clustering>
<clus scale="   56.593">  1  9  2 -1</clus>
<clus scale="   78.172">  5  6 -1 -1</clus>
<clus scale="   82.762">  1  5  2 -1</clus>
<clus scale="   86.114">  7  8 -1 -1</clus>
<clus scale="   56.593">  1  5  2 -1</clus>
</clustering>
</event>
<event>
 9    1  0.2374319E-005  0.1435283E+03  0.7546771E-02  0.1210782E+00
          1   -1    0    0  502    0  0.00000000000E+00  0.00000000000E+00  0.29465147577E+03  0.29465147577E+03  0.00000000000E+00 0. -1.
         -2   -1    0    0    0  501 -0.00000000000E+00 -0.00000000000E+00 -0.17396037227E+03  0.17396037227E+03  0.00000000000E+00 0.  1.
         23    2    1    2    0    0  0.87903923817E+02 -0.96474785653E+02  0.26990572310E+02  0.14976865056E+03  0.68320374771E+02 0.  0.
        -24    2    1    2    0    0  0.71722682403E+01  0.12647953885E+03  0.14332992519E+03  0.20747513985E+03  0.80336486237E+02 0.  0.
         13    1    4    4    0    0  0.36613541135E+02  0.11062450645E+03  0.10927827755E+03  0.15975003839E+03  0.00000000000E+00 0. -1.
        -14    1    4    4    0    0 -0.29441272895E+02  0.15855032399E+02  0.34051647641E+02  0.47725101457E+02  0.00000000000E+00 0.  1.
        -11    1    3    3    0    0  0.48840837858E+02 -0.94654015597E+02  0.95155297799E+01  0.10693622126E+03  0.00000000000E+00 0.  1.
         11    1    3    3    0    0  0.39063085959E+02 -0.18207700558E+01  0.17475042530E+02  0.42832429299E+02  0.00000000000E+00 0. -1.
         21    1    1    2  502  501 -0.95076192058E+02 -0.30004753198E+02 -0.49629394003E+02  0.11136805763E+03  0.00000000000E+00 0.  1.
<scales pt_clust_5="13000.00000" pt_clust_6="13000.00000" pt_clust_7="13000.00000" pt_clust_8="13000.00000" pt_clust_9="99.69838"></scales>
<clustering>
<clus scale="   68.320">  7  8 -1 -1</clus>
<clus scale="   80.336">  5  6 -1 -1</clus>
<clus scale="   99.698">  2  9  1 -1</clus>
<clus scale="  137.164">  2  7  1 -1</clus>
<clus scale="  143.528">  1  5  2 -1</clus>
</clustering>
</event>
<event>
 9    1  0.2374319E-005  0.1028001E+03  0.7546771E-02  0.1275148E+00
         -2   -1    0    0    0  501 -0.00000000000E+00  0.00000000000E+00  0.29470377216E+03  0.29470377216E+03  0.00000000000E+00 0.  1.
          1   -1    0    0  502    0  0.00000000000E+00 -0.00000000000E+00 -0.87636044790E+02  0.87636044790E+02  0.00000000000E+00 0. -1.
         23    2    1    2    0    0  0.11955932033E+02 -0.43265786555E+02  0.21378856679E+03  0.23679238588E+03  0.91379484147E+02 0.  0.
        -24    2    1    2    0    0 -0.43379680223E+02  0.48284564066E+02 -0.16696061505E+02  0.11219859101E+03  0.89980940045E+02 0.  0.
         11    1    4    4    0    0 -0.41623208249E+02  0.74057499441E+02 -0.15367635560E+02  0.86331737565E+02  0.00000000000E+00 0. -1.
        -12    1    4    4    0    0 -0.17564719746E+01 -0.25772935374E+02 -0.13284259446E+01  0.25866853444E+02  0.00000000000E+00 0.  1.
        -13    1    3    3    0    0  0.25396702478E+01 -0.66634380894E+02  0.99627212553E+02  0.11988399444E+03  0.00000000000E+00 0. -1.
         13    1    3    3    0    0  0.94162617850E+01  0.23368594338E+02  0.11416135424E+03  0.11690839144E+03  0.00000000000E+00 0.  1.
         21    1    1    2  502  501  0.31423748190E+02 -0.50187775112E+01  0.99752220902E+01  0.33348840067E+02  0.00000000000E+00 0.  1.
<scales pt_clust_5="13000.00000" pt_clust_6="13000.00000" pt_clust_7="13000.00000" pt_clust_8="13000.00000" pt_clust_9="31.82201"></scales>
<clustering>
<clus scale="   31.822">  2  9  1 -1</clus>
<clus scale="   89.981">  5  6 -1 -1</clus>
<clus scale="   91.379">  7  8 -1 -1</clus>
<clus scale="  101.559">  2  5  1 -1</clus>
<clus scale="   31.822">  2  5  1 -1</clus>
</clustering>
</event>
<event>
 9    1  0.2374319E-005  0.9764439E+02  0.7546771E-02  0.1292317E+00
          1   -1    0    0  502    0  0.00000000000E+00  0.00000000000E+00  0.21253314748E+03  0.21253314748E+03  0.00000000000E+00 0. -1.
         -2   -1    0    0    0  501 -0.00000000000E+00 -0.00000000000E+00 -0.27273669732E+03  0.27273669732E+03  0.00000000000E+00 0.  1.
        -24    2    1    2    0    0  0.32340410409E+02  0.54810076468E+01 -0.20023467309E+03  0.21779167988E+03  0.79141316179E+02 0.  0.
         23    2    1    2    0    0 -0.26920504694E+02 -0.27025455831E+02 -0.23598755326E+02  0.10234707825E+03  0.91994208175E+02 0.  0.
         13    1    3    3    0    0 -0.22216104817E+02  0.19098035624E+02 -0.74661467267E+02  0.80203646877E+02  0.00000000000E+00 0. -1.
        -14    1    3    3    0    0  0.54556515226E+02 -0.13617027977E+02 -0.12557320582E+03  0.13758803300E+03  0.00000000000E+00 0.  1.
        -11    1    4    4    0    0  0.71627875139E+01  0.20048800075E+02  0.20374574749E+02  0.29468342431E+02  0.00000000000E+00 0. -1.
         11    1    4    4    0    0 -0.34083292208E+02 -0.47074255906E+02 -0.43973330075E+02  0.72878735820E+02  0.00000000000E+00 0.  1.
         21    1    1    2  502  501 -0.54199057146E+01  0.21544448184E+02  0.16362987857E+03  0.16513108667E+03  0.00000000000E+00 0. -1.
<scales pt_clust_5="13000.00000" pt_clust_6="13000.00000" pt_clust_7="13000.00000" pt_clust_8="13000.00000" pt_clust_9="22.21573"></scales>
<clustering>
<clus scale="   22.216">  1  9  2 -1</clus>
<clus scale="   79.141">  5  6 -1 -1</clus>
<clus scale="   85.644">  2  5  1 -1</clus>
<clus scale="   91.994">  7  8 -1 -1</clus>
<clus scale="   22.216">  1  5  2 -1</clus>
</clustering>
</event>
<event>
 9    1  0.2374319E-005  0.9828093E+02  0.7546771E-02  0.1288814E+00
         -2   -1    0    0    0  501 -0.00000000000E+00  0.00000000000E+00  0.21842377320E+03  0.21842377320E+03  0.00000000000E+00 0.  1.
          1   -1    0    0  502    0  0.00000000000E+00 -0.00000000000E+00 -0.74709311885E+02  0.74709311885E+02  0.00000000000E+00 0. -1.
        -24    2    1    2    0    0 -0.80675732262E+01  0.35490207728E+02  0.11389042559E+03  0.14439053649E+03  0.80950339128E+02 0.  0.
         23    2    1    2    0    0 -0.28968330491E+02 -0.47776706685E+02  0.16642666505E+02  0.10755560023E+03  0.90385014909E+02 0.  0.
         13    1    3    3    0    0 -0.15430801239E+02  0.60212185695E+02  0.71227568235E+02  0.94535619793E+02  0.00000000000E+00 0. -1.
        -14    1    3    3    0    0  0.73632280125E+01 -0.24721977966E+02  0.42662857354E+02  0.49854916697E+02  0.00000000000E+00 0.  1.
        -13    1    4    4    0    0  0.15966574407E+02 -0.47032885643E+02 -0.15807106231E+02  0.52123779963E+02  0.00000000000E+00 0.  1.
         13    1    4    4    0    0 -0.44934904898E+02 -0.74382104166E+00  0.32449772736E+02  0.55431820271E+02  0.00000000000E+00 0. -1.
         21    1    1    2  502  501  0.37035903717E+02  0.12286498956E+02  0.13181369222E+02  0.41186948361E+02  0.00000000000E+00 0.  1.
<scales pt_clust_5="13000.00000" pt_clust_6="13000.00000" pt_clust_7="13000.00000" pt_clust_8="13000.00000" pt_clust_9="39.02072"></scales>
<clustering>
<clus scale="   39.021">  2  9  1 -1</clus>
<clus scale="   80.950">  5  6 -1 -1</clus>
<clus scale="   89.681">  1  5  2 -1</clus>
<clus scale="   90.385">  7  8 -1 -1</clus>
<clus scale="   39.021">  2  5  1 -1</clus>
</clustering>
</event>
<event>
 9    1  0.2374319E-005  0.2270238E+03  0.7546771E-02  0.1166062E+00
          1   -1    0    0  502    0  0.00000000000E+00  0.00000000000E+00  0.81812685416E+03  0.81812685416E+03  0.00000000000E+00 0. -1.
         -2   -1    0    0    0  501 -0.00000000000E+00 -0.00000000000E+00 -0.45006696731E+03  0.45006696731E+03  0.00000000000E+00 0.  1.
         23    2    1    2    0    0 -0.15721228461E+03 -0.76055677197E+02  0.59275763206E+03  0.62463315785E+03  0.91130692144E+02 0.  0.
        -24    2    1    2    0    0 -0.14284266461E+02 -0.44175434668E+02  0.17157611222E+03  0.19534246077E+03  0.81023486727E+02 0.  0.
         13    1    4    4    0    0  0.17626768032E+02 -0.56165674338E+02  0.11743795625E+03  0.13136574703E+03  0.00000000000E+00 0. -1.
        -14    1    4    4    0    0 -0.31911034493E+02  0.11990239670E+02  0.54138155968E+02  0.63976713743E+02  0.00000000000E+00 0.  1.
        -11    1    3    3    0    0 -0.20148427558E+02  0.13492808108E+02  0.30174703116E+02  0.38710821638E+02  0.00000000000E+00 0.  1.
         11    1    3    3    0    0 -0.13706385705E+03 -0.89548485305E+02  0.56258292894E+03  0.58592233621E+03  0.00000000000E+00 0. -1.
         21    1    1    2  502  501  0.17149655107E+03  0.12023111187E+03 -0.39627385742E+03  0.44821820285E+03  0.00000000000E+00 0.  1.
<scales pt_clust_5="13000.00000" pt_clust_6="13000.00000" pt_clust_7="13000.00000" pt_clust_8="13000.00000" pt_clust_9="207.93028"></scales>
<clustering>
<clus scale="   81.023">  5  6 -1 -1</clus>
<clus scale="   91.131">  7  8 -1 -1</clus>
<clus scale="   93.383">  1  5  2 -1</clus>
<clus scale="  207.930">  2  9  1 -1</clus>
<clus scale="   93.383">  1  5  2 -1</clus>
</clustering>
</event>
<event>
 9    1  0.2374319E-005  0.1068321E+03  0.7546771E-02  0.1268999E+00
          1   -1    0    0  502    0  0.00000000000E+00  0.00000000000E+00  0.46131233365E+02  0.46131233365E+02  0.00000000000E+00 0. -1.
         -2   -1    0    0    0  501 -0.00000000000E+00 -0.00000000000E+00 -0.62156229265E+03  0.62156229265E+03  0.00000000000E+00 0.  1.
         23    2    1    2    0    0 -0.22105002905E+02 -0.38111853332E+02 -0.28579544422E+03  0.30356803227E+03  0.92376240226E+02 0.  0.
        -24    2    1    2    0    0  0.79242899719E+02  0.12182093845E+02 -0.27563547954E+03  0.29983633857E+03  0.86597181132E+02 0.  0.
         13    1    4    4    0    0  0.51646781258E+02  0.14496302701E+02 -0.52738155552E+02  0.75225300646E+02  0.00000000000E+00 0. -1.
        -14    1    4    4    0    0  0.27596118462E+02 -0.23142088554E+01 -0.22289732399E+03  0.22461103792E+03  0.00000000000E+00 0.  1.
        -11    1    3    3    0    0 -0.20162298390E+02  0.26608370785E+02 -0.14192552504E+03  0.14579910264E+03  0.00000000000E+00 0.  1.
         11    1    3    3    0    0 -0.19427045146E+01 -0.64720224117E+02 -0.14386991918E+03  0.15776892962E+03  0.00000000000E+00 0. -1.
         21    1    1    2  502  501 -0.57137896815E+02  0.25929759487E+02 -0.14000135529E+02  0.64289155184E+02  0.00000000000E+00 0. -1.
<scales pt_clust_5="13000.00000" pt_clust_6="13000.00000" pt_clust_7="13000.00000" pt_clust_8="13000.00000" pt_clust_9="62.74625"></scales>
<clustering>
<clus scale="   62.746">  1  9  2 -1</clus>
<clus scale="   86.597">  5  6 -1 -1</clus>
<clus scale="   92.376">  7  8 -1 -1</clus>
<clus scale="  101.876">  1  5  2 -1</clus>
<clus scale="   62.746">  1  5  2 -1</clus>
</clustering>
</event>
<event>
 9    1  0.2374319E-005  0.1285058E+03  0.7546771E-02  0.1232424E+00
         -2   -1    0    0    0  501 -0.00000000000E+00  0.00000000000E+00  0.63386928419E+02  0.63386928419E+02  0.00000000000E+00 0.  1.
          1   -1    0    0  502    0  0.00000000000E+00 -0.00000000000E+00 -0.51688494447E+03  0.51688494447E+03  0.00000000000E+00 0. -1.
        -24    2    1    2    0    0  0.93193375508E+02 -0.40803289100E+00 -0.42348390570E+02  0.13083752516E+03  0.81485582012E+02 0.  0.
         23    2    1    2    0    0 -0.80924026815E+02 -0.29005999915E+02 -0.20217686198E+03  0.23804527959E+03  0.91651652847E+02 0.  0.
         13    1    3    3    0    0  0.60988374124E+02 -0.37414675310E+02 -0.10420464298E+02  0.72305088223E+02  0.00000000000E+00 0. -1.
        -14    1    3    3    0    0  0.32205001384E+02  0.37006642419E+02 -0.31927926272E+02  0.58532436933E+02  0.00000000000E+00 0.  1.
        -11    1    4    4    0    0 -0.69601726604E+02 -0.58993962291E+02 -0.16807798199E+03  0.19124564299E+03  0.00000000000E+00 0. -1.
         11    1    4    4    0    0 -0.11322300211E+02  0.29987962377E+02 -0.34098879990E+02  0.46799636603E+02  0.00000000000E+00 0.  1.
         21    1    1    2  502  501 -0.12269348692E+02  0.29414032806E+02 -0.20897276350E+03  0.21138906814E+03  0.00000000000E+00 0.  1.
<scales pt_clust_5="13000.00000" pt_clust_6="13000.00000" pt_clust_7="13000.00000" pt_clust_8="13000.00000" pt_clust_9="31.87040"></scales>
<clustering>
<clus scale="   31.870">  2  9  1 -1</clus>
<clus scale="   81.486">  5  6 -1 -1</clus>
<clus scale="   91.652">  7  8 -1 -1</clus>
<clus scale="  121.464">  1  5  2 -1</clus>
<clus scale="   31.870">  2  5  1 -1</clus>
</clustering>
</event>
<event>
 9    1  0.2374319E-005  0.1195593E+03  0.7546771E-02  0.1248268E+00
          3   -1    0    0  502    0  0.00000000000E+00  0.00000000000E+00  0.63227358098E+02  0.63227358098E+02  0.00000000000E+00 0. -1.
         -4   -1    0    0    0  501 -0.00000000000E+00 -0.00000000000E+00 -0.11511701237E+04  0.11511701237E+04  0.00000000000E+00 0.  1.
        -24    2    1    2    0    0 -0.51050347428E+02 -0.56721474073E+02 -0.10336712531E+04  0.10394527320E+04  0.78500057445E+02 0.  0.
         23    2    1    2    0    0  0.65427245385E+02  0.40182545017E+02 -0.77635902099E+02  0.14291154721E+03  0.92200952650E+02 0.  0.
         13    1    3    3    0    0 -0.45797872213E+02 -0.52006008390E+02 -0.41534141310E+03  0.42108260406E+03  0.00000000000E+00 0. -1.
        -14    1    3    3    0    0 -0.52524752151E+01 -0.47154656830E+01 -0.61832984000E+03  0.61837012795E+03  0.00000000000E+00 0.  1.
        -11    1    4    4    0    0  0.28462957769E+02  0.39355213940E+02  0.83790118621E+01  0.49286718992E+02  0.00000000000E+00 0. -1.
         11    1    4    4    0    0  0.36964287617E+02  0.82733107652E+00 -0.86014913961E+02  0.93624828221E+02  0.00000000000E+00 0.  1.
         21    1    1    2  502  501 -0.14376897958E+02  0.16538929056E+02  0.23364389563E+02  0.32033202601E+02  0.00000000000E+00 0. -1.
<scales pt_clust_5="13000.00000" pt_clust_6="13000.00000" pt_clust_7="13000.00000" pt_clust_8="13000.00000" pt_clust_9="21.91418"></scales>
<clustering>
<clus scale="   21.914">  1  9  2 -1</clus>
<clus scale="   78.500">  5  6 -1 -1</clus>
<clus scale="   92.201">  7  8 -1 -1</clus>
<clus scale="  109.342">  2  5  1 -1</clus>
<clus scale="   21.914">  1  5  2 -1</clus>
</clustering>
</event>
<event>
 9    1  0.2374319E-005  0.2849143E+03  0.7546771E-02  0.1093423E+00
          1   -1    0    0  502    0  0.00000000000E+00  0.00000000000E+00  0.19338998568E+04  0.19338998568E+04  0.00000000000E+00 0. -1.
         -2   -1    0    0    0  501 -0.00000000000E+00 -0.00000000000E+00 -0.84283121915E+02  0.84283121915E+02  0.00000000000E+00 0.  1.
         23    2    1    2    0    0 -0.11632447172E+03  0.26134482328E+03  0.25065772438E+03  0.39076419365E+03  0.89637385443E+02 0.  0.
        -24    2    1    2    0    0  0.71236711971E+02 -0.19917631718E+03  0.12096638306E+04  0.12306208940E+04  0.79970790448E+02 0.  0.
         11    1    4    4    0    0  0.24310779303E+02 -0.11459716032E+03  0.45736543340E+03  0.47212992154E+03  0.00000000000E+00 0. -1.
        -12    1    4    4    0    0  0.46925932667E+02 -0.84579156852E+02  0.75229839721E+03  0.75849097251E+03  0.00000000000E+00 0.  1.
        -13    1    3    3    0    0 -0.11026440398E+03  0.21688111358E+03  0.24542536988E+03  0.34558539956E+03  0.00000000000E+00 0.  1.
         13    1    3    3    0    0 -0.60600677454E+01  0.44463709699E+02  0.52323545043E+01  0.45178794084E+02  0.00000000000E+00 0. -1.
         21    1    1    2  502  501  0.45087759750E+02 -0.62168506103E+02  0.38929517991E+03  0.39679789103E+03  0.00000000000E+00 0. -1.
<scales pt_clust_5="13000.00000" pt_clust_6="13000.00000" pt_clust_7="13000.00000" pt_clust_8="13000.00000" pt_clust_9="76.79733"></scales>
<clustering>
<clus scale="   76.797">  1  9  2 -1</clus>
<clus scale="   79.971">  5  6 -1 -1</clus>
<clus scale="   89.637">  7  8 -1 -1</clus>
<clus scale="  282.022">  1  5  2 -1</clus>
<clus scale="   76.797">  1  5  2 -1</clus>
</clustering>
</event>
<event>
 9    1  0.2374319E-005  0.1088561E+03  0.7546771E-02  0.1265815E+00
          1   -1    0    0  502    0  0.00000000000E+00  0.00000000000E+00  0.54257183140E+03  0.54257183140E+03  0.00000000000E+00 0. -1.
         -2   -1    0    0    0  501 -0.00000000000E+00 -0.00000000000E+00 -0.30017911839E+02  0.30017911839E+02  0.00000000000E+00 0.  1.
        -24    2    1    2    0    0 -0.67504526090E+02 -0.17862992032E+02  0.15798586140E+03  0.19027320527E+03  0.79802335277E+02 0.  0.
         23    2    1    2    0    0  0.59004525959E+02 -0.16208619187E+02  0.24871046052E+03  0.27078647174E+03  0.87887238478E+02 0.  0.
         13    1    3    3    0    0 -0.29190519959E+02 -0.27250353800E+02  0.14234154086E+03  0.14783701326E+03  0.00000000000E+00 0. -1.
        -14    1    3    3    0    0 -0.38314006131E+02  0.93873617677E+01  0.15644320540E+02  0.42436192005E+02  0.00000000000E+00 0.  1.
        -13    1    4    4    0    0  0.28445630652E+02 -0.43910695364E+02  0.70079080270E+02  0.87455020222E+02  0.00000000000E+00 0.  1.
         13    1    4    4    0    0  0.30558895307E+02  0.27702076176E+02  0.17863138025E+03  0.18333145152E+03  0.00000000000E+00 0. -1.
         21    1    1    2  502  501  0.85000001308E+01  0.34071611219E+02  0.10585759764E+03  0.11153006622E+03  0.00000000000E+00 0. -1.
<scales pt_clust_5="13000.00000" pt_clust_6="13000.00000" pt_clust_7="13000.00000" pt_clust_8="13000.00000" pt_clust_9="35.11588"></scales>
<clustering>
<clus scale="   35.116">  1  9  2 -1</clus>
<clus scale="   79.802">  5  6 -1 -1</clus>
<clus scale="   87.887">  7  8 -1 -1</clus>
<clus scale="  102.440">  2  5  1 -1</clus>
<clus scale="   35.116">  1  5  2 -1</clus>
</clustering>
</event>
<event>
 9    1  0.2374319E-005  0.9267176E+02  0.7546771E-02  0.1301798E+00
          1   -1    0    0  502    0  0.00000000000E+00  0.00000000000E+00  0.46891606728E+03  0.46891606728E+03  0.00000000000E+00 0. -1.
         -2   -1    0    0    0  501 -0.00000000000E+00 -0.00000000000E+00 -0.25239212036E+02  0.25239212036E+02  0.00000000000E+00 0.  1.
        -24    2    1    2    0    0 -0.10370091574E+02  0.14840276329E+02  0.96581911983E+02  0.12719536021E+03  0.80763985394E+02 0.  0.
         23    2    1    2    0    0  0.29303455542E+02 -0.21888916613E+02  0.25759748073E+03  0.27521052455E+03  0.89702583954E+02 0.  0.
         13    1    3    3    0    0 -0.81283320586E+00  0.45162063519E+02  0.78641424473E+02  0.90690387154E+02  0.00000000000E+00 0. -1.
        -14    1    3    3    0    0 -0.95572583681E+01 -0.30321787190E+02  0.17940487510E+02  0.36504973059E+02  0.00000000000E+00 0.  1.
        -13    1    4    4    0    0  0.63796816658E+01  0.27284626093E+02  0.16910259615E+03  0.17140839881E+03  0.00000000000E+00 0. -1.
         13    1    4    4    0    0  0.22923773877E+02 -0.49173542705E+02  0.88494884586E+02  0.10380212574E+03  0.00000000000E+00 0.  1.
         21    1    1    2  502  501 -0.18933363969E+02  0.70486402837E+01  0.89497462530E+02  0.91749394550E+02  0.00000000000E+00 0. -1.
<scales pt_clust_5="13000.00000" pt_clust_6="13000.00000" pt_clust_7="13000.00000" pt_clust_8="13000.00000" pt_clust_9="20.20286"></scales>
<clustering>
<clus scale="   20.203">  1  9  2 -1</clus>
<clus scale="   80.764">  5  6 -1 -1</clus>
<clus scale="   84.050">  2  5  1 -1</clus>
<clus scale="   89.703">  7  8 -1 -1</clus>
<clus scale="   20.203">  1  5  2 -1</clus>
</clustering>
</event>
<event>
 9    1  0.2374319E-005  0.8735843E+02  0.7546771E-02  0.1312748E+00
         -2   -1    0    0    0  501 -0.00000000000E+00  0.00000000000E+00  0.11092540353E+03  0.11092540353E+03  0.00000000000E+00 0.  1.
          1   -1    0    0  502    0  0.00000000000E+00 -0.00000000000E+00 -0.25691122742E+03  0.25691122742E+03  0.00000000000E+00 0. -1.
        -24    2    1    2    0    0  0.12641244903E+02  0.30557965161E+01  0.60778084683E+02  0.10167164578E+03  0.80461226771E+02 0.  0.
         23    2    1    2    0    0 -0.19025081882E+02 -0.32580620190E+02 -0.49349293819E+02  0.10587827479E+03  0.85740338925E+02 0.  0.
         11    1    3    3    0    0  0.25975061408E+02  0.35855030026E+02  0.22989599892E+02  0.49887961439E+02  0.00000000000E+00 0. -1.
        -12    1    3    3    0    0 -0.13333816505E+02 -0.32799233510E+02  0.37788484791E+02  0.51783684344E+02  0.00000000000E+00 0.  1.
        -13    1    4    4    0    0  0.19272404491E+02 -0.47813230531E+02 -0.34676195191E+02  0.62128649604E+02  0.00000000000E+00 0.  1.
         13    1    4    4    0    0 -0.38297486374E+02  0.15232610341E+02 -0.14673098627E+02  0.43749625183E+02  0.00000000000E+00 0. -1.
         21    1    1    2  502  501  0.63838369793E+01  0.29524823674E+02 -0.15741461475E+03  0.16028671038E+03  0.00000000000E+00 0. -1.
<scales pt_clust_5="13000.00000" pt_clust_6="13000.00000" pt_clust_7="13000.00000" pt_clust_8="13000.00000" pt_clust_9="30.20709"></scales>
<clustering>
<clus scale="   30.207">  2  9  1 -1</clus>
<clus scale="   80.461">  5  6 -1 -1</clus>
<clus scale="   82.183">  1  5  2 -1</clus>
<clus scale="   85.740">  7  8 -1 -1</clus>
<clus scale="   30.207">  2  5  1 -1</clus>
</clustering>
</event>
<event>
 9    1  0.2374319E-005  0.9082375E+02  0.7546771E-02  0.1304291E+00
          1   -1    0    0  502    0  0.00000000000E+00  0.00000000000E+00  0.32067533774E+03  0.32067533774E+03  0.00000000000E+00 0. -1.
         -2   -1    0    0    0  501 -0.00000000000E+00 -0.00000000000E+00 -0.65574112231E+02  0.65574112231E+02  0.00000000000E+00 0.  1.
        -24    2    1    2    0    0  0.56540740386E+02  0.17587914576E+02  0.42048632813E+02  0.11180838216E+03  0.85010803653E+02 0.  0.
         23    2    1    2    0    0  0.10375623997E+02  0.82993539438E+01  0.16306177307E+03  0.18699375487E+03  0.90559315780E+02 0.  0.
         13    1    3    3    0    0  0.66539634811E+02  0.39659105984E+02  0.40789712740E+02  0.87545236042E+02  0.00000000000E+00 0. -1.
        -14    1    3    3    0    0 -0.99988944246E+01 -0.22071191409E+02  0.12589200734E+01  0.24263146120E+02  0.00000000000E+00 0.  1.
        -13    1    4    4    0    0 -0.14396907598E+02  0.41899424980E+02  0.11552694767E+03  0.12373079003E+03  0.00000000000E+00 0. -1.
         13    1    4    4    0    0  0.24772531595E+02 -0.33600071037E+02  0.47534825399E+02  0.63262964846E+02  0.00000000000E+00 0.  1.
         21    1    1    2  502  501 -0.66916364383E+02 -0.25887268519E+02  0.49990819628E+02  0.87447312942E+02  0.00000000000E+00 0.  1.
<scales pt_clust_5="13000.00000" pt_clust_6="13000.00000" pt_clust_7="13000.00000" pt_clust_8="13000.00000" pt_clust_9="71.74922"></scales>
<clustering>
<clus scale="   71.749">  2  9  1 -1</clus>
<clus scale="   85.011">  5  6 -1 -1</clus>
<clus scale="   85.292">  2  5  1 -1</clus>
<clus scale="   90.559">  7  8 -1 -1</clus>
<clus scale="   90.824">  1  5  2 -1</clus>
</clustering>
</event>
